Membrane in water
40347
    1TMC1    C1    1   0.482   3.342  11.804  0.3147  0.6707  0.1172
    1TMC1    C2    2   0.584   3.348  11.897 -0.1612  0.0895 -0.4857
    1TMC1    C3    3   0.617   3.474  11.950 -0.5039 -0.6357 -0.0246
    1TMC1    C4    4   0.433   3.455  11.743 -0.2603  0.3616  0.1147
    1TMC1    C5    5   0.475   3.582  11.791  0.3356  0.5820 -0.5530
    1TMC1    C6    6   0.562   3.589  11.893 -1.1548 -0.3826  0.1700
    1TMC1     C    7   0.422   3.214  11.766  0.3861 -0.7357 -0.5055
    1TMC1     O    8   0.308   3.229  11.714  0.2513 -0.3963 -0.0428
    1TMC1     H    9   0.643   3.260  11.919 -0.0655  0.9865  2.8972
    1TMC1    H1   10   0.371   3.450  11.655 -0.5344 -1.7310  0.4211
    1TMC1    H2   11   0.598   3.686  11.925 -0.7905 -0.9348  1.4428
    1TMC1    C7   12   0.399   3.702  11.763  0.2325 -0.1421 -0.2243
    1TMC1    C8   13   0.725   3.500  12.034 -0.8373 -0.1225 -0.5213
    1TMC1    O1   14   0.439   3.811  11.800  0.0519  0.0798 -0.3110
    1TMC1    O2   15   0.746   3.616  12.076  0.4655 -0.1397 -0.1489
    1TMC1    O3   16   0.282   3.684  11.707  0.0787 -0.0160 -0.1964
    1TMC1    H3   17   0.261   3.593  11.675  0.4039 -1.6679  4.2375
    1TMC1    O5   18   0.796   3.386  12.045  0.1021 -0.4596  0.1400
    1TMC1    H5   19   0.871   3.398  12.107 -2.6374  2.7288  2.8886
    2MPD2     C   20   0.369   2.716  11.764 -0.4422  0.4267  0.2354
    2MPD2    C1   21   0.280   2.817  11.764 -0.1365 -0.3779 -0.3954
    2MPD2    C2   22   0.315   2.949  11.786  0.1011  1.0733  0.3898
    2MPD2    C3   23   0.449   2.975  11.787  0.6855  0.2745  0.0457
    2MPD2    C4   24   0.543   2.874  11.793  0.5256 -0.5540 -0.7306
    2MPD2    C5   25   0.504   2.741  11.772  0.1490  0.2175 -0.2459
    2MPD2     H   26   0.240   3.027  11.789 -0.8956  0.2234 -2.2800
    2MPD2    H1   27   0.651   2.888  11.800  0.1759  0.8434  1.7629
    2MPD2    H2   28   0.354   2.610  11.749 -2.4764  0.4478  2.0890
    2MPD2    H3   29   0.571   2.657  11.767 -0.6431 -0.4852  1.1369
    2MPD2     N   30   0.499   3.103  11.779 -0.4692 -0.2678 -0.0138
    2MPD2    H5   31   0.598   3.103  11.801 -0.1507  0.2101 -1.4345
    2MPD2    N1   32   0.141   2.789  11.751  0.3173  0.1580 -0.1627
    2MPD2    H7   33   0.081   2.871  11.749  0.2365  0.1668  3.2172
    3TMC1    C1   34   4.092   3.952  10.590  0.5073 -0.1273  0.0628
    3TMC1    C2   35   4.113   4.082  10.548  0.1798  0.0179 -0.0853
    3TMC1    C3   36   4.187   4.096  10.428 -0.8150 -0.3389 -0.1840
    3TMC1    C4   37   4.143   3.843  10.520  0.5470 -0.1427  0.5806
    3TMC1    C5   38   4.215   3.865  10.402 -0.2439  0.2098 -0.0581
    3TMC1    C6   39   4.251   3.987  10.365 -0.7880 -1.3324 -0.0600
    3TMC1     C   40   4.025   3.907  10.708  0.2425  0.0689  0.1211
    3TMC1     O   41   4.058   3.797  10.753  0.5648  0.2110  0.1932
    3TMC1     H   42   4.061   4.154  10.611 -1.4509 -1.7111  0.5589
    3TMC1    H1   43   4.131   3.741  10.555  2.6271 -0.4531  0.3711
    3TMC1    H2   44   4.318   4.010  10.284 -0.5035 -0.0262  0.5515
    3TMC1    C7   45   4.312   3.761  10.369 -0.5468  0.4116  0.7702
    3TMC1    C8   46   4.233   4.223  10.380 -0.1166 -0.2045 -0.3917
    3TMC1    O1   47   4.275   3.653  10.329 -0.3267 -0.8098 -0.1958
    3TMC1    O2   48   4.310   4.234  10.284 -0.2979  0.4776 -0.0420
    3TMC1    O3   49   4.431   3.817  10.357 -0.3272 -0.1915  0.0594
    3TMC1    H3   50   4.460   3.893  10.412  0.0334 -1.2755  1.3725
    3TMC1    O5   51   4.144   4.315  10.410  0.1300  0.2713 -0.2162
    3TMC1    H5   52   4.088   4.291  10.487 -1.2206 -0.7332 -1.5166
    4MPD2     C   53   3.729   3.967  11.127 -0.3078 -0.3382  0.0699
    4MPD2    C1   54   3.741   4.087  11.066  0.7767 -0.1992  0.5663
    4MPD2    C2   55   3.807   4.095  10.948 -0.6694  0.2216  0.2985
    4MPD2    C3   56   3.876   3.986  10.892 -0.2988  0.0027 -0.0819
    4MPD2    C4   57   3.858   3.863  10.953 -0.1642 -0.5929  0.5581
    4MPD2    C5   58   3.788   3.855  11.069  1.4014 -0.4432  0.3764
    4MPD2     H   59   3.823   4.190  10.897 -0.1232 -0.2677 -0.4403
    4MPD2    H1   60   3.896   3.772  10.909 -0.8607 -0.5294 -0.1723
    4MPD2    H2   61   3.672   3.958  11.218 -0.4784 -0.3478 -0.0380
    4MPD2    H3   62   3.770   3.757  11.111 -1.0811 -0.3626 -0.5457
    4MPD2     N   63   3.949   4.002  10.772 -0.1920 -0.5249 -0.3612
    4MPD2    H5   64   3.933   4.094  10.731 -1.1561 -0.7012 -0.3606
    4MPD2    N1   65   3.695   4.205  11.132 -0.1361 -0.1608  0.3072
    4MPD2    H7   66   3.716   4.295  11.090  1.9046 -1.2877 -1.0877
    5TCq1    O1   67   0.762   0.483  12.370 -0.3204 -0.3112  0.0119
    5TCq1    C1   68   0.701   0.366  12.342 -0.8374  0.0631 -1.7272
    5TCq1    O2   69   0.753   0.275  12.286  1.1851 -0.7523  0.3017
    5TCq1    C2   70   0.557   0.385  12.323 -0.9934  0.0603 -0.0940
    5TCq1    C3   71   0.476   0.433  12.422 -0.0848 -0.3186 -0.4137
    5TCq1    C4   72   0.349   0.476  12.387  0.4736  0.1763 -0.2539
    5TCq1    C5   73   0.306   0.468  12.250  0.4363  0.8054 -0.5905
    5TCq1    C6   74   0.391   0.409  12.158  0.9084  0.0050 -0.0017
    5TCq1    C7   75   0.520   0.361  12.195 -0.3790 -0.7804 -0.4965
    5TCq1    C8   76   0.367   0.417  12.011  0.2092 -0.6765 -0.5229
    5TCq1    O4   77   0.450   0.383  11.932  0.4434 -0.0502 -0.0802
    5TCq1    C9   78   0.259   0.539  12.488  0.1195  0.4725 -0.6644
    5TCq1    O5   79   0.313   0.564  12.604 -0.6634  0.4015 -0.2639
    5TCq1    O6   80   0.138   0.548  12.464  0.2157  1.2325  0.0748
    5TCq1    H1   81   0.693   0.533  12.417  2.4107  2.6976  0.8368
    5TCq1    H2   82   0.526   0.460  12.514  1.5579  0.7860 -1.6322
    5TCq1    H3   83   0.212   0.514  12.219  0.6591  0.4018 -1.8927
    5TCq1    H4   84   0.591   0.333  12.119 -0.1222 -1.7605  0.1102
    6MPD2     C   85   0.037   0.402  11.870 -0.4786 -0.6138 -0.5035
    6MPD2    C1   86   0.174   0.403  11.859 -0.3930 -0.2809 -0.8514
    6MPD2    C2   87   0.239   0.357  11.740  0.1579 -1.0073  0.2740
    6MPD2    C3   88   0.158   0.339  11.633 -0.4852  0.4757  0.5982
    6MPD2    C4   89   0.023   0.320  11.642 -0.3850 -0.2032  0.3926
    6MPD2    C5   90   4.699   0.353  11.760  0.7672  0.2013  0.6429
    6MPD2     H   91   0.347   0.361  11.735  0.1029 -0.6704 -0.7704
    6MPD2    H1   92   4.693   0.284  11.561 -0.5573  2.9059 -0.8379
    6MPD2    H2   93   4.718   0.427  11.962 -1.4864  0.6639 -1.4024
    6MPD2    H3   94   4.592   0.336  11.765  1.7161 -5.9227  0.0562
    6MPD2     N   95   0.230   0.337  11.502  0.0311  0.3661 -0.7379
    6MPD2    H5   96   0.328   0.361  11.501 -0.1676  1.3594  1.3842
    6MPD2    N1   97   0.236   0.421  11.984 -0.1341  0.2027  0.2019
    6MPD2    H7   98   0.173   0.441  12.060  0.4233  2.6550  0.0098
    7TCq1    O1   99   1.901   1.059  13.304 -0.0788 -0.4759 -0.1342
    7TCq1    C1  100   1.984   1.000  13.392  0.2561 -0.6912  0.2977
    7TCq1    O2  101   2.027   1.057  13.492  0.3126  0.2037 -0.0557
    7TCq1    C2  102   1.949   0.856  13.385  0.1673 -0.4700 -0.2135
    7TCq1    C3  103   1.827   0.814  13.348  0.3970 -0.1191 -0.7343
    7TCq1    C4  104   1.803   0.684  13.361  0.0698 -0.2697 -0.3878
    7TCq1    C5  105   1.893   0.595  13.409  0.0088  0.2713  0.3263
    7TCq1    C6  106   2.022   0.632  13.441  0.2509 -0.2247 -0.4917
    7TCq1    C7  107   2.049   0.764  13.425  0.1719 -0.8241  0.4036
    7TCq1    C8  108   2.117   0.528  13.463  0.3480  0.2440 -0.1203
    7TCq1    O4  109   2.077   0.415  13.471 -0.3773  0.8525 -0.5716
    7TCq1    C9  110   1.677   0.633  13.311  0.3606 -0.2191 -0.1582
    7TCq1    O5  111   1.640   0.522  13.352  0.0008  0.2878 -0.3743
    7TCq1    O6  112   1.610   0.711  13.236 -0.4727 -0.1013 -0.0105
    7TCq1    H1  113   1.879   1.004  13.226  0.9877  0.1318 -0.8723
    7TCq1    H2  114   1.746   0.879  13.317  0.2809 -0.2362 -0.6732
    7TCq1    H3  115   1.872   0.489  13.420 -1.3288  0.6918  1.8270
    7TCq1    H4  116   2.153   0.793  13.435  0.1310 -0.2521 -0.8167
    8MPD2     C  117   2.606   0.381  13.515 -0.4623 -0.1423 -0.5363
    8MPD2    C1  118   2.503   0.307  13.465  0.7206 -0.4052 -0.5216
    8MPD2    C2  119   2.379   0.378  13.452 -0.3331 -0.9390  0.0085
    8MPD2    C3  120   2.364   0.510  13.491  0.0546  0.9132 -0.2106
    8MPD2    C4  121   2.474   0.581  13.523 -0.0573 -0.1475 -0.2130
    8MPD2    C5  122   2.590   0.513  13.542  0.2380 -0.0437  0.5393
    8MPD2     H  123   2.290   0.332  13.412  0.5770 -2.1903 -0.6082
    8MPD2    H1  124   2.469   0.683  13.557  0.2861  0.3104 -1.5391
    8MPD2    H2  125   2.702   0.335  13.531 -0.4062 -0.1668 -0.9493
    8MPD2    H3  126   2.665   0.581  13.579 -0.5157  2.0637 -1.7702
    8MPD2     N  127   2.241   0.579  13.480 -0.0804 -0.1592 -0.0044
    8MPD2    H5  128   2.255   0.680  13.477 -0.3368 -0.1130  0.4706
    8MPD2    N1  129   2.526   0.173  13.422 -0.4794 -0.3567 -0.6831
    8MPD2    H7  130   2.621   0.148  13.445 -0.5317 -0.5000 -0.6264
    9TMC1    C1  131   4.665   3.892  10.819  0.1167  0.6455 -0.1718
    9TMC1    C2  132   4.551   3.818  10.824  0.4812 -0.1388 -0.0077
    9TMC1    C3  133   4.533   3.729  10.729  0.2264  0.1755  0.3020
    9TMC1    C4  134   0.029   3.866  10.714 -0.2920  0.6196  0.3440
    9TMC1    C5  135   0.005   3.775  10.617 -0.6477 -0.3731  0.6039
    9TMC1    C6  136   4.623   3.701  10.625 -0.2587 -0.0118 -0.4509
    9TMC1     C  137   4.702   3.968  10.934  0.4735 -0.2484 -0.3224
    9TMC1     O  138   0.050   4.060  10.929 -0.0678  0.0181 -0.0459
    9TMC1     H  139   4.466   3.843  10.886  1.0379  0.1437  0.6462
    9TMC1    H1  140   0.120   3.924  10.713  0.8613 -1.2158 -0.1536
    9TMC1    H2  141   4.611   3.609  10.569  1.0268 -1.0942  1.0443
    9TMC1    C7  142   0.118   3.730  10.528  0.2600 -0.3409 -0.4818
    9TMC1    C8  143   4.423   3.631  10.742  0.2264 -0.6496 -0.3385
    9TMC1    O1  144   0.090   3.667  10.423  0.2208 -0.2263 -0.3783
    9TMC1    O2  145   4.377   3.568  10.650 -0.3035 -0.0539 -0.0472
    9TMC1    O3  146   0.233   3.707  10.601  0.3813 -0.0770  0.0309
    9TMC1    H3  147   0.231   3.744  10.691  1.9451 -2.0877  0.8793
    9TMC1    O5  148   4.424   3.583  10.872 -0.6183 -0.0395 -0.4497
    9TMC1    H5  149   4.493   3.622  10.930 -0.1001  1.1518 -1.8857
   10MPD2     C  150   4.648   4.134  11.177  0.3196  0.7249  0.2862
   10MPD2    C1  151   4.599   4.008  11.159  0.4729 -0.7321  0.0596
   10MPD2    C2  152   4.525   3.952  11.262 -0.1406  0.6653  0.3959
   10MPD2    C3  153   4.483   4.032  11.364  0.6832 -0.2721  0.6656
   10MPD2    C4  154   4.533   4.160  11.376 -0.6927 -1.3374  0.1361
   10MPD2    C5  155   4.612   4.214  11.282 -0.1619 -0.5613  0.0016
   10MPD2     H  156   4.487   3.852  11.247  3.9392 -0.8864  0.4519
   10MPD2    H1  157   4.512   4.214  11.467  0.1841  2.3258 -1.8352
   10MPD2    H2  158   4.710   4.187  11.105  0.2461  1.1757  0.5584
   10MPD2    H3  159   4.660   4.310  11.292  1.1477 -1.3574  1.4006
   10MPD2     N  160   4.390   3.973  11.461  0.1842  0.2254  0.5187
   10MPD2    H5  161   4.377   4.027  11.546  0.6107 -0.4708  1.0259
   10MPD2    N1  162   4.628   3.933  11.044 -0.2700  0.7074 -0.2276
   10MPD2    H7  163   4.588   3.840  11.036  0.1030  0.6651 -1.6807
   11TCq1    O1  164   0.344   3.246  14.346  0.3835  0.4761  0.3845
   11TCq1    C1  165   0.236   3.196  14.411 -0.0529 -0.7554 -0.0770
   11TCq1    O2  166   0.229   3.093  14.477  0.7738  0.1748 -0.1921
   11TCq1    C2  167   0.113   3.240  14.343  0.1132  0.0091 -0.0566
   11TCq1    C3  168   0.101   3.376  14.309 -0.3606  0.2777 -0.0684
   11TCq1    C4  169   4.722   3.418  14.238  0.0808  0.2821  0.1883
   11TCq1    C5  170   4.627   3.327  14.200 -0.2573  0.3824 -0.0492
   11TCq1    C6  171   4.642   3.197  14.238 -0.1288 -0.0470 -0.0073
   11TCq1    C7  172   0.014   3.147  14.306  0.2950 -0.5526  0.2147
   11TCq1    C8  173   4.539   3.105  14.192 -0.6645  0.4477  0.3963
   11TCq1    O4  174   4.454   3.159  14.126 -0.2089 -0.0846 -0.1647
   11TCq1    C9  175   4.705   3.557  14.202 -0.0928  0.7218 -0.6230
   11TCq1    O5  176   0.034   3.643  14.270  0.4177 -0.2989  0.4880
   11TCq1    O6  177   4.666   3.575  14.084  0.5833 -0.6491  0.4595
   11TCq1    H1  178   0.331   3.300  14.265  2.0110 -0.2600 -0.3474
   11TCq1    H2  179   0.163   3.458  14.343 -0.8781  0.1366  1.2447
   11TCq1    H3  180   4.541   3.371  14.150 -0.4473  1.0996  0.8936
   11TCq1    H4  181   0.020   3.048  14.351 -0.2862 -0.3561  0.7070
   12MPD2     C  182   4.382   2.876  14.077  0.4053 -0.3243 -0.8738
   12MPD2    C1  183   4.512   2.866  14.134 -0.2803 -0.0955 -0.4769
   12MPD2    C2  184   4.577   2.744  14.127 -0.0151  1.0013  0.3510
   12MPD2    C3  185   4.513   2.638  14.060 -0.2355  0.8068 -0.0647
   12MPD2    C4  186   4.400   2.662  13.983  0.2067  0.1394  0.3980
   12MPD2    C5  187   4.325   2.776  14.001 -0.2442  0.2401  0.2782
   12MPD2     H  188   4.676   2.730  14.167 -0.0501  2.0031  0.7746
   12MPD2    H1  189   4.365   2.591  13.910 -1.5963  1.2282  0.2010
   12MPD2    H2  190   4.320   2.964  14.083 -1.0655 -1.5904  2.3536
   12MPD2    H3  191   4.232   2.798  13.949 -1.1642 -2.4652  0.7908
   12MPD2     N  192   4.577   2.511  14.041  0.2537  0.0186 -0.2960
   12MPD2    H5  193   4.538   2.458  13.963 -1.8634  2.2844 -0.8272
   12MPD2    N1  194   4.584   2.976  14.192 -0.4167  0.0067 -0.7366
   12MPD2    H7  195   4.676   2.959  14.231 -1.0977 -2.3452 -0.1628
   13TCq1    O1  196   0.391   3.639  11.411  0.0335 -0.2160 -0.2591
   13TCq1    C1  197   0.357   3.522  11.352 -0.7384  0.2465 -0.6192
   13TCq1    O2  198   0.306   3.430  11.416  0.3989  0.3448 -0.4155
   13TCq1    C2  199   0.282   3.561  11.238  0.2759 -0.3367 -0.4809
   13TCq1    C3  200   0.351   3.611  11.130 -0.8754 -0.0753 -0.4384
   13TCq1    C4  201   0.279   3.652  11.014 -0.4718 -0.1005 -0.3054
   13TCq1    C5  202   0.140   3.650  11.014 -0.3084  0.0196  0.1868
   13TCq1    C6  203   0.083   3.611  11.133  0.2389  0.0673 -0.4224
   13TCq1    C7  204   0.147   3.571  11.247  0.1766 -0.3850  0.2406
   13TCq1    C8  205   4.669   3.589  11.133 -0.2015  0.4566 -0.6504
   13TCq1    O4  206   4.591   3.654  11.066  0.6438  0.0561 -1.2340
   13TCq1    C9  207   0.349   3.707  10.903  0.4376  0.3653  0.4214
   13TCq1    O5  208   0.292   3.782  10.825  0.2350 -0.3871 -0.0665
   13TCq1    O6  209   0.470   3.679  10.901  0.8878  0.4210 -0.1820
   13TCq1    H1  210   0.421   3.705  11.344 -0.3502 -0.2596 -0.4735
   13TCq1    H2  211   0.459   3.601  11.133 -0.7740  1.4249  0.7949
   13TCq1    H3  212   0.087   3.666  10.921 -1.4658  1.3763  1.0658
   13TCq1    H4  213   0.099   3.542  11.339 -0.9528 -2.1501 -0.9026
   14MPD2     C  214   4.537   3.291  11.283  0.2154 -0.2233  0.4500
   14MPD2    C1  215   4.526   3.414  11.227  0.3943 -0.0678 -0.7376
   14MPD2    C2  216   4.403   3.478  11.220 -0.0310  0.5765 -0.3750
   14MPD2    C3  217   4.292   3.409  11.261  0.0759 -0.9003  0.3339
   14MPD2    C4  218   4.303   3.285  11.320 -0.3928 -0.0261  0.3400
   14MPD2    C5  219   4.424   3.224  11.320 -0.2955  0.6219  0.4365
   14MPD2     H  220   4.394   3.578  11.180  0.6199  0.4621 -0.7991
   14MPD2    H1  221   4.217   3.219  11.333  0.0609 -0.7740 -0.4457
   14MPD2    H2  222   4.631   3.237  11.290 -0.2710 -1.1612 -0.1876
   14MPD2    H3  223   4.437   3.125  11.363 -0.8616  1.2364  1.9878
   14MPD2     N  224   4.170   3.479  11.250 -0.4465 -0.2822 -0.9866
   14MPD2    H5  225   4.169   3.578  11.230 -0.7953 -0.3911 -1.5025
   14MPD2    N1  226   4.646   3.466  11.194  0.0667 -0.1205 -0.2212
   14MPD2    H7  227   4.727   3.411  11.223 -0.5413 -0.7368  0.3132
   15TCq1    O1  228   2.968   3.244   2.239  0.2208  0.7192 -0.3705
   15TCq1    C1  229   2.912   3.182   2.128 -0.0086  0.1857 -0.1362
   15TCq1    O2  230   2.975   3.146   2.029  0.5379 -0.6828 -0.2998
   15TCq1    C2  231   2.766   3.142   2.154 -0.3002 -0.4859 -0.3670
   15TCq1    C3  232   2.691   3.206   2.247  0.1640 -0.2221 -0.0573
   15TCq1    C4  233   2.566   3.167   2.263  0.0503  0.0930 -0.1459
   15TCq1    C5  234   2.512   3.050   2.205 -0.2791  0.2212  0.0867
   15TCq1    C6  235   2.593   2.999   2.107  0.3408 -0.6086  0.0909
   15TCq1    C7  236   2.711   3.046   2.071  0.0639 -1.0232  0.1368
   15TCq1    C8  237   2.546   2.886   2.031  0.1710 -0.3955 -0.0585
   15TCq1    O4  238   2.638   2.825   1.973  0.0547  0.7074  0.2625
   15TCq1    C9  239   2.480   3.222   2.364 -0.4956 -0.1963  0.2963
   15TCq1    O5  240   2.538   3.290   2.455  0.3147  0.7508 -0.4082
   15TCq1    O6  241   2.358   3.194   2.359 -0.3932 -0.5383  0.0464
   15TCq1    H1  242   2.904   3.234   2.313  1.7988 -3.0243  0.4873
   15TCq1    H2  243   2.736   3.285   2.305  0.7254 -1.1600  0.7932
   15TCq1    H3  244   2.409   3.025   2.225 -0.1331 -1.1533 -0.9074
   15TCq1    H4  245   2.779   2.987   2.009  0.5395 -1.5390  1.1512
   16MPD2     C  246   2.214   2.817   1.900  0.1119  0.9526 -0.0125
   16MPD2    C1  247   2.337   2.783   1.934 -0.0563 -0.3046 -0.2280
   16MPD2    C2  248   2.403   2.677   1.879  0.1132 -0.6791  0.4095
   16MPD2    C3  249   2.344   2.605   1.777 -0.9948 -0.7170  0.3467
   16MPD2    C4  250   2.222   2.651   1.732  0.6246 -0.4392  0.1225
   16MPD2    C5  251   2.154   2.746   1.798  0.1528  0.2185  0.0398
   16MPD2     H  252   2.504   2.653   1.912 -0.6303 -0.9788  2.4364
   16MPD2    H1  253   2.178   2.601   1.646 -0.9127  2.1181 -0.5600
   16MPD2    H2  254   2.147   2.893   1.938 -0.2029  1.1813 -1.0361
   16MPD2    H3  255   2.057   2.775   1.759  0.0223 -0.8400 -0.4499
   16MPD2     N  256   2.420   2.500   1.719  0.3619  0.3548  0.3389
   16MPD2    H5  257   2.511   2.471   1.754  0.1491 -0.5044  0.1862
   16MPD2    N1  258   2.408   2.877   2.022  0.2587 -0.0784 -0.2538
   16MPD2    H7  259   2.352   2.940   2.079 -1.3755  0.3434 -2.2771
   17TMC1    C1  260   4.018   1.949  10.631  0.1746  0.0091 -0.4764
   17TMC1    C2  261   3.974   1.955  10.753 -0.2288 -0.4646  0.0853
   17TMC1    C3  262   3.937   1.839  10.806 -0.1546 -0.4116 -0.2301
   17TMC1    C4  263   4.019   1.831  10.550  0.6760 -0.1406  0.4987
   17TMC1    C5  264   3.977   1.719  10.608  0.0930  0.0477  0.4552
   17TMC1    C6  265   3.944   1.715  10.740  0.1155 -0.0601  0.4755
   17TMC1     C  266   4.084   2.060  10.562 -0.8491  0.1245  0.4566
   17TMC1     O  267   4.122   2.034  10.446  0.3742 -0.3253 -0.2939
   17TMC1     H  268   3.983   2.049  10.807  2.5473 -0.5514 -0.2357
   17TMC1    H1  269   4.051   1.825  10.447 -1.5456 -1.1483 -0.1345
   17TMC1    H2  270   3.914   1.623  10.787  1.5417 -0.8954 -0.2379
   17TMC1    C7  271   3.991   1.591  10.543 -0.2538 -0.2425 -0.0565
   17TMC1    C8  272   3.879   1.835  10.939  0.3746 -0.0610  0.2481
   17TMC1    O1  273   3.954   1.487  10.601  0.1954 -0.0755 -0.0739
   17TMC1    O2  274   3.854   1.731  11.001 -0.2243 -0.0731 -0.1475
   17TMC1    O3  275   4.019   1.594  10.414  0.6762 -0.0827  0.4559
   17TMC1    H3  276   4.030   1.682  10.372 -0.0947  0.3756  1.2023
   17TMC1    O5  277   3.796   1.941  10.950  0.4242 -0.9202  0.1562
   17TMC1    H5  278   3.773   1.998  10.873  1.1895 -2.6595 -1.3448
   18MPD2     C  279   4.221   2.305  10.462 -0.3000 -0.5813 -0.5512
   18MPD2    C1  280   4.181   2.284  10.595  1.0285  0.6880  0.2593
   18MPD2    C2  281   4.191   2.394  10.681 -0.2580  0.2377  0.3047
   18MPD2    C3  282   4.247   2.515  10.637 -0.4014 -1.1007 -0.2388
   18MPD2    C4  283   4.297   2.523  10.510  0.6624 -0.0062  0.3496
   18MPD2    C5  284   4.277   2.422  10.424  0.2043 -0.0017 -0.5087
   18MPD2     H  285   4.154   2.379  10.781  0.3448 -0.7393  0.3855
   18MPD2    H1  286   4.346   2.615  10.481 -0.1197  0.2107 -0.2804
   18MPD2    H2  287   4.216   2.232  10.382  3.7899 -0.9558 -0.4679
   18MPD2    H3  288   4.323   2.435  10.327  1.2896  0.4914  0.0785
   18MPD2     N  289   4.284   2.621  10.716 -0.1551  0.3640  0.0196
   18MPD2    H5  290   4.334   2.698  10.672 -0.8284  0.6090 -0.3141
   18MPD2    N1  291   4.120   2.166  10.642 -0.0188  0.2811  0.0819
   18MPD2    H7  292   4.092   2.162  10.740 -0.4522 -0.1281 -0.0579
   19TMC2    C1  293   1.258   3.246  14.195  0.2648 -0.6988 -0.7724
   19TMC2    C2  294   1.188   3.348  14.134 -0.1643  0.0605  0.8121
   19TMC2    C3  295   1.052   3.351  14.141  0.5352  0.1267 -0.0465
   19TMC2    C4  296   1.187   3.150  14.264  0.5975  0.1393 -0.2858
   19TMC2    C5  297   1.050   3.157  14.265 -0.3940  0.5003 -0.1399
   19TMC2    C6  298   0.974   3.251  14.197  0.1518 -0.2224  0.5191
   19TMC2     C  299   1.394   3.222  14.157 -0.1296  0.4331  0.1372
   19TMC2     O  300   1.438   3.301  14.073 -0.1918  0.3669 -0.3670
   19TMC2     H  301   1.232   3.421  14.067 -0.1786 -0.0857  0.6424
   19TMC2    H1  302   1.229   3.059  14.306  0.0490 -0.4772 -1.0756
   19TMC2    H2  303   0.867   3.269  14.205  0.1497 -0.2495  0.5510
   19TMC2    C7  304   0.980   3.028  14.292  0.6203 -0.0194  0.4655
   19TMC2    C8  305   0.978   3.440  14.058  0.7447 -0.4275 -0.2032
   19TMC2    O1  306   1.049   2.935  14.334 -0.4792 -0.3303  0.4723
   19TMC2    O2  307   0.875   3.420  13.999  0.0890  0.2467  0.3333
   19TMC2    O5  308   1.045   3.555  14.062  0.5880  0.1326 -0.1239
   19TMC2    H5  309   1.110   3.555  14.135  1.1755 -0.5862 -0.6407
   20MPD2     C  310   1.666   3.129  14.090 -0.3371 -0.2942  0.0063
   20MPD2    C1  311   1.603   3.098  14.210  0.1512 -0.6536 -0.0191
   20MPD2    C2  312   1.676   3.048  14.314  0.6273  0.1077  0.1713
   20MPD2    C3  313   1.812   3.033  14.301  0.3102 -0.5772  0.0810
   20MPD2    C4  314   1.875   3.055  14.183  0.1826 -0.2436  1.0365
   20MPD2    C5  315   1.799   3.091  14.076  1.0020 -0.2912 -0.1518
   20MPD2     H  316   1.623   3.046  14.409  1.2294  2.1796  0.5639
   20MPD2    H1  317   1.975   3.015  14.174  0.4435  0.7424 -0.3763
   20MPD2    H2  318   1.617   3.178  14.006 -0.4374 -0.4662 -0.0350
   20MPD2    H3  319   1.829   3.097  13.972  1.3198  1.5308  0.0493
   20MPD2     N  320   1.893   2.989  14.410 -0.3999 -0.1303  0.1841
   20MPD2    H5  321   1.993   2.983  14.394 -0.4247  0.5987 -0.2319
   20MPD2    N1  322   1.464   3.128  14.232  0.4590  0.1766 -0.4887
   20MPD2    H7  323   1.418   3.087  14.312  1.8945  1.4319  0.9996
   21TMC2    C1  324   3.583   3.919  15.340  0.4817  0.2278 -0.1926
   21TMC2    C2  325   3.603   3.798  15.396 -0.0586  0.0762 -0.1145
   21TMC2    C3  326   3.492   3.724  15.428 -0.2729  1.0212 -0.0493
   21TMC2    C4  327   3.463   3.956  15.289  0.3019  0.2806  0.1509
   21TMC2    C5  328   3.351   3.878  15.324  0.3545 -0.2045  0.2178
   21TMC2    C6  329   3.360   3.764  15.401 -0.0536  0.6843  0.7663
   21TMC2     C  330   3.699   3.968  15.264  0.8962  0.1139  0.3460
   21TMC2     O  331   3.792   3.888  15.249 -0.0435  0.6153  0.2119
   21TMC2     H  332   3.701   3.758  15.420 -1.8854 -2.5420  3.0024
   21TMC2    H1  333   3.447   4.041  15.225 -1.3107 -0.2039 -0.0989
   21TMC2    H2  334   3.275   3.725  15.454 -1.3914  0.5066 -1.4974
   21TMC2    C7  335   3.227   3.906  15.258  1.1197 -0.0278 -0.3873
   21TMC2    C8  336   3.527   3.601  15.498 -0.0188  0.0849  0.5412
   21TMC2    O1  337   3.126   3.888  15.328  0.4167 -0.3045  0.4137
   21TMC2    O2  338   3.628   3.588  15.567 -0.3883 -0.7169 -0.2408
   21TMC2    O5  339   3.454   3.502  15.444 -0.0609  0.0063  0.4274
   21TMC2    H5  340   3.378   3.533  15.389  2.0993  0.2181 -2.4300
   22MPD2     C  341   3.963   4.344  15.045  0.4066 -0.2765  0.2197
   22MPD2    C1  342   3.955   4.211  15.002 -0.0512 -0.1112 -0.8427
   22MPD2    C2  343   3.875   4.128  15.075 -0.4921  0.0765 -0.2285
   22MPD2    C3  344   3.785   4.178  15.172  0.1955  0.1592  0.0494
   22MPD2    C4  345   3.786   4.312  15.201 -0.8315 -0.8339  0.2768
   22MPD2    C5  346   3.881   4.396  15.149 -0.7924  0.3418 -0.3573
   22MPD2     H  347   3.857   4.027  15.041 -0.1480  0.2350 -0.8814
   22MPD2    H1  348   3.710   4.351  15.268  0.5171  1.8036  0.2621
   22MPD2    H2  349   4.026   4.415  14.991 -0.5249 -0.7192 -1.4296
   22MPD2    H3  350   3.876   4.503  15.166  1.0937  0.1665  1.2376
   22MPD2     N  351   3.688   4.102  15.243 -0.2482  0.1300 -0.6902
   22MPD2    H5  352   3.610   4.146  15.290 -0.7855 -2.0447  0.4389
   22MPD2    N1  353   4.046   4.158  14.911  0.3297  0.9167  0.1798
   22MPD2    H7  354   4.128   4.216  14.898  1.1996 -0.6455 -1.4326
   23TMC2    C1  355   0.795   0.096  14.807 -0.4474 -0.0197 -0.1999
   23TMC2    C2  356   0.705   0.108  14.906 -0.0548 -0.3420 -0.0826
   23TMC2    C3  357   0.578   0.064  14.890 -0.9774  0.0912  0.0725
   23TMC2    C4  358   0.763   0.018  14.703 -0.2324 -0.1583 -0.6401
   23TMC2    C5  359   0.629   4.710  14.682  0.4008 -0.1855  0.9943
   23TMC2    C6  360   0.535   0.008  14.775  0.2633  1.1043 -0.2600
   23TMC2     C  361   0.938   0.099  14.839 -0.6442 -0.0752 -0.4938
   23TMC2     O  362   1.009   0.104  14.740 -0.0905  0.2169  0.1604
   23TMC2     H  363   0.722   0.173  14.991 -0.2604  0.0652 -0.3534
   23TMC2    H1  364   0.838   4.721  14.631 -0.8115  1.2205 -1.8002
   23TMC2    H2  365   0.435   4.699  14.767  0.6394  0.4085 -1.3996
   23TMC2    C7  366   0.598   4.666  14.545 -0.4217  0.1094  0.0339
   23TMC2    C8  367   0.487   0.064  14.997  0.7496 -0.2308 -0.2644
   23TMC2    O1  368   0.681   4.601  14.484 -0.6825  0.4304 -0.1351
   23TMC2    O2  369   0.529   0.082  15.107 -0.0827  0.5542 -0.1641
   23TMC2    O5  370   0.386   0.139  14.941 -0.0447 -0.0223 -0.9056
   23TMC2    H5  371   0.393   0.143  14.843 -0.0795 -0.2883 -0.9191
   24MPD2     C  372   1.327   4.583  15.075 -0.0842  0.4447 -0.4147
   24MPD2    C1  373   1.225   4.605  15.169  0.6975 -0.3018 -0.1707
   24MPD2    C2  374   1.112   4.682  15.131  0.0386 -0.2307 -0.8599
   24MPD2    C3  375   1.092   4.725  14.995 -0.4990  1.2437 -0.0870
   24MPD2    C4  376   1.199   4.707  14.900  1.2317 -0.5216  0.0718
   24MPD2    C5  377   1.304   4.638  14.945  0.8159 -0.4425 -0.1138
   24MPD2     H  378   1.032   4.698  15.203  0.4795 -1.7833 -0.0324
   24MPD2    H1  379   1.203   4.731  14.795  4.1567  1.7566  0.6946
   24MPD2    H2  380   1.413   4.520  15.093 -0.9662 -0.3031  1.1562
   24MPD2    H3  381   1.374   4.612  14.866 -0.6306 -1.6060 -1.0247
   24MPD2     N  382   0.973   0.059  14.968 -0.4192 -0.5629 -0.3806
   24MPD2    H5  383   0.899   0.043  15.035 -1.6279 -1.8288 -2.0073
   24MPD2    N1  384   1.220   4.557  15.306  0.1603  0.5008 -0.0808
   24MPD2    H7  385   1.147   4.589  15.368 -0.7113  1.0782 -1.3867
   25TMC2    C1  386   3.295   1.870  11.269  0.3350  0.4743  0.4743
   25TMC2    C2  387   3.281   1.742  11.323 -0.5394  0.2911  0.8911
   25TMC2    C3  388   3.327   1.721  11.450  0.0511  0.5647 -0.7851
   25TMC2    C4  389   3.343   1.974  11.348  0.3934  0.6738 -0.0687
   25TMC2    C5  390   3.380   1.943  11.476 -0.2625 -0.3868  0.1624
   25TMC2    C6  391   3.375   1.816  11.531 -0.0626  0.1157 -0.2010
   25TMC2     C  392   3.272   1.893  11.133  0.6692 -0.6423  0.3998
   25TMC2     O  393   3.194   1.815  11.086 -0.2422  0.1013 -0.2226
   25TMC2     H  394   3.239   1.664  11.260 -1.1107 -0.4128  2.1325
   25TMC2    H1  395   3.327   2.074  11.310  0.4353  0.5552 -0.3987
   25TMC2    H2  396   3.421   1.796  11.627 -0.1060  1.6459  0.1524
   25TMC2    C7  397   3.428   2.046  11.569 -0.0869 -0.4329 -0.2758
   25TMC2    C8  398   3.295   1.593  11.508 -0.1358  0.2775 -0.9851
   25TMC2    O1  399   3.429   2.017  11.687  0.0561 -0.0811  0.1128
   25TMC2    O2  400   3.273   1.498  11.435  0.2588 -0.2508  0.7791
   25TMC2    O5  401   3.223   1.619  11.613  0.2916  0.5508  0.3987
   25TMC2    H5  402   3.260   1.702  11.649  1.4929  0.6407 -1.0045
   26MPD2     C  403   3.330   2.125  10.667 -0.3182 -0.0901  0.4708
   26MPD2    C1  404   3.258   2.012  10.704 -0.1910  0.0110  1.0189
   26MPD2    C2  405   3.260   1.966  10.840 -0.3342  0.2504  0.1596
   26MPD2    C3  406   3.345   2.028  10.933  0.1527 -0.1137 -0.2648
   26MPD2    C4  407   3.424   2.132  10.890 -0.0036 -0.4732 -0.1198
   26MPD2    C5  408   3.408   2.183  10.759  0.2486  0.4101 -0.1515
   26MPD2     H  409   3.198   1.885  10.877  0.0288 -1.0749 -2.1020
   26MPD2    H1  410   3.488   2.191  10.955  0.2653 -0.9274  0.0243
   26MPD2    H2  411   3.337   2.156  10.563 -0.4290 -0.8533  0.2336
   26MPD2    H3  412   3.469   2.269  10.731  1.8134  0.1531  2.4459
   26MPD2     N  413   3.346   1.998  11.074  0.1490  0.2440  0.0753
   26MPD2    H5  414   3.402   2.053  11.139 -1.1586  0.7826  0.7458
   26MPD2    N1  415   3.214   1.913  10.615 -0.0420  0.3753  0.6250
   26MPD2    H7  416   3.187   1.827  10.662 -0.0091  0.2396  0.3895
   27TMC2    C1  417   3.018   4.465  12.194 -0.1889  0.3121 -0.3767
   27TMC2    C2  418   3.101   4.445  12.090  0.2828 -0.3249 -0.2796
   27TMC2    C3  419   3.230   4.428  12.118  0.1061 -0.0521  0.3673
   27TMC2    C4  420   3.055   4.483  12.322  0.7402 -0.6376  0.4311
   27TMC2    C5  421   3.186   4.466  12.348  0.4168  0.1349 -0.7006
   27TMC2    C6  422   3.269   4.435  12.243 -0.3837  0.1519  0.2869
   27TMC2     C  423   2.877   4.483  12.163 -0.6478 -0.2057  0.1132
   27TMC2     O  424   2.847   4.528  12.055  0.1921  0.5512 -0.5250
   27TMC2     H  425   3.062   4.442  11.989  0.9089 -1.8439 -0.4684
   27TMC2    H1  426   2.992   4.534  12.394  3.0491  1.9421  0.6240
   27TMC2    H2  427   3.369   4.397  12.260 -0.3964  0.3889  0.9011
   27TMC2    C7  428   3.234   4.445  12.485  0.0002  0.1267  0.1678
   27TMC2    C8  429   3.306   4.340  12.031 -0.4277 -0.6505  0.9324
   27TMC2    O1  430   3.148   4.415  12.562 -0.2416  0.3612  0.1300
   27TMC2    O2  431   3.379   4.249  12.071  0.2023  0.0971 -0.1034
   27TMC2    O5  432   3.265   4.351  11.906  0.4655  0.6370  0.3353
   27TMC2    H5  433   3.232   4.443  11.898 -1.2311 -0.0834 -0.8691
   28MPD2     C  434   2.383   4.427  12.274  0.0892 -0.1228  0.5987
   28MPD2    C1  435   2.456   4.379  12.377  0.4403  0.2999 -0.3149
   28MPD2    C2  436   2.591   4.374  12.365  0.4243  0.0244 -0.3402
   28MPD2    C3  437   2.657   4.432  12.255 -0.2612 -0.0590  0.5281
   28MPD2    C4  438   2.575   4.483  12.153  0.6652  0.1063  0.3876
   28MPD2    C5  439   2.439   4.482  12.161 -0.5106 -0.5566 -0.7989
   28MPD2     H  440   2.644   4.340  12.453 -1.0039  1.3446  1.0320
   28MPD2    H1  441   2.598   4.533  12.059  0.2242  3.0789  1.8668
   28MPD2    H2  442   2.277   4.441  12.289  0.5711  1.4735  2.5572
   28MPD2    H3  443   2.386   4.537  12.083 -1.0751 -2.0393 -1.4648
   28MPD2     N  444   2.796   4.432  12.256 -0.3345 -0.6127 -0.0411
   28MPD2    H5  445   2.841   4.386  12.334  1.0857  0.3855 -0.2686
   28MPD2    N1  446   2.383   4.342  12.496 -0.1488  0.6876  0.0751
   28MPD2    H7  447   2.286   4.372  12.501 -0.1213  0.8286 -0.2601
   29TMC2    C1  448   2.655   2.042  14.790  0.5128  0.0452  0.3024
   29TMC2    C2  449   2.629   1.991  14.918  0.1256  0.3361  0.2668
   29TMC2    C3  450   2.643   2.079  15.019 -0.4627 -0.1108 -0.5526
   29TMC2    C4  451   2.695   2.171  14.765  0.5049 -0.0314  0.5322
   29TMC2    C5  452   2.712   2.252  14.872 -0.1386 -0.6545 -0.0596
   29TMC2    C6  453   2.677   2.208  14.997 -0.5513 -0.1369  0.4605
   29TMC2     C  454   2.624   1.949  14.681 -0.0514  0.0146  0.1302
   29TMC2     O  455   2.625   1.831  14.705 -0.0306  0.1079 -0.0759
   29TMC2     H  456   2.609   1.885  14.935 -1.1904  0.4277 -0.7353
   29TMC2    H1  457   2.699   2.213  14.665  0.0294 -1.7015 -0.1973
   29TMC2    H2  458   2.703   2.280  15.074 -2.6627 -1.3784  2.3400
   29TMC2    C7  459   2.734   2.391  14.847 -0.2563 -0.1941  0.1274
   29TMC2    C8  460   2.590   2.036  15.147  0.8815  0.1004  1.2059
   29TMC2    O1  461   2.709   2.446  14.740 -0.0884  0.1770 -0.1574
   29TMC2    O2  462   2.619   1.930  15.199  0.1202 -0.0269  0.7946
   29TMC2    O5  463   2.489   2.116  15.178 -0.1604 -0.2043  0.1132
   29TMC2    H5  464   2.473   2.187  15.113  3.4647  1.9907  1.6026
   30MPD2     C  465   2.413   1.784  14.255  0.5297  0.6219  0.1776
   30MPD2    C1  466   2.506   1.723  14.333 -0.1929 -0.2720  0.5456
   30MPD2    C2  467   2.570   1.799  14.429 -0.0372 -0.3883  1.0437
   30MPD2    C3  468   2.545   1.937  14.446  0.7483 -0.8293 -0.3410
   30MPD2    C4  469   2.469   1.992  14.350 -0.4798  0.7298 -0.5925
   30MPD2    C5  470   2.397   1.916  14.262  0.4587 -0.5173 -0.5258
   30MPD2     H  471   2.641   1.747  14.492  1.3710  0.6330  0.2996
   30MPD2    H1  472   2.448   2.098  14.362 -0.2919  0.6201  0.6905
   30MPD2    H2  473   2.343   1.731  14.191  0.0424  0.9375  0.4468
   30MPD2    H3  474   2.336   1.967  14.187  0.0481  0.3530  0.4031
   30MPD2     N  475   2.589   2.006  14.562  0.5046 -0.1356 -0.1123
   30MPD2    H5  476   2.586   2.108  14.562  0.3785 -0.1406 -2.0878
   30MPD2    N1  477   2.558   1.592  14.324  0.6551 -0.3162  0.3944
   30MPD2    H7  478   2.625   1.563  14.394 -0.7555 -1.3228  1.3188
   31TMC2    C1  479   0.465   0.368  15.238  0.4653  0.4022  0.2838
   31TMC2    C2  480   0.337   0.342  15.214 -0.7598 -0.5255 -0.6703
   31TMC2    C3  481   0.255   0.313  15.320 -1.0637  0.0073  0.2486
   31TMC2    C4  482   0.520   0.353  15.363 -0.2686  0.0019  0.0208
   31TMC2    C5  483   0.432   0.346  15.470  0.1822 -0.3864  0.3695
   31TMC2    C6  484   0.299   0.315  15.446  0.4071 -0.4629 -0.5232
   31TMC2     C  485   0.533   0.451  15.141 -0.4500  0.2668 -0.2751
   31TMC2     O  486   0.472   0.530  15.074 -0.5871  0.5975 -0.8832
   31TMC2     H  487   0.288   0.367  15.120 -1.0366  1.6914  0.0863
   31TMC2    H1  488   0.624   0.376  15.382 -0.0249 -1.7219  0.7955
   31TMC2    H2  489   0.222   0.293  15.518  0.6630 -1.8704 -0.6882
   31TMC2    C7  490   0.496   0.313  15.597  0.1037  0.3867  0.0374
   31TMC2    C8  491   0.122   0.377  15.325  0.3652  0.1198 -0.8226
   31TMC2    O1  492   0.613   0.287  15.595 -0.0988  0.3733 -0.1648
   31TMC2    O2  493   0.072   0.422  15.426  0.5753  0.1127  0.1736
   31TMC2    O5  494   0.049   0.300  15.250  0.1514 -0.0376 -0.0772
   31TMC2    H5  495   0.102   0.222  15.221  0.3037  0.3489 -0.8381
   32MPD2     C  496   0.950   0.531  14.826 -0.7440  0.2241 -0.7718
   32MPD2    C1  497   0.819   0.575  14.817 -0.2589  0.3009  0.3565
   32MPD2    C2  498   0.724   0.544  14.913 -0.6990  0.1612 -0.0204
   32MPD2    C3  499   0.753   0.461  15.013 -0.0420 -1.1342 -0.4979
   32MPD2    C4  500   0.888   0.425  15.028  0.6481  0.2831  0.1168
   32MPD2    C5  501   0.977   0.456  14.935 -0.3331  0.4916  0.4502
   32MPD2     H  502   0.627   0.588  14.898 -0.8883 -0.5460 -0.8892
   32MPD2    H1  503   0.915   0.356  15.107 -2.0608  1.4210  2.0556
   32MPD2    H2  504   1.025   0.553  14.751  0.4250 -1.1899 -0.0178
   32MPD2    H3  505   1.079   0.421  14.935 -0.1904  0.8849 -0.5705
   32MPD2     N  506   0.665   0.422  15.123  0.0790  0.0579  0.1113
   32MPD2    H5  507   0.703   0.360  15.193  0.0385 -0.7701 -0.6060
   32MPD2    N1  508   0.794   0.653  14.702 -0.9078  0.6541 -0.7816
   32MPD2    H7  509   0.871   0.696  14.652  0.3237 -0.5039  0.1381
   33TMC2    C1  510   4.537   3.444  10.247 -0.2430 -0.1622  0.0685
   33TMC2    C2  511   4.417   3.429  10.190 -0.4087  0.1438  0.9698
   33TMC2    C3  512   4.397   3.494  10.070 -0.5297 -0.2299 -0.0635
   33TMC2    C4  513   4.641   3.513  10.186  0.9812  0.1587  0.4414
   33TMC2    C5  514   4.616   3.573  10.063  0.4576  0.6575  0.5453
   33TMC2    C6  515   4.490   3.568  10.002  0.7266  0.1733  0.1765
   33TMC2     C  516   4.563   3.355  10.359 -0.8535 -0.0392 -0.4836
   33TMC2     O  517   4.474   3.281  10.389 -0.1297 -0.3541  0.0602
   33TMC2     H  518   4.331   3.372  10.225  0.1391 -0.3715  1.4671
   33TMC2    H1  519   0.009   3.500  10.223  0.1386  0.6832  2.8873
   33TMC2    H2  520   4.473   3.614   9.905  0.5559  0.1550  0.1979
   33TMC2    C7  521   4.715   3.660  10.011  0.6388  0.5550  0.3292
   33TMC2    C8  522   4.274   3.486   9.998 -0.5465 -0.0180 -0.4064
   33TMC2    O1  523   0.099   3.632  10.043 -0.7046  0.0263  0.2748
   33TMC2    O2  524   4.270   3.514   9.884  0.0839 -0.4018 -0.7042
   33TMC2    O5  525   4.191   3.540  10.088  0.0014  0.4469  0.8237
   33TMC2    H5  526   4.240   3.556  10.171  1.6372  0.1717 -0.1006
   34MPD2     C  527   0.062   3.272  10.823  0.0244 -0.6680  0.2861
   34MPD2    C1  528   4.681   3.220  10.766 -0.2973  0.2203 -0.1103
   34MPD2    C2  529   4.647   3.260  10.636 -0.1710  0.0548 -0.0636
   34MPD2    C3  530   4.717   3.349  10.559  1.0719  0.2645  0.4455
   34MPD2    C4  531   0.107   3.396  10.614 -0.4238  0.6802  0.8398
   34MPD2    C5  532   0.141   3.348  10.742  0.0634  0.1370  0.3563
   34MPD2     H  533   4.550   3.222  10.605 -0.9182  0.5542  1.6053
   34MPD2    H1  534   0.181   3.462  10.569  0.8583 -1.5385 -0.2914
   34MPD2    H2  535   0.085   3.251  10.926 -2.5898 -2.5068  0.5077
   34MPD2    H3  536   0.229   3.385  10.793 -0.8144  2.9224 -0.1381
   34MPD2     N  537   4.674   3.389  10.433  0.0268 -0.1297  0.0389
   34MPD2    H5  538   4.731   3.465  10.398  0.4648 -1.8457 -2.9032
   34MPD2    N1  539   4.612   3.125  10.846 -0.4529 -0.1673  0.1083
   34MPD2    H7  540   4.653   3.099  10.935  2.4925  0.3266 -1.1260
   35TMC2    C1  541   1.426   4.299  11.673  0.1318  0.1082  0.1293
   35TMC2    C2  542   1.299   4.355  11.651 -0.4670 -0.3873 -0.4928
   35TMC2    C3  543   1.185   4.287  11.641 -0.3131 -0.4374 -0.0489
   35TMC2    C4  544   1.427   4.167  11.700 -0.7209 -0.8435  0.3340
   35TMC2    C5  545   1.306   4.102  11.720  0.2639  0.0741 -0.0869
   35TMC2    C6  546   1.185   4.156  11.683 -0.0884  0.3062  0.7206
   35TMC2     C  547   1.542   4.382  11.675  0.2019  0.1615  0.1056
   35TMC2     O  548   1.534   4.487  11.622  0.2905 -0.5904 -0.5834
   35TMC2     H  549   1.286   4.459  11.625 -1.1813 -0.7842 -1.7232
   35TMC2    H1  550   1.525   4.122  11.706  0.1439  1.0034  0.0493
   35TMC2    H2  551   1.094   4.099  11.664 -0.1777  0.6237  0.1926
   35TMC2    C7  552   1.322   3.962  11.733  0.4916 -1.1003  0.6057
   35TMC2    C8  553   1.082   4.330  11.544 -0.2474  0.0575  0.1073
   35TMC2    O1  554   1.436   3.914  11.739 -0.1891 -0.5452 -0.2308
   35TMC2    O2  555   1.104   4.397  11.446  0.2379 -0.4326 -0.0966
   35TMC2    O5  556   0.973   4.338  11.615  0.1782 -0.2305  0.0503
   35TMC2    H5  557   1.002   4.303  11.702  0.6936 -2.1196 -0.8852
   36MPD2     C  558   1.947   4.601  11.866 -0.1044  0.2789 -0.0344
   36MPD2    C1  559   1.923   4.490  11.942 -0.5526  0.8004 -0.3129
   36MPD2    C2  560   1.820   4.397  11.895 -0.1834 -0.0229  0.4657
   36MPD2    C3  561   1.756   4.423  11.783 -0.3573  0.1455  0.0238
   36MPD2    C4  562   1.792   4.535  11.704 -0.2685 -0.3257 -0.4460
   36MPD2    C5  563   1.884   4.621  11.748  0.5617 -0.2591 -0.7700
   36MPD2     H  564   1.787   4.313  11.955 -1.0884  0.3054  0.4351
   36MPD2    H1  565   1.741   4.554  11.610  1.6358  1.9006 -1.0414
   36MPD2    H2  566   2.021   4.662  11.916  1.2934 -0.1366 -1.5844
   36MPD2    H3  567   1.890   4.718  11.700 -2.1969  0.6502  0.7204
   36MPD2     N  568   1.642   4.338  11.756 -0.1335  0.3747  0.2656
   36MPD2    H5  569   1.633   4.254  11.813  1.5457 -0.1344 -0.2099
   36MPD2    N1  570   1.985   4.489  12.070 -0.3012 -0.0286 -0.4277
   36MPD2    H7  571   2.033   4.573  12.101 -1.5078  0.1869  0.8745
   37TMC2    C1  572   3.821   4.645  12.050 -0.0392 -0.3590  0.2302
   37TMC2    C2  573   3.768   0.025  11.997  0.7360 -0.4039 -0.1440
   37TMC2    C3  574   3.789   0.046  11.867 -0.3663  0.7226 -0.5025
   37TMC2    C4  575   3.894   4.560  11.981  0.4897 -0.6715 -0.1482
   37TMC2    C5  576   3.920   4.586  11.849 -0.0974 -0.5330  0.1993
   37TMC2    C6  577   3.876   4.701  11.795 -0.2017  0.0402  0.4898
   37TMC2     C  578   3.818   4.624  12.199 -0.4284  0.2627  0.3820
   37TMC2     O  579   3.729   4.688  12.254 -0.3054  0.3628  0.2064
   37TMC2     H  580   3.689   0.081  12.046 -0.2410 -0.4172 -1.6971
   37TMC2    H1  581   3.921   4.459  12.010  1.1894 -0.5858 -0.5004
   37TMC2    H2  582   3.893   4.728  11.692 -0.7278 -1.1274  0.0987
   37TMC2    C7  583   4.047   4.538  11.801  0.3376  0.4058  0.3484
   37TMC2    C8  584   3.717   0.154  11.806  0.1007  0.8424 -0.2834
   37TMC2    O1  585   4.107   4.474  11.888  0.2569 -0.3973 -0.5233
   37TMC2    O2  586   3.682   0.153  11.692 -0.1140 -0.3744 -0.5097
   37TMC2    O5  587   3.726   0.270  11.871 -0.0509 -0.2365 -0.5710
   37TMC2    H5  588   3.770   0.264  11.958  0.9647 -0.2721 -1.0854
   38MPD2     C  589   4.049   4.498  12.627  0.0486 -0.1400 -0.2556
   38MPD2    C1  590   4.132   4.475  12.520 -0.5912  0.2554 -0.3404
   38MPD2    C2  591   4.098   4.525  12.395  0.4927  0.5372  0.3274
   38MPD2    C3  592   3.973   4.571  12.375  0.5457 -0.0246  0.8571
   38MPD2    C4  593   3.886   4.585  12.477  0.8504  0.3629  0.4518
   38MPD2    C5  594   3.929   4.559  12.605  0.3258  0.3846 -0.5429
   38MPD2     H  595   4.162   4.506  12.309  1.4241 -2.0890  1.5872
   38MPD2    H1  596   3.787   4.625  12.464  0.4957 -0.2676  1.2097
   38MPD2    H2  597   4.059   4.454  12.726  0.8279 -0.4652 -0.4748
   38MPD2    H3  598   3.868   4.582  12.691  0.7413 -0.1229 -0.1115
   38MPD2     N  599   3.945   4.594  12.239 -0.1050  0.1098  0.1638
   38MPD2    H5  600   4.018   4.587  12.169  0.3452  0.3524  0.6139
   38MPD2    N1  601   4.247   4.395  12.528 -0.0533  0.2179 -0.7964
   38MPD2    H7  602   4.306   4.393  12.445  0.2584 -1.2774 -0.5273
   39TMC2    C1  603   2.878   2.536   1.908  0.2323 -0.6828 -0.3630
   39TMC2    C2  604   3.001   2.520   1.975  0.6654  0.5455  0.9238
   39TMC2    C3  605   3.087   2.624   1.969  0.1851 -0.0867  0.1938
   39TMC2    C4  606   2.867   2.643   1.823  0.3394 -0.7577  0.4196
   39TMC2    C5  607   2.952   2.753   1.831  0.1809 -0.1555 -0.1316
   39TMC2    C6  608   3.062   2.742   1.904 -0.4121  0.7466  0.0350
   39TMC2     C  609   2.781   2.432   1.913 -0.4843  0.5863 -0.2874
   39TMC2     O  610   2.667   2.464   1.890  0.0095  0.0034  0.3215
   39TMC2     H  611   3.027   2.435   2.036  2.6455  0.9721  0.6498
   39TMC2    H1  612   2.775   2.654   1.766  1.5104  1.4750 -1.0563
   39TMC2    H2  613   3.130   2.826   1.914  1.2555 -0.3667 -1.8792
   39TMC2    C7  614   2.970   2.829   1.713 -1.1230  0.0328 -0.6617
   39TMC2    C8  615   3.216   2.623   2.022  0.2266 -0.3062 -0.6912
   39TMC2    O1  616   3.006   2.946   1.715  0.2726  0.4237  0.1273
   39TMC2    O2  617   3.312   2.688   1.981  0.3372  0.1481  0.6883
   39TMC2    O5  618   3.195   2.585   2.153  0.1383  0.4034  0.0642
   39TMC2    H5  619   3.109   2.542   2.172  0.9068 -1.6659 -1.1224
   40MPD2     C  620   2.862   2.074   1.900 -0.1712 -0.2100 -0.4078
   40MPD2    C1  621   2.783   2.178   1.910 -0.0069 -0.5092 -0.1178
   40MPD2    C2  622   2.647   2.160   1.908 -0.5579 -0.7287  0.0549
   40MPD2    C3  623   2.589   2.029   1.900 -0.2473  0.1700 -0.2581
   40MPD2    C4  624   2.676   1.924   1.898  0.0396 -0.4702 -0.6009
   40MPD2    C5  625   2.806   1.951   1.885 -0.5894 -0.3269 -0.2854
   40MPD2     H  626   2.583   2.243   1.934 -0.3040 -0.4651 -0.1595
   40MPD2    H1  627   2.647   1.824   1.867  0.0936 -0.8789  0.6996
   40MPD2    H2  628   2.970   2.083   1.899 -0.1243 -0.5966  2.1043
   40MPD2    H3  629   2.863   1.861   1.864 -0.7034 -0.6174  0.6589
   40MPD2     N  630   2.449   2.003   1.898 -0.5426 -0.1290  0.2669
   40MPD2    H5  631   2.414   1.908   1.887 -0.9540  0.1836 -1.0719
   40MPD2    N1  632   2.847   2.307   1.913  0.3546  0.6616  0.4267
   40MPD2    H7  633   2.948   2.307   1.909  0.3900  0.7869  1.3883
   41TMC2    C1  634   1.615   3.950  13.702 -0.2656 -0.3949 -0.4566
   41TMC2    C2  635   1.684   3.833  13.701  0.7012  0.1247  0.5281
   41TMC2    C3  636   1.652   3.739  13.615  0.5304 -0.1447  0.5375
   41TMC2    C4  637   1.508   3.971  13.627  0.5926 -0.1812 -0.4686
   41TMC2    C5  638   1.484   3.879  13.533 -0.3853  0.6051  0.6606
   41TMC2    C6  639   1.549   3.751  13.532  0.2523 -0.1096  0.2851
   41TMC2     C  640   1.688   4.065  13.762  0.5593 -0.0459  0.7174
   41TMC2     O  641   1.811   4.053  13.781  0.5215  0.3828  0.6873
   41TMC2     H  642   1.771   3.819  13.764  0.5848  1.0480  0.9003
   41TMC2    H1  643   1.464   4.070  13.618  0.9787  0.0932  0.7662
   41TMC2    H2  644   1.525   3.671  13.463 -0.0342  1.3211 -1.2570
   41TMC2    C7  645   1.372   3.877  13.450 -0.4215 -0.2702 -0.4834
   41TMC2    C8  646   1.736   3.629  13.622 -0.1095  0.2705 -0.5518
   41TMC2    O1  647   1.366   3.797  13.354 -0.0455 -0.4339  0.7336
   41TMC2    O2  648   1.797   3.602  13.722  0.7259  0.1020  0.4475
   41TMC2    O5  649   1.723   3.562  13.501  0.2541 -0.0264  0.1333
   41TMC2    H5  650   1.675   3.605  13.427  0.6495  1.1627  0.5699
   42MPD2     C  651   1.768   4.324  13.905 -0.0206  0.4387 -0.6833
   42MPD2    C1  652   1.640   4.286  13.885  0.7636 -0.5404 -0.1382
   42MPD2    C2  653   1.532   4.375  13.908 -0.1076  0.0836  0.5221
   42MPD2    C3  654   1.569   4.499  13.957  0.4672  0.3278 -0.7692
   42MPD2    C4  655   1.695   4.537  13.988  0.2412 -0.1605 -0.7226
   42MPD2    C5  656   1.794   4.451  13.955 -0.6628  0.3363  0.0228
   42MPD2     H  657   1.430   4.341  13.897 -0.7539  1.6249  1.8257
   42MPD2    H1  658   1.718   4.633  14.034  0.4515 -0.2648 -0.6107
   42MPD2    H2  659   1.852   4.259  13.886 -0.9015 -1.0706  0.5124
   42MPD2    H3  660   1.896   4.475  13.981 -0.7011 -0.8701  1.3134
   42MPD2     N  661   1.460   4.589  13.995  0.5940  0.2211 -0.0528
   42MPD2    H5  662   1.487   4.678  14.034  2.6867 -0.0661 -0.8222
   42MPD2    N1  663   1.605   4.168  13.814  0.8177  0.0219  0.5251
   42MPD2    H7  664   1.505   4.154  13.801  1.5090 -0.6815 -3.9208
   43TMC2    C1  665   2.643   2.835   0.988 -0.3832 -0.1261 -0.1705
   43TMC2    C2  666   2.515   2.874   1.017  0.3577 -0.4098 -0.2953
   43TMC2    C3  667   2.501   2.978   1.103 -0.1475 -0.6795 -0.7492
   43TMC2    C4  668   2.754   2.902   1.038 -0.0120  0.7020 -0.1072
   43TMC2    C5  669   2.725   3.021   1.093  0.1839  0.0361 -0.6507
   43TMC2    C6  670   2.599   3.066   1.125 -0.1122  0.0143 -0.5627
   43TMC2     C  671   2.673   2.761   0.862 -0.0381 -0.3923 -0.3228
   43TMC2     O  672   2.787   2.713   0.851  0.2056  0.4577  0.0088
   43TMC2     H  673   2.435   2.812   0.977 -0.2137  0.0714  0.1005
   43TMC2    H1  674   2.855   2.879   1.007  0.2242  0.7865  0.5951
   43TMC2    H2  675   2.584   3.171   1.145  0.8112  0.5487 -2.6929
   43TMC2    C7  676   2.834   3.117   1.099  0.0409  1.5909  0.6146
   43TMC2    C8  677   2.362   2.994   1.152 -0.1928 -0.1373 -0.5242
   43TMC2    O1  678   2.894   3.134   0.995 -0.2030 -0.5375  0.4467
   43TMC2    O2  679   2.270   2.918   1.119 -0.1878 -0.2320 -0.2348
   43TMC2    O5  680   2.347   3.101   1.235 -0.8606 -0.1015  0.1847
   43TMC2    H5  681   2.426   3.142   1.276  0.3246 -0.9585 -1.2166
   44MPD2     C  682   2.583   2.637   0.372  0.4947  0.6242  0.1657
   44MPD2    C1  683   2.695   2.612   0.451 -0.7375  0.8257  0.2747
   44MPD2    C2  684   2.695   2.649   0.583  0.5366  0.9929 -0.3095
   44MPD2    C3  685   2.580   2.715   0.641 -0.7282  0.3098  0.3985
   44MPD2    C4  686   2.475   2.740   0.561  0.3244  0.0099  0.4365
   44MPD2    C5  687   2.474   2.696   0.434 -0.6673  0.8459  0.3682
   44MPD2     H  688   2.785   2.620   0.636 -0.4131 -2.2926 -0.4901
   44MPD2    H1  689   2.384   2.785   0.600 -0.9732  0.6383 -3.3747
   44MPD2    H2  690   2.571   2.599   0.272 -1.6840  2.0434 -0.1169
   44MPD2    H3  691   2.392   2.719   0.367 -0.9137 -0.2602  0.2853
   44MPD2     N  692   2.577   2.776   0.771  0.0939  0.2434 -0.1576
   44MPD2    H5  693   2.499   2.832   0.803 -0.3863  0.6951 -2.0913
   44MPD2    N1  694   2.802   2.532   0.401 -0.4584 -0.1856 -0.3040
   44MPD2    H7  695   2.864   2.501   0.475 -0.1201  0.2670 -0.4024
   45TMC2    C1  696   3.276   4.367   9.471 -0.2165  0.5194 -0.4749
   45TMC2    C2  697   3.304   4.268   9.556  0.0063 -0.5663 -0.7723
   45TMC2    C3  698   3.388   4.298   9.655  0.0565  0.2556 -0.2128
   45TMC2    C4  699   3.343   4.482   9.457  0.4228  0.3839 -0.6624
   45TMC2    C5  700   3.429   4.504   9.554  0.4029 -0.2625  0.0755
   45TMC2    C6  701   3.447   4.420   9.661 -0.5448  0.6566  0.5698
   45TMC2     C  702   3.213   4.307   9.356  0.2671  0.2988 -0.1321
   45TMC2     O  703   3.250   4.192   9.328 -0.0847  0.1670  0.2763
   45TMC2     H  704   3.247   4.176   9.545  1.0858 -1.2183 -0.9172
   45TMC2    H1  705   3.327   4.555   9.378 -1.0199  0.7593 -0.0152
   45TMC2    H2  706   3.513   4.440   9.745  1.1522  0.3415 -0.6804
   45TMC2    C7  707   3.446   4.649   9.583 -0.3485 -0.2085 -0.2241
   45TMC2    C8  708   3.396   4.227   9.778  0.1645 -0.3658  0.2429
   45TMC2    O1  709   3.449   4.679   9.699 -0.1554  0.1052  0.0353
   45TMC2    O2  710   3.380   4.290   9.883  0.7108 -0.0819  0.2641
   45TMC2    O5  711   3.352   4.095   9.752  0.2413  0.7197 -0.1911
   45TMC2    H5  712   3.386   4.062   9.666  0.3193 -1.3405  0.6150
   46MPD2     C  713   3.036   4.246   9.118  0.0719  0.2022 -0.3106
   46MPD2    C1  714   3.020   4.354   9.202 -0.6527  0.1311 -0.3566
   46MPD2    C2  715   2.913   4.439   9.181 -0.1471 -0.4180  0.6437
   46MPD2    C3  716   2.809   4.404   9.093  0.3116 -0.0498  0.1210
   46MPD2    C4  717   2.826   4.292   9.016 -0.5466 -0.3892 -0.3787
   46MPD2    C5  718   2.943   4.216   9.017  0.1417 -0.6570  0.1011
   46MPD2     H  719   2.903   4.517   9.255 -0.2087  1.1498 -1.0325
   46MPD2    H1  720   2.747   4.272   8.944  0.4652  0.5550 -1.7597
   46MPD2    H2  721   3.110   4.168   9.136 -1.6585 -1.8955 -2.1927
   46MPD2    H3  722   2.960   4.133   8.949 -0.0350  1.1939 -2.1883
   46MPD2     N  723   2.688   4.473   9.117  0.0983  0.5892  0.0293
   46MPD2    H5  724   2.685   4.552   9.181 -1.1988 -0.0263  0.7273
   46MPD2    N1  725   3.115   4.385   9.305  0.4283 -0.0585  0.1706
   46MPD2    H7  726   3.108   4.473   9.355 -1.4681  0.3945 -0.9102
   47TMC2    C1  727   1.051   1.151   9.215  0.0216  1.0054 -0.4234
   47TMC2    C2  728   0.944   1.111   9.298  0.5701 -0.0109  0.1722
   47TMC2    C3  729   0.838   1.193   9.312 -0.3682 -0.3666 -0.4382
   47TMC2    C4  730   1.049   1.280   9.162  0.0817  0.1491  0.4514
   47TMC2    C5  731   0.941   1.361   9.185 -0.6874  0.2156 -0.4200
   47TMC2    C6  732   0.835   1.313   9.260  0.3048  0.5187 -0.9500
   47TMC2     C  733   1.183   1.087   9.219 -0.7214 -0.5575 -0.0593
   47TMC2     O  734   1.273   1.135   9.152 -0.1834  1.0671  0.2383
   47TMC2     H  735   0.941   1.007   9.328 -3.1143  0.5343  1.6970
   47TMC2    H1  736   1.141   1.317   9.118  1.4620 -0.4004  2.8734
   47TMC2    H2  737   0.744   1.372   9.261 -0.8308 -1.2462 -0.0075
   47TMC2    C7  738   0.915   1.470   9.091 -0.2861 -0.5115 -0.2101
   47TMC2    C8  739   0.732   1.145   9.401 -0.5013 -0.6366 -0.5115
   47TMC2    O1  740   0.798   1.510   9.089  0.3325  0.1163 -0.2670
   47TMC2    O2  741   0.678   1.036   9.407 -0.9490 -0.6832  0.5745
   47TMC2    O5  742   0.757   1.232   9.500  0.2889  0.1361 -0.4000
   47TMC2    H5  743   0.790   1.323   9.486  0.2704 -0.0816 -1.9078
   48MPD2     C  744   1.418   0.915   9.293  0.0946 -0.0801 -0.0808
   48MPD2    C1  745   1.291   0.888   9.337  0.5795  0.0394 -0.0748
   48MPD2    C2  746   1.269   0.783   9.421 -0.7937 -0.3882  0.4277
   48MPD2    C3  747   1.372   0.700   9.447 -0.2185  0.0605 -0.2174
   48MPD2    C4  748   1.497   0.715   9.401 -0.3129  0.2653  0.0642
   48MPD2    C5  749   1.512   0.824   9.320 -0.5909 -0.3109  0.0203
   48MPD2     H  750   1.168   0.781   9.460 -0.9849 -1.0730 -0.1067
   48MPD2    H1  751   1.581   0.648   9.415 -1.0172 -0.2530  1.8220
   48MPD2    H2  752   1.444   0.998   9.228  1.1712  0.4185  0.9809
   48MPD2    H3  753   1.608   0.847   9.277 -0.0087 -0.5624  1.1890
   48MPD2     N  754   1.347   0.583   9.525  0.4790 -0.1488  0.0954
   48MPD2    H5  755   1.252   0.567   9.558 -0.0154  2.1363 -0.2020
   48MPD2    N1  756   1.185   0.971   9.300  0.2702 -0.3021 -0.0464
   48MPD2    H7  757   1.092   0.941   9.328  0.6437 -2.0719 -0.6875
   49TMC2    C1  758   3.194   2.963   9.912 -0.0445  0.5316 -0.4475
   49TMC2    C2  759   3.146   3.010   9.792  0.0928 -0.0047 -0.1246
   49TMC2    C3  760   3.079   2.920   9.713  0.7347 -0.4863 -0.2778
   49TMC2    C4  761   3.178   2.831   9.953 -0.8099 -0.8044  0.3866
   49TMC2    C5  762   3.108   2.751   9.870  1.4299  0.2573 -0.9070
   49TMC2    C6  763   3.054   2.796   9.757  0.0687 -0.4759  0.5444
   49TMC2     C  764   3.279   3.049   9.983  0.8100 -0.2652  0.4835
   49TMC2     O  765   3.331   3.146   9.931 -0.4896 -0.3977 -0.1205
   49TMC2     H  766   3.156   3.115   9.766 -1.6309  0.2164  0.1390
   49TMC2    H1  767   3.241   2.794  10.034  0.2421  1.3491  0.5512
   49TMC2    H2  768   3.005   2.723   9.694  1.5255 -0.6434 -0.3990
   49TMC2    C7  769   3.068   2.619   9.916  0.3509  0.6711  0.1848
   49TMC2    C8  770   2.986   2.991   9.625 -0.1357 -0.5498  0.2783
   49TMC2    O1  771   2.979   2.566   9.851 -0.3439  0.1092 -0.0623
   49TMC2    O2  772   2.978   3.112   9.613 -0.3326 -0.0844  0.3035
   49TMC2    O5  773   2.979   2.907   9.518 -0.2391  0.3733  0.2744
   49TMC2    H5  774   3.024   2.820   9.524  0.1129  0.6272  1.3571
   50MPD2     C  775   3.472   3.146  10.198 -0.1109  0.2812  0.4270
   50MPD2    C1  776   3.373   3.058  10.218 -0.5939 -0.1748  0.2882
   50MPD2    C2  777   3.352   3.018  10.348  0.3174  0.3532 -0.3373
   50MPD2    C3  778   3.414   3.079  10.450 -0.3709 -0.0311  0.3141
   50MPD2    C4  779   3.516   3.168  10.428  0.4026 -0.3404 -0.4780
   50MPD2    C5  780   3.547   3.202  10.304 -0.4360  0.7415  0.5046
   50MPD2     H  781   3.283   2.937  10.367  1.6928 -0.8071 -0.2815
   50MPD2    H1  782   3.578   3.203  10.510 -0.5494 -1.7877  0.8636
   50MPD2    H2  783   3.497   3.189  10.101  0.5489  1.5731  1.1844
   50MPD2    H3  784   3.630   3.271  10.295 -0.6414  1.2158  2.1531
   50MPD2     N  785   3.388   3.038  10.587  0.2424  0.2970  0.2941
   50MPD2    H5  786   3.452   3.057  10.663 -0.8884  0.0774  1.3038
   50MPD2    N1  787   3.288   3.008  10.113 -0.3457 -0.4326  0.1515
   50MPD2    H7  788   3.217   2.938  10.133 -2.9471  2.0458 -0.3116
   51TMC2    C1  789   4.617   1.712   1.020 -0.1151 -0.5905  0.3401
   51TMC2    C2  790   4.559   1.833   1.035 -0.0154  0.0485 -0.4087
   51TMC2    C3  791   4.592   1.933   0.944  0.6512 -0.2767 -0.2474
   51TMC2    C4  792   4.695   1.683   0.908 -0.1372  0.5526  0.4794
   51TMC2    C5  793   4.726   1.793   0.827 -0.1716 -0.3171 -0.0798
   51TMC2    C6  794   4.676   1.918   0.848  0.0566 -0.5961 -0.1758
   51TMC2     C  795   4.644   1.629   1.133 -0.0640 -0.1854 -0.2348
   51TMC2     O  796   0.020   1.575   1.136 -0.0841 -0.2260 -0.0273
   51TMC2     H  797   4.483   1.845   1.111 -0.0944 -2.2707 -0.1333
   51TMC2    H1  798   0.022   1.592   0.901 -1.2686 -0.2141  0.8778
   51TMC2    H2  799   4.681   2.003   0.781 -0.5496  1.2847  2.1493
   51TMC2    C7  800   0.130   1.789   0.776  0.8551  0.4509  0.1364
   51TMC2    C8  801   4.541   2.070   0.960 -1.1158  0.5822 -0.7767
   51TMC2    O1  802   0.187   1.894   0.778 -0.4451  0.3357  0.0868
   51TMC2    O2  803   4.499   2.142   0.868 -0.1049  0.4164  0.4047
   51TMC2    O5  804   4.505   2.084   1.090  0.2252 -0.0256  0.2072
   51TMC2    H5  805   4.556   2.034   1.156  1.2174 -0.9447 -1.2499
   52MPD2     C  806   4.583   1.489   1.619  0.1737  0.2657 -0.0247
   52MPD2    C1  807   4.663   1.429   1.523 -0.3292  0.1163  0.0099
   52MPD2    C2  808   4.643   1.472   1.391  0.0422 -0.2726 -0.1044
   52MPD2    C3  809   4.551   1.575   1.357 -0.3146  0.4854 -0.3650
   52MPD2    C4  810   4.462   1.612   1.453  0.2546 -0.6921  0.4496
   52MPD2    C5  811   4.486   1.573   1.582  1.0810  0.5363 -0.0884
   52MPD2     H  812   4.699   1.418   1.317 -2.3227 -1.4526 -1.0259
   52MPD2    H1  813   4.389   1.692   1.449  1.8159  0.8349  2.4967
   52MPD2    H2  814   4.596   1.463   1.723  2.5893 -0.0503 -0.3983
   52MPD2    H3  815   4.428   1.617   1.662 -0.2882  2.8315 -2.3730
   52MPD2     N  816   4.542   1.629   1.229 -0.0916 -0.8071 -0.2588
   52MPD2    H5  817   4.464   1.691   1.212 -0.8459 -0.7221  3.5103
   52MPD2    N1  818   0.016   1.319   1.546  0.0798  0.3563  0.3300
   52MPD2    H7  819   0.056   1.284   1.460  4.0026 -1.2097  2.7401
   53TMC2    C1  820   0.058   4.464  11.780 -0.4459 -0.2100 -0.3568
   53TMC2    C2  821   0.191   4.442  11.754  0.7164 -0.0468 -0.0372
   53TMC2    C3  822   0.275   4.448  11.862 -0.8623  0.4138  0.8583
   53TMC2    C4  823   0.013   4.492  11.908  0.0035  0.2337 -0.5018
   53TMC2    C5  824   0.101   4.493  12.013  0.2305  0.0255 -0.6215
   53TMC2    C6  825   0.237   4.478  11.993 -0.3259  0.0762 -0.7644
   53TMC2     C  826   4.691   4.464  11.671  0.2541 -0.1940  0.4017
   53TMC2     O  827   0.012   4.468  11.561 -0.2806  0.7728  0.3901
   53TMC2     H  828   0.227   4.425  11.653 -0.9090 -2.7177 -0.1583
   53TMC2    H1  829   4.645   4.522  11.932  0.2241  0.7642 -0.2491
   53TMC2    H2  830   0.317   4.477  12.065 -0.1541  0.5244 -0.9436
   53TMC2    C7  831   0.048   4.539  12.142  0.2267 -0.0128 -0.4268
   53TMC2    C8  832   0.415   4.402  11.847 -0.0273  1.2068 -0.2051
   53TMC2    O1  833   4.665   4.578  12.141 -0.2314  0.0899  0.0808
   53TMC2    O2  834   0.512   4.471  11.872  0.0172 -0.3252  0.1910
   53TMC2    O5  835   0.413   4.292  11.770 -0.4346  0.3575 -0.4817
   53TMC2    H5  836   0.323   4.260  11.750 -0.8158  0.2005  1.4554
   54MPD2     C  837   4.458   4.502  11.486 -0.3911 -0.0328  1.2095
   54MPD2    C1  838   4.448   4.482  11.624 -0.2423  0.5048  0.9207
   54MPD2    C2  839   4.317   4.495  11.677  0.4037 -0.6160 -0.2419
   54MPD2    C3  840   4.208   4.532  11.603  0.4207 -0.0531 -0.3424
   54MPD2    C4  841   4.224   4.556  11.467 -0.3327 -0.0491  0.0135
   54MPD2    C5  842   4.345   4.536  11.411  0.5101 -0.2709 -0.5171
   54MPD2     H  843   4.306   4.468  11.782  1.7823  0.8304  0.2732
   54MPD2    H1  844   4.134   4.560  11.407 -0.5381  2.5630  0.4948
   54MPD2    H2  845   4.552   4.487  11.435 -2.0999  2.6457 -2.6573
   54MPD2    H3  846   4.353   4.536  11.303  2.7136 -1.5727 -0.3636
   54MPD2     N  847   4.084   4.571  11.669  0.2842 -0.2685 -0.3329
   54MPD2    H5  848   4.012   4.613  11.612 -0.3165 -0.4018  0.3160
   54MPD2    N1  849   4.559   4.460  11.712  0.1660 -0.0501 -0.3611
   54MPD2    H7  850   4.540   4.442  11.810  1.7782 -0.7776 -0.1756
   55TMC2    C1  851   0.862   4.014   0.431 -0.0539  0.4435 -0.2718
   55TMC2    C2  852   0.882   4.134   0.491 -0.6148  0.1706  0.8428
   55TMC2    C3  853   0.998   4.140   0.569  0.0024  0.4479 -0.2683
   55TMC2    C4  854   0.951   3.913   0.434 -0.2547 -0.1631 -0.1761
   55TMC2    C5  855   1.068   3.923   0.517  1.0233  0.1614  0.0427
   55TMC2    C6  856   1.089   4.040   0.584 -0.0289  0.8616  0.1524
   55TMC2     C  857   0.724   3.968   0.392 -0.8318  0.1663  0.4694
   55TMC2     O  858   0.708   3.849   0.372 -0.2702  0.3582  0.3025
   55TMC2     H  859   0.807   4.212   0.497  0.5196  1.4366 -1.4728
   55TMC2    H1  860   0.939   3.823   0.374 -1.6315 -0.1050  0.0160
   55TMC2    H2  861   1.170   4.047   0.655 -0.8368 -0.9374  1.2603
   55TMC2    C7  862   1.091   3.797   0.583 -1.0743 -0.5423  0.3703
   55TMC2    C8  863   1.038   4.263   0.629  0.3196  0.7817  0.0045
   55TMC2    O1  864   1.028   3.700   0.542  0.2304  0.6795  0.1107
   55TMC2    O2  865   1.149   4.310   0.624 -0.2346 -0.4158 -0.8705
   55TMC2    O5  866   0.937   4.308   0.710  0.0519  0.6276 -0.4162
   55TMC2    H5  867   0.861   4.246   0.710  1.3645 -0.9953 -0.1822
   56MPD2     C  868   0.410   4.144   0.360  0.7251  0.4632 -0.3180
   56MPD2    C1  869   0.489   4.037   0.389 -0.0888  0.7455  0.3026
   56MPD2    C2  870   0.420   3.918   0.423  0.2424 -0.2547  0.0511
   56MPD2    C3  871   0.283   3.907   0.421  0.5851  0.8493 -0.3270
   56MPD2    C4  872   0.205   4.018   0.386 -0.3301  0.0867  0.2863
   56MPD2    C5  873   0.271   4.138   0.363  0.5432  0.3190  0.1027
   56MPD2     H  874   0.482   3.832   0.447  0.3046  0.2062  1.5837
   56MPD2    H1  875   0.097   4.023   0.395 -0.2764 -0.0622  0.9804
   56MPD2    H2  876   0.459   4.239   0.342  0.7635  0.3975 -0.5571
   56MPD2    H3  877   0.207   4.224   0.349  1.3227  0.7357 -0.9213
   56MPD2     N  878   0.221   3.781   0.453  0.0313  0.5605 -0.0703
   56MPD2    H5  879   0.282   3.720   0.506  3.4699  3.4031 -0.7607
   56MPD2    N1  880   0.628   4.062   0.392  0.3585 -0.5570  0.2196
   56MPD2    H7  881   0.668   4.155   0.391 -0.6363 -0.1330  0.1790
   57TMC2    C1  882   4.455   2.866  13.557 -0.0001 -0.2659 -0.0864
   57TMC2    C2  883   4.555   2.802  13.622  0.4950 -0.7327  0.4168
   57TMC2    C3  884   4.630   2.710  13.548 -0.8737 -0.0230  0.2960
   57TMC2    C4  885   4.434   2.865  13.420  0.1014 -0.3004  0.5535
   57TMC2    C5  886   4.514   2.775  13.349 -0.2094 -0.0980 -0.4304
   57TMC2    C6  887   4.601   2.687  13.416 -0.5005 -0.7522 -0.2029
   57TMC2     C  888   4.385   2.965  13.640  0.1636 -0.1763  0.1845
   57TMC2     O  889   4.444   3.020  13.730 -0.6261 -0.3961  0.1225
   57TMC2     H  890   4.570   2.819  13.728  1.6496  3.1927 -0.4141
   57TMC2    H1  891   4.345   2.918  13.388  1.1996  0.6912 -0.8488
   57TMC2    H2  892   4.646   2.606  13.360 -0.8121 -1.8875  1.2057
   57TMC2    C7  893   4.466   2.747  13.221  0.3167  0.3372 -0.5341
   57TMC2    C8  894   0.023   2.664  13.609 -0.6399 -0.7527 -0.2072
   57TMC2    O1  895   4.351   2.780  13.193 -0.2543  0.5163 -0.0007
   57TMC2    O2  896   0.043   2.683  13.725 -0.1591 -0.0741  0.2830
   57TMC2    O5  897   0.117   2.665  13.514 -0.5124 -0.3484  0.5349
   57TMC2    H5  898   0.091   2.706  13.429 -0.2869  1.9635  1.5831
   58MPD2     C  899   3.948   3.074  13.885 -0.1755 -0.0481 -0.1127
   58MPD2    C1  900   4.081   3.088  13.927 -0.0395 -0.0417  0.7140
   58MPD2    C2  901   4.188   3.065  13.838  0.4281  1.1470 -0.5524
   58MPD2    C3  902   4.157   3.010  13.711 -0.5505 -0.6632  0.5008
   58MPD2    C4  903   4.026   2.992  13.674 -0.0604  0.1125  0.3407
   58MPD2    C5  904   3.920   3.024  13.760 -0.6199 -0.2853  0.3419
   58MPD2     H  905   4.289   3.075  13.876 -0.3192 -1.0888  1.9872
   58MPD2    H1  906   4.001   2.936  13.585  0.3063 -0.2488  0.4692
   58MPD2    H2  907   3.866   3.097  13.951 -2.6840  0.1406 -3.3009
   58MPD2    H3  908   3.816   3.025  13.730 -0.2628 -0.6076 -0.8917
   58MPD2     N  909   4.254   2.955  13.624 -0.1139  0.1649  0.1267
   58MPD2    H5  910   4.225   2.903  13.541  2.7033  0.3154 -0.9728
   58MPD2    N1  911   4.120   3.143  14.049 -0.5652 -0.3690  0.4046
   58MPD2    H7  912   4.217   3.166  14.066 -1.1549  1.5732  1.1313
   59TMC2    C1  913   2.571   3.622  12.974  0.0130 -0.3825  0.0893
   59TMC2    C2  914   2.668   3.701  12.914 -0.0299 -0.2068 -0.0173
   59TMC2    C3  915   2.653   3.736  12.785  0.7673  0.1085  0.4030
   59TMC2    C4  916   2.457   3.581  12.908 -0.0444  0.6735  0.2957
   59TMC2    C5  917   2.451   3.614  12.773  0.5384  0.3577 -0.1177
   59TMC2    C6  918   2.540   3.703  12.717 -0.6210 -0.1506  0.3996
   59TMC2     C  919   2.555   3.621  13.117  0.2662 -0.1614  0.1759
   59TMC2     O  920   2.463   3.558  13.166 -0.4134  0.2353  0.2335
   59TMC2     H  921   2.764   3.725  12.959 -1.9270  3.3716  2.1336
   59TMC2    H1  922   2.377   3.519  12.948 -0.6627  1.2337 -0.0913
   59TMC2    H2  923   2.527   3.757  12.624 -1.9843 -1.6969 -0.3034
   59TMC2    C7  924   2.321   3.615  12.716 -0.4620 -0.3677 -0.2386
   59TMC2    C8  925   2.725   3.851  12.743 -0.1527 -0.1203 -0.2585
   59TMC2    O1  926   2.245   3.525  12.742  0.2852 -0.0600 -0.1740
   59TMC2    O2  927   2.734   3.872  12.624  0.8469 -0.5129 -0.2616
   59TMC2    O5  928   2.722   3.949  12.837  0.0961 -0.3747  0.1538
   59TMC2    H5  929   2.717   3.914  12.928 -0.2435 -0.9223 -0.0757
   60MPD2     C  930   2.542   3.699  13.405 -0.1114  0.1867 -0.1040
   60MPD2    C1  931   2.659   3.700  13.328  1.1964 -0.4164 -0.1123
   60MPD2    C2  932   2.782   3.720  13.390 -0.7500 -0.3257  0.3178
   60MPD2    C3  933   2.788   3.739  13.524  0.0288 -0.9261  0.0754
   60MPD2    C4  934   2.667   3.753  13.594  1.1539  0.3650 -0.1575
   60MPD2    C5  935   2.544   3.731  13.539  0.3589  0.2858 -0.1551
   60MPD2     H  936   2.872   3.713  13.330 -0.0450  0.9387  1.2315
   60MPD2    H1  937   2.670   3.778  13.700 -1.7586 -2.1181  0.5287
   60MPD2    H2  938   2.446   3.674  13.362 -0.8300 -1.4891  2.4496
   60MPD2    H3  939   2.452   3.722  13.596  0.3376  2.8753  0.2264
   60MPD2     N  940   2.915   3.757  13.577 -0.6910  0.1199  0.3365
   60MPD2    H5  941   2.989   3.766  13.508 -1.1611 -0.8164 -0.2811
   60MPD2    N1  942   2.657   3.683  13.187 -0.6023  0.3849 -0.0145
   60MPD2    H7  943   2.732   3.712  13.125 -0.2604 -4.1794 -1.7665
   61TMC2    C1  944   1.550   0.349  15.766  0.7708 -0.2952 -0.2575
   61TMC2    C2  945   1.575   0.330  15.899 -0.1238  0.0688  0.2953
   61TMC2    C3  946   1.584   0.447  15.970  0.2116 -0.1545 -0.1307
   61TMC2    C4  947   1.506   0.470  15.712 -0.2979  0.0832  0.1486
   61TMC2    C5  948   1.498   0.576  15.800 -0.2032  0.1401 -0.4334
   61TMC2    C6  949   1.547   0.574  15.928  0.6359 -0.1901 -0.7832
   61TMC2     C  950   1.558   0.229  15.680 -0.7364 -0.7209 -0.2781
   61TMC2     O  951   1.543   0.122  15.732  0.1492  0.2079 -0.2877
   61TMC2     H  952   1.602   0.234  15.942  2.5275  1.0025  0.7484
   61TMC2    H1  953   1.485   0.478  15.606  0.0444 -3.2592 -0.1980
   61TMC2    H2  954   1.564   0.660  15.992  0.9270 -2.1889  1.8194
   61TMC2    C7  955   1.508   0.713  15.747  0.1728 -0.3385 -0.4661
   61TMC2    C8  956   1.608   0.439  16.114 -0.1159  0.5752 -0.2367
   61TMC2    O1  957   1.585   0.792  15.805  0.3370  0.4447  0.3283
   61TMC2    O2  958   1.560   0.526  16.190 -0.6857  0.3230  0.1445
   61TMC2    O5  959   1.735   0.398  16.119  0.1109  0.3189  0.4839
   61TMC2    H5  960   1.758   0.371  16.028 -0.3207  0.9453  0.1870
   62MPD2     C  961   1.559   0.047  15.441 -0.9581 -0.6029  0.1978
   62MPD2    C1  962   1.599   0.183  15.438 -0.1966  0.7936 -0.0461
   62MPD2    C2  963   1.661   0.228  15.322 -0.1025  0.2058  0.3362
   62MPD2    C3  964   1.692   0.137  15.218 -0.4727  0.2232 -0.2250
   62MPD2    C4  965   1.651   0.003  15.227  0.1642  0.3984  0.1293
   62MPD2    C5  966   1.581   4.695  15.335 -0.5805  0.4494  0.1456
   62MPD2     H  967   1.704   0.328  15.322  1.1399 -0.3298 -0.0170
   62MPD2    H1  968   1.672   4.665  15.147 -1.0030  1.8090 -1.4102
   62MPD2    H2  969   1.503   0.010  15.526 -1.1105 -0.7489  0.0333
   62MPD2    H3  970   1.545   4.593  15.341  1.1895 -0.2346 -0.7058
   62MPD2     N  971   1.768   0.169  15.102  0.1026  0.0512 -0.0595
   62MPD2    H5  972   1.760   0.107  15.022 -0.6258  0.7374 -0.5253
   62MPD2    N1  973   1.591   0.267  15.550  0.1787 -0.1570  0.1780
   62MPD2    H7  974   1.625   0.361  15.535 -2.3155  0.8568  0.9198
   63TMC2    C1  975   1.272   0.362  10.624 -0.2398 -0.0872 -0.0741
   63TMC2    C2  976   1.345   0.369  10.741 -0.9057  0.0063 -1.0816
   63TMC2    C3  977   1.475   0.414  10.734 -0.3022  0.5818 -0.5019
   63TMC2    C4  978   1.322   0.411  10.510  0.0261  0.4339  0.0856
   63TMC2    C5  979   1.447   0.470  10.511  0.6289 -0.2389 -0.4676
   63TMC2    C6  980   1.531   0.467  10.616 -0.5711 -0.5400  0.2784
   63TMC2     C  981   1.152   0.283  10.620 -0.4670 -0.6209  0.1605
   63TMC2     O  982   1.129   0.233  10.514  0.0008 -0.6514 -0.2231
   63TMC2     H  983   1.314   0.321  10.833  3.0514  0.9889  0.7801
   63TMC2    H1  984   1.266   0.399  10.418  3.4206 -2.7402 -1.5866
   63TMC2    H2  985   1.631   0.509  10.612 -0.1268 -1.7739 -1.4055
   63TMC2    C7  986   1.489   0.550  10.391 -0.4225  0.0276 -1.2313
   63TMC2    C8  987   1.522   0.446  10.862  0.0071 -0.1022  0.2438
   63TMC2    O1  988   1.612   0.570  10.387  0.1050 -0.2836  0.2589
   63TMC2    O2  989   1.482   0.387  10.960 -0.5812 -0.0476  0.3677
   63TMC2    O5  990   1.519   0.579  10.850  0.3097 -0.0484 -0.3385
   63TMC2    H5  991   1.575   0.609  10.775 -0.3034  0.8001 -0.4577
   64MPD2     C  992   0.790   4.727  10.818 -0.1545 -0.0929 -0.3751
   64MPD2    C1  993   0.856   4.715  10.697 -0.0534  0.1345 -0.5103
   64MPD2    C2  994   0.966   0.059  10.678 -0.3233 -0.1983 -0.3665
   64MPD2    C3  995   0.997   0.164  10.768 -0.3294 -0.5656 -0.6688
   64MPD2    C4  996   0.937   0.170  10.890  0.4539 -0.3502 -0.2586
   64MPD2    C5  997   0.835   0.081  10.916  0.4532  0.4060 -0.4443
   64MPD2     H  998   1.024   0.048  10.587 -0.0723  1.2373 -0.3904
   64MPD2    H1  999   0.956   0.255  10.955 -1.5206 -0.6478  0.7176
   64MPD2    H2 1000   0.716   4.658  10.856  0.1922 -1.3684 -2.0092
   64MPD2    H3 1001   0.783   0.087  11.011  0.3294  2.5058 -0.6304
   64MPD2     N 1002   1.097   0.258  10.744 -0.0322 -0.3404  0.2597
   64MPD2    H5 1003   1.112   0.326  10.818 -1.3684  0.1714  0.0592
   64MPD2    N1 1004   0.826   4.610  10.599 -0.2620 -0.7197  0.0484
   64MPD2    H7 1005   0.899   4.584  10.534  0.3943  0.7237  0.1995
   65TMC2    C1 1006   2.451   0.315  15.082  0.4281 -0.9219 -0.1310
   65TMC2    C2 1007   2.500   0.280  14.960  0.2099 -0.4321  0.0328
   65TMC2    C3 1008   2.589   0.363  14.902  0.1793 -0.2643 -0.0566
   65TMC2    C4 1009   2.499   0.431  15.142 -0.2394 -0.3034 -0.0908
   65TMC2    C5 1010   2.576   0.522  15.070 -0.1790  0.1577  0.0436
   65TMC2    C6 1011   2.627   0.484  14.949  0.6188 -0.2635  0.3491
   65TMC2     C 1012   2.354   0.237  15.149  0.6182  0.2195  0.2182
   65TMC2     O 1013   2.352   0.254  15.269  0.2181 -0.0432 -0.3488
   65TMC2     H 1014   2.462   0.196  14.904 -0.8429 -0.6395  1.0404
   65TMC2    H1 1015   2.452   0.467  15.233  1.6016 -2.1205  1.5618
   65TMC2    H2 1016   2.690   0.550  14.891  0.7095  0.1130  0.8749
   65TMC2    C7 1017   2.613   0.652  15.121  0.2708  0.4085 -0.0071
   65TMC2    C8 1018   2.671   0.316  14.786  0.1125  0.5679 -0.2596
   65TMC2    O1 1019   2.720   0.697  15.075  0.7684  0.2370  0.3273
   65TMC2    O2 1020   2.758   0.386  14.738  0.2377 -0.2941  0.1519
   65TMC2    O5 1021   2.690   0.186  14.818 -0.3279 -0.3536 -0.1574
   65TMC2    H5 1022   2.656   0.149  14.902  0.9026 -0.2573  0.3817
   66MPD2     C 1023   2.114   0.093  15.246  0.3814 -0.7394  0.1714
   66MPD2    C1 1024   2.174   0.070  15.124 -0.0478  0.2168 -0.5745
   66MPD2    C2 1025   2.135   4.698  15.041  0.2589  0.1408  0.3411
   66MPD2    C3 1026   2.036   4.611  15.090 -0.7272 -0.2908  0.1570
   66MPD2    C4 1027   1.987   4.630  15.216  0.1561  0.4512 -0.3028
   66MPD2    C5 1028   2.021   4.732  15.293  0.8062 -0.1602 -0.3607
   66MPD2     H 1029   2.182   4.698  14.943  0.7459 -0.2531  0.5746
   66MPD2    H1 1030   1.918   4.564  15.267  0.6609  1.1966  1.3506
   66MPD2    H2 1031   2.145   0.172  15.313 -1.2728  0.3411 -0.3259
   66MPD2    H3 1032   1.982   0.002  15.395 -2.4264 -0.6065 -1.5819
   66MPD2     N 1033   1.968   4.506  15.016 -0.0144  0.3403 -0.1923
   66MPD2    H5 1034   1.888   4.467  15.066  2.0350 -1.2591  1.8223
   66MPD2    N1 1035   2.284   0.149  15.072  0.4912 -0.5424  0.5551
   66MPD2    H7 1036   2.303   0.164  14.974  0.7889  0.6885  0.8011
   67TMC2    C1 1037   2.502   4.181  14.122 -0.2433  0.8797 -0.1784
   67TMC2    C2 1038   2.563   4.300  14.124 -0.3706 -0.0384 -0.3399
   67TMC2    C3 1039   2.616   4.333  14.245 -0.2533  0.1025  0.3651
   67TMC2    C4 1040   2.498   4.102  14.228  0.2348  0.1732  0.3135
   67TMC2    C5 1041   2.556   4.138  14.350  0.3236 -0.1081 -0.1800
   67TMC2    C6 1042   2.617   4.258  14.361  0.0149  0.5159 -0.3639
   67TMC2     C 1043   2.453   4.134  13.993 -1.4111 -0.3351  0.1852
   67TMC2     O 1044   2.454   4.013  13.972  0.7009 -0.6464  0.2174
   67TMC2     H 1045   2.548   4.372  14.044  1.0873  0.7696  0.1077
   67TMC2    H1 1046   2.444   4.009  14.212  1.4008 -0.8490  2.3994
   67TMC2    H2 1047   2.677   4.301  14.441 -0.7290 -1.2367  1.1269
   67TMC2    C7 1048   2.571   4.031  14.448 -0.1811  0.0224  0.1072
   67TMC2    C8 1049   2.677   4.466  14.258 -0.2008 -0.1629 -0.3096
   67TMC2    O1 1050   2.547   3.915  14.419 -0.1726 -0.6476  0.4529
   67TMC2    O2 1051   2.708   4.525  14.362 -0.1620 -0.4345 -0.3971
   67TMC2    O5 1052   2.753   4.468  14.143 -0.1102 -0.1704 -0.5963
   67TMC2    H5 1053   2.747   4.395  14.078 -2.1836 -0.4052 -0.1534
   68MPD2     C 1054   2.357   4.088  13.714  0.0965 -0.4007 -0.2596
   68MPD2    C1 1055   2.323   4.192  13.796  0.7969  0.2742 -0.1519
   68MPD2    C2 1056   2.224   4.280  13.748  0.2861  0.7438 -0.0234
   68MPD2    C3 1057   2.150   4.251  13.630 -0.1724 -0.3003  0.3001
   68MPD2    C4 1058   2.180   4.141  13.557 -0.5021  0.1755  0.5095
   68MPD2    C5 1059   2.287   4.067  13.597  0.3481  0.0664  0.0485
   68MPD2     H 1060   2.198   4.361  13.815 -0.0435  1.6806 -1.2794
   68MPD2    H1 1061   2.133   4.115  13.462  1.1835  1.2231 -0.6074
   68MPD2    H2 1062   2.435   4.016  13.738  0.5799 -0.1719 -1.1486
   68MPD2    H3 1063   2.323   3.983  13.538  2.4352 -0.7908  2.5395
   68MPD2     N 1064   2.034   4.324  13.594  0.4420 -0.3040 -0.0037
   68MPD2    H5 1065   1.987   4.305  13.506  0.2309  0.3884 -0.0412
   68MPD2    N1 1066   2.395   4.231  13.913  0.1414  0.8036 -0.3307
   68MPD2    H7 1067   2.386   4.328  13.941  1.7640  0.5093  1.2428
   69TMC2    C1 1068   0.085   0.036  12.902 -0.8887  0.0167 -0.5182
   69TMC2    C2 1069   0.022   0.159  12.912  0.8129 -0.5250  0.2939
   69TMC2    C3 1070   0.060   0.261  12.824  0.1884 -0.2437  0.1494
   69TMC2    C4 1071   0.181   0.012  12.802  0.7897  0.1874 -0.3307
   69TMC2    C5 1072   0.205   0.116  12.716 -0.2960  0.1817 -0.2006
   69TMC2    C6 1073   0.146   0.237  12.722  0.2563  0.0308 -0.0986
   69TMC2     C 1074   0.040   4.664  12.992  0.3651 -0.5568 -0.2236
   69TMC2     O 1075   4.662   4.680  13.043 -0.2785 -0.5612 -0.1987
   69TMC2     H 1076   4.674   0.169  12.984  1.4055  0.8713  0.7406
   69TMC2    H1 1077   0.218   4.644  12.784 -0.9916 -0.1961 -1.9271
   69TMC2    H2 1078   0.179   0.306  12.645  2.1652 -0.9834 -0.1832
   69TMC2    C7 1079   0.275   0.081  12.594  0.0057  0.0933 -1.0065
   69TMC2    C8 1080   0.007   0.392  12.834 -0.6208  0.3065  0.1578
   69TMC2    O1 1081   0.363   4.731  12.599 -0.4186  0.5586  0.5147
   69TMC2    O2 1082   0.044   0.481  12.758 -0.6079 -0.7653 -1.0544
   69TMC2    O5 1083   4.609   0.357  12.866 -0.0255  0.1252  0.0551
   69TMC2    H5 1084   4.596   0.298  12.942  0.0208  1.6240  1.2275
   70MPD2     C 1085   0.196   4.323  13.007  0.3310 -1.3213  0.1697
   70MPD2    C1 1086   0.096   4.417  13.029 -0.6185  0.5996  0.0161
   70MPD2    C2 1087   4.700   4.377  13.060 -0.5876 -0.0731 -0.2332
   70MPD2    C3 1088   4.671   4.244  13.078  0.6040  0.2307  0.5753
   70MPD2    C4 1089   0.041   4.155  13.077  0.6382 -0.6376 -0.5726
   70MPD2    C5 1090   0.162   4.193  13.020  0.4555 -0.0897 -0.5026
   70MPD2     H 1091   4.627   4.455  13.078 -1.9630 -1.1092 -1.3407
   70MPD2    H1 1092   0.026   4.050  13.099  0.5329 -0.9998 -2.3908
   70MPD2    H2 1093   0.292   4.354  12.967  0.6861 -0.2216  1.8578
   70MPD2    H3 1094   0.238   4.117  13.005 -0.5443 -1.2972  0.4873
   70MPD2     N 1095   4.538   4.195  13.092  0.0971  0.1486 -0.4038
   70MPD2    H5 1096   4.534   4.094  13.105  1.2499 -0.0767 -1.7015
   70MPD2    N1 1097   0.127   4.556  12.991  0.1088  0.1003 -1.1600
   70MPD2    H7 1098   0.223   4.563  12.958 -0.4629  2.3664 -2.3431
   71TMC2    C1 1099   1.610   2.142   2.059  0.2659 -0.0732  0.0667
   71TMC2    C2 1100   1.650   2.275   2.085 -0.1421  0.2785 -0.4242
   71TMC2    C3 1101   1.554   2.369   2.117  0.2269  0.5391 -0.0103
   71TMC2    C4 1102   1.476   2.108   2.062 -0.0770  0.4352 -0.4826
   71TMC2    C5 1103   1.389   2.207   2.108 -0.1014  0.1002 -0.9628
   71TMC2    C6 1104   1.428   2.331   2.133 -0.2926 -0.3114  0.3275
   71TMC2     C 1105   1.710   2.039   2.077  0.3907  0.2649  0.0271
   71TMC2     O 1106   1.829   2.075   2.080 -0.5102 -0.2476 -0.3887
   71TMC2     H 1107   1.754   2.304   2.096 -0.1688  0.3914 -0.4694
   71TMC2    H1 1108   1.438   2.012   2.028  2.3983 -1.2476  1.4934
   71TMC2    H2 1109   1.360   2.389   2.194  1.2793  1.1150  0.7407
   71TMC2    C7 1110   1.266   2.172   2.173  0.1120 -0.2747  0.2537
   71TMC2    C8 1111   1.604   2.485   2.199  0.6973  0.1674  0.7905
   71TMC2    O1 1112   1.195   2.267   2.216 -0.0139 -0.0592  0.2062
   71TMC2    O2 1113   1.712   2.490   2.257  0.3915 -0.7872  0.0243
   71TMC2    O5 1114   1.514   2.591   2.195  0.2284 -0.3489 -0.5272
   71TMC2    H5 1115   1.438   2.581   2.134  0.6438  2.1045 -1.4514
   72MPD2     C 1116   1.838   1.550   2.205 -0.2116 -0.4789 -0.0108
   72MPD2    C1 1117   1.913   1.663   2.194 -0.6167 -0.1369  0.2392
   72MPD2    C2 1118   1.868   1.791   2.166  0.2106  0.0892  0.2652
   72MPD2    C3 1119   1.732   1.802   2.144  0.2464 -0.6603 -0.1786
   72MPD2    C4 1120   1.648   1.694   2.160 -0.0844 -0.3601  0.2091
   72MPD2    C5 1121   1.702   1.567   2.190 -0.1327 -0.1440  0.0368
   72MPD2     H 1122   1.928   1.880   2.150 -0.5884  0.5014 -0.4617
   72MPD2    H1 1123   1.543   1.706   2.136 -0.5867 -2.7389  1.2928
   72MPD2    H2 1124   1.871   1.448   2.218  0.6651 -0.3431 -1.2537
   72MPD2    H3 1125   1.636   1.481   2.188 -1.0975  0.6282 -1.0585
   72MPD2     N 1126   1.665   1.917   2.111  0.4344  0.2325  0.4687
   72MPD2    H5 1127   1.565   1.906   2.103  0.8373 -2.1355 -1.3056
   72MPD2    N1 1128   2.052   1.645   2.186  0.3194  0.0277  0.1330
   72MPD2    H7 1129   2.109   1.720   2.149 -1.0971  1.3720  0.6640
   73TMC2    C1 1130   1.354   2.673  14.406  0.3848  0.4899  0.5331
   73TMC2    C2 1131   1.313   2.783  14.483 -0.1588 -0.1212 -0.0331
   73TMC2    C3 1132   1.382   2.812  14.598  0.0594  0.4052  0.2213
   73TMC2    C4 1133   1.462   2.603  14.453 -0.1490  0.1923  0.0363
   73TMC2    C5 1134   1.531   2.649  14.565 -0.0688  0.0622 -0.6773
   73TMC2    C6 1135   1.492   2.754  14.637  0.3295 -0.2326 -0.0859
   73TMC2     C 1136   1.372   2.717  14.269 -0.1356 -0.2211  1.1171
   73TMC2     O 1137   1.480   2.690  14.220  0.7009  0.2994 -0.3651
   73TMC2     H 1138   1.233   2.852  14.458  0.7891  0.3094 -1.8402
   73TMC2    H1 1139   1.506   2.519  14.401 -3.5723 -1.7110  0.2054
   73TMC2    H2 1140   1.564   2.794  14.708  0.1774 -2.2258  1.1755
   73TMC2    C7 1141   1.668   2.637  14.542 -0.3244  0.3885 -0.5409
   73TMC2    C8 1142   1.399   2.961  14.608  0.1384  0.1563  0.2354
   73TMC2    O1 1143   1.746   2.610  14.630 -0.4539 -0.1881 -0.0190
   73TMC2    O2 1144   1.387   3.034  14.511  0.0589  0.7676  0.4830
   73TMC2    O5 1145   1.382   2.994  14.736 -0.1092 -0.4282 -0.3137
   73TMC2    H5 1146   1.383   2.920  14.800 -1.5110  0.3444  0.6013
   74MPD2     C 1147   1.288   2.934  13.811 -0.6772 -0.1846 -0.4199
   74MPD2    C1 1148   1.399   2.866  13.866 -0.4396  0.6750  0.0721
   74MPD2    C2 1149   1.399   2.844  14.001 -0.3505  0.1149  1.0994
   74MPD2    C3 1150   1.290   2.857  14.081  0.5808 -1.0060  0.6134
   74MPD2    C4 1151   1.179   2.901  14.016  0.8475 -0.5247 -0.4279
   74MPD2    C5 1152   1.172   2.934  13.885  0.5594  0.0866  1.0988
   74MPD2     H 1153   1.498   2.824  14.040  0.0826 -0.5079 -0.3233
   74MPD2    H1 1154   1.084   2.893  14.066  0.2654  3.4323 -0.8968
   74MPD2    H2 1155   1.283   2.974  13.710 -2.3871 -0.9612 -0.6337
   74MPD2    H3 1156   1.076   2.965  13.845  0.0905 -1.6696  0.8608
   74MPD2     N 1157   1.278   2.799  14.213  0.1739  0.2889 -0.1207
   74MPD2    H5 1158   1.186   2.811  14.253  1.0539  1.3729  1.5907
   74MPD2    N1 1159   1.519   2.860  13.781  0.2466 -0.0028 -0.7221
   74MPD2    H7 1160   1.518   2.899  13.687 -0.3484 -0.9591 -1.1161
   75TMC2    C1 1161   1.855   4.462  13.610 -0.3552 -0.1072  0.2906
   75TMC2    C2 1162   1.822   4.587  13.641 -0.5830  0.7065 -0.2858
   75TMC2    C3 1163   1.690   4.620  13.628  0.0156 -0.1539  0.5490
   75TMC2    C4 1164   1.769   4.372  13.566  0.3032  0.4260  0.2965
   75TMC2    C5 1165   1.633   4.411  13.536  0.6671  0.2749 -0.4357
   75TMC2    C6 1166   1.596   4.533  13.581 -0.0282  0.1643  0.0701
   75TMC2     C 1167   1.980   4.426  13.666 -0.4110  0.0527 -0.9797
   75TMC2     O 1168   2.029   4.491  13.756 -0.1902 -0.5290 -0.0364
   75TMC2     H 1169   1.898   4.659  13.669 -0.4132  0.3782  0.0961
   75TMC2    H1 1170   1.804   4.279  13.522 -1.4748 -0.1164  0.0520
   75TMC2    H2 1171   1.501   4.576  13.553 -0.4466 -0.5093  0.4662
   75TMC2    C7 1172   1.556   4.326  13.451  0.1400 -0.5147 -0.2405
   75TMC2    C8 1173   1.640   0.004  13.699  0.1484  0.2676 -0.3061
   75TMC2    O1 1174   1.597   4.213  13.426 -0.6908 -0.0326  0.1368
   75TMC2    O2 1175   1.522   0.035  13.684 -0.2555  0.4708  0.3522
   75TMC2    O5 1176   1.729   0.062  13.785  0.4325  0.5375 -0.7393
   75TMC2    H5 1177   1.815   0.014  13.789 -0.2582 -0.6165  0.4518
   76TMC2    C1 1178   1.328   4.285  12.646 -0.1612  0.4325 -0.6686
   76TMC2    C2 1179   1.410   4.171  12.659  0.5206 -0.3557  0.5544
   76TMC2    C3 1180   1.509   4.174  12.754  0.0004  0.8885 -0.4821
   76TMC2    C4 1181   1.336   4.391  12.730 -0.1912 -0.2901  0.0012
   76TMC2    C5 1182   1.440   4.390  12.821 -0.5936  0.1967 -0.1960
   76TMC2    C6 1183   1.526   4.281  12.831 -0.7145  0.6116 -0.1299
   76TMC2     C 1184   1.246   4.295  12.526 -0.6569  0.4291  1.0900
   76TMC2     O 1185   1.168   4.388  12.525 -0.2561 -0.3917 -0.1680
   76TMC2     H 1186   1.379   4.082  12.605 -0.3081  1.7248 -2.3921
   76TMC2    H1 1187   1.265   4.473  12.733 -0.2602 -0.2547 -2.1394
   76TMC2    H2 1188   1.611   4.285  12.898  0.3374 -2.2950 -1.2929
   76TMC2    C7 1189   1.472   4.502  12.901 -0.8044 -0.6350 -0.2535
   76TMC2    C8 1190   1.560   4.049  12.795  0.5753  0.2286  0.2178
   76TMC2    O1 1191   1.584   4.505  12.948 -0.2878  0.5234  0.6033
   76TMC2    O2 1192   1.563   4.009  12.911 -0.0452 -0.0639 -0.0302
   76TMC2    O5 1193   1.584   3.975  12.686  0.5009  0.1905  0.1472
   76TMC2    H5 1194   1.586   4.017  12.597  2.0497  0.0685  0.1284
   77MPD2     C 1195   1.188   4.220  12.026 -0.3092  0.5507 -0.3549
   77MPD2    C1 1196   1.107   4.282  12.124 -0.2926 -0.1449 -0.3263
   77MPD2    C2 1197   1.127   4.266  12.257  0.3271 -0.0935 -0.2551
   77MPD2    C3 1198   1.242   4.201  12.297 -0.5312  0.1946 -0.3880
   77MPD2    C4 1199   1.323   4.148  12.204  0.1041 -0.7748  1.2508
   77MPD2    C5 1200   1.297   4.151  12.073 -0.2099 -0.1096  0.7337
   77MPD2     H 1201   1.068   4.318  12.332 -0.0621  1.0890 -1.3762
   77MPD2    H1 1202   1.415   4.099  12.234  0.7090 -0.6134 -0.3142
   77MPD2    H2 1203   1.173   4.226  11.919  1.9206  1.4564 -0.6246
   77MPD2    H3 1204   1.369   4.104  12.007 -0.3968 -1.4071  1.4403
   77MPD2     N 1205   1.299   4.213  12.427 -1.0784 -0.0028  0.0799
   77MPD2    H5 1206   1.378   4.153  12.447  0.1292  1.9757  1.2591
   77MPD2    N1 1207   1.002   4.372  12.094  0.5346 -0.0250 -0.6295
   77MPD2    H7 1208   0.966   4.419  12.176 -0.5590  1.7271 -2.1203
   78TMC2    C1 1209   2.594   1.068   1.907  0.0100  0.4928 -0.4002
   78TMC2    C2 1210   2.563   0.944   1.944 -0.0537  0.8279 -0.2342
   78TMC2    C3 1211   2.672   0.872   1.982 -0.3136 -0.0507  0.2034
   78TMC2    C4 1212   2.723   1.120   1.904  0.3946  0.0561 -0.1823
   78TMC2    C5 1213   2.829   1.044   1.933  0.6046  0.2242 -0.2220
   78TMC2    C6 1214   2.806   0.915   1.974 -0.4157 -0.7012  1.2060
   78TMC2     C 1215   2.480   1.147   1.854 -0.4040 -0.2430 -0.3615
   78TMC2     O 1216   2.502   1.234   1.770 -0.1973 -0.7738  0.2264
   78TMC2     H 1217   2.463   0.902   1.949  0.0469  0.6591  0.3842
   78TMC2    H1 1218   2.743   1.217   1.860 -0.6506  0.7253  0.8275
   78TMC2    H2 1219   2.887   0.858   2.017 -0.0320 -0.6074  0.6078
   78TMC2    C7 1220   2.960   1.083   1.892  0.1867  0.1015 -0.7670
   78TMC2    C8 1221   2.639   0.749   2.054 -0.3498 -0.7645 -0.1283
   78TMC2    O1 1222   2.963   1.157   1.794 -0.4806  0.3330 -0.0024
   78TMC2    O2 1223   2.725   0.662   2.059 -0.2122 -0.0734  0.0871
   78TMC2    O5 1224   2.550   0.773   2.154  0.1794 -0.2811 -0.5286
   78TMC2    H5 1225   2.506   0.859   2.140  1.4149  0.6660  1.3897
   79MPD1     C 1226   1.992   1.285   1.891 -0.5205  0.4801 -0.1939
   79MPD1    C1 1227   2.081   1.285   1.781 -0.5926 -0.0156  0.2886
   79MPD1    C2 1228   2.206   1.234   1.798 -0.1793  0.2215 -0.7565
   79MPD1    C3 1229   2.252   1.193   1.924 -0.3628  0.4491 -0.0199
   79MPD1    C4 1230   2.172   1.207   2.032  0.1130 -0.3128  0.7994
   79MPD1    C5 1231   2.042   1.241   2.012  0.0822  0.7351  0.2836
   79MPD1     H 1232   2.267   1.226   1.709 -0.1631  2.8604 -0.9992
   79MPD1    H1 1233   2.211   1.193   2.132 -0.5651 -1.7068  0.8686
   79MPD1    H2 1234   1.894   1.331   1.886 -1.0203 -0.7991 -2.3836
   79MPD1    H3 1235   1.990   1.251   2.107  3.9185  0.6477  2.3919
   79MPD1     N 1236   2.379   1.149   1.951 -0.1994  0.5686 -0.5287
   79MPD1    H5 1237   2.383   1.090   2.034 -0.6329  0.6158 -0.4769
   79MPD1    N1 1238   2.024   1.302   1.655  0.5009 -0.4456 -0.0410
   79MPD1    H6 1239   1.938   1.357   1.653 -0.6696 -2.4052 -2.4938
   79MPD1    H7 1240   2.099   1.342   1.598 -1.5017  0.8834 -1.7731
   80TMC2    C1 1241   4.100   4.093  11.762 -0.4025 -0.5503 -0.5727
   80TMC2    C2 1242   4.010   4.195  11.741  0.0723 -0.6398  0.0364
   80TMC2    C3 1243   3.883   4.157  11.736 -0.2706  0.1269 -0.1781
   80TMC2    C4 1244   4.061   3.969  11.800  0.2131 -0.3641 -0.0861
   80TMC2    C5 1245   3.932   3.941  11.815 -0.2262  0.3875  0.1448
   80TMC2    C6 1246   3.838   4.029  11.765  0.1053  0.2825 -0.5401
   80TMC2     C 1247   4.235   4.134  11.777 -0.4561  0.2831 -0.0389
   80TMC2     O 1248   4.307   4.125  11.676  0.7330 -0.4825 -0.8392
   80TMC2     H 1249   4.042   4.295  11.716 -0.8959  0.3233  2.5598
   80TMC2    H1 1250   4.137   3.899  11.832  0.4245 -0.1497 -0.1083
   80TMC2    H2 1251   3.731   4.015  11.772  0.2984 -0.9306 -0.0958
   80TMC2    C7 1252   3.877   3.820  11.872  0.3027 -0.3631  0.5599
   80TMC2    C8 1253   3.787   4.255  11.714  0.5850 -0.2466 -0.2816
   80TMC2    O1 1254   3.756   3.797  11.861  0.1564  0.0619  0.1655
   80TMC2    O2 1255   3.804   4.351  11.644  0.1312 -0.3790 -0.6818
   80TMC2    O5 1256   3.705   4.250  11.821  0.8883  0.4271 -0.3752
   80TMC2    H5 1257   3.723   4.183  11.889  0.6157  1.3433  0.5935
   81MPD2     C 1258   4.523   4.153  11.856 -0.0477  0.5839 -0.5036
   81MPD2    C1 1259   4.410   4.180  11.937 -0.2671  0.3911  1.0222
   81MPD2    C2 1260   4.423   4.214  12.069  0.2535 -0.4635 -0.1241
   81MPD2    C3 1261   4.546   4.229  12.127 -0.3209 -1.1963 -0.4702
   81MPD2    C4 1262   4.656   4.193  12.047 -0.1534 -0.1552  0.0134
   81MPD2    C5 1263   4.648   4.162  11.911 -0.4537 -0.4163  0.6073
   81MPD2     H 1264   4.333   4.223  12.130 -1.0449  0.0328 -2.1321
   81MPD2    H1 1265   0.022   4.196  12.092 -1.2379 -1.1468  2.4491
   81MPD2    H2 1266   4.514   4.130  11.751  2.5718 -0.0383 -0.5859
   81MPD2    H3 1267   4.732   4.130  11.851 -1.4047  0.1905 -1.0290
   81MPD2     N 1268   4.545   4.240  12.268  0.0447 -0.0921  0.6879
   81MPD2    H5 1269   4.452   4.242  12.309 -0.5120  0.2108 -0.6028
   81MPD2    N1 1270   4.278   4.162  11.903 -0.8331  0.2695 -0.4549
   81MPD2    H7 1271   4.209   4.179  11.975  1.4663  0.7044  1.6461
   82TMC2    C1 1272   2.172   3.126  11.171 -0.6590  1.2052 -0.7509
   82TMC2    C2 1273   2.295   3.171  11.201  0.7266 -0.1949  0.6125
   82TMC2    C3 1274   2.339   3.162  11.326 -0.7975 -0.8910  0.0287
   82TMC2    C4 1275   2.093   3.064  11.270 -0.3793  0.4872 -0.4108
   82TMC2    C5 1276   2.143   3.064  11.396  0.4873 -0.7095 -0.1029
   82TMC2    C6 1277   2.265   3.118  11.432 -0.5047  0.6063  0.8474
   82TMC2     C 1278   2.116   3.164  11.042 -0.3637  0.2950 -0.8913
   82TMC2     O 1279   2.178   3.249  10.978  0.1159  0.0930 -0.7182
   82TMC2     H 1280   2.352   3.224  11.126  0.3789  0.5676  0.8848
   82TMC2    H1 1281   1.994   3.031  11.243  0.0857 -0.9692 -0.3413
   82TMC2    H2 1282   2.309   3.107  11.530  1.8648 -0.7267 -0.3651
   82TMC2    C7 1283   2.075   3.004  11.506  0.5629  0.0028 -0.1362
   82TMC2    C8 1284   2.451   3.239  11.364  0.2822 -0.8911 -0.4036
   82TMC2    O1 1285   2.125   3.025  11.617  0.1495 -0.5953 -0.2973
   82TMC2    O2 1286   2.461   3.278  11.480  0.5887 -0.2120 -0.5198
   82TMC2    O5 1287   2.553   3.202  11.284  0.5785  0.8972 -0.4347
   82TMC2    H5 1288   2.526   3.174  11.194 -1.2442 -1.6907  0.8891
   83MPD2     C 1289   1.775   3.087  10.674  0.0156  0.3984 -0.2369
   83MPD2    C1 1290   1.882   3.169  10.676  1.0298 -0.3091  0.2889
   83MPD2    C2 1291   1.965   3.175  10.784  0.1109 -0.7495  0.1027
   83MPD2    C3 1292   1.942   3.082  10.887 -0.8850  0.6622 -0.9085
   83MPD2    C4 1293   1.834   2.994  10.883 -0.0378  0.7982  0.1785
   83MPD2    C5 1294   1.748   3.003  10.780 -0.2765  0.6249  0.4359
   83MPD2     H 1295   2.051   3.240  10.781 -2.1473  2.2210 -0.3007
   83MPD2    H1 1296   1.813   2.925  10.964  0.7690  0.2215 -0.1069
   83MPD2    H2 1297   1.707   3.082  10.590 -0.5889 -1.3157  0.3622
   83MPD2    H3 1298   1.655   2.947  10.772  0.4114 -0.4511 -0.0501
   83MPD2     N 1299   2.012   3.083  11.010  0.0625 -0.3667  0.1788
   83MPD2    H5 1300   1.975   3.030  11.088 -0.4889 -0.2313  0.0083
   83MPD2    N1 1301   1.892   3.249  10.562  0.2492 -0.3717  0.6503
   83MPD2    H7 1302   1.825   3.233  10.487  0.8144 -1.6580  0.4236
   84TMC2    C1 1303   3.346   2.992  11.006 -0.2573 -0.1083 -0.3541
   84TMC2    C2 1304   3.266   2.892  11.050 -0.6531 -0.2439  0.4942
   84TMC2    C3 1305   3.206   2.812  10.960  0.0231  0.9506 -0.8070
   84TMC2    C4 1306   3.359   3.021  10.866  0.0373  0.2039  0.7391
   84TMC2    C5 1307   3.284   2.939  10.780 -0.0203  0.2607  0.0157
   84TMC2    C6 1308   3.199   2.846  10.825  0.1108 -1.1015 -0.5314
   84TMC2     C 1309   3.384   3.096  11.097 -0.4365  0.2080 -0.9063
   84TMC2     O 1310   3.312   3.105  11.199  0.3677  0.2105  0.7278
   84TMC2     H 1311   3.268   2.871  11.156 -1.2731  0.0049  0.5579
   84TMC2    H1 1312   3.392   3.114  10.823 -3.0747  1.9399  2.0792
   84TMC2    H2 1313   3.163   2.775  10.753  1.2070  0.1708 -2.3315
   84TMC2    C7 1314   3.277   2.972  10.636  0.1573 -0.3533 -0.5373
   84TMC2    C8 1315   3.105   2.729  11.022 -0.2652 -0.0964  0.3178
   84TMC2    O1 1316   3.182   2.922  10.576  0.3291  0.1430 -0.4763
   84TMC2    O2 1317   3.085   2.747  11.141  0.6918 -0.0540  0.4071
   84TMC2    O5 1318   2.999   2.734  10.942  0.0355  0.7249  0.3511
   84TMC2    H5 1319   3.018   2.731  10.845  1.8749 -1.2837  0.7531
   85TMC2    C1 1320   0.071   1.078  16.272 -0.1553 -0.0634 -0.2390
   85TMC2    C2 1321   0.084   1.199  16.336 -0.1727  0.5694  0.8073
   85TMC2    C3 1322   0.165   1.290  16.274  0.5513 -0.5023 -0.0075
   85TMC2    C4 1323   0.121   1.054  16.148 -0.5650 -0.1846  0.2784
   85TMC2    C5 1324   0.185   1.156  16.085 -0.0508 -0.1216  0.0158
   85TMC2    C6 1325   0.212   1.269  16.153  0.3542  0.3007  0.6486
   85TMC2     C 1326   4.714   0.994  16.343  0.3325  0.3125 -0.0223
   85TMC2     O 1327   4.654   1.051  16.430 -0.4130  0.0269  0.0953
   85TMC2     H 1328   0.060   1.207  16.442 -0.4052 -1.3345  0.9047
   85TMC2    H1 1329   0.088   0.968  16.091  2.0384 -2.0063  1.4415
   85TMC2    H2 1330   0.281   1.342  16.113  1.3634 -0.2091  1.4731
   85TMC2    C7 1331   0.232   1.135  15.955  0.3987  0.3101 -0.3615
   85TMC2    C8 1332   0.229   1.385  16.360 -0.0964 -0.2144 -0.1743
   85TMC2    O1 1333   0.256   1.022  15.924 -0.0207  0.0004  0.2029
   85TMC2    O2 1334   0.173   1.410  16.464  0.1239 -0.1767  0.1693
   85TMC2    O5 1335   0.358   1.353  16.351  0.1922 -0.5126  0.6232
   85TMC2    H5 1336   0.384   1.295  16.276 -3.2665  0.4549 -1.3127
   86MPD2     C 1337   4.390   0.599  16.436  0.3664  0.4042  0.3419
   86MPD2    C1 1338   4.456   0.572  16.314  0.2146 -0.0611 -0.4562
   86MPD2    C2 1339   4.558   0.662  16.277 -0.2703  0.7275 -0.0657
   86MPD2    C3 1340   4.586   0.781  16.342 -0.2130 -0.2748 -0.3090
   86MPD2    C4 1341   4.514   0.798  16.465  0.0204 -0.1681  0.3827
   86MPD2    C5 1342   4.417   0.712  16.508 -0.4743  0.2319 -0.0603
   86MPD2     H 1343   4.615   0.644  16.186 -1.8481 -3.6952 -0.1569
   86MPD2    H1 1344   4.518   0.889  16.525  1.1340  0.8423 -1.2110
   86MPD2    H2 1345   4.304   0.537  16.459 -0.9451  1.2537 -2.3009
   86MPD2    H3 1346   4.353   0.726  16.595  0.1821 -1.2182  0.6689
   86MPD2     N 1347   4.693   0.869  16.290 -0.7610 -0.6108 -0.5514
   86MPD2    H5 1348   0.007   0.841  16.204 -1.3841 -0.6995 -0.8581
   86MPD2    N1 1349   4.417   0.464  16.228 -0.2003 -0.4706  0.3778
   86MPD2    H7 1350   4.484   0.435  16.157 -2.8204 -0.0707 -2.2789
   87TMC2    C1 1351   3.114   4.571   1.465  0.1116  0.6635  0.2363
   87TMC2    C2 1352   3.170   4.470   1.536  1.0340  0.0402 -0.2967
   87TMC2    C3 1353   3.268   4.497   1.630 -0.0164  0.1198 -0.2888
   87TMC2    C4 1354   3.150   4.702   1.486 -0.2707 -0.5048  0.1378
   87TMC2    C5 1355   3.238   4.726   1.587  0.4203 -0.3556  0.0115
   87TMC2    C6 1356   3.306   4.629   1.663 -0.2597 -0.5271 -0.1166
   87TMC2     C 1357   3.044   4.540   1.345 -0.4920 -0.5279 -0.6674
   87TMC2     O 1358   3.074   4.590   1.236 -0.8021  0.0880  0.2171
   87TMC2     H 1359   3.137   4.367   1.529 -1.5006  0.8871 -0.8315
   87TMC2    H1 1360   3.107   0.041   1.417 -0.9305 -1.5492 -0.5275
   87TMC2    H2 1361   3.402   4.648   1.710 -0.3684 -1.6651  0.5618
   87TMC2    C7 1362   3.234   0.125   1.649  0.3163 -0.2411  1.4475
   87TMC2    C8 1363   3.310   4.380   1.710  1.4228 -0.0396 -0.0117
   87TMC2    O1 1364   3.187   0.221   1.584 -0.1704  0.3733  0.3749
   87TMC2    O2 1365   3.230   4.294   1.737  0.1949  0.6452  0.0438
   87TMC2    O5 1366   3.440   4.389   1.745 -0.3586 -0.2552  0.5404
   87TMC2    H5 1367   3.487   4.471   1.718  0.1272 -0.5711  0.4194
   88MPD2     C 1368   3.265   0.221   2.002 -0.4665  0.1532  0.4154
   88MPD2    C1 1369   3.272   0.235   1.865 -0.3784  0.3255 -0.8386
   88MPD2    C2 1370   3.292   0.361   1.814 -0.2836  0.1932 -0.4900
   88MPD2    C3 1371   3.309   0.473   1.894  0.0846 -0.1283 -0.3278
   88MPD2    C4 1372   3.289   0.460   2.034  0.3115 -0.4103  0.7602
   88MPD2    C5 1373   3.271   0.333   2.080  0.4914 -0.0666 -0.1721
   88MPD2     H 1374   3.299   0.380   1.707  0.7999  1.4052 -0.1999
   88MPD2    H1 1375   3.290   0.546   2.100  2.9225 -0.5449  0.8955
   88MPD2    H2 1376   3.254   0.129   2.059  1.1110  0.3823  1.0889
   88MPD2    H3 1377   3.272   0.317   2.188 -2.5217 -0.9757 -0.2888
   88MPD2     N 1378   3.308   0.604   1.841  0.1029 -0.1739  0.4697
   88MPD2    H5 1379   3.274   0.674   1.906  0.8444  0.8258 -0.2041
   88MPD2    N1 1380   3.261   0.124   1.783  0.5329  0.3979 -0.0100
   88MPD2    H7 1381   3.272   0.031   1.821  0.2906  1.4312  2.5758
   89TMC2    C1 1382   3.198   2.462   1.002  0.0275  0.0553  0.1987
   89TMC2    C2 1383   3.204   2.440   0.863 -0.5564 -0.3034  0.2300
   89TMC2    C3 1384   3.298   2.348   0.822  0.2477  0.1190 -0.0971
   89TMC2    C4 1385   3.294   2.424   1.090 -0.3218  0.1878  0.8184
   89TMC2    C5 1386   3.395   2.342   1.040 -0.4312 -0.2418  0.1151
   89TMC2    C6 1387   3.400   2.312   0.906 -0.2667  0.1673 -0.7687
   89TMC2     C 1388   3.131   2.582   1.045 -0.1913  0.4210 -0.5767
   89TMC2     O 1389   3.094   2.664   0.957  0.3739 -0.4599  0.4929
   89TMC2     H 1390   3.124   2.479   0.802 -1.9725 -2.6243  0.5979
   89TMC2    H1 1391   3.290   2.440   1.197  0.6027  0.7805  0.7700
   89TMC2    H2 1392   3.484   2.257   0.865  1.3805  1.2817  1.0751
   89TMC2    C7 1393   3.510   2.309   1.118 -0.0305 -0.7416 -0.8132
   89TMC2    C8 1394   3.330   2.349   0.680 -0.6287 -0.0098  0.6988
   89TMC2    O1 1395   3.575   2.208   1.098  0.0582  0.0929 -0.8898
   89TMC2    O2 1396   3.441   2.320   0.638 -0.2541  0.1906  0.1046
   89TMC2    O5 1397   3.251   2.432   0.610  0.1250 -0.5982 -0.6427
   89TMC2    H5 1398   3.153   2.434   0.623  0.0017 -0.0933 -1.6496
   90MPD2     C 1399   3.003   2.897   1.430 -0.2360  0.6637 -0.2519
   90MPD2    C1 1400   2.999   2.770   1.476  0.1166 -1.3355 -0.4798
   90MPD2    C2 1401   3.035   2.671   1.390  0.1648  0.3686  0.2684
   90MPD2    C3 1402   3.067   2.687   1.258 -0.4560 -0.1481  0.4740
   90MPD2    C4 1403   3.062   2.817   1.209 -0.2427 -0.9185  0.6114
   90MPD2    C5 1404   3.029   2.918   1.296 -0.0306 -0.5855  0.1323
   90MPD2     H 1405   3.045   2.574   1.438 -0.0891  0.1402 -0.1339
   90MPD2    H1 1406   3.090   2.839   1.107  0.0897  0.4408  0.9962
   90MPD2    H2 1407   2.973   2.979   1.494  0.6984 -0.6268  1.8516
   90MPD2    H3 1408   3.035   3.020   1.260 -0.6748 -1.0661 -1.3106
   90MPD2     N 1409   3.102   2.572   1.180 -0.4144  0.2613 -0.0598
   90MPD2    H5 1410   3.125   2.489   1.234 -1.5613 -0.9315 -1.3891
   90MPD2    N1 1411   2.964   2.736   1.606 -0.1622 -0.0025  0.4597
   90MPD2    H7 1412   2.931   2.643   1.630  0.8724 -1.2560 -3.0264
   91TMC2    C1 1413   0.065   1.814  16.780 -0.0645  0.6852 -0.5958
   91TMC2    C2 1414   0.139   1.770  16.891 -0.4557  0.5259  0.1006
   91TMC2    C3 1415   0.064   1.697  16.977  0.2931  0.1383 -0.2138
   91TMC2    C4 1416   4.663   1.797  16.760 -0.0904  1.3185  0.6843
   91TMC2    C5 1417   4.589   1.726  16.855 -0.0052 -0.3260  0.3381
   91TMC2    C6 1418   4.660   1.670  16.960 -1.0307 -0.6258 -0.1760
   91TMC2     C 1419   0.144   1.815  16.656  0.0705  0.5235  0.5651
   91TMC2     O 1420   0.074   1.843  16.555  0.2460 -0.1017  0.8498
   91TMC2     H 1421   0.245   1.784  16.913 -0.0431 -1.4990 -0.5988
   91TMC2    H1 1422   4.619   1.829  16.666 -0.4764  0.5506  0.5989
   91TMC2    H2 1423   4.620   1.595  17.027 -0.2151 -0.9169 -0.0236
   91TMC2    C7 1424   4.440   1.694  16.834 -0.0672  0.2451  0.1812
   91TMC2    C8 1425   0.128   1.632  17.096 -0.6636  1.0109  0.3493
   91TMC2    O1 1426   4.396   1.610  16.908 -0.0492  0.2771  0.2255
   91TMC2    O2 1427   0.057   1.605  17.192  0.0208 -0.2704  0.4664
   91TMC2    O5 1428   0.230   1.719  17.127 -0.3385  0.0488  0.3533
   91TMC2    H5 1429   0.298   1.721  17.055 -0.3745 -1.6837  0.2510
   92MPD2     C 1430   0.335   1.746  16.435  0.0909 -0.1699  0.4442
   92MPD2    C1 1431   0.374   1.772  16.561  0.2890 -0.1690  0.0969
   92MPD2    C2 1432   0.502   1.746  16.600  0.0116  0.3979  0.1885
   92MPD2    C3 1433   0.594   1.695  16.505 -0.1983 -0.7084  0.2276
   92MPD2    C4 1434   0.553   1.673  16.376 -0.4652  0.7696 -0.1545
   92MPD2    C5 1435   0.424   1.697  16.347  0.7481  0.3798  0.0483
   92MPD2     H 1436   0.523   1.774  16.703  2.0674 -1.4310  0.2754
   92MPD2    H1 1437   0.618   1.626  16.303 -0.1524 -0.1975  0.7496
   92MPD2    H2 1438   0.232   1.766  16.408  0.6804  2.1875 -0.0413
   92MPD2    H3 1439   0.383   1.679  16.248  0.4885  0.5202  0.1303
   92MPD2     N 1440   0.728   1.694  16.547  0.5179 -0.1502  0.1728
   92MPD2    H5 1441   0.743   1.722  16.644  1.2356  0.6168 -0.1630
   92MPD2    N1 1442   0.282   1.809  16.666 -0.2963 -0.1730 -0.4239
   92MPD2    H7 1443   0.322   1.808  16.760 -1.0975 -1.4659 -0.1065
   93TMC2    C1 1444   1.565   2.286  14.305  0.3146  0.3799  0.1806
   93TMC2    C2 1445   1.559   2.277  14.436  0.7166  0.4177 -0.8681
   93TMC2    C3 1446   1.680   2.270  14.498 -0.2308 -0.0679  0.5785
   93TMC2    C4 1447   1.692   2.289  14.241  0.0781 -0.4997 -0.3100
   93TMC2    C5 1448   1.810   2.269  14.311  0.3951 -0.2334  0.2599
   93TMC2    C6 1449   1.805   2.259  14.451 -0.3359  0.1032  0.5003
   93TMC2     C 1450   1.453   2.319  14.227  0.0448  0.2569  0.0879
   93TMC2     O 1451   1.468   2.366  14.114 -0.2313  0.5269  0.0649
   93TMC2     H 1452   1.469   2.276  14.496  0.2478  0.0149 -1.5950
   93TMC2    H1 1453   1.687   2.307  14.134  0.8823  2.0150  0.0732
   93TMC2    H2 1454   1.896   2.244  14.509 -0.5676 -0.5984  0.6892
   93TMC2    C7 1455   1.933   2.306  14.248  1.2104  0.3539  0.0271
   93TMC2    C8 1456   1.677   2.281  14.642 -0.3277  0.7308  0.2887
   93TMC2    O1 1457   2.031   2.300  14.322 -0.0173 -0.3214  0.0551
   93TMC2    O2 1458   1.592   2.340  14.703  0.5762  0.1040 -0.4559
   93TMC2    O5 1459   1.746   2.178  14.684  0.3496 -0.4454 -0.0363
   93TMC2    H5 1460   1.790   2.134  14.608  0.7395  0.0430 -0.0953
   94MPD2     C 1461   1.189   2.430  14.147  0.2043  0.6244  0.6845
   94MPD2    C1 1462   1.208   2.318  14.233 -0.4220  0.1705 -0.0396
   94MPD2    C2 1463   1.106   2.233  14.266 -0.5293  1.0229  0.0220
   94MPD2    C3 1464   0.985   2.247  14.211  0.1972 -0.1193 -0.4065
   94MPD2    C4 1465   0.964   2.358  14.123 -0.3884  0.4813 -0.0372
   94MPD2    C5 1466   1.063   2.447  14.104 -0.9310 -0.5958 -0.0076
   94MPD2     H 1467   1.126   2.151  14.334 -1.7327  0.9023  0.2251
   94MPD2    H1 1468   0.861   2.381  14.099 -0.7879  0.7139  1.9087
   94MPD2    H2 1469   1.267   2.504  14.130  0.6921  0.3735  1.8813
   94MPD2    H3 1470   1.042   2.539  14.050  1.8211 -1.7369 -3.0443
   94MPD2     N 1471   0.883   2.151  14.230 -0.4698 -0.2277  0.0531
   94MPD2    H5 1472   0.804   2.154  14.166 -0.2545  0.4809 -0.1804
   94MPD2    N1 1473   1.332   2.281  14.285  0.5393  0.0710  0.0955
   94MPD2    H7 1474   1.336   2.227  14.371 -3.6304 -1.1726 -0.4869
   95TMC2    C1 1475   1.615   3.902  15.695  0.1675 -0.0801  0.7650
   95TMC2    C2 1476   1.521   3.812  15.726 -0.2271 -0.0262 -0.0194
   95TMC2    C3 1477   1.496   3.805  15.866  0.0838 -0.0198  0.6718
   95TMC2    C4 1478   1.670   4.000  15.779  0.0001 -0.0387 -0.1410
   95TMC2    C5 1479   1.630   3.998  15.909 -0.6048 -0.4105 -0.5178
   95TMC2    C6 1480   1.551   3.892  15.956 -0.4608  0.1563  0.1945
   95TMC2     C 1481   1.677   3.906  15.563 -0.5614  0.0461 -0.0484
   95TMC2     O 1482   1.760   3.993  15.538  0.6934  0.4571 -0.0401
   95TMC2     H 1483   1.467   3.747  15.657  0.8595 -0.0857 -0.8076
   95TMC2    H1 1484   1.728   4.082  15.737  1.9825 -0.3436  2.0059
   95TMC2    H2 1485   1.530   3.873  16.060  3.2608 -0.4051  0.8326
   95TMC2    C7 1486   1.628   4.117  15.992 -0.0771  0.1000 -0.1957
   95TMC2    C8 1487   1.429   3.675  15.906  0.1912  0.1635 -0.2206
   95TMC2    O1 1488   1.608   4.088  16.108 -0.2950  0.5649 -0.1535
   95TMC2    O2 1489   1.458   3.570  15.847 -0.1495  0.1528  0.1171
   95TMC2    O5 1490   1.359   3.678  16.023  0.9346 -0.4533  0.3314
   95TMC2    H5 1491   1.341   3.771  16.050  0.4220 -1.1068  2.2178
   96MPD2     C 1492   1.780   3.704  15.103  0.0036  0.6552 -0.0678
   96MPD2    C1 1493   1.770   3.835  15.141  0.5135 -0.2393 -0.2853
   96MPD2    C2 1494   1.735   3.864  15.271  0.2359  0.5271  0.3746
   96MPD2    C3 1495   1.701   3.761  15.359  0.2729 -0.1652  0.2609
   96MPD2    C4 1496   1.696   3.630  15.312 -0.2117 -0.7586  0.0733
   96MPD2    C5 1497   1.740   3.600  15.186 -0.6157  0.3414  0.0407
   96MPD2     H 1498   1.732   3.965  15.309 -0.1649  0.5126  0.3758
   96MPD2    H1 1499   1.664   3.550  15.377 -1.1244 -0.5225 -0.0837
   96MPD2    H2 1500   1.825   3.672  15.010  0.1350 -0.3792  0.3472
   96MPD2    H3 1501   1.751   3.500  15.147 -0.7684  0.1329  0.5313
   96MPD2     N 1502   1.654   3.784  15.490  0.4373  0.2121  0.7205
   96MPD2    H5 1503   1.601   3.712  15.538  0.7625 -0.4521  0.0956
   96MPD2    N1 1504   1.815   3.926  15.041  0.0080  0.0119  0.3635
   96MPD2    H7 1505   1.854   3.889  14.955 -0.2443  0.5774  0.0019
   97TMC2    C1 1506   0.145   1.331   0.321 -1.4002  0.4381 -1.0819
   97TMC2    C2 1507   0.278   1.320   0.298  0.1105 -0.4414 -1.0015
   97TMC2    C3 1508   0.350   1.420   0.238  0.3551  0.1506  0.4135
   97TMC2    C4 1509   0.087   1.454   0.295  0.0647 -0.0886 -0.0241
   97TMC2    C5 1510   0.158   1.557   0.240  0.8073  0.9003 -0.0237
   97TMC2    C6 1511   0.294   1.547   0.209  0.6210 -0.0576  0.0463
   97TMC2     C 1512   0.072   1.235   0.402 -0.3201 -0.1115 -0.3148
   97TMC2     O 1513   4.707   1.282   0.461  0.3897  0.3541  0.0615
   97TMC2     H 1514   0.339   1.243   0.344 -0.6001  0.3397  1.2650
   97TMC2    H1 1515   4.725   1.480   0.341 -0.3414 -0.6255 -0.5541
   97TMC2    H2 1516   0.344   1.636   0.173  0.8738  1.0760  3.1874
   97TMC2    C7 1517   0.102   1.690   0.207  0.3564 -0.1392  0.1195
   97TMC2    C8 1518   0.498   1.418   0.234  0.3049  0.5039 -0.7368
   97TMC2    O1 1519   0.177   1.785   0.190  0.0711  0.2848 -0.1747
   97TMC2    O2 1520   0.571   1.327   0.280 -0.5445 -0.4310 -0.3972
   97TMC2    O5 1521   0.508   1.453   0.105 -0.0438  0.0105  0.4209
   97TMC2    H5 1522   0.420   1.484   0.074 -0.1917  0.0571  0.8890
   98MPD2     C 1523   4.702   0.761   0.600  0.2460  0.1640  0.5820
   98MPD2    C1 1524   4.633   0.878   0.612  1.1809 -1.0223  0.4178
   98MPD2    C2 1525   4.673   0.989   0.533  0.1690  0.2500  0.3905
   98MPD2    C3 1526   0.064   0.991   0.467 -0.4438 -0.3289  0.1576
   98MPD2    C4 1527   0.133   0.875   0.457 -0.1076 -0.4171  0.5834
   98MPD2    C5 1528   0.089   0.764   0.520 -0.7721  0.1047  1.2278
   98MPD2     H 1529   4.612   1.078   0.535  1.8037  1.3665  1.5592
   98MPD2    H1 1530   0.233   0.868   0.414  0.0858  0.1666  0.9506
   98MPD2    H2 1531   4.671   0.671   0.652  4.9982 -2.1795 -0.5916
   98MPD2    H3 1532   0.148   0.674   0.504 -2.2578 -1.1156  2.6385
   98MPD2     N 1533   0.122   1.107   0.402  0.3331  0.6133  0.0504
   98MPD2    H5 1534   0.207   1.093   0.348  1.2199 -3.1023  2.4090
   98MPD2    N1 1535   4.515   0.870   0.686  0.4033 -0.6244  0.0911
   98MPD2    H7 1536   4.503   0.780   0.731 -0.5956  0.0980  1.2861
   99TMC2    C1 1537   3.046   3.588   1.762  0.3245  0.0786 -0.5404
   99TMC2    C2 1538   3.146   3.622   1.845 -0.3507 -0.3241  0.0747
   99TMC2    C3 1539   3.115   3.647   1.971 -0.5084 -0.0395 -0.5432
   99TMC2    C4 1540   2.917   3.573   1.808  0.1972 -0.3509  0.1446
   99TMC2    C5 1541   2.889   3.599   1.945  0.4331 -0.6968  0.2653
   99TMC2    C6 1542   2.992   3.637   2.029 -0.5586  0.6712 -0.3703
   99TMC2     C 1543   3.079   3.568   1.623  0.6498  0.6084 -0.3743
   99TMC2     O 1544   3.188   3.607   1.584 -0.4473  0.5828 -0.0024
   99TMC2     H 1545   3.250   3.629   1.812 -0.8801 -2.0328 -1.9644
   99TMC2    H1 1546   2.825   3.563   1.750  0.5481 -0.4736 -0.3878
   99TMC2    H2 1547   2.971   3.661   2.132 -0.4573 -2.0036  0.2687
   99TMC2    C7 1548   2.754   3.580   2.007 -0.2197 -0.4953 -0.4276
   99TMC2    C8 1549   3.199   3.744   2.038  0.4063  0.0428 -0.6843
   99TMC2    O1 1550   2.738   3.616   2.122 -0.4211 -0.2126 -0.1958
   99TMC2    O2 1551   3.265   3.821   1.971  0.4455  0.2356 -0.1354
   99TMC2    O5 1552   3.188   3.722   2.174  0.0818 -0.0881  0.3918
   99TMC2    H5 1553   3.153   3.632   2.187 -1.4140  0.0522 -2.6141
  100MPD2     C 1554   3.107   3.474   1.340  0.0899  0.1925 -0.6088
  100MPD2    C1 1555   3.007   3.435   1.429 -0.6251 -0.6921  0.2406
  100MPD2    C2 1556   2.917   3.347   1.380 -0.5486 -0.1380  0.5860
  100MPD2    C3 1557   2.933   3.288   1.254 -0.2264 -0.2535  0.0577
  100MPD2    C4 1558   3.035   3.321   1.170  0.2685  0.0007  0.3719
  100MPD2    C5 1559   3.106   3.430   1.212 -0.5486 -0.7605  0.5399
  100MPD2     H 1560   2.827   3.325   1.437 -1.2091  0.9896 -0.0191
  100MPD2    H1 1561   3.040   3.293   1.065 -1.5925 -0.9850  0.5483
  100MPD2    H2 1562   3.163   3.563   1.365 -2.3212  0.9483  2.0894
  100MPD2    H3 1563   3.178   3.469   1.141  0.3189 -1.3285  1.1073
  100MPD2     N 1564   2.844   3.190   1.218  0.9549 -0.2528 -0.1476
  100MPD2    H5 1565   2.763   3.181   1.279  2.5781  0.0270  2.0798
  100MPD2    N1 1566   2.991   3.489   1.558  0.0759 -0.6675  0.4731
  100MPD2    H7 1567   2.916   3.446   1.611  1.5990 -2.0948  1.4704
  101TMC2    C1 1568   3.728   4.550  13.462 -0.3796 -0.4742  0.0312
  101TMC2    C2 1569   3.843   4.570  13.535  0.1617  0.1235 -0.2002
  101TMC2    C3 1570   3.936   4.657  13.491 -0.3819 -0.4611  0.3708
  101TMC2    C4 1571   3.717   4.613  13.340  0.4156 -0.0504 -0.7694
  101TMC2    C5 1572   3.801   4.722  13.313  0.5643 -0.3624 -0.5301
  101TMC2    C6 1573   3.919   0.002  13.383 -0.4321  0.5246 -0.5256
  101TMC2     C 1574   3.663   4.423  13.475 -0.0358 -0.0919 -0.3681
  101TMC2     O 1575   3.648   4.388  13.587  0.0527 -0.5794 -0.1997
  101TMC2     H 1576   3.868   4.497  13.612  1.7254  0.4874 -0.3725
  101TMC2    H1 1577   3.632   4.589  13.277  2.1445 -1.3709 -2.6056
  101TMC2    H2 1578   3.981   0.090  13.366 -0.7668  0.7878 -0.3978
  101TMC2    C7 1579   3.809   0.048  13.182 -0.0728 -0.7734 -0.3362
  101TMC2    C8 1580   4.051   4.677  13.579  0.0259 -0.6813  0.1426
  101TMC2    O1 1581   3.919   0.085  13.147  0.0740  1.0444  0.1165
  101TMC2    O2 1582   4.045   4.669  13.700 -0.2356  0.2338 -0.3981
  101TMC2    O5 1583   4.156   4.712  13.505  0.1521 -0.1138 -0.4331
  101TMC2    H5 1584   4.149   4.687  13.411 -2.6782  1.4782 -0.6567
  102MPD2     C 1585   3.674   4.135  13.239 -0.4687  0.2936 -0.5690
  102MPD2    C1 1586   3.637   4.207  13.352  0.0803 -0.1222 -0.1083
  102MPD2    C2 1587   3.566   4.140  13.455 -1.1404  0.3270  0.2896
  102MPD2    C3 1588   3.517   4.013  13.439  0.2386 -0.6358  0.7059
  102MPD2    C4 1589   3.554   3.937  13.326  0.2242 -0.6667  0.0801
  102MPD2    C5 1590   3.631   4.003  13.224 -0.2061 -0.8664  0.2049
  102MPD2     H 1591   3.547   4.189  13.550 -1.1260 -1.5115  1.2465
  102MPD2    H1 1592   3.534   3.831  13.320  1.0766 -0.8219 -0.0529
  102MPD2    H2 1593   3.738   4.171  13.159 -0.5708  0.0613 -0.7548
  102MPD2    H3 1594   3.652   3.944  13.136 -0.7826 -1.6723  0.6094
  102MPD2     N 1595   3.450   3.953  13.553  0.0811  0.4653  0.7604
  102MPD2    H5 1596   3.417   3.996  13.639  0.2986  0.4363  0.8583
  102MPD2    N1 1597   3.681   4.342  13.358  0.5174 -0.4008 -0.2908
  102MPD2    H7 1598   3.720   4.382  13.274  1.0919  1.2474  0.7618
  103TMC2    C1 1599   0.915   4.694  13.402 -0.0060  0.0286 -0.0940
  103TMC2    C2 1600   0.789   4.699  13.355  0.2005  0.4841 -0.7382
  103TMC2    C3 1601   0.707   4.579  13.366 -0.1079 -0.3091  0.1164
  103TMC2    C4 1602   0.952   4.582  13.473 -0.1614  0.8959 -0.0373
  103TMC2    C5 1603   0.873   4.472  13.486 -0.2725 -0.0374 -0.2727
  103TMC2    C6 1604   0.755   4.465  13.422  0.0839  0.7694 -0.1583
  103TMC2     C 1605   1.003   4.717  13.294  0.3949 -0.1174 -0.5714
  103TMC2     O 1606   0.955   4.695  13.180  0.2867  0.0987  0.3162
  103TMC2     H 1607   0.748   0.056  13.308  1.6432  1.0155 -0.9692
  103TMC2    H1 1608   1.050   4.579  13.519 -0.8691 -1.0838  1.3455
  103TMC2    H2 1609   0.686   4.382  13.430  0.3511  0.4763 -0.8167
  103TMC2    C7 1610   0.945   4.347  13.510 -0.5004  0.4936  0.3930
  103TMC2    C8 1611   0.567   4.592  13.378  0.4823  0.7171 -0.7564
  103TMC2    O1 1612   1.040   4.359  13.585 -0.2268 -0.6364  0.3078
  103TMC2    O2 1613   0.486   4.504  13.360 -0.4045  0.9458  0.1373
  103TMC2    O5 1614   0.576   4.662  13.495  0.1382 -0.2357  0.0195
  103TMC2    H5 1615   0.647   4.729  13.497  0.6149 -0.7840  1.3399
  104MPD2     C 1616   1.363   0.072  13.303  0.0612  0.4467 -0.0796
  104MPD2    C1 1617   1.243   0.032  13.250  0.5377 -0.2614 -0.7388
  104MPD2    C2 1618   1.248   4.693  13.126  0.5380 -0.2351 -0.1425
  104MPD2    C3 1619   1.367   4.652  13.069 -0.3565  0.7142 -0.2588
  104MPD2    C4 1620   1.489   4.696  13.131  0.6299  0.3433 -0.4274
  104MPD2    C5 1621   1.483   0.051  13.237 -0.2393  0.3128  0.5240
  104MPD2     H 1622   1.156   4.654  13.084  0.2299 -1.6670  1.8650
  104MPD2    H1 1623   1.587   4.689  13.087  0.1057 -2.3342 -1.2051
  104MPD2    H2 1624   1.367   0.117  13.401  0.5330 -0.1231  0.1616
  104MPD2    H3 1625   1.576   0.093  13.274 -1.1849 -0.3591  3.7005
  104MPD2     N 1626   1.358   4.570  12.952  0.5791 -0.1268 -0.4685
  104MPD2    H5 1627   1.265   4.548  12.918  0.1196  0.7417  0.2273
  104MPD2    N1 1628   1.128   0.024  13.334  0.7031  0.0997  0.2923
  104MPD2    H7 1629   1.126   0.064  13.428  2.0308  0.8909 -0.0166
  105TMC2    C1 1630   3.048   3.953   0.570 -0.9210 -0.3564  0.0203
  105TMC2    C2 1631   3.053   4.058   0.484 -0.0645  0.2152  0.2132
  105TMC2    C3 1632   3.024   4.180   0.541  0.3347 -0.0450 -0.2237
  105TMC2    C4 1633   3.020   3.971   0.704  0.1084 -0.1897  0.0322
  105TMC2    C5 1634   2.982   4.092   0.754  0.2239 -0.1543 -0.2505
  105TMC2    C6 1635   2.982   4.203   0.669  0.4027 -0.7727  0.5194
  105TMC2     C 1636   3.114   3.825   0.532  0.2491  0.6878 -0.3505
  105TMC2     O 1637   3.125   3.736   0.618 -0.3755  0.4190  0.2875
  105TMC2     H 1638   3.100   4.064   0.387 -0.7497  2.1919  0.0045
  105TMC2    H1 1639   3.019   3.888   0.774  1.1811  0.2186  0.5432
  105TMC2    H2 1640   2.933   4.296   0.698  1.8458 -0.2087  1.1406
  105TMC2    C7 1641   2.911   4.096   0.880 -0.3244  0.3454  0.6331
  105TMC2    C8 1642   2.971   4.286   0.451  1.0068 -0.2177  0.4265
  105TMC2    O1 1643   2.873   3.983   0.917  0.3512  0.2033 -0.3125
  105TMC2    O2 1644   2.949   4.404   0.475 -0.2553  0.5545 -0.1305
  105TMC2    O5 1645   2.932   4.226   0.336 -0.0589 -0.3575  0.3742
  105TMC2    H5 1646   2.939   4.129   0.331 -2.6859 -0.5023 -0.2678
  106MPD2     C 1647   3.244   3.501   0.165  0.2628  0.0504  0.3350
  106MPD2    C1 1648   3.235   3.625   0.112  0.5633 -0.4532 -0.2119
  106MPD2    C2 1649   3.201   3.728   0.194  0.8108  0.2247  0.2425
  106MPD2    C3 1650   3.177   3.709   0.326 -0.5665 -0.1358  0.0809
  106MPD2    C4 1651   3.202   3.586   0.386 -0.8020 -0.1977  0.0297
  106MPD2    C5 1652   3.225   3.481   0.297 -0.0395  0.0413 -0.5356
  106MPD2     H 1653   3.191   3.825   0.147 -0.9435  0.6019  1.3748
  106MPD2    H1 1654   3.193   3.572   0.493 -2.5293 -0.7687 -0.1948
  106MPD2    H2 1655   3.272   3.418   0.101  0.0985 -0.7088  1.2480
  106MPD2    H3 1656   3.247   3.385   0.341  0.3594 -0.6076 -2.1732
  106MPD2     N 1657   3.134   3.816   0.398 -0.3954  0.1986  0.3580
  106MPD2    H5 1658   3.113   3.903   0.350  0.9807  0.8379  0.9184
  106MPD2    N1 1659   3.271   3.655  17.704 -0.1550 -0.5285  0.2038
  106MPD2    H7 1660   3.285   3.753  17.683  2.1413 -1.4946 -2.6573
  107TMC2    C1 1661   3.182   3.718  11.639 -0.9236  0.4629 -0.6271
  107TMC2    C2 1662   3.152   3.849  11.639 -0.5590 -0.1851 -0.2270
  107TMC2    C3 1663   3.207   3.927  11.540  0.0201 -0.3980  0.1633
  107TMC2    C4 1664   3.267   3.659  11.543  0.1992  0.5016  0.2411
  107TMC2    C5 1665   3.314   3.743  11.445  0.0478  0.7816 -0.4174
  107TMC2    C6 1666   3.290   3.880  11.445 -0.0502 -0.1016 -0.3046
  107TMC2     C 1667   3.127   3.648  11.755  0.8364  0.8119 -0.2053
  107TMC2     O 1668   3.082   3.723  11.841 -0.1166  0.0540  0.1946
  107TMC2     H 1669   3.086   3.894  11.712 -0.8813 -1.4504  0.2698
  107TMC2    H1 1670   3.290   3.553  11.549  0.4016  0.5159 -0.2760
  107TMC2    H2 1671   3.338   3.943  11.371  1.6320  0.9103  1.6400
  107TMC2    C7 1672   3.422   3.703  11.357 -0.6178 -0.4058 -0.0163
  107TMC2    C8 1673   3.200   4.070  11.557 -0.4261 -0.1235 -0.2020
  107TMC2    O1 1674   3.505   3.785  11.327 -0.0139  0.6326  0.0333
  107TMC2    O2 1675   3.269   4.152  11.496 -0.5064  0.1021  0.5320
  107TMC2    O5 1676   3.060   4.085  11.553  0.0918  0.1111 -0.0386
  107TMC2    H5 1677   3.012   3.999  11.561  0.1879  0.0040 -0.5724
  108MPD2     C 1678   3.083   3.291  11.807  0.8888 -0.2617  0.1136
  108MPD2    C1 1679   3.063   3.423  11.824  0.1581 -0.6140  0.8269
  108MPD2    C2 1680   2.991   3.462  11.939 -0.1651 -0.1324 -0.2761
  108MPD2    C3 1681   2.959   3.375  12.043  0.9293 -0.2496 -0.1278
  108MPD2    C4 1682   2.979   3.241  12.011  0.9221 -0.4508 -0.0821
  108MPD2    C5 1683   3.035   3.203  11.896 -0.2903 -0.1531  0.0208
  108MPD2     H 1684   2.983   3.568  11.962  1.1115 -0.1750  0.3921
  108MPD2    H1 1685   2.955   3.172  12.092 -1.7243  0.3486 -0.1904
  108MPD2    H2 1686   3.142   3.273  11.718  2.5961  2.4294  0.7081
  108MPD2    H3 1687   3.036   3.099  11.866 -2.0629 -0.5379  1.2578
  108MPD2     N 1688   2.912   3.412  12.171  0.2439  0.0737  0.5800
  108MPD2    H5 1689   2.886   3.335  12.233  0.0129 -0.4463 -0.1600
  108MPD2    N1 1690   3.123   3.518  11.736 -0.2118 -0.1330 -0.1169
  108MPD2    H7 1691   3.166   3.484  11.651 -0.4429 -0.4020 -0.1269
  109TMC2    C1 1692   3.189   0.963   0.472 -0.0280  0.4061  0.5026
  109TMC2    C2 1693   3.200   1.081   0.408 -0.5152 -0.6850  0.0275
  109TMC2    C3 1694   3.322   1.124   0.354 -0.6880  0.5163 -0.2228
  109TMC2    C4 1695   3.305   0.886   0.487  0.4392  0.6144  0.3767
  109TMC2    C5 1696   3.417   0.923   0.415  0.0224  0.4316  1.2351
  109TMC2    C6 1697   3.429   1.042   0.350  0.4593  0.3214  0.8629
  109TMC2     C 1698   3.109   0.976   0.587  0.3664 -0.1891  1.2664
  109TMC2     O 1699   2.989   0.943   0.576 -0.0893 -0.3400 -0.4960
  109TMC2     H 1700   3.108   1.137   0.394  0.4118  0.6904 -0.5584
  109TMC2    H1 1701   3.304   0.801   0.554 -0.0983  1.3346  1.2878
  109TMC2    H2 1702   3.517   1.076   0.296  1.2275  0.8631  2.4420
  109TMC2    C7 1703   3.545   0.863   0.443 -0.6707  0.7671  1.2663
  109TMC2    C8 1704   3.335   1.247   0.287  0.3742 -0.6364 -0.2707
  109TMC2    O1 1705   3.557   0.810   0.555 -0.6118 -0.1204  0.3965
  109TMC2    O2 1706   3.384   1.244   0.174 -0.0630  0.1268  0.3240
  109TMC2    O5 1707   3.232   1.332   0.321 -0.6808  0.2729 -0.4133
  109TMC2    H5 1708   3.216   1.336   0.418  1.3478 -0.7352 -0.0362
  110MPD2     C 1709   3.078   1.184   1.052 -0.5075 -0.6674  0.0711
  110MPD2    C1 1710   3.212   1.156   1.028  0.1339  0.1128 -0.2502
  110MPD2    C2 1711   3.241   1.086   0.909 -0.3117  0.3203  0.6736
  110MPD2    C3 1712   3.146   1.066   0.814 -0.2198 -0.1131  0.0660
  110MPD2    C4 1713   3.017   1.080   0.849 -0.1074 -0.1090 -0.2584
  110MPD2    C5 1714   2.981   1.148   0.963 -0.2290 -0.1682  0.1723
  110MPD2     H 1715   3.342   1.051   0.893 -0.1900  1.6514 -1.4968
  110MPD2    H1 1716   2.942   1.049   0.778 -0.1533  1.3423 -0.8372
  110MPD2    H2 1717   3.039   1.238   1.138  0.8308 -1.2313  1.0341
  110MPD2    H3 1718   2.876   1.167   0.981 -0.1064  0.0817  0.6259
  110MPD2     N 1719   3.189   1.005   0.695  0.3299  0.3810  0.1604
  110MPD2    H5 1720   3.290   1.012   0.682  0.0498  1.3613 -1.4069
  110MPD2    N1 1721   3.313   1.186   1.125 -0.0131 -0.2511 -0.5254
  110MPD2    H7 1722   3.279   1.220   1.215  0.5883 -0.1205 -0.3463
  111TMC2    C1 1723   3.923   0.252  11.381  0.1260 -0.4513  0.1426
  111TMC2    C2 1724   3.990   0.197  11.279  0.0513  0.2096  0.3803
  111TMC2    C3 1725   4.110   0.137  11.308 -0.3380 -0.4121 -0.4951
  111TMC2    C4 1726   3.965   0.255  11.511 -0.3756  0.7863  0.1040
  111TMC2    C5 1727   4.082   0.184  11.539  0.2002 -0.6630  0.0063
  111TMC2    C6 1728   4.152   0.120  11.437  0.3506 -0.6477  0.7117
  111TMC2     C 1729   3.794   0.315  11.349 -0.1059  0.5962 -0.7774
  111TMC2     O 1730   3.778   0.343  11.229 -0.2477  0.1897 -0.6073
  111TMC2     H 1731   3.942   0.189  11.182 -1.6201  2.5842  1.0010
  111TMC2    H1 1732   3.901   0.295  11.589 -0.0624  1.7203 -0.1178
  111TMC2    H2 1733   4.255   0.094  11.455  0.4388 -0.6163  0.2502
  111TMC2    C7 1734   4.137   0.199  11.675  0.2548 -0.3312 -0.8048
  111TMC2    C8 1735   4.197   0.098  11.203 -0.7349 -0.1366  0.1987
  111TMC2    O1 1736   4.067   0.240  11.762  0.1049 -0.0348  0.0307
  111TMC2    O2 1737   4.274   0.003  11.212  0.3780  0.0876 -0.1670
  111TMC2    O5 1738   4.165   0.163  11.090 -0.2261 -0.3214  0.2821
  111TMC2    H5 1739   4.103   0.239  11.092 -1.0370 -1.0151  2.4505
  112MPD2     C 1740   3.301   0.406  11.444 -0.0492 -0.4155 -0.1627
  112MPD2    C1 1741   3.375   0.430  11.328 -0.6016 -0.9690  0.2936
  112MPD2    C2 1742   3.507   0.416  11.337 -0.0418  0.1943 -0.0721
  112MPD2    C3 1743   3.573   0.386  11.455 -0.1974 -0.3509 -0.3339
  112MPD2    C4 1744   3.497   0.376  11.574  0.5184  0.4335  0.3377
  112MPD2    C5 1745   3.363   0.383  11.567  0.5476 -0.4069 -0.1258
  112MPD2     H 1746   3.575   0.415  11.253 -0.2763 -0.9002 -0.2453
  112MPD2    H1 1747   3.547   0.351  11.667 -1.4172  0.3190  1.3587
  112MPD2    H2 1748   3.193   0.397  11.437 -0.1951  0.1353  1.3270
  112MPD2    H3 1749   3.305   0.363  11.656 -0.6526  0.8497 -0.6424
  112MPD2     N 1750   3.711   0.341  11.455  0.6127  0.2001  0.4015
  112MPD2    H5 1751   3.736   0.314  11.549  1.1721 -0.9649 -0.0878
  112MPD2    N1 1752   3.316   0.461  11.205 -0.3480  0.4542 -0.0014
  112MPD2    H7 1753   3.383   0.460  11.128  1.3312 -0.5591  1.4713
  113TMC2    C1 1754   1.898   3.446   0.971  0.0488  0.1111 -0.1339
  113TMC2    C2 1755   1.936   3.527   0.867 -0.0530 -0.2168  0.0518
  113TMC2    C3 1756   1.908   3.495   0.736  0.2283 -0.3191 -0.0218
  113TMC2    C4 1757   1.843   3.317   0.942 -0.3448  0.3384  0.2596
  113TMC2    C5 1758   1.814   3.290   0.810  0.3536  0.1891  0.2698
  113TMC2    C6 1759   1.839   3.376   0.709 -0.0199  0.6067  0.0513
  113TMC2     C 1760   1.921   3.481   1.112  0.2804  1.0209 -0.4762
  113TMC2     O 1761   2.013   3.555   1.137  0.4002  0.5418  0.8464
  113TMC2     H 1762   1.968   3.628   0.888 -0.4397  0.1168 -0.9582
  113TMC2    H1 1763   1.825   3.250   1.025  2.0716  1.1023  1.3777
  113TMC2    H2 1764   1.822   3.344   0.607 -1.9580  0.8161  0.3038
  113TMC2    C7 1765   1.714   3.185   0.789 -0.2968  0.0937 -0.1801
  113TMC2    C8 1766   1.923   3.585   0.623 -0.5361 -0.0782 -0.3914
  113TMC2    O1 1767   1.685   3.165   0.671  0.4431  0.1724  0.1592
  113TMC2    O2 1768   1.908   3.539   0.512  0.1053 -0.8046 -0.6381
  113TMC2    O5 1769   1.863   3.702   0.661  0.4196  0.1238  0.2995
  113TMC2    H5 1770   1.879   3.733   0.753 -1.3124 -1.6045  1.1880
  114MPD2     C 1771   1.876   3.410   1.614  0.0116 -0.1809  0.2450
  114MPD2    C1 1772   1.978   3.463   1.538  0.1014  0.3810 -0.0544
  114MPD2    C2 1773   1.966   3.461   1.398  0.2007  0.0955  1.0936
  114MPD2    C3 1774   1.850   3.416   1.336  0.1181 -0.4396  0.2845
  114MPD2    C4 1775   1.747   3.379   1.414 -0.4817  0.7492  0.8456
  114MPD2    C5 1776   1.762   3.383   1.549 -0.5483  0.2408  1.0047
  114MPD2     H 1777   2.052   3.493   1.341  1.3031 -3.0462  1.0110
  114MPD2    H1 1778   1.652   3.346   1.372 -0.3653  0.3167  0.9214
  114MPD2    H2 1779   1.879   3.403   1.722 -1.9194  2.0912  0.4561
  114MPD2    H3 1780   1.673   3.372   1.610 -1.5070  2.2915 -0.0384
  114MPD2     N 1781   1.828   3.427   1.199  0.3015  0.1305 -0.1163
  114MPD2    H5 1782   1.745   3.381   1.163 -0.4691  0.6097  1.0485
  114MPD2    N1 1783   2.096   3.505   1.604 -0.8498 -0.6418  0.3007
  114MPD2    H7 1784   2.165   3.548   1.544 -1.5360 -0.1930 -0.1713
  115TMC2    C1 1785   2.731   1.028  17.659 -0.2167  0.1643 -0.1159
  115TMC2    C2 1786   2.866   1.005  17.641  0.1143 -0.4183 -0.5567
  115TMC2    C3 1787   2.939   1.120  17.674 -0.3692 -0.2569 -0.0285
  115TMC2    C4 1788   2.677   1.150  17.676  0.1026 -0.0485  0.1462
  115TMC2    C5 1789   2.756   1.260  17.685  0.2303 -0.1736 -0.6927
  115TMC2    C6 1790   2.891   1.249  17.692  0.4732  0.6358  0.6917
  115TMC2     C 1791   2.651   0.903  17.665  0.1356 -0.6737 -0.8813
  115TMC2     O 1792   2.702   0.799  17.630  0.2760  0.3301  0.4725
  115TMC2     H 1793   2.913   0.912  17.612  2.0409  0.2049  0.6024
  115TMC2    H1 1794   2.570   1.161  17.690 -0.0024 -1.0656  0.1657
  115TMC2    H2 1795   2.958   1.334  17.695  0.8984  0.2344  2.3936
  115TMC2    C7 1796   2.693   1.398  17.680  0.3708  0.8729 -0.2248
  115TMC2    C8 1797   3.076   1.113  17.666 -0.1687  0.1775  0.1261
  115TMC2    O1 1798   2.591   1.410   0.015 -0.0639  0.2879 -0.2290
  115TMC2    O2 1799   3.141   1.054  17.580 -0.5618 -0.3087  0.3128
  115TMC2    O5 1800   3.127   1.154   0.050 -0.2071  0.0253  0.1474
  115TMC2    H5 1801   3.054   1.167   0.114 -1.2743 -0.9845 -0.8584
  116MPD2     C 1802   2.203   0.675  17.650  0.0023 -0.1703  0.2684
  116MPD2    C1 1803   2.318   0.631  17.596 -0.1984  0.7168 -0.7166
  116MPD2    C2 1804   2.430   0.708  17.620 -0.4202 -0.2538 -0.3087
  116MPD2    C3 1805   2.422   0.818  17.709  0.0130 -0.3601 -0.0081
  116MPD2    C4 1806   2.311   0.839   0.058  0.1594 -0.2443  1.0823
  116MPD2    C5 1807   2.202   0.772   0.009  0.1520  0.2172  0.0519
  116MPD2     H 1808   2.515   0.703  17.552 -0.5649 -0.2665 -0.4904
  116MPD2    H1 1809   2.302   0.908   0.142 -0.2179 -0.6006  1.3351
  116MPD2    H2 1810   2.119   0.613  17.623 -0.0132  0.6831 -1.6655
  116MPD2    H3 1811   2.102   0.799   0.042  0.8299  1.7332  0.9090
  116MPD2     N 1812   2.527   0.911  17.728 -0.5201 -0.2720 -0.3661
  116MPD2    H5 1813   2.509   0.993   0.057 -1.5491 -1.0118  0.3709
  116MPD2    N1 1814   2.307   0.515  17.514 -0.0995 -0.4423 -0.0675
  116MPD2    H7 1815   2.221   0.464  17.494 -0.5537  0.4703 -0.4264
  117TMC2    C1 1816   0.806   2.245  14.657  0.2561  0.6966 -0.7512
  117TMC2    C2 1817   0.927   2.204  14.694  0.0360  0.4681 -0.1829
  117TMC2    C3 1818   1.033   2.275  14.655 -0.2603  0.7492  0.4729
  117TMC2    C4 1819   0.784   2.363  14.587  0.5291  0.6337 -0.5063
  117TMC2    C5 1820   0.899   2.422  14.539 -0.7039 -0.8626  0.4311
  117TMC2    C6 1821   1.026   2.378  14.569 -0.1334  0.9952 -0.8672
  117TMC2     C 1822   0.697   2.148  14.672 -0.1287  0.6189 -0.4177
  117TMC2     O 1823   0.684   2.087  14.773 -0.2589  0.3047 -0.4901
  117TMC2     H 1824   0.936   2.104  14.734 -0.7984  0.1786 -0.6968
  117TMC2    H1 1825   0.683   2.397  14.570 -0.1661 -1.5406 -0.8090
  117TMC2    H2 1826   1.108   2.444  14.543  1.7385 -1.3512 -0.8549
  117TMC2    C7 1827   0.891   2.549  14.465 -1.2398 -0.7054  0.2729
  117TMC2    C8 1828   1.157   2.207  14.656 -0.2134  0.7385  0.6423
  117TMC2    O1 1829   0.989   2.619  14.471  0.1527 -0.0639  0.8698
  117TMC2    O2 1830   1.244   2.233  14.574  0.3348  0.2452 -0.1048
  117TMC2    O5 1831   1.181   2.185  14.778  0.3061  0.5339 -0.3929
  117TMC2    H5 1832   1.111   2.210  14.843  1.9043  2.8972  0.3975
  118MPD2     C 1833   0.605   2.689  14.292  0.7196  0.3958 -0.5641
  118MPD2    C1 1834   0.730   2.691  14.341 -0.0511 -0.0589  0.6671
  118MPD2    C2 1835   0.813   2.802  14.322  0.2077 -0.7336  0.0439
  118MPD2    C3 1836   0.771   2.916  14.248  0.5446  0.0468 -0.1187
  118MPD2    C4 1837   0.649   2.916  14.195  0.0955  0.1402  0.5159
  118MPD2    C5 1838   0.571   2.804  14.223  0.7828 -0.3056 -0.6291
  118MPD2     H 1839   0.907   2.795  14.375  1.2324  1.0674 -1.5748
  118MPD2    H1 1840   0.609   3.007  14.152  0.1331 -0.7797 -1.4756
  118MPD2    H2 1841   0.521   2.620  14.293  0.2265  0.9966 -0.3406
  118MPD2    H3 1842   0.470   2.805  14.185  0.4135  0.8809  0.3924
  118MPD2     N 1843   0.859   3.028  14.240 -0.0631 -0.4561 -0.1148
  118MPD2    H5 1844   0.819   3.112  14.200 -0.8056 -0.3478  0.8410
  118MPD2    N1 1845   0.767   2.572  14.414  0.0682  0.7071  0.2682
  118MPD2    H7 1846   0.693   2.504  14.423  0.3764  0.1700 -1.4149
  119TMC2    C1 1847   3.790   3.418  13.780  0.2531  0.8156 -0.1289
  119TMC2    C2 1848   3.772   3.327  13.678  0.0550  0.4887  0.0340
  119TMC2    C3 1849   3.643   3.304  13.640 -0.0326 -0.2979 -0.1662
  119TMC2    C4 1850   3.686   3.476  13.851  0.1736 -0.1257  0.6416
  119TMC2    C5 1851   3.565   3.462  13.787 -0.1871  0.6303  0.3564
  119TMC2    C6 1852   3.538   3.377  13.686 -0.3168  0.0774  0.2172
  119TMC2     C 1853   3.925   3.427  13.837  0.6553 -0.4064 -0.2019
  119TMC2     O 1854   3.932   3.457  13.955 -0.4618 -0.8835  0.0794
  119TMC2     H 1855   3.853   3.268  13.638 -0.3812  0.8146 -1.3533
  119TMC2    H1 1856   3.692   3.547  13.933  0.6726 -0.0095  0.5070
  119TMC2    H2 1857   3.440   3.365  13.640  0.0369  0.7590 -0.7110
  119TMC2    C7 1858   3.451   3.498  13.866  0.5641 -0.2000 -0.2372
  119TMC2    C8 1859   3.616   3.210  13.537  0.0712  0.3521  0.1513
  119TMC2    O1 1860   3.344   3.532  13.813 -0.4212  0.4462  0.2696
  119TMC2    O2 1861   3.681   3.105  13.519 -0.3098 -0.2712 -0.4843
  119TMC2    O5 1862   3.538   3.273  13.445  0.3034 -0.4729 -0.0582
  119TMC2    H5 1863   3.530   3.369  13.462  0.1583 -0.5667  0.4106
  120MPD2     C 1864   4.440   3.444  13.814 -0.7566 -0.6120 -0.0796
  120MPD2    C1 1865   4.346   3.491  13.906  0.4430 -0.2815 -0.1146
  120MPD2    C2 1866   4.211   3.492  13.880  0.4395 -0.3070  0.9887
  120MPD2    C3 1867   4.167   3.417  13.776  0.7448 -0.1118 -0.1046
  120MPD2    C4 1868   4.261   3.351  13.692  0.0289 -0.4059  0.2304
  120MPD2    C5 1869   4.390   3.381  13.703  0.0050 -0.3036  0.7772
  120MPD2     H 1870   4.149   3.541  13.955 -0.6569  1.3615 -1.0295
  120MPD2    H1 1871   4.220   3.293  13.610  0.2411  0.3205 -0.4006
  120MPD2    H2 1872   4.544   3.465  13.837 -0.3457 -0.0343 -2.5427
  120MPD2    H3 1873   4.458   3.331  13.635  0.9405  3.7001 -1.2783
  120MPD2     N 1874   4.027   3.392  13.746 -0.6819 -0.1308 -0.1454
  120MPD2    H5 1875   4.007   3.355  13.654 -0.6197  2.1921 -1.1080
  120MPD2    N1 1876   4.397   3.538  14.029 -0.0699  0.5322  0.0378
  120MPD2    H7 1877   4.498   3.549  14.038  0.2284  0.2704 -2.8923
  121TMC2    C1 1878   0.638   0.428  14.384  0.2834  0.6032  0.0685
  121TMC2    C2 1879   0.599   0.375  14.504 -0.4343 -0.2859 -0.6792
  121TMC2    C3 1880   0.464   0.352  14.529  0.6526 -0.2558 -0.3449
  121TMC2    C4 1881   0.551   0.428  14.282 -0.1410  0.0330 -0.1752
  121TMC2    C5 1882   0.417   0.395  14.304 -0.2769 -0.5334  0.2017
  121TMC2    C6 1883   0.369   0.352  14.428 -0.0163  0.0639  0.6237
  121TMC2     C 1884   0.769   0.490  14.382  0.8289  0.4630  0.0765
  121TMC2     O 1885   0.852   0.445  14.460 -0.0245  0.6645  0.2143
  121TMC2     H 1886   0.666   0.374  14.589  0.1559 -2.4528 -1.1840
  121TMC2    H1 1887   0.580   0.463  14.184  0.5356 -0.6745 -0.2312
  121TMC2    H2 1888   0.265   0.320  14.432  1.2517 -3.8748  2.1236
  121TMC2    C7 1889   0.318   0.417  14.198 -0.0553 -0.0299 -0.3519
  121TMC2    C8 1890   0.418   0.309  14.658 -0.4343 -0.2693  0.2209
  121TMC2    O1 1891   0.360   0.379  14.088 -0.0618 -0.3964  0.2535
  121TMC2    O2 1892   0.361   0.198  14.660  0.6530 -0.1177  0.2669
  121TMC2    O5 1893   0.491   0.369  14.754 -0.4042 -0.7959 -0.1373
  121TMC2    H5 1894   0.521   0.460  14.732 -1.9345 -0.2591  0.0131
  122MPD2     C 1895   0.990   0.682  14.358  0.0814 -0.3179  0.8301
  122MPD2    C1 1896   0.891   0.670  14.263  0.0044  0.3671 -0.7479
  122MPD2    C2 1897   0.900   0.727  14.138 -0.1174 -0.2558 -0.6009
  122MPD2    C3 1898   1.010   0.802  14.105 -0.8074  0.1423  0.5041
  122MPD2    C4 1899   1.107   0.827  14.198 -0.1717 -0.5719  0.0029
  122MPD2    C5 1900   1.102   0.756  14.321 -0.3063 -0.4032  0.1970
  122MPD2     H 1901   0.832   0.700  14.058 -1.2296 -1.4916  0.7777
  122MPD2    H1 1902   1.204   0.865  14.167 -0.3502 -0.5838 -0.5716
  122MPD2    H2 1903   0.994   0.627  14.452 -0.3001 -1.7072  0.0208
  122MPD2    H3 1904   1.185   0.756  14.391  1.1298  2.2641 -1.5242
  122MPD2     N 1905   1.027   0.862  13.973 -0.1415 -0.6542 -0.4431
  122MPD2    H5 1906   1.117   0.900  13.947 -0.4332 -1.5290 -2.7952
  122MPD2    N1 1907   0.774   0.595  14.284  0.6467  0.0367 -0.4029
  122MPD2    H7 1908   0.701   0.601  14.213  1.1515 -0.1249 -0.9290
  123TMC2    C1 1909   3.550   4.716  10.733  0.1561  0.0071  0.9258
  123TMC2    C2 1910   3.579   0.113  10.733  0.4398 -0.2389 -0.0981
  123TMC2    C3 1911   3.668   0.157  10.641  0.1708  0.6238 -0.5021
  123TMC2    C4 1912   3.598   4.633  10.634  1.0062 -0.4550  0.2021
  123TMC2    C5 1913   3.676   4.685  10.536  0.1308 -0.3670 -0.7803
  123TMC2    C6 1914   3.709   0.086  10.533  0.1728  0.3405 -0.2144
  123TMC2     C 1915   3.458   4.665  10.833  0.0064  0.3645  0.2159
  123TMC2     O 1916   3.395   0.020  10.890  0.1927 -0.1855 -0.1941
  123TMC2     H 1917   3.539   0.175  10.813 -1.0056 -1.5731  0.2186
  123TMC2    H1 1918   3.591   4.526  10.617 -0.3038 -0.3717  0.1678
  123TMC2    H2 1919   3.784   0.129  10.468  0.4267  0.5245  0.2024
  123TMC2    C7 1920   3.730   4.602  10.433  0.1143  0.4915 -0.2989
  123TMC2    C8 1921   3.705   0.296  10.639  0.3580 -0.1362  0.6027
  123TMC2    O1 1922   3.729   4.481  10.449 -0.5429  0.0521 -0.4258
  123TMC2    O2 1923   3.779   0.340  10.551  0.0888  0.4819  0.0403
  123TMC2    O5 1924   3.604   0.371  10.688 -0.0739 -0.5433  0.4161
  123TMC2    H5 1925   3.524   0.329  10.726 -0.3451  0.1881  0.6359
  124MPD2     C 1926   3.288   4.296  11.140 -0.8048 -0.2785  0.1559
  124MPD2    C1 1927   3.341   4.238  11.033  0.0716  0.2073  0.3799
  124MPD2    C2 1928   3.386   4.314  10.927 -0.4363 -0.3634  0.4422
  124MPD2    C3 1929   3.387   4.452  10.936  0.4105 -1.0245  0.6496
  124MPD2    C4 1930   3.319   4.514  11.040 -0.5796  0.3013 -0.4722
  124MPD2    C5 1931   3.276   4.439  11.146  0.1661 -0.9677 -0.4996
  124MPD2     H 1932   3.445   4.278  10.844 -1.5723 -2.0486  0.3681
  124MPD2    H1 1933   3.313   4.621  11.060  1.2115  0.2301  0.4488
  124MPD2    H2 1934   3.245   4.237  11.221 -1.1153  0.0066  0.1997
  124MPD2    H3 1935   3.233   4.493  11.230  1.3486 -1.4355  0.4118
  124MPD2     N 1936   3.456   4.527  10.843 -0.1278 -0.9694  0.4305
  124MPD2    H5 1937   3.504   4.477  10.769 -1.7555 -0.7702 -0.7907
  124MPD2    N1 1938   3.347   4.096  11.039  0.7807  0.0353 -0.0847
  124MPD2    H7 1939   3.312   4.044  11.119  0.1789  0.3793 -0.1225
  125TMC2    C1 1940   0.578   2.332   8.865  0.4919  0.4202 -0.0039
  125TMC2    C2 1941   0.467   2.262   8.841 -0.7813 -0.3343  0.6585
  125TMC2    C3 1942   0.473   2.125   8.841  0.3762  0.1360 -0.4349
  125TMC2    C4 1943   0.704   2.283   8.882  0.0985 -0.1054  0.7310
  125TMC2    C5 1944   0.706   2.141   8.881  0.6584 -0.5465 -0.1779
  125TMC2    C6 1945   0.591   2.060   8.854 -0.4670  0.8153  0.5611
  125TMC2     C 1946   0.560   2.474   8.877 -0.2870 -0.0870  0.3925
  125TMC2     O 1947   0.445   2.509   8.860 -0.3828  0.0829  1.2116
  125TMC2     H 1948   0.371   2.311   8.834 -0.0655  0.5637 -2.9328
  125TMC2    H1 1949   0.797   2.337   8.895  0.5142 -0.2784 -1.5727
  125TMC2    H2 1950   0.618   1.956   8.845 -1.1231  0.5774  1.4155
  125TMC2    C7 1951   0.841   2.079   8.862 -0.0527 -0.5493  0.0703
  125TMC2    C8 1952   0.355   2.043   8.850  0.2459  0.4602  0.4771
  125TMC2    O1 1953   0.933   2.150   8.832 -0.0069 -0.4733  0.2179
  125TMC2    O2 1954   0.250   2.086   8.815 -0.2777  0.0539 -0.5770
  125TMC2    O5 1955   0.378   1.946   8.936  0.2925  0.6692  0.1129
  125TMC2    H5 1956   0.470   1.933   8.968 -0.1055 -1.1434  0.5471
  126MPD1     C 1957   0.680   2.924   9.056 -0.5053  0.3363 -0.2193
  126MPD1    C1 1958   0.797   2.869   9.015 -0.1278 -0.3348  0.4550
  126MPD1    C2 1959   0.786   2.737   8.976  0.0810  0.4084  0.2444
  126MPD1    C3 1960   0.662   2.674   8.965 -0.8558 -0.8009  0.3701
  126MPD1    C4 1961   0.545   2.739   8.999  0.2779  0.5780  0.1892
  126MPD1    C5 1962   0.559   2.859   9.052 -0.2114 -0.2612  0.8864
  126MPD1     H 1963   0.873   2.679   8.947 -0.0857 -0.4722  1.5113
  126MPD1    H1 1964   0.448   2.693   8.998  1.2462 -1.4683  0.8908
  126MPD1    H2 1965   0.676   3.024   9.098 -1.0405  0.8479 -1.4925
  126MPD1    H3 1966   0.475   2.909   9.099  0.0795  1.3527 -0.2986
  126MPD1     N 1967   0.672   2.546   8.909  0.1944 -0.9521 -0.2558
  126MPD1    H5 1968   0.767   2.509   8.901  0.9098  0.7326  0.4175
  126MPD1    N1 1969   0.914   2.947   9.004 -0.3566  0.0043  0.2129
  126MPD1    H6 1970   0.995   2.893   9.035  0.3301  0.1033 -1.4185
  126MPD1    H7 1971   0.912   3.021   9.074  3.2751 -0.3401  0.6834
  127TMC2    C1 1972   0.721   4.242   9.887 -0.5681  0.5448  0.2314
  127TMC2    C2 1973   0.779   4.148   9.964  0.4266 -0.1786  0.6628
  127TMC2    C3 1974   0.717   4.029   9.968  0.0472 -0.3146  0.0457
  127TMC2    C4 1975   0.614   4.215   9.804 -0.2571  0.3931 -0.2035
  127TMC2    C5 1976   0.559   4.088   9.799  0.2148  0.0397  0.1993
  127TMC2    C6 1977   0.609   3.993   9.886  0.7677 -0.0463  0.6227
  127TMC2     C 1978   0.830   4.336   9.843 -0.1498 -0.5646  0.1832
  127TMC2     O 1979   0.910   4.377   9.928  0.0153  0.1314  0.0590
  127TMC2     H 1980   0.855   4.175  10.037 -0.3059  1.6501  0.7627
  127TMC2    H1 1981   0.568   4.301   9.757  0.9305  0.2087 -1.6796
  127TMC2    H2 1982   0.577   3.890   9.890  0.6667 -0.0246  0.3861
  127TMC2    C7 1983   0.414   4.094   9.773 -0.3396  0.1059 -0.0365
  127TMC2    C8 1984   0.795   3.921  10.028 -0.0446 -0.0233 -0.2818
  127TMC2    O1 1985   0.379   4.197   9.721 -0.4353 -0.0248  0.1126
  127TMC2    O2 1986   0.908   3.941  10.075  0.5658 -0.0796 -0.0409
  127TMC2    O5 1987   0.705   3.837  10.082 -0.1394  0.5057  0.4884
  127TMC2    H5 1988   0.615   3.870  10.061 -1.3976 -2.3891  1.3494
  128MPD2     C 1989   0.862   4.439   9.493 -0.3425  0.0742  0.3988
  128MPD2    C1 1990   0.889   4.446   9.630  0.2305 -0.0308 -0.6181
  128MPD2    C2 1991   0.974   4.542   9.681  0.6322 -0.0587 -0.0347
  128MPD2    C3 1992   1.027   4.634   9.596 -1.0521  0.2741 -0.9124
  128MPD2    C4 1993   0.991   4.630   9.460  0.5260  0.1192  1.0314
  128MPD2    C5 1994   0.915   4.529   9.411  0.4851  0.3466  0.5324
  128MPD2     H 1995   1.000   4.540   9.786 -0.8723  1.2289  0.3699
  128MPD2    H1 1996   1.039   4.690   9.384  0.6807 -1.0647  0.1908
  128MPD2    H2 1997   0.795   4.367   9.448  1.7675 -2.1176  0.7385
  128MPD2    H3 1998   0.911   4.512   9.304  2.1962 -1.8413  0.8167
  128MPD2     N 1999   1.116   4.732   9.647  0.0297 -0.0062  0.2444
  128MPD2    H5 2000   1.138   4.726   9.746  2.0079  1.5728 -0.0900
  128MPD2    N1 2001   0.820   4.351   9.706  0.2115  0.0669 -0.1128
  128MPD2    H7 2002   0.757   4.287   9.658 -1.3907  0.8131  1.0129
  129TMC2    C1 2003   0.529   0.235   1.739  0.4200  0.5375  0.1530
  129TMC2    C2 2004   0.597   0.261   1.626 -0.4604  0.6659 -0.1578
  129TMC2    C3 2005   0.566   0.189   1.516  0.3590 -0.2020 -0.9260
  129TMC2    C4 2006   0.437   0.135   1.753 -0.2282 -0.0475 -0.2916
  129TMC2    C5 2007   0.417   0.060   1.640  0.2774  0.4911 -1.4200
  129TMC2    C6 2008   0.483   0.082   1.520 -0.2592 -0.6194  0.5571
  129TMC2     C 2009   0.535   0.327   1.850 -0.4734  0.4552  0.1662
  129TMC2     O 2010   0.500   0.284   1.963  0.1006  0.4746  0.1135
  129TMC2     H 2011   0.683   0.328   1.627  0.4046 -0.4855  2.4031
  129TMC2    H1 2012   0.370   0.125   1.838  1.5444  0.4550  1.1887
  129TMC2    H2 2013   0.462   0.020   1.434 -1.0552  0.2584  0.1248
  129TMC2    C7 2014   0.308   4.698   1.655 -0.0983 -0.5840  0.4062
  129TMC2    C8 2015   0.649   0.210   1.391  0.6713  0.0012 -0.1301
  129TMC2    O1 2016   0.226   4.716   1.747 -0.4037  0.7359 -0.3788
  129TMC2    O2 2017   0.686   0.127   1.314  0.0551 -0.5422  0.2247
  129TMC2    O5 2018   0.672   0.344   1.378 -0.6335 -0.2403 -0.2066
  129TMC2    H5 2019   0.631   0.411   1.438  2.1152  0.4538  0.9443
  130MPD2     C 2020   0.464   0.565   2.020 -0.0674 -0.3471 -0.2303
  130MPD2    C1 2021   0.509   0.568   1.887 -0.7635  0.3957  0.7726
  130MPD2    C2 2022   0.516   0.693   1.828  0.2873 -0.8450  0.1604
  130MPD2    C3 2023   0.490   0.810   1.899 -0.0383  0.4691 -0.2826
  130MPD2    C4 2024   0.448   0.804   2.033 -0.8407  0.7279 -0.5952
  130MPD2    C5 2025   0.437   0.681   2.088  0.2552  0.6942  0.7095
  130MPD2     H 2026   0.544   0.694   1.723  3.1327 -1.9100  0.8952
  130MPD2    H1 2027   0.412   0.882   2.099 -1.3047  1.6337 -1.9243
  130MPD2    H2 2028   0.446   0.473   2.074 -0.1197  0.4108  1.0458
  130MPD2    H3 2029   0.400   0.662   2.188  0.5809 -1.9639  0.3395
  130MPD2     N 2030   0.478   0.927   1.818 -0.3712 -0.0057 -0.5985
  130MPD2    H5 2031   0.503   0.911   1.721 -1.0801  0.1561 -0.8062
  130MPD2    N1 2032   0.526   0.458   1.801 -0.3806  0.1952 -0.0409
  130MPD2    H7 2033   0.532   0.470   1.700 -1.9601 -0.3166 -0.2005
  131TMC2    C1 2034   3.527   4.182  10.197 -0.9403 -0.3085 -0.4141
  131TMC2    C2 2035   3.483   4.291  10.259 -0.1362  0.0419  0.0026
  131TMC2    C3 2036   3.499   4.416  10.195 -0.1703 -0.1748 -0.1752
  131TMC2    C4 2037   3.612   4.185  10.087  0.2944 -0.7298  0.1722
  131TMC2    C5 2038   3.619   4.302  10.028 -0.0307 -0.5383  0.4757
  131TMC2    C6 2039   3.566   4.421  10.074 -1.0136  0.3954  1.0908
  131TMC2     C 2040   3.538   4.076  10.298  0.0083  0.1306 -0.2496
  131TMC2     O 2041   3.556   4.098  10.415  0.1618 -0.0721 -0.0114
  131TMC2     H 2042   3.428   4.291  10.352 -2.9793  0.1474 -1.7060
  131TMC2    H1 2043   3.657   4.093  10.053 -0.2390 -1.4755  1.4862
  131TMC2    H2 2044   3.547   4.509  10.014  1.4061  2.1255  2.9078
  131TMC2    C7 2045   3.706   4.307   9.910  0.0257 -0.3007 -0.3486
  131TMC2    C8 2046   3.382   4.497  10.206  0.5772  0.0883  0.1185
  131TMC2    O1 2047   3.727   4.202   9.851  0.6025 -0.0221 -0.0462
  131TMC2    O2 2048   3.340   4.575  10.295 -0.6200  0.0843  0.5081
  131TMC2    O5 2049   3.311   4.454  10.102 -0.6598  0.3415 -1.2379
  131TMC2    H5 2050   3.366   4.395  10.046 -0.8315  1.0374 -2.1337
  132MPD2     C 2051   3.495   3.717  10.255  1.1252  0.1931 -0.0815
  132MPD2    C1 2052   3.504   3.835  10.323 -0.3058  0.1495 -0.8192
  132MPD2    C2 2053   3.496   3.831  10.465 -0.5849 -0.1419 -0.3511
  132MPD2    C3 2054   3.496   3.716  10.529  0.1739  0.4759  0.5372
  132MPD2    C4 2055   3.510   3.597  10.460  0.1600 -0.3729 -0.1988
  132MPD2    C5 2056   3.504   3.606  10.322 -0.4153  0.1202 -0.4568
  132MPD2     H 2057   3.503   3.919  10.528  1.4336 -0.4739 -0.1082
  132MPD2    H1 2058   3.504   3.496  10.502 -2.0537 -0.2520 -0.2033
  132MPD2    H2 2059   3.488   3.713  10.147  4.0080  0.4814 -0.2868
  132MPD2    H3 2060   3.516   3.517  10.263 -2.0322 -0.7368  0.5048
  132MPD2     N 2061   3.465   3.720  10.670 -0.0658 -0.3684 -0.2503
  132MPD2    H5 2062   3.455   3.803  10.727  2.0725  0.2803 -0.8346
  132MPD2    N1 2063   3.521   3.949  10.246  1.3243  0.1138  0.3457
  132MPD2    H7 2064   3.517   3.943  10.144  1.8242 -0.9731  0.3911
  133TMC2    C1 2065   2.651   0.728   9.240  0.0691 -0.0828 -0.5936
  133TMC2    C2 2066   2.709   0.755   9.116 -0.0486  0.6359  0.1488
  133TMC2    C3 2067   2.751   0.882   9.096  0.6222 -0.8507  0.4713
  133TMC2    C4 2068   2.642   0.817   9.344  0.2396 -0.2740  0.1707
  133TMC2    C5 2069   2.682   0.949   9.305 -0.7584  0.0061  0.7731
  133TMC2    C6 2070   2.732   0.980   9.185 -0.2592  0.0576  0.2339
  133TMC2     C 2071   2.578   0.600   9.250 -0.0538 -0.5385 -0.5311
  133TMC2     O 2072   2.605   0.523   9.159 -0.1151  0.6228  0.1211
  133TMC2     H 2073   2.711   0.677   9.042  0.6300  1.0797 -0.3022
  133TMC2    H1 2074   2.604   0.796   9.443 -2.1240 -0.8646 -0.8553
  133TMC2    H2 2075   2.766   1.080   9.159 -2.5850  0.1573 -2.3352
  133TMC2    C7 2076   2.687   1.051   9.411 -0.1842 -0.7042  0.4972
  133TMC2    C8 2077   2.846   0.888   8.989  0.2042  0.2852 -0.8576
  133TMC2    O1 2078   2.720   1.160   9.370 -0.2237  0.3442 -0.3455
  133TMC2    O2 2079   2.857   0.806   8.902  0.7423  0.3459  0.0364
  133TMC2    O5 2080   2.950   0.959   9.036 -0.0390 -0.1345 -0.5223
  133TMC2    H5 2081   2.932   1.005   9.120 -1.8487 -0.2709 -0.8480
  134MPD2     C 2082   2.267   0.560   9.444 -0.1632 -0.3897  0.3943
  134MPD2    C1 2083   2.380   0.520   9.378  0.0121 -0.7423 -1.1348
  134MPD2    C2 2084   2.399   0.382   9.355 -0.7001 -0.3652 -0.1959
  134MPD2    C3 2085   2.299   0.292   9.388 -0.4760  0.3444  0.0676
  134MPD2    C4 2086   2.185   0.336   9.450  0.4430 -0.0812  0.5669
  134MPD2    C5 2087   2.167   0.465   9.474  0.0587  0.1441 -0.6192
  134MPD2     H 2088   2.494   0.343   9.322  0.1187  0.6432  0.9487
  134MPD2    H1 2089   2.103   0.272   9.481  1.0285 -0.9925  0.2563
  134MPD2    H2 2090   2.252   0.667   9.457 -1.6948 -0.5971  0.3090
  134MPD2    H3 2091   2.077   0.498   9.524  0.5003 -0.1107  0.3515
  134MPD2     N 2092   2.322   0.152   9.377  0.3004 -0.0463  0.1487
  134MPD2    H5 2093   2.254   0.089   9.418  0.3304  0.0384  0.3271
  134MPD2    N1 2094   2.474   0.613   9.341 -0.6043 -0.1692  0.4387
  134MPD2    H7 2095   2.455   0.711   9.359 -1.3872 -0.1697 -0.3506
  135TMC2    C1 2096   4.692   1.933   9.315 -0.4986  0.1022  0.8580
  135TMC2    C2 2097   4.586   1.941   9.398 -0.2945 -0.1069 -0.3772
  135TMC2    C3 2098   4.558   1.826   9.468 -0.2154  0.5139 -0.5227
  135TMC2    C4 2099   0.041   1.820   9.309 -0.4991 -0.2687  0.4194
  135TMC2    C5 2100   0.001   1.709   9.377  0.3160  0.1978 -0.3848
  135TMC2    C6 2101   4.627   1.711   9.462 -0.5856 -1.0333  0.7125
  135TMC2     C 2102   0.021   2.061   9.271  0.6448  0.0085 -0.1065
  135TMC2     O 2103   4.682   2.159   9.279  0.0124 -0.5207 -1.0434
  135TMC2     H 2104   4.529   2.033   9.405  1.3511  0.9263 -0.3283
  135TMC2    H1 2105   0.125   1.818   9.240  0.3695  0.5852  1.4459
  135TMC2    H2 2106   4.579   1.626   9.511  0.1804 -2.2445 -0.6446
  135TMC2    C7 2107   0.093   1.601   9.365  0.6428 -0.0551  0.0320
  135TMC2    C8 2108   4.458   1.842   9.568  0.3305 -0.6018 -0.1738
  135TMC2    O1 2109   0.151   1.587   9.257  0.5211  0.2412 -0.1167
  135TMC2    O2 2110   4.361   1.917   9.548 -0.1354 -0.3981 -0.2365
  135TMC2    O5 2111   4.524   1.825   9.689 -0.3529  0.1075  0.7488
  135TMC2    H5 2112   4.610   1.779   9.686 -0.5376 -0.1089 -1.6966
  136MPD2     C 2113   0.184   2.265   9.145 -0.0787  0.3321  0.0672
  136MPD2    C1 2114   0.238   2.151   9.207  0.3327 -0.2118  0.0890
  136MPD2    C2 2115   0.377   2.147   9.228 -0.4258 -0.0182  0.3387
  136MPD2    C3 2116   0.461   2.257   9.199 -0.4870  0.9876 -0.0486
  136MPD2    C4 2117   0.396   2.368   9.149 -0.0518  0.6241  0.2376
  136MPD2    C5 2118   0.260   2.371   9.122 -0.1382  0.1297 -0.0827
  136MPD2     H 2119   0.425   2.058   9.268 -1.6660  0.2098  2.3473
  136MPD2    H1 2120   0.453   2.457   9.125  0.4738  0.0236 -0.6978
  136MPD2    H2 2121   0.083   2.271   9.107 -0.3597  0.8038  0.8834
  136MPD2    H3 2122   0.209   2.459   9.084  0.0797  0.6330  0.7773
  136MPD2     N 2123   0.599   2.261   9.223 -0.0439  0.4522 -0.0403
  136MPD2    H5 2124   0.652   2.341   9.190  0.2185 -0.3223 -1.5133
  136MPD2    N1 2125   0.155   2.047   9.250  0.6316  0.4567 -0.2523
  136MPD2    H7 2126   0.202   1.967   9.291 -1.1375  0.4046  1.6886
  137TMC2    C1 2127   4.361   0.111   8.691  0.5622 -0.1480  0.2612
  137TMC2    C2 2128   4.319   0.011   8.609  0.8748 -0.7535  0.0945
  137TMC2    C3 2129   4.195   0.030   8.551 -0.1609 -0.1856 -0.4074
  137TMC2    C4 2130   4.287   0.226   8.712  0.3122  0.3094 -0.5627
  137TMC2    C5 2131   4.175   0.245   8.639 -0.0452 -0.4151  0.6262
  137TMC2    C6 2132   4.120   0.145   8.560  0.3431  0.2093  0.0473
  137TMC2     C 2133   4.447   0.069   8.802  0.0019  0.3324  0.9920
  137TMC2     O 2134   4.485   0.167   8.871  0.6134  0.3612  0.0592
  137TMC2     H 2135   4.360   4.644   8.591  2.2634 -0.7237  3.0506
  137TMC2    H1 2136   4.314   0.309   8.776  0.2931  1.1979 -1.7060
  137TMC2    H2 2137   4.017   0.147   8.529  0.8707 -1.5779 -1.8561
  137TMC2    C7 2138   4.090   0.359   8.676 -0.0781  0.8838 -0.7095
  137TMC2    C8 2139   4.152   4.666   8.452  0.2057 -0.1306 -0.1991
  137TMC2    O1 2140   4.028   0.418   8.589 -0.3334 -0.3537  0.1257
  137TMC2    O2 2141   4.174   4.543   8.462 -0.7276 -0.0628  0.7085
  137TMC2    O5 2142   4.109   0.006   8.345  0.6119  0.1305  0.6706
  137TMC2    H5 2143   4.121   0.103   8.347  1.7549  0.0134 -0.3261
  138MPD2     C 2144   4.562   4.474   8.918 -0.2313  0.3733 -0.6607
  138MPD2    C1 2145   4.549   4.613   8.915 -0.5213 -0.1844 -0.0303
  138MPD2    C2 2146   4.624   4.686   9.009  0.2050  0.1733 -0.3876
  138MPD2    C3 2147   4.694   4.614   9.107 -0.1453  0.4436  0.2383
  138MPD2    C4 2148   4.686   4.477   9.111  0.0318  0.0464  0.3951
  138MPD2    C5 2149   4.620   4.407   9.019 -0.2706 -0.0809  0.2009
  138MPD2     H 2150   4.624   0.062   9.006  3.4576  0.1491 -0.6845
  138MPD2    H1 2151   0.012   4.413   9.177 -0.7454 -0.6137  0.4494
  138MPD2    H2 2152   4.517   4.411   8.842  1.5604  0.9514 -2.2007
  138MPD2    H3 2153   4.621   4.299   9.031  0.4220 -0.1388 -0.3905
  138MPD2     N 2154   0.037   4.692   9.204 -0.2436  0.5575 -0.1633
  138MPD2    H5 2155   0.059   0.053   9.169  0.1749  1.3752  2.2703
  138MPD2    N1 2156   4.476   4.663   8.808  0.5554  0.1455  0.0742
  138MPD2    H7 2157   4.429   4.605   8.739 -2.1452  1.7681  0.5579
  139TMC2    C1 2158   1.248   2.668  13.049  0.0687  0.1911  0.2740
  139TMC2    C2 2159   1.203   2.694  12.919 -0.5230 -0.7218  0.2737
  139TMC2    C3 2160   1.159   2.823  12.882  0.1420  0.5120 -0.5920
  139TMC2    C4 2161   1.250   2.766  13.138  0.3476  0.4281 -0.6090
  139TMC2    C5 2162   1.199   2.890  13.100  0.0034 -0.4815  0.0285
  139TMC2    C6 2163   1.145   2.915  12.977 -0.5820 -0.6048 -0.0731
  139TMC2     C 2164   1.267   2.528  13.097  0.0324  0.1600  0.3499
  139TMC2     O 2165   1.192   2.447  13.046  0.3214 -0.1480 -0.5012
  139TMC2     H 2166   1.195   2.617  12.843  1.0496  0.0113 -0.6283
  139TMC2    H1 2167   1.261   2.740  13.242 -1.3321  2.1410 -0.0088
  139TMC2    H2 2168   1.109   3.013  12.950  1.8431  0.7688  1.6521
  139TMC2    C7 2169   1.156   2.984  13.197  0.0398 -0.1456  0.2530
  139TMC2    C8 2170   1.119   2.842  12.742 -0.8072 -0.2040 -0.5114
  139TMC2    O1 2171   1.226   3.008  13.294  0.2703  0.4865  0.2311
  139TMC2    O2 2172   1.161   2.774  12.654  0.2856 -0.6032 -0.2099
  139TMC2    O5 2173   1.051   2.958  12.725 -0.6757 -0.5694  0.0335
  139TMC2    H5 2174   1.018   2.990  12.811  0.8057  0.3677  0.2417
  140MPD2     C 2175   1.543   2.371  13.269 -0.0953  0.4373 -0.4698
  140MPD2    C1 2176   1.417   2.388  13.217  0.2420 -0.1604  0.0146
  140MPD2    C2 2177   1.344   2.271  13.204  0.0625  0.0856 -0.2015
  140MPD2    C3 2178   1.394   2.150  13.230 -0.3667 -0.1885 -0.2420
  140MPD2    C4 2179   1.517   2.136  13.279 -0.5034 -0.0860  0.3530
  140MPD2    C5 2180   1.595   2.244  13.297 -0.1282 -0.6175  0.0971
  140MPD2     H 2181   1.239   2.271  13.177  0.0566  2.4077 -0.1979
  140MPD2    H1 2182   1.555   2.039  13.308  0.5559 -0.3524 -1.9419
  140MPD2    H2 2183   1.599   2.462  13.291 -0.9743  0.4189  1.8854
  140MPD2    H3 2184   1.696   2.236  13.334 -0.1234  1.1762  0.4293
  140MPD2     N 2185   1.299   2.038  13.233 -0.3732  0.2387  0.2825
  140MPD2    H5 2186   1.200   2.048  13.217  0.3310  1.5879 -3.3132
  140MPD2    N1 2187   1.379   2.515  13.178 -0.7012 -0.1221  0.4298
  140MPD2    H7 2188   1.444   2.593  13.187  0.6925 -1.1291 -0.8437
  141TMC2    C1 2189   1.242   4.684  14.007  0.2036 -0.1319  0.5442
  141TMC2    C2 2190   1.128   4.705  13.933  0.5797 -0.0158  0.6032
  141TMC2    C3 2191   1.054   0.088  13.952 -0.0345 -0.2734 -0.0759
  141TMC2    C4 2192   1.276   0.039  14.106 -0.0807  0.4952 -0.3205
  141TMC2    C5 2193   1.203   0.150  14.125  0.5261 -0.2300  0.9327
  141TMC2    C6 2194   1.089   0.174  14.057  0.3884 -0.7430  0.7417
  141TMC2     C 2195   1.331   4.585  13.944 -0.6426 -0.3320  0.1613
  141TMC2     O 2196   1.280   4.509  13.864 -0.0169 -0.2523 -0.0421
  141TMC2     H 2197   1.104   4.632  13.857 -0.7202 -1.6672  2.5772
  141TMC2    H1 2198   1.368   0.017  14.159 -0.7273 -1.6411 -0.0637
  141TMC2    H2 2199   1.028   0.263  14.069  0.7108 -0.5572  0.9902
  141TMC2    C7 2200   1.248   0.264  14.201  0.1163 -0.8628 -0.1563
  141TMC2    C8 2201   0.961   0.133  13.843 -0.1211 -0.3825  0.4026
  141TMC2    O1 2202   1.173   0.360  14.193  0.0407 -0.4805  0.2012
  141TMC2    O2 2203   0.847   0.167  13.865  0.2131  0.5704 -0.2278
  141TMC2    O5 2204   1.009   0.076  13.732  0.4383 -0.6179  0.5352
  141TMC2    H5 2205   1.107   0.074  13.731  0.4682  2.6281 -1.3038
  142TMC2    C1 2206   3.970   3.856  10.045 -0.3145 -0.6959  0.5013
  142TMC2    C2 2207   4.099   3.840  10.005  0.2545 -0.3064  0.2626
  142TMC2    C3 2208   4.175   3.950   9.990 -0.1686  0.0524 -0.0277
  142TMC2    C4 2209   3.930   3.972  10.097  0.8665  0.2609  0.3693
  142TMC2    C5 2210   4.018   4.082  10.089  0.5653 -0.4724  0.2847
  142TMC2    C6 2211   4.140   4.067  10.041 -0.2242  0.3838 -0.2900
  142TMC2     C 2212   3.873   3.748  10.035 -0.0829 -0.4047  0.9326
  142TMC2     O 2213   3.761   3.776  10.073  0.3842 -0.4040  0.7031
  142TMC2     H 2214   4.129   3.758   9.941  0.7724  0.3457 -0.3332
  142TMC2    H1 2215   3.827   3.984  10.128  0.8152  0.2528  0.2023
  142TMC2    H2 2216   4.212   4.147  10.048 -2.8641  2.5534  1.9770
  142TMC2    C7 2217   3.961   4.211  10.142 -0.2907 -0.2922 -0.7397
  142TMC2    C8 2218   4.312   3.935   9.944 -0.1048 -0.5989  0.2132
  142TMC2    O1 2219   3.870   4.198  10.226  0.2546  0.1175 -0.1740
  142TMC2    O2 2220   4.384   3.838   9.973 -0.0535  0.5967  0.2418
  142TMC2    O5 2221   4.313   3.990   9.823  0.1164  0.1424  0.4617
  142TMC2    H5 2222   4.240   4.057   9.817 -1.6353 -1.8103 -0.0241
  143MPD2     C 2223   3.678   3.287   9.917 -0.1978  0.9303 -0.1332
  143MPD2    C1 2224   3.613   3.406   9.943  0.2899 -0.8399  0.2398
  143MPD2    C2 2225   3.700   3.518   9.964  0.4309 -0.2789 -0.4460
  143MPD2    C3 2226   3.838   3.514   9.962 -0.9370  0.4382 -0.3805
  143MPD2    C4 2227   3.897   3.399   9.931  0.1690 -0.5488 -0.0161
  143MPD2    C5 2228   3.819   3.290   9.895  0.8615  0.2097  0.4551
  143MPD2     H 2229   3.656   3.615   9.984  0.9103 -0.3981  1.1788
  143MPD2    H1 2230   4.005   3.394   9.923  0.2681  0.1818  0.9112
  143MPD2    H2 2231   3.627   3.191   9.923  1.3645  0.2119  2.0026
  143MPD2    H3 2232   3.869   3.194   9.879  1.4866  0.3449  1.6220
  143MPD2     N 2233   3.919   3.629   9.994 -0.6285 -0.3779  0.0617
  143MPD2    H5 2234   4.020   3.622   9.984 -0.5063  2.0666 -0.5310
  143MPD2    N1 2235   3.472   3.414   9.938  0.9995 -0.2451 -0.2452
  143MPD2    H7 2236   3.416   3.330   9.928 -1.0887  1.0079  0.8533
  144TMC2    C1 2237   2.167   2.171   0.826  0.4060 -0.0703 -0.5493
  144TMC2    C2 2238   2.213   2.068   0.752 -0.6179 -0.0305 -0.4501
  144TMC2    C3 2239   2.320   2.006   0.797  0.1676  0.2529  0.3190
  144TMC2    C4 2240   2.237   2.227   0.932 -0.2735 -0.3052  0.5153
  144TMC2    C5 2241   2.357   2.169   0.969 -0.2376 -0.6471 -0.5870
  144TMC2    C6 2242   2.394   2.053   0.899  0.4319 -0.5855 -0.0213
  144TMC2     C 2243   2.025   2.193   0.809 -0.5698 -0.0080 -0.1251
  144TMC2     O 2244   1.962   2.149   0.712  0.0294  0.1691 -0.6741
  144TMC2     H 2245   2.152   2.022   0.675 -0.0022  0.5101 -1.2677
  144TMC2    H1 2246   2.217   2.326   0.970  0.9267  0.9942 -2.2931
  144TMC2    H2 2247   2.490   2.006   0.918  0.7687 -0.5397 -1.6012
  144TMC2    C7 2248   2.458   2.240   1.046 -0.1194 -0.1191  0.3591
  144TMC2    C8 2249   2.371   1.883   0.745 -0.1786  0.3953  0.0146
  144TMC2    O1 2250   2.570   2.188   1.046 -0.2512  0.3015  0.4565
  144TMC2    O2 2251   2.399   1.797   0.828 -0.2311  0.7784  0.1682
  144TMC2    O5 2252   2.314   1.866   0.627  0.5984 -0.8453 -0.0926
  144TMC2    H5 2253   2.319   1.946   0.571  3.7641 -0.4784  0.6861
  145MPD2     C 2254   1.564   2.370   0.966 -0.3632  0.4438  0.3670
  145MPD2    C1 2255   1.602   2.307   0.852  0.3963 -0.7520  0.6478
  145MPD2    C2 2256   1.733   2.275   0.839 -0.7466 -0.6935  0.0627
  145MPD2    C3 2257   1.829   2.291   0.937 -0.0311 -0.0742 -0.0214
  145MPD2    C4 2258   1.790   2.344   1.057  0.3969  0.3609 -0.2796
  145MPD2    C5 2259   1.660   2.386   1.063  0.4197 -0.5448 -0.0265
  145MPD2     H 2260   1.747   2.230   0.742  2.1687 -2.8090  1.4872
  145MPD2    H1 2261   1.857   2.352   1.142  0.0844 -1.8047  0.1619
  145MPD2    H2 2262   1.461   2.400   0.983 -0.4740 -0.1751  0.7807
  145MPD2    H3 2263   1.619   2.423   1.156 -0.6346 -0.4641 -0.5261
  145MPD2     N 2264   1.964   2.251   0.923  0.2326  0.1107 -0.1296
  145MPD2    H5 2265   2.029   2.270   0.999  1.5154  0.1025 -1.2038
  145MPD2    N1 2266   1.515   2.266   0.749  0.1214  0.3515 -0.0361
  145MPD2    H7 2267   1.563   2.227   0.668 -1.3300 -0.9306 -0.2846
  146TMC2    C1 2268   2.966   1.449  12.963  0.0364  0.0880  0.2674
  146TMC2    C2 2269   2.891   1.565  12.930 -0.4759 -0.5368  0.1568
  146TMC2    C3 2270   2.843   1.562  12.802 -0.2200 -0.3274  0.0970
  146TMC2    C4 2271   3.018   1.359  12.866  0.4211 -0.3433 -0.5680
  146TMC2    C5 2272   2.968   1.377  12.738  0.4179 -0.0673  0.1788
  146TMC2    C6 2273   2.887   1.480  12.705  0.8776  0.4486  0.6320
  146TMC2     C 2274   2.987   1.436  13.109 -0.2043 -0.2500  0.0722
  146TMC2     O 2275   2.932   1.519  13.181  0.3616 -0.2543  0.1681
  146TMC2     H 2276   2.895   1.656  12.988  1.1557 -0.5075  0.0027
  146TMC2    H1 2277   3.070   1.272  12.904 -0.1134 -0.2120  0.4752
  146TMC2    H2 2278   2.837   1.488  12.609  1.0059 -0.0082  0.5285
  146TMC2    C7 2279   2.997   1.281  12.636 -0.3921 -0.6477 -0.3070
  146TMC2    C8 2280   2.766   1.676  12.762  0.2537 -0.4256  0.3770
  146TMC2    O1 2281   2.929   1.285  12.535  0.2409  0.1250  0.5845
  146TMC2    O2 2282   2.741   1.699  12.645 -0.2286 -0.1544 -0.0080
  146TMC2    O5 2283   2.696   1.724  12.872 -0.0949  0.3213 -0.3116
  146TMC2    H5 2284   2.690   1.667  12.952  3.8700 -0.5991 -0.6308
  147MPD2     C 2285   3.265   0.917  12.411  0.2069  0.0283 -0.9249
  147MPD2    C1 2286   3.308   0.918  12.542  0.3167 -0.4935 -0.6900
  147MPD2    C2 2287   3.259   1.022  12.619  0.3969  0.0556 -0.8472
  147MPD2    C3 2288   3.164   1.112  12.574  0.2352 -0.0258  0.4396
  147MPD2    C4 2289   3.132   1.112  12.441  0.3505  0.2962  0.3360
  147MPD2    C5 2290   3.179   1.012  12.365 -1.0260  0.1659 -0.0578
  147MPD2     H 2291   3.293   1.023  12.723 -2.9293  3.3517  0.2052
  147MPD2    H1 2292   3.064   1.184  12.396 -0.1136 -0.3279  0.0361
  147MPD2    H2 2293   3.311   0.856  12.334 -0.4529 -0.0918 -1.2195
  147MPD2    H3 2294   3.141   1.012  12.264 -0.4677  2.8435 -0.2800
  147MPD2     N 2295   3.105   1.199  12.668 -0.5883 -0.4384  0.1581
  147MPD2    H5 2296   3.148   1.206  12.759 -2.3691  0.7475  0.9208
  147MPD2    N1 2297   3.413   0.833  12.579 -0.4629  0.4427 -0.2819
  147MPD2    H7 2298   3.436   0.757  12.516 -2.5638 -0.5075  0.1063
  148TMC2    C1 2299   2.751   4.614  10.772 -0.3934 -0.3059  0.2906
  148TMC2    C2 2300   2.764   4.624  10.913  0.3107 -0.5884 -0.5612
  148TMC2    C3 2301   2.876   4.567  10.969  0.0960 -1.1414  0.2349
  148TMC2    C4 2302   2.847   4.560  10.688 -0.2619  0.0943 -0.3447
  148TMC2    C5 2303   2.951   4.510  10.756 -0.0675 -0.0725 -0.0611
  148TMC2    C6 2304   2.975   4.506  10.894 -1.0884 -0.8365  0.6413
  148TMC2     C 2305   2.643   4.690  10.716 -0.4381  0.4547 -0.3530
  148TMC2     O 2306   2.583   0.032  10.794  0.0763  0.4861 -0.4228
  148TMC2     H 2307   2.678   4.658  10.969  0.9593  0.1396 -0.0248
  148TMC2    H1 2308   2.832   4.566  10.581 -2.1264  1.3214 -0.0220
  148TMC2    H2 2309   3.055   4.457  10.948 -1.7976 -1.1253  1.4326
  148TMC2    C7 2310   3.015   4.404  10.677 -0.0088  0.2793  1.2752
  148TMC2    C8 2311   2.908   4.607  11.108 -0.4004  1.1039  0.3162
  148TMC2    O1 2312   3.001   4.430  10.555  0.0466  0.1400  0.3793
  148TMC2    O2 2313   3.022   4.622  11.148  0.3740  0.1173  1.1375
  148TMC2    O5 2314   2.798   4.626  11.180  0.2868 -0.2473 -0.4650
  148TMC2    H5 2315   2.726   4.573  11.140  0.2393 -0.8983  0.4948
  149MPD2     C 2316   2.452   0.112  10.536 -0.0133  0.6823  0.4127
  149MPD2    C1 2317   2.500   4.720  10.506 -0.3734 -0.0528 -0.6386
  149MPD2    C2 2318   2.460   4.667  10.384 -0.1585  0.0989  0.2703
  149MPD2    C3 2319   2.378   4.731  10.292 -0.4460  0.6609  0.1226
  149MPD2    C4 2320   2.342   0.129  10.323 -0.2132  0.2810  0.3809
  149MPD2    C5 2321   2.373   0.179  10.446 -0.0586  0.3192 -0.0560
  149MPD2     H 2322   2.475   4.560  10.370 -1.3326 -0.5054  3.6122
  149MPD2    H1 2323   2.280   0.184  10.254  1.2129  0.7906 -0.4908
  149MPD2    H2 2324   2.483   0.171  10.621  1.4438  1.2852 -0.5452
  149MPD2    H3 2325   2.344   0.281  10.465  1.7776  0.9740 -0.8190
  149MPD2     N 2326   2.315   4.673  10.178  0.5419 -0.3354  0.6720
  149MPD2    H5 2327   2.265   0.001  10.114 -0.4139  0.9068  2.5740
  149MPD2    N1 2328   2.605   4.665  10.585 -0.0031 -0.4385  0.8116
  149MPD2    H7 2329   2.648   4.585  10.539 -1.0351  0.3749 -1.5281
  150TMC2    C1 2330   0.435   3.809  12.201  0.6250 -0.1409 -0.0148
  150TMC2    C2 2331   0.362   3.925  12.172  0.3306  0.3024 -0.4241
  150TMC2    C3 2332   0.426   4.047  12.157 -1.1958  0.6717  0.8695
  150TMC2    C4 2333   0.570   3.816  12.224  0.3934  0.2556 -0.1832
  150TMC2    C5 2334   0.630   3.937  12.199 -0.3154 -0.1028  0.6786
  150TMC2    C6 2335   0.564   4.049  12.161  0.4166 -0.0536 -0.3910
  150TMC2     C 2336   0.383   3.689  12.140 -0.0484  0.4122  0.1608
  150TMC2     O 2337   0.437   3.586  12.179 -0.9805  0.1045  0.1937
  150TMC2     H 2338   0.254   3.921  12.171  0.2977  1.0596  0.0662
  150TMC2    H1 2339   0.623   3.722  12.233 -0.7669 -0.1070  2.7053
  150TMC2    H2 2340   0.620   4.141  12.148 -0.0272 -0.1105 -2.7618
  150TMC2    C7 2341   0.772   3.955  12.232 -0.0910  0.1402 -0.0538
  150TMC2    C8 2342   0.355   4.167  12.134  0.0044  0.3407 -0.6569
  150TMC2    O1 2343   0.815   4.071  12.245  0.0355  0.0118  0.0246
  150TMC2    O2 2344   0.380   4.261  12.209 -0.2225 -0.1967  0.1863
  150TMC2    O5 2345   0.253   4.156  12.050  0.3221 -0.1719  0.1274
  150TMC2    H5 2346   0.258   4.070  12.002 -1.5192  2.4598 -4.7190
  151MPD2     C 2347   0.003   3.430  11.912 -0.6756 -0.2372  0.9119
  151MPD2    C1 2348   4.702   3.568  11.914  0.1818  0.7373 -0.5959
  151MPD2    C2 2349   0.063   3.658  11.962  0.0037  0.3381 -0.6256
  151MPD2    C3 2350   0.187   3.615  12.015  0.1394  0.2994  0.1115
  151MPD2    C4 2351   0.213   3.477  12.017  0.3874 -0.4844 -0.5782
  151MPD2    C5 2352   0.128   3.390  11.961 -0.3726  0.6680 -0.0800
  151MPD2     H 2353   0.037   3.763  11.962 -0.2179  0.2850 -1.0038
  151MPD2    H1 2354   0.305   3.441  12.060  0.0048  2.0145  2.3438
  151MPD2    H2 2355   4.665   3.362  11.865  0.5729 -1.7143  1.1839
  151MPD2    H3 2356   0.150   3.284  11.957  1.6286  1.1316 -1.5093
  151MPD2     N 2357   0.267   3.711  12.073  0.6141 -0.1057  0.1681
  151MPD2    H5 2358   0.232   3.805  12.057 -0.9733 -0.8784 -0.9842
  151MPD2    N1 2359   4.572   3.602  11.873  0.5621 -0.5778  0.0491
  151MPD2    H7 2360   4.506   3.526  11.862  0.4769 -0.4439 -0.3617
  152TMC2    C1 2361   0.519   2.909  12.399 -0.3860  0.2828 -0.8703
  152TMC2    C2 2362   0.590   2.820  12.469  0.0596 -0.0839 -0.3164
  152TMC2    C3 2363   0.711   2.866  12.517 -0.1748  1.0622 -0.1232
  152TMC2    C4 2364   0.565   3.037  12.376 -0.3123 -0.1842 -0.0418
  152TMC2    C5 2365   0.679   3.076  12.437  0.6655 -0.2722  0.1377
  152TMC2    C6 2366   0.759   2.996  12.504 -0.1265 -0.2648 -0.6148
  152TMC2     C 2367   0.372   2.905  12.398  0.6782  0.0075 -0.4513
  152TMC2     O 2368   0.315   3.010  12.370  0.0002  0.0883 -0.1951
  152TMC2     H 2369   0.562   2.716  12.475  0.0813 -0.0238  0.7844
  152TMC2    H1 2370   0.508   3.119  12.334 -4.0021 -3.0086 -0.6552
  152TMC2    H2 2371   0.857   3.025  12.540  0.7651 -0.2488 -3.0412
  152TMC2    C7 2372   0.723   3.215  12.415  0.4204  1.0442 -0.5069
  152TMC2    C8 2373   0.780   2.781  12.607  0.3453  0.4223 -0.9634
  152TMC2    O1 2374   0.680   3.265  12.313  0.1861  0.6207  0.3134
  152TMC2    O2 2375   0.763   2.660  12.591  0.5720 -0.0501 -0.3657
  152TMC2    O5 2376   0.772   2.841  12.730 -0.3597 -0.0134  0.2966
  152TMC2    H5 2377   0.752   2.937  12.728 -1.3612 -0.2568 -1.3727
  153MPD2     C 2378   0.137   2.649  12.484 -0.8673 -0.1175  0.0160
  153MPD2    C1 2379   0.170   2.775  12.453  0.0464  0.1800 -0.2402
  153MPD2    C2 2380   0.073   2.875  12.436 -0.7005 -0.5566  0.0443
  153MPD2    C3 2381   4.665   2.847  12.445  0.2560  0.5372 -0.3486
  153MPD2    C4 2382   4.629   2.715  12.474 -0.0764 -0.2087 -0.0171
  153MPD2    C5 2383   0.004   2.622  12.485 -0.3647  0.0995  0.2436
  153MPD2     H 2384   0.097   2.978  12.412  0.6650 -0.9165 -0.1405
  153MPD2    H1 2385   4.528   2.677  12.484 -0.6222  1.7324  1.6745
  153MPD2    H2 2386   0.207   2.567  12.497 -1.3182 -0.5161 -0.0862
  153MPD2    H3 2387   4.702   2.522  12.507  1.2539 -0.3751  0.5885
  153MPD2     N 2388   4.572   2.950  12.424  0.4266  0.0871  0.8836
  153MPD2    H5 2389   4.609   3.040  12.395  1.3679 -0.1910  1.2212
  153MPD2    N1 2390   0.313   2.789  12.440 -0.2606  0.3798  0.1216
  153MPD2    H7 2391   0.366   2.702  12.434 -0.9789 -0.1044  0.7383
  154TMC2    C1 2392   2.488   4.071   0.743 -0.4596  0.1627 -0.1231
  154TMC2    C2 2393   2.396   3.988   0.788  0.3390  0.2546 -0.0625
  154TMC2    C3 2394   2.373   3.873   0.713 -0.6213 -0.2859  0.3984
  154TMC2    C4 2395   2.562   4.052   0.628 -0.7021  0.4692  0.6053
  154TMC2    C5 2396   2.536   3.937   0.562  0.2451 -0.3825 -0.2016
  154TMC2    C6 2397   2.438   3.843   0.604 -0.0725  0.2603 -0.2962
  154TMC2     C 2398   2.516   4.186   0.834  0.0364  0.3553 -0.4092
  154TMC2     O 2399   2.452   4.192   0.938  0.9392 -0.0629 -0.2608
  154TMC2     H 2400   2.354   3.996   0.887 -0.5017 -1.7101 -0.2644
  154TMC2    H1 2401   2.641   4.122   0.603 -0.2822 -0.3139 -0.2734
  154TMC2    H2 2402   2.438   3.746   0.556 -0.9122 -0.0212  0.2674
  154TMC2    C7 2403   2.619   3.915   0.441  0.3148  0.6387  0.0778
  154TMC2    C8 2404   2.266   3.786   0.763  0.1803 -0.0131 -0.1756
  154TMC2    O1 2405   2.723   3.981   0.437  0.3076 -0.0803  0.1414
  154TMC2    O2 2406   2.227   3.790   0.878  0.1326 -0.4334  0.3590
  154TMC2    O5 2407   2.213   3.728   0.658  0.3024  0.2919 -0.2081
  154TMC2    H5 2408   2.267   3.740   0.578  0.2663 -1.8490 -0.5509
  155MPD2     C 2409   2.718   4.485   0.751 -0.3351 -0.2680  0.4301
  155MPD2    C1 2410   2.637   4.405   0.834  0.2099  0.4052 -0.1660
  155MPD2    C2 2411   2.608   4.440   0.965  0.1679  0.7519 -0.7707
  155MPD2    C3 2412   2.673   4.554   1.009  0.1266  0.1724 -0.7271
  155MPD2    C4 2413   2.750   4.640   0.926  0.8132 -0.5639 -0.2489
  155MPD2    C5 2414   2.768   4.604   0.798  0.6852 -0.6245 -0.1582
  155MPD2     H 2415   2.544   4.375   1.023  1.8572 -0.3373 -0.1086
  155MPD2    H1 2416   2.794   0.001   0.960  0.7193 -1.0439  1.1657
  155MPD2    H2 2417   2.746   4.460   0.649  1.3506 -0.8028  1.0233
  155MPD2    H3 2418   2.837   4.664   0.739  2.3399 -0.3761  2.0304
  155MPD2     N 2419   2.667   4.577   1.147 -0.4532  0.1827  0.4635
  155MPD2    H5 2420   2.626   4.504   1.205 -1.5208 -1.3364 -2.1745
  155MPD2    N1 2421   2.597   4.281   0.777 -0.7521 -0.5003 -0.0162
  155MPD2    H7 2422   2.622   4.270   0.679  1.3501  1.0858  0.3407
  156TMC2    C1 2423   4.269   0.755  10.835 -0.1756 -0.3854  0.8950
  156TMC2    C2 2424   4.232   0.625  10.858 -0.1279 -0.1979  0.6216
  156TMC2    C3 2425   4.117   0.593  10.926  0.3989 -0.3903 -0.4045
  156TMC2    C4 2426   4.186   0.854  10.890  0.3466  0.1325  0.2968
  156TMC2    C5 2427   4.078   0.816  10.967  0.1186  0.1300 -0.6260
  156TMC2    C6 2428   4.041   0.688  10.989 -0.7609 -0.0798 -0.2706
  156TMC2     C 2429   4.399   0.785  10.885  0.1750 -0.4079  1.1414
  156TMC2     O 2430   4.389   0.860  10.982 -0.2644  0.2579  0.0825
  156TMC2     H 2431   4.321   0.563  10.859  1.2143  1.7384  0.4663
  156TMC2    H1 2432   4.212   0.957  10.867  0.6301 -0.0365 -0.1437
  156TMC2    H2 2433   3.965   0.664  11.063  1.1083 -0.1379  1.6409
  156TMC2    C7 2434   4.055   0.903  11.075  0.7272 -0.9537  0.4716
  156TMC2    C8 2435   4.136   0.478  11.011 -0.3900  0.0631  0.1525
  156TMC2    O1 2436   3.951   0.876  11.136 -0.1921 -0.2483  0.0005
  156TMC2    O2 2437   4.242   0.446  11.065 -0.1395 -0.0034 -0.1152
  156TMC2    O5 2438   4.012   0.428  11.042 -0.1523 -0.1282 -0.2228
  156TMC2    H5 2439   3.948   0.448  10.970 -1.4713  0.4795  1.1060
  157MPD2     C 2440   4.727   0.633  10.844  1.0329  0.1172  0.3823
  157MPD2    C1 2441   4.616   0.675  10.904 -0.4945  0.6972 -0.0578
  157MPD2    C2 2442   4.618   0.686  11.047  0.0876  0.2884 -0.1470
  157MPD2    C3 2443   4.727   0.666  11.122 -0.3765 -1.2719 -0.0950
  157MPD2    C4 2444   0.108   0.635  11.047 -0.2951  1.1191 -0.0108
  157MPD2    C5 2445   0.110   0.628  10.913 -0.8857  0.0059  0.1971
  157MPD2     H 2446   4.529   0.713  11.103 -0.4120 -1.4423 -0.0998
  157MPD2    H1 2447   0.202   0.619  11.098 -1.5302 -2.6552  1.0713
  157MPD2    H2 2448   0.002   0.619  10.737  1.2537  0.3723  0.3617
  157MPD2    H3 2449   0.199   0.601  10.859 -0.1444 -1.5523  2.1856
  157MPD2     N 2450   4.718   0.659  11.265 -0.4239  0.2688 -0.1874
  157MPD2    H5 2451   4.622   0.661  11.300 -1.2160  2.3471 -2.4645
  157MPD2    N1 2452   4.500   0.711  10.835 -0.0210  0.3067 -0.1363
  157MPD2    H7 2453   4.487   0.670  10.743  0.0153  3.3488 -1.4791
  158TMC2    C1 2454   0.537   4.704  13.952  1.0510  0.1104  0.2440
  158TMC2    C2 2455   0.451   0.075  13.912 -0.3553 -0.6982 -0.5046
  158TMC2    C3 2456   0.345   0.032  13.833  0.3194 -0.5203 -0.4766
  158TMC2    C4 2457   0.530   4.573  13.922 -0.6138  0.0836 -0.2864
  158TMC2    C5 2458   0.426   4.539  13.834 -0.5875 -0.1916  0.3625
  158TMC2    C6 2459   0.341   4.638  13.781 -0.4981  0.4009  0.1966
  158TMC2     C 2460   0.624   0.016  14.066 -0.2841  0.1088 -0.3120
  158TMC2     O 2461   0.592   0.126  14.108 -0.5873 -0.4259  0.3025
  158TMC2     H 2462   0.464   0.177  13.944 -0.6492 -1.1714  1.1363
  158TMC2    H1 2463   0.576   4.487  13.971 -0.3779  0.9422  1.0045
  158TMC2    H2 2464   0.260   4.617  13.712 -1.0021 -1.6147  1.3868
  158TMC2    C7 2465   0.410   4.412  13.775 -0.4829  0.6700 -0.2950
  158TMC2    C8 2466   0.211   0.088  13.865 -0.0600 -0.8259 -0.4740
  158TMC2    O1 2467   0.304   4.402  13.723 -0.1855 -0.4376  0.0259
  158TMC2    O2 2468   0.108   0.036  13.819  0.2952 -0.0442  0.7804
  158TMC2    O5 2469   0.222   0.172  13.968  0.4448  0.1515 -0.2421
  158TMC2    H5 2470   0.309   0.150  14.008  0.2608  1.2061  0.7236
  159MPD2     C 2471   1.018   4.728  14.389 -0.0227  0.3245  0.2375
  159MPD2    C1 2472   1.018   4.615  14.318  0.6681  0.0225 -0.7708
  159MPD2    C2 2473   0.914   4.589  14.228 -0.3509 -0.3868 -0.2643
  159MPD2    C3 2474   0.817   4.689  14.212 -0.1638  0.1027  0.0880
  159MPD2    C4 2475   0.818   0.070  14.284 -0.3527  0.2465  0.3639
  159MPD2    C5 2476   0.920   0.084  14.374  0.4100  0.2689 -0.0033
  159MPD2     H 2477   0.910   4.494  14.175 -0.5765 -0.8912  0.6559
  159MPD2    H1 2478   0.744   0.148  14.267 -0.1658  0.0023 -1.5674
  159MPD2    H2 2479   1.098   0.028  14.455  0.7595 -0.0985 -0.5007
  159MPD2    H3 2480   0.912   0.167  14.443  3.6962 -0.3348  1.1411
  159MPD2     N 2481   0.724   4.663  14.104  0.2236  0.9065 -0.0403
  159MPD2    H5 2482   0.736   4.571  14.061  2.2490  1.5963 -0.9732
  159MPD2    N1 2483   1.138   4.542  14.333  0.3460 -0.7411 -0.2687
  159MPD2    H7 2484   1.200   4.576  14.406  1.9108 -1.1010 -1.4383
  160TMC2    C1 2485   0.369   2.525   1.657  0.1316  0.0617 -0.2609
  160TMC2    C2 2486   0.328   2.394   1.672 -1.3343 -0.4693  0.1156
  160TMC2    C3 2487   0.359   2.301   1.580 -0.9425 -0.0741  0.5046
  160TMC2    C4 2488   0.447   2.567   1.555  0.6270  0.4092 -0.1660
  160TMC2    C5 2489   0.482   2.462   1.478 -0.3728  0.1392  0.3933
  160TMC2    C6 2490   0.440   2.331   1.477 -0.1814 -0.2434 -0.1569
  160TMC2     C 2491   0.316   2.612   1.745 -0.1045 -0.1094  0.7501
  160TMC2     O 2492   0.254   2.562   1.836  0.5334 -0.2323  0.0789
  160TMC2     H 2493   0.272   2.356   1.756 -0.1279 -0.1149  1.0811
  160TMC2    H1 2494   0.487   2.666   1.537 -0.7247  1.2428  1.4024
  160TMC2    H2 2495   0.474   2.252   1.412 -0.7341 -1.3917  0.9575
  160TMC2    C7 2496   0.540   2.501   1.349 -0.1778 -0.4992  0.3782
  160TMC2    C8 2497   0.316   2.164   1.600 -0.2569  0.5964  0.4484
  160TMC2    O1 2498   0.496   2.439   1.250  0.3772  0.3094  0.2151
  160TMC2    O2 2499   0.259   2.142   1.707 -0.5369  0.5662  0.2139
  160TMC2    O5 2500   0.264   2.127   1.475  0.0559 -0.5778 -0.3060
  160TMC2    H5 2501   0.268   2.198   1.409 -1.2578 -0.1995  0.0240
  161MPD2     C 2502   0.178   2.831   1.884  0.4708 -0.2495 -0.0810
  161MPD2    C1 2503   0.221   2.833   1.753 -0.2075 -0.1125  0.3384
  161MPD2    C2 2504   0.173   2.932   1.664  0.0335 -0.2835  0.3228
  161MPD2    C3 2505   0.082   3.024   1.708  0.4767  0.1265 -0.2198
  161MPD2    C4 2506   0.037   3.016   1.836  0.3138  0.7809 -0.2827
  161MPD2    C5 2507   0.092   2.927   1.926  0.2062 -0.4405 -0.4840
  161MPD2     H 2508   0.183   2.926   1.557  2.4898 -0.0342  0.5459
  161MPD2    H1 2509   4.693   3.083   1.874 -1.3413 -0.4196 -1.4680
  161MPD2    H2 2510   0.213   2.759   1.957  1.3542 -0.8852 -1.1346
  161MPD2    H3 2511   0.063   2.927   2.031 -1.9260  0.0694 -1.0621
  161MPD2     N 2512   0.012   3.109   1.625 -0.6172 -0.5118 -0.2834
  161MPD2    H5 2513   4.673   3.168   1.666 -0.4987 -1.4153  1.2222
  161MPD2    N1 2514   0.298   2.734   1.697 -0.2631 -0.3654 -0.2344
  161MPD2    H7 2515   0.333   2.745   1.602 -0.0016 -0.6634 -0.1728
  162TMC2    C1 2516   3.811   0.583   1.252  0.3355  0.0088  0.2990
  162TMC2    C2 2517   3.721   0.681   1.288 -0.8323  0.3665  0.2516
  162TMC2    C3 2518   3.743   0.738   1.409 -0.3421 -0.4829  0.1100
  162TMC2    C4 2519   3.927   0.549   1.320  0.6765  0.1050 -0.3050
  162TMC2    C5 2520   3.945   0.617   1.439  0.6504 -0.2831  0.1175
  162TMC2    C6 2521   3.854   0.710   1.484  0.5494  0.5664  1.1461
  162TMC2     C 2522   3.772   0.489   1.148  0.3333 -0.2072 -0.1642
  162TMC2     O 2523   3.863   0.423   1.096  0.1846  0.1903  0.2836
  162TMC2     H 2524   3.640   0.707   1.220  1.3700  0.2364 -2.4261
  162TMC2    H1 2525   4.003   0.483   1.280 -0.2748 -0.1331 -1.7013
  162TMC2    H2 2526   3.871   0.772   1.572 -0.8479  5.5523 -2.0639
  162TMC2    C7 2527   4.046   0.572   1.532 -0.5147 -0.1456  0.4091
  162TMC2    C8 2528   3.629   0.824   1.456 -0.3692  0.1342  0.0359
  162TMC2    O1 2529   4.097   0.662   1.603 -0.2029  0.6897  0.1825
  162TMC2    O2 2530   3.560   0.870   1.369  0.4309 -0.0407 -0.1246
  162TMC2    O5 2531   3.634   0.853   1.592 -0.2507 -0.5294 -0.2442
  162TMC2    H5 2532   3.663   0.781   1.651  3.2251  1.1247  0.0667
  163MPD2     C 2533   3.395   0.262   0.884 -0.8545 -0.3084  1.0270
  163MPD2    C1 2534   3.528   0.225   0.891 -0.6428 -0.2637  0.3419
  163MPD2    C2 2535   3.607   0.305   0.971  0.2221 -0.3816  0.7086
  163MPD2    C3 2536   3.557   0.396   1.060  0.4293 -0.1656 -0.0799
  163MPD2    C4 2537   3.420   0.416   1.061 -0.4561 -0.0796  0.4883
  163MPD2    C5 2538   3.345   0.349   0.974 -0.7546 -0.6050 -0.4857
  163MPD2     H 2539   3.716   0.301   0.974  0.2995  1.9293  0.6398
  163MPD2    H1 2540   3.381   0.492   1.127 -3.1729  0.2290 -1.4674
  163MPD2    H2 2541   3.328   0.215   0.812 -0.9832 -1.3898  1.8486
  163MPD2    H3 2542   3.237   0.359   0.971 -0.7549  0.0012  1.5276
  163MPD2     N 2543   3.635   0.483   1.141 -0.0299  0.0248  0.5838
  163MPD2    H5 2544   3.584   0.541   1.208 -0.4682  0.9277 -0.5264
  163MPD2    N1 2545   3.575   0.131   0.806 -0.4032 -0.0467 -0.0466
  163MPD2    H7 2546   3.516   0.107   0.727  0.1783 -2.3683  0.2261
  164TMC2    C1 2547   3.613   4.348  11.304 -0.0632  0.1510  0.2269
  164TMC2    C2 2548   3.720   4.432  11.278 -0.1682 -0.5549 -0.4001
  164TMC2    C3 2549   3.708   4.560  11.330  0.6594 -0.5404  1.0099
  164TMC2    C4 2550   3.502   4.384  11.370  0.5173  0.2720  0.1923
  164TMC2    C5 2551   3.492   4.517  11.415 -0.5103 -0.4528 -1.3271
  164TMC2    C6 2552   3.597   4.605  11.395  0.5264 -0.1191 -0.0977
  164TMC2     C 2553   3.610   4.209  11.241 -0.5445  0.4740 -0.3520
  164TMC2     O 2554   3.544   4.121  11.292 -0.0094 -0.2417 -0.3237
  164TMC2     H 2555   3.810   4.407  11.223 -0.5904 -1.3706 -0.7175
  164TMC2    H1 2556   3.426   4.309  11.387  0.6110  0.7011  2.5050
  164TMC2    H2 2557   3.585   4.706  11.433  1.4932 -0.3184  0.7265
  164TMC2    C7 2558   3.363   4.574  11.456 -0.4787  0.0383  0.2604
  164TMC2    C8 2559   3.830   4.620  11.352 -0.2124  1.0094 -0.4302
  164TMC2    O1 2560   3.350   4.697  11.444 -0.0617  0.1572 -0.7804
  164TMC2    O2 2561   3.869   4.648  11.464  0.3333 -0.1633  0.1341
  164TMC2    O5 2562   3.897   4.623  11.234  0.0641 -0.4206 -0.4223
  164TMC2    H5 2563   3.838   4.595  11.161  1.5584  0.6501 -2.0470
  165TMC2    C1 2564   0.771   1.946   0.798 -0.3019  0.2479  0.0848
  165TMC2    C2 2565   0.863   1.930   0.702 -0.4900 -0.2324  0.3174
  165TMC2    C3 2566   0.976   2.010   0.701  1.0627 -0.0757  0.3616
  165TMC2    C4 2567   0.792   2.027   0.909  0.2914 -0.0059  0.1782
  165TMC2    C5 2568   0.910   2.103   0.908  0.3145  0.2215  0.0293
  165TMC2    C6 2569   1.005   2.097   0.802 -0.0891  0.0683  0.0458
  165TMC2     C 2570   0.642   1.875   0.787 -0.0856 -0.1828 -0.1471
  165TMC2     O 2571   0.552   1.908   0.869  0.8829 -0.3331 -0.1922
  165TMC2     H 2572   0.848   1.868   0.614  1.8817 -3.3421  2.0982
  165TMC2    H1 2573   0.714   2.035   0.984 -0.5231 -1.2534 -0.5438
  165TMC2    H2 2574   1.101   2.146   0.808  0.1227 -0.4900  1.2738
  165TMC2    C7 2575   0.938   2.198   1.018  0.1674  0.0786 -0.1102
  165TMC2    C8 2576   1.098   1.949   0.654 -0.4539  0.1534 -0.7726
  165TMC2    O1 2577   1.033   2.272   0.998 -0.4368  0.3896  0.1025
  165TMC2    O2 2578   1.199   1.935   0.726 -0.2903  0.6227  0.9040
  165TMC2    O5 2579   1.097   1.990   0.521  0.3279  0.0993  0.1738
  165TMC2    H5 2580   1.012   2.030   0.492  0.4575  0.8411  0.8398
  166MPD2     C 2581   0.320   1.499   0.644 -0.6647  0.3025 -0.3067
  166MPD2    C1 2582   0.297   1.623   0.703  0.0720 -0.0820  0.1014
  166MPD2    C2 2583   0.405   1.713   0.727  0.1221  0.4975  0.1920
  166MPD2    C3 2584   0.532   1.672   0.699 -0.0864 -0.2595 -0.8903
  166MPD2    C4 2585   0.552   1.546   0.656  0.0068 -0.5493  0.9019
  166MPD2    C5 2586   0.449   1.459   0.630  0.2325 -0.4300  0.0692
  166MPD2     H 2587   0.388   1.800   0.790  2.4829 -0.7720  2.5790
  166MPD2    H1 2588   0.652   1.506   0.651 -0.6267 -1.7420 -2.0227
  166MPD2    H2 2589   0.249   1.418   0.625 -0.3305  0.1307 -0.8409
  166MPD2    H3 2590   0.466   1.356   0.602 -1.2571  0.1860 -3.0676
  166MPD2     N 2591   0.643   1.749   0.716  0.1414 -0.1980  0.0695
  166MPD2    H5 2592   0.731   1.711   0.683  0.5625 -0.0460  1.0076
  166MPD2    N1 2593   0.160   1.662   0.728  0.5891 -0.0659  0.0651
  166MPD2    H7 2594   0.078   1.604   0.710 -0.5551  2.6009 -3.2408
  167TMC2    C1 2595   3.289   4.259  13.181 -0.4900  0.0334 -0.7674
  167TMC2    C2 2596   3.283   4.299  13.312 -0.0502 -0.7952  0.2271
  167TMC2    C3 2597   3.229   4.212  13.402  0.1218 -0.3879  0.2880
  167TMC2    C4 2598   3.245   4.133  13.152  0.1654 -0.1826  0.1112
  167TMC2    C5 2599   3.186   4.057  13.245  0.0568 -0.2952  0.3652
  167TMC2    C6 2600   3.184   4.083  13.374  0.4992 -0.0209 -0.1437
  167TMC2     C 2601   3.391   4.327  13.100  0.4785  0.5692 -0.4349
  167TMC2     O 2602   3.478   4.389  13.156 -0.4864  0.3961  0.2936
  167TMC2     H 2603   3.339   4.385  13.348 -2.1029  1.1854 -1.2662
  167TMC2    H1 2604   3.274   4.088  13.058  3.2624 -0.1093  1.0263
  167TMC2    H2 2605   3.128   4.023  13.446  0.1209 -0.1217 -0.5246
  167TMC2    C7 2606   3.149   3.922  13.203 -0.3201 -0.2317  0.1962
  167TMC2    C8 2607   3.246   4.244  13.546 -1.2576  0.5436  0.1191
  167TMC2    O1 2608   3.130   3.840  13.292  0.4779  0.3412 -1.0850
  167TMC2    O2 2609   3.267   4.156  13.628 -0.2042 -0.3840 -0.0827
  167TMC2    O5 2610   3.267   4.374  13.565 -0.5312  0.7481 -0.1260
  167TMC2    H5 2611   3.214   4.423  13.499  0.4286  1.0285 -0.6830
  168MPD2     C 2612   3.532   4.471  12.886  0.6642  0.4872 -0.2222
  168MPD2    C1 2613   3.421   4.391  12.863  0.2712  1.2565 -0.0821
  168MPD2    C2 2614   3.366   4.393  12.739 -0.1942  0.0431  0.0764
  168MPD2    C3 2615   3.423   4.475  12.638 -0.9151  0.2912  0.0393
  168MPD2    C4 2616   3.534   4.546  12.662  0.0598 -0.1769  0.4789
  168MPD2    C5 2617   3.575   4.553  12.786  0.1617 -0.0851 -0.0479
  168MPD2     H 2618   3.281   4.327  12.728 -0.0975 -0.0680 -0.0036
  168MPD2    H1 2619   3.577   4.612  12.587 -2.5736  2.0855  0.9891
  168MPD2    H2 2620   3.589   4.474  12.977 -1.7715  0.2730  1.3180
  168MPD2    H3 2621   3.655   4.619  12.817 -1.3714  1.9186 -0.3673
  168MPD2     N 2622   3.361   4.483  12.511 -0.4154  0.1440  0.1904
  168MPD2    H5 2623   3.406   4.543  12.443  0.8544 -0.9902  0.0280
  168MPD2    N1 2624   3.352   4.323  12.969  0.5327 -0.8072 -0.3358
  168MPD2    H7 2625   3.262   4.279  12.956 -1.8182  2.8716  3.4809
  169MPD1     C 2626   3.862   3.895   9.707  0.0308 -0.3096 -0.4948
  169MPD1    C1 2627   3.968   3.977   9.674  0.4726 -0.1144  0.7634
  169MPD1    C2 2628   4.085   3.917   9.622 -0.4824  0.9019  0.5830
  169MPD1    C3 2629   4.098   3.774   9.615 -0.4361  0.1899 -1.5767
  169MPD1    C4 2630   3.988   3.699   9.650  0.1309  0.3058 -0.6219
  169MPD1    C5 2631   3.876   3.756   9.695  0.3382 -0.0255 -0.3934
  169MPD1     H 2632   4.170   3.980   9.598 -0.7004  1.1876  0.5636
  169MPD1    H1 2633   3.998   3.591   9.651 -0.2350  0.2919  2.1513
  169MPD1    H2 2634   3.763   3.933   9.729 -0.1883 -0.7418 -0.7299
  169MPD1    H3 2635   3.796   3.688   9.721 -0.2623  0.5132 -0.8183
  169MPD1     N 2636   4.219   3.701   9.601  0.7733  0.2349  0.2710
  169MPD1    H5 2637   4.206   3.602   9.619 -0.4054  0.2765 -0.3897
  169MPD1    N1 2638   3.941   4.114   9.668  0.3889  0.2736 -0.1563
  169MPD1    H6 2639   4.020   4.178   9.669  1.1792 -0.7018  0.3483
  169MPD1    H7 2640   3.873   4.150   9.735 -0.8905 -1.3951 -0.5617
  170MPD1     C 2641   3.365   1.964  12.694  0.1405  0.1842 -0.2494
  170MPD1    C1 2642   3.328   2.041  12.794  0.1342 -0.2532 -0.0424
  170MPD1    C2 2643   3.382   2.006  12.918 -1.0628 -0.1802 -0.7418
  170MPD1    C3 2644   3.482   1.914  12.933  0.5357  0.4519  0.2544
  170MPD1    C4 2645   3.523   1.842  12.824  0.5315 -0.0969 -0.2575
  170MPD1    C5 2646   3.456   1.863  12.708 -0.5521 -0.0486 -0.4931
  170MPD1     H 2647   3.345   2.046  13.012  0.4446 -0.1276 -0.1642
  170MPD1    H1 2648   3.601   1.767  12.816  0.5255 -0.0384 -0.8821
  170MPD1    H2 2649   3.333   1.974  12.591  0.7502 -3.8156 -0.8350
  170MPD1    H3 2650   3.492   1.806  12.622 -0.5639 -1.9644  0.7835
  170MPD1     N 2651   3.540   1.908  13.066 -0.5602 -0.6660  0.2466
  170MPD1    H5 2652   3.510   1.965  13.145 -1.3739  1.7281 -1.7815
  170MPD1    N1 2653   3.215   2.122  12.777  0.0625 -0.3387 -0.6592
  170MPD1    H6 2654   3.212   2.197  12.846 -2.1719 -2.3205  1.4009
  170MPD1    H7 2655   3.207   2.159  12.683 -1.9543  0.7607 -0.0594
  171MPD1     C 2656   2.527   3.219  15.487 -0.1625 -0.6570 -1.0123
  171MPD1    C1 2657   2.510   3.099  15.427 -0.8200 -0.2390  0.1449
  171MPD1    C2 2658   2.567   2.988  15.490  0.1873  0.3141  0.3628
  171MPD1    C3 2659   2.645   2.995  15.598 -0.3487  0.7977  0.2359
  171MPD1    C4 2660   2.666   3.116  15.649  0.3641 -0.4829 -0.3717
  171MPD1    C5 2661   2.606   3.234  15.596 -0.1426 -0.4787  0.1845
  171MPD1     H 2662   2.550   2.897  15.435 -3.7520  1.4270 -0.2412
  171MPD1    H1 2663   2.741   3.130  15.726 -0.8159  3.4312  0.0822
  171MPD1    H2 2664   2.477   3.301  15.437 -0.2724 -1.2515 -1.8844
  171MPD1    H3 2665   2.620   3.330  15.645  0.6282  0.1351 -1.2252
  171MPD1     N 2666   2.712   2.891  15.665  0.6142  0.2475 -0.2333
  171MPD1    H5 2667   2.771   2.911  15.744  0.2312 -0.0541  0.1252
  171MPD1    N1 2668   2.418   3.082  15.330  0.1219 -0.2116 -0.9334
  171MPD1    H6 2669   2.451   3.009  15.268  1.4010 -0.7624  0.3835
  171MPD1    H7 2670   2.415   3.160  15.265  0.2719  0.2753 -0.3653
  172MPD1     C 2671   0.984   2.691   0.688 -0.9653 -0.2064  0.6959
  172MPD1    C1 2672   1.092   2.622   0.724 -0.2832 -0.0785 -0.2757
  172MPD1    C2 2673   1.209   2.641   0.649 -0.0916  0.3280  0.6209
  172MPD1    C3 2674   1.214   2.716   0.535 -0.2362 -0.6972 -0.2583
  172MPD1    C4 2675   1.099   2.779   0.498 -0.2410  0.1559 -0.6061
  172MPD1    C5 2676   0.988   2.773   0.576 -0.1979  0.0151 -0.1500
  172MPD1     H 2677   1.295   2.589   0.689  0.3461  0.0891 -0.6445
  172MPD1    H1 2678   1.110   2.845   0.413 -1.4546 -0.0632 -0.9255
  172MPD1    H2 2679   0.893   2.682   0.746 -1.0257 -1.5653  0.3896
  172MPD1    H3 2680   0.898   2.820   0.538 -2.2530 -1.8231  2.4874
  172MPD1     N 2681   1.327   2.743   0.452 -0.1206 -0.1889  0.1541
  172MPD1    H5 2682   1.312   2.806   0.373  0.1867 -1.0714 -0.6119
  172MPD1    N1 2683   1.088   2.531   0.829 -0.4741  0.1557 -0.1340
  172MPD1    H6 2684   1.157   2.456   0.824 -0.4234  0.2861 -1.4706
  172MPD1    H7 2685   0.997   2.487   0.840 -0.1429 -0.4514  0.2175
  173MPD1     C 2686   3.300   2.676  14.097 -0.1972  0.1899 -0.5027
  173MPD1    C1 2687   3.380   2.573  14.061  1.2868 -0.2974  0.0046
  173MPD1    C2 2688   3.373   2.453  14.127  0.4524  0.2995 -0.3042
  173MPD1    C3 2689   3.282   2.441  14.232 -0.2996  0.0722 -0.0518
  173MPD1    C4 2690   3.202   2.543  14.265  0.4496 -0.3331  1.0187
  173MPD1    C5 2691   3.213   2.657  14.199 -0.4326 -0.1487 -0.1714
  173MPD1     H 2692   3.439   2.374  14.094  0.2055 -0.2597  0.5330
  173MPD1    H1 2693   3.135   2.533  14.350 -0.1572 -1.6308  0.3803
  173MPD1    H2 2694   3.297   2.766  14.037  0.8229  0.3481 -0.3260
  173MPD1    H3 2695   3.138   2.730  14.225 -0.3824 -0.8640  1.9274
  173MPD1     N 2696   3.277   2.314  14.290 -0.6958  0.4129 -0.4313
  173MPD1    H5 2697   3.324   2.242  14.235  0.6434  1.3904 -0.5554
  173MPD1    N1 2698   3.469   2.591  13.948  0.0592 -0.2824 -0.1612
  173MPD1    H6 2699   3.542   2.521  13.942 -0.3130 -0.3979 -3.6296
  173MPD1    H7 2700   3.511   2.683  13.951 -0.5022 -0.0000 -0.7535
  174MPD1     C 2701   3.774   1.597  14.165 -0.0565  0.4431 -0.2382
  174MPD1    C1 2702   3.711   1.557  14.279 -0.3519  0.0386 -0.1161
  174MPD1    C2 2703   3.615   1.642  14.333  0.3434 -0.3614 -0.1038
  174MPD1    C3 2704   3.592   1.775  14.278  0.0950 -0.6169 -0.3278
  174MPD1    C4 2705   3.688   1.816  14.184  0.0797 -0.6171 -0.0242
  174MPD1    C5 2706   3.769   1.726  14.120 -0.2847  0.2747  0.1130
  174MPD1     H 2707   3.560   1.612  14.421  0.4541 -0.0409  0.0723
  174MPD1    H1 2708   3.685   1.915  14.140 -1.0627 -1.6174 -2.1903
  174MPD1    H2 2709   3.842   1.532  14.113  0.6339  0.7853  0.2302
  174MPD1    H3 2710   3.816   1.757  14.027  3.5071  0.6401  2.1668
  174MPD1     N 2711   3.487   1.864  14.311 -0.7002 -0.6921 -0.2646
  174MPD1    H5 2712   3.480   1.954  14.264  1.1862  0.0616  0.9252
  174MPD1    N1 2713   3.713   1.421  14.313  0.0250 -0.5874 -0.1729
  174MPD1    H6 2714   3.796   1.375  14.277  0.0566  1.4181 -2.7184
  174MPD1    H7 2715   3.716   1.408  14.413  1.4975 -2.0759 -0.4175
  175MPD1     C 2716   1.622   3.307  15.290 -0.0191 -0.1895  0.4598
  175MPD1    C1 2717   1.724   3.259  15.370 -0.0230 -0.1034 -0.7010
  175MPD1    C2 2718   1.684   3.190  15.486 -0.1601  0.9799  0.8558
  175MPD1    C3 2719   1.556   3.167  15.518  0.2262  0.4651 -0.2805
  175MPD1    C4 2720   1.460   3.207  15.438  0.7904  0.4763  0.5925
  175MPD1    C5 2721   1.494   3.289  15.328  0.7372  0.2970 -0.1115
  175MPD1     H 2722   1.765   3.169  15.555  1.5553 -0.0033 -1.4448
  175MPD1    H1 2723   1.355   3.195  15.461  0.5067  0.2442 -0.8701
  175MPD1    H2 2724   1.627   3.357  15.194  1.0417 -1.9181 -0.3829
  175MPD1    H3 2725   1.412   3.327  15.269  0.7935 -1.6412 -1.4268
  175MPD1     N 2726   1.517   3.081  15.620  0.3429 -0.0039 -0.1037
  175MPD1    H5 2727   1.417   3.084  15.639  0.5657 -0.5078  1.1823
  175MPD1    N1 2728   1.852   3.307  15.354 -0.4889  0.6311 -0.3558
  175MPD1    H6 2729   1.867   3.315  15.254 -0.3163 -1.5700 -0.5104
  175MPD1    H7 2730   1.928   3.249  15.389 -0.2453  0.1104 -1.7221
  176MPD1     C 2731   3.065   0.623   0.292 -0.4162  0.7585  0.1422
  176MPD1    C1 2732   3.012   0.696   0.189  0.0195 -0.0820 -0.4168
  176MPD1    C2 2733   3.097   0.776   0.115 -0.4496  0.4353  0.5457
  176MPD1    C3 2734   3.231   0.760   0.120 -0.1245 -0.5514  0.2643
  176MPD1    C4 2735   3.287   0.666   0.210 -0.1396 -0.3789  0.8531
  176MPD1    C5 2736   3.204   0.609   0.297  0.1851  0.4548 -0.1276
  176MPD1     H 2737   3.050   0.841   0.042  0.5532  1.1500  0.5265
  176MPD1    H1 2738   3.392   0.647   0.225  0.4492  2.1030 -0.2652
  176MPD1    H2 2739   2.995   0.576   0.361 -2.1779  0.9040 -1.5763
  176MPD1    H3 2740   3.239   0.548   0.379 -1.6959 -0.2449  0.1665
  176MPD1     N 2741   3.307   0.850   0.032 -0.7096  0.3051 -0.7655
  176MPD1    H5 2742   3.264   0.918  17.699 -2.1860 -0.8532 -1.0109
  176MPD1    N1 2743   2.873   0.699   0.180 -0.5791  0.3792 -0.2251
  176MPD1    H6 2744   2.827   0.609   0.190  0.9850 -0.4289 -0.2107
  176MPD1    H7 2745   2.843   0.738   0.091 -0.6622 -1.9989 -1.2366
  177MPD1     C 2746   1.672   4.523  10.242  0.1677  0.2704 -0.4375
  177MPD1    C1 2747   1.556   4.495  10.172 -0.6225  0.3588  0.1161
  177MPD1    C2 2748   1.498   4.573  10.077 -0.1395  0.0719  0.4830
  177MPD1    C3 2749   1.556   4.692  10.044  0.4078 -0.2677 -0.3073
  177MPD1    C4 2750   1.670   4.723  10.115 -0.0935 -0.3336 -0.7268
  177MPD1    C5 2751   1.720   4.648  10.219  0.2665  0.2660 -0.3282
  177MPD1     H 2752   1.409   4.537  10.027 -3.2157  5.2346  2.1926
  177MPD1    H1 2753   1.734   0.076  10.091 -3.0980  1.8987 -0.7962
  177MPD1    H2 2754   1.726   4.457  10.309 -0.2814 -1.3793 -1.7112
  177MPD1    H3 2755   1.812   4.682  10.265 -0.1876 -0.4915  1.1738
  177MPD1     N 2756   1.491   0.045   9.951 -0.4396 -0.3270 -0.0618
  177MPD1    H5 2757   1.416   4.727   9.905  0.8042 -0.0331 -2.4351
  177MPD1    N1 2758   1.494   4.370  10.184 -0.5460  0.4903  0.0739
  177MPD1    H6 2759   1.499   4.335  10.279  0.3561  0.5677  0.0548
  177MPD1    H7 2760   1.402   4.358  10.144  0.1561 -1.3189 -0.9942
  178MPD1     C 2761   3.905   1.179   0.222 -0.2410 -0.0215 -0.1035
  178MPD1    C1 2762   3.843   1.137   0.105  0.3044 -0.2820 -0.3078
  178MPD1    C2 2763   3.905   1.050   0.018  0.5457 -0.3495 -0.7437
  178MPD1    C3 2764   4.042   1.034   0.028  0.8499 -0.4137 -0.1647
  178MPD1    C4 2765   4.116   1.085   0.135 -0.1052  0.2829 -0.8460
  178MPD1    C5 2766   4.040   1.158   0.229 -0.5098 -0.0081  0.2209
  178MPD1     H 2767   3.850   1.005  17.666 -0.6261 -0.0838 -0.0873
  178MPD1    H1 2768   4.223   1.072   0.141 -0.1248  0.5277  0.0507
  178MPD1    H2 2769   3.843   1.226   0.297 -0.8491 -1.8256  0.5413
  178MPD1    H3 2770   4.096   1.192   0.316  0.5935 -0.1340 -0.4433
  178MPD1     N 2771   4.113   0.958  17.663 -0.0133 -0.0500 -0.5075
  178MPD1    H5 2772   4.214   0.954  17.671 -0.0542 -2.4308 -0.9349
  178MPD1    N1 2773   3.702   1.136   0.105  0.6372 -0.2367 -0.3813
  178MPD1    H6 2774   3.668   1.217   0.158  2.1783  1.4077 -1.9188
  178MPD1    H7 2775   3.663   1.124   0.012  0.6308 -0.0309 -0.4044
  179MPD1     C 2776   4.309   3.146  15.646  0.5109  0.1522  0.3108
  179MPD1    C1 2777   4.206   3.215  15.580 -0.0214 -0.6082  0.7039
  179MPD1    C2 2778   4.113   3.272  15.663  0.1402  0.3259  0.3045
  179MPD1    C3 2779   4.119   3.267  15.802  0.2679 -0.1301 -0.1246
  179MPD1    C4 2780   4.226   3.196  15.859  0.2914  0.4447 -0.3165
  179MPD1    C5 2781   4.328   3.142  15.781  0.1568 -0.0423  0.1047
  179MPD1     H 2782   4.033   3.325  15.614  2.3328  2.1861 -1.2598
  179MPD1    H1 2783   4.235   3.207  15.967  0.4731  0.7569 -0.3604
  179MPD1    H2 2784   4.382   3.090  15.589  0.9457 -1.1297  2.1440
  179MPD1    H3 2785   4.401   3.081  15.831  1.0023  1.6176  0.9092
  179MPD1     N 2786   4.031   3.334  15.892 -0.4066 -0.2069  0.2734
  179MPD1    H5 2787   4.040   3.313  15.991 -0.9361 -1.5486  0.0418
  179MPD1    N1 2788   4.191   3.209  15.443  0.1405  0.9578 -0.3208
  179MPD1    H6 2789   4.153   3.289  15.393 -1.9425 -0.7862 -1.5464
  179MPD1    H7 2790   4.265   3.160  15.393 -0.8131 -1.0566  0.2188
  180MPD1     C 2791   3.327   1.245  14.927  0.2936 -0.6836  0.3940
  180MPD1    C1 2792   3.359   1.282  14.804  0.3426 -0.9991 -0.4876
  180MPD1    C2 2793   3.409   1.183  14.724 -0.6533  0.0738 -0.3787
  180MPD1    C3 2794   3.405   1.049  14.763  0.0336  0.1329 -0.5687
  180MPD1    C4 2795   3.352   1.019  14.890 -0.9314  0.3552 -0.0276
  180MPD1    C5 2796   3.328   1.121  14.973  0.1729 -0.3707  0.5638
  180MPD1     H 2797   3.454   1.209  14.628  0.0105  0.7886  0.1342
  180MPD1    H1 2798   3.335   0.921  14.933  0.7980  0.0133 -0.0915
  180MPD1    H2 2799   3.310   1.319  15.004  0.6590 -0.1830 -0.0053
  180MPD1    H3 2800   3.293   1.108  15.074  0.4555  0.1747  0.7318
  180MPD1     N 2801   3.440   0.946  14.675 -0.6411  0.3099  0.3025
  180MPD1    H5 2802   3.501   0.960  14.595 -0.8948 -1.2682 -0.1674
  180MPD1    N1 2803   3.378   1.416  14.772 -0.8645 -0.3369 -0.6937
  180MPD1    H6 2804   3.358   1.423  14.672  0.1070  1.8973 -0.7395
  180MPD1    H7 2805   3.313   1.473  14.827  0.4589 -1.0604  1.6110
  181MPD1     C 2806   4.565   2.244  11.357 -0.0425 -0.3245  0.0630
  181MPD1    C1 2807   4.635   2.130  11.383 -0.2611 -0.1050  0.1289
  181MPD1    C2 2808   0.015   2.104  11.313 -0.2298  0.4738 -0.1770
  181MPD1    C3 2809   0.067   2.203  11.230  0.5675 -0.3781  0.2311
  181MPD1    C4 2810   4.732   2.321  11.214 -0.4871 -0.3278 -0.0461
  181MPD1    C5 2811   4.607   2.339  11.270 -0.5311 -0.3094  0.3909
  181MPD1     H 2812   0.077   2.018  11.336 -1.5906 -0.6582 -0.7435
  181MPD1    H1 2813   0.038   2.388  11.138 -1.0201  1.9637  1.7074
  181MPD1    H2 2814   4.469   2.249  11.408 -0.6227 -0.5413 -1.0034
  181MPD1    H3 2815   4.551   2.430  11.251 -1.0659 -0.6194  0.4734
  181MPD1     N 2816   0.188   2.183  11.160  0.5561 -0.2489  0.2235
  181MPD1    H5 2817   0.231   2.261  11.112 -1.0452 -0.3621 -1.3917
  181MPD1    N1 2818   4.580   2.036  11.472 -0.3823  0.5106  0.0462
  181MPD1    H6 2819   4.516   2.070  11.544  0.9895 -2.1981  2.5608
  181MPD1    H7 2820   4.645   1.966  11.509  0.5174  1.5361  0.4131
  182MPD1     C 2821   1.099   2.479   2.008  0.6534 -0.0702  0.0353
  182MPD1    C1 2822   1.211   2.535   1.946 -0.0448 -0.1183 -0.7998
  182MPD1    C2 2823   1.264   2.468   1.835  0.7562 -0.8470 -0.1173
  182MPD1    C3 2824   1.202   2.354   1.777  0.0190  0.1365  0.4253
  182MPD1    C4 2825   1.089   2.308   1.843  0.3759 -0.0495  0.3808
  182MPD1    C5 2826   1.036   2.370   1.950 -0.4772  0.0187 -0.1477
  182MPD1     H 2827   1.359   2.497   1.794 -0.1036  1.5751 -0.3880
  182MPD1    H1 2828   1.046   2.215   1.808 -0.9101 -0.2230  2.4411
  182MPD1    H2 2829   1.055   2.522   2.097 -2.6693  1.2513 -2.2824
  182MPD1    H3 2830   0.950   2.334   2.005  2.3077 -3.0933  2.1521
  182MPD1     N 2831   1.233   2.289   1.655  0.0641 -0.3133 -0.8762
  182MPD1    H5 2832   1.180   2.208   1.626  0.1073 -0.7227  0.2045
  182MPD1    N1 2833   1.287   2.630   2.012 -0.3356  0.1330 -0.4128
  182MPD1    H6 2834   1.341   2.681   1.942  0.8756  0.5681  0.8139
  182MPD1    H7 2835   1.233   2.695   2.069 -1.2720  0.3633 -1.5696
  183MPD1     C 2836   1.927   2.200   9.237  0.2387  0.4599  0.0238
  183MPD1    C1 2837   1.877   2.254   9.355  0.4555  0.1878 -0.2705
  183MPD1    C2 2838   1.766   2.189   9.410  0.1296  0.2648  0.1848
  183MPD1    C3 2839   1.727   2.067   9.374  0.2205  0.1339  0.3322
  183MPD1    C4 2840   1.778   2.010   9.259  0.1768 -0.5688  0.0121
  183MPD1    C5 2841   1.874   2.084   9.185  0.1134  0.1260  0.2377
  183MPD1     H 2842   1.717   2.241   9.492 -2.7809  0.6380 -1.7822
  183MPD1    H1 2843   1.742   1.918   9.214 -0.1007 -0.5361  0.1659
  183MPD1    H2 2844   2.002   2.253   9.180 -0.5057  0.7198 -0.7126
  183MPD1    H3 2845   1.907   2.039   9.093 -1.3102  1.6087 -1.0124
  183MPD1     N 2846   1.640   1.991   9.448  0.2289  0.0742  0.5522
  183MPD1    H5 2847   1.600   2.035   9.531 -0.6123  2.0040 -0.8772
  183MPD1    N1 2848   1.904   2.389   9.386  0.7514 -0.7502  0.3137
  183MPD1    H6 2849   1.994   2.431   9.363 -0.6240  2.5262  0.9270
  183MPD1    H7 2850   1.869   2.413   9.479 -0.9287  1.5358 -0.9215
  184MPD1     C 2851   0.324   4.431  10.171  0.3471  0.6272 -0.2619
  184MPD1    C1 2852   0.333   4.374  10.048 -0.4024  0.2632  0.0540
  184MPD1    C2 2853   0.393   4.446   9.945 -0.2745  1.2583  0.1279
  184MPD1    C3 2854   0.463   4.566   9.975  0.2930  0.3330 -0.2330
  184MPD1    C4 2855   0.465   4.610  10.106  0.7174 -0.3852  0.0908
  184MPD1    C5 2856   0.391   4.548  10.199 -0.7145  0.0727  0.2179
  184MPD1     H 2857   0.402   4.406   9.845 -0.7786  2.2233 -0.3087
  184MPD1    H1 2858   0.513   4.705  10.129  1.3101 -0.4876 -0.7403
  184MPD1    H2 2859   0.270   4.378  10.249  2.2012 -0.6381  0.1709
  184MPD1    H3 2860   0.392   4.587  10.300 -1.0686 -0.5490  0.4556
  184MPD1     N 2861   0.534   4.640   9.881 -0.0710 -0.0843 -0.4841
  184MPD1    H5 2862   0.580   4.723   9.915  1.3717 -0.9024 -0.4485
  184MPD1    N1 2863   0.245   4.272  10.022 -0.6694  0.6537 -0.1499
  184MPD1    H6 2864   0.244   4.200  10.094 -0.3549  2.5806  1.7549
  184MPD1    H7 2865   0.275   4.219   9.940 -0.0649 -0.5165  0.8258
  185MPD1     C 2866   0.897   0.145   8.855  0.6056 -0.1286  0.0517
  185MPD1    C1 2867   0.785   0.078   8.895  1.1951 -1.0131  0.4231
  185MPD1    C2 2868   0.744   0.078   9.026 -0.3127 -0.7439 -0.4613
  185MPD1    C3 2869   0.839   0.114   9.127  0.4207  0.4686  0.7608
  185MPD1    C4 2870   0.958   0.162   9.084 -0.0362  0.1327 -0.1186
  185MPD1    C5 2871   0.984   0.187   8.951 -0.2787 -0.5304  0.4619
  185MPD1     H 2872   0.651   0.033   9.059 -1.5901  1.0306 -1.6065
  185MPD1    H1 2873   1.023   0.211   9.156 -1.6177 -0.8967  2.0355
  185MPD1    H2 2874   0.918   0.166   8.750  0.9276 -0.5567  0.0310
  185MPD1    H3 2875   1.073   0.245   8.933 -0.3101 -1.0177 -1.2725
  185MPD1     N 2876   0.812   0.106   9.269  0.1295 -0.5989 -0.1949
  185MPD1    H5 2877   0.880   0.144   9.333  2.4521 -3.0937 -1.1826
  185MPD1    N1 2878   0.700   0.023   8.789 -0.2435  0.3180 -0.5578
  185MPD1    H6 2879   0.754   4.718   8.710  1.3529 -0.2519  0.8047
  185MPD1    H7 2880   0.641   4.678   8.819  0.1340 -0.2625 -1.2789
  186MPD1     C 2881   3.686   4.695  16.030  0.0697  0.0286 -0.4134
  186MPD1    C1 2882   3.643   4.601  16.125 -0.1974  0.4540 -0.0815
  186MPD1    C2 2883   3.730   4.507  16.174 -0.0867  0.2982 -0.2966
  186MPD1    C3 2884   3.858   4.508  16.124 -0.3185 -0.2300 -1.2394
  186MPD1    C4 2885   3.898   4.601  16.028 -0.0440  0.3760  0.5738
  186MPD1    C5 2886   3.813   4.701  15.989  0.0701 -0.8258  0.4831
  186MPD1     H 2887   3.701   4.441  16.255 -0.9103  0.6273 -0.3197
  186MPD1    H1 2888   3.995   4.600  15.978 -0.0992  1.8659  0.4484
  186MPD1    H2 2889   3.627   0.046  15.994  1.1820  0.7613 -0.5377
  186MPD1    H3 2890   3.850   0.038  15.914  2.0400 -0.6260  1.6362
  186MPD1     N 2891   3.968   4.423  16.180  0.5663 -0.1408  0.5425
  186MPD1    H5 2892   4.061   4.458  16.160  0.2891 -0.7185 -1.8319
  186MPD1    N1 2893   3.529   4.620  16.201  0.3098  0.2163 -0.6126
  186MPD1    H6 2894   3.495   4.532  16.239  0.6559  0.6923  0.8299
  186MPD1    H7 2895   3.443   4.649  16.157  0.4528  0.7097 -0.5677
  187MPD1     C 2896   3.848   1.433  17.693  0.1772  0.1553 -0.7450
  187MPD1    C1 2897   3.913   1.380  17.583 -0.2791  0.2717 -0.3260
  187MPD1    C2 2898   3.849   1.376  17.458 -0.0517 -0.4078 -0.0250
  187MPD1    C3 2899   3.718   1.414  17.439 -0.1390 -0.1833  0.0161
  187MPD1    C4 2900   3.652   1.466  17.547  0.0543 -0.4315 -0.1411
  187MPD1    C5 2901   3.721   1.475  17.671  0.2443 -0.1147  0.1810
  187MPD1     H 2902   3.897   1.335  17.370  0.0119  1.1658 -0.7221
  187MPD1    H1 2903   3.559   1.520  17.535 -0.6951 -1.4992  0.8356
  187MPD1    H2 2904   3.897   1.443   0.061  2.6849 -1.6453 -1.8257
  187MPD1    H3 2905   3.658   1.515   0.020 -0.4958 -0.7300 -0.0993
  187MPD1     N 2906   3.656   1.415  17.307  0.2104  1.2936 -0.4270
  187MPD1    H5 2907   3.556   1.404  17.299  0.2940 -0.7261  1.3288
  187MPD1    N1 2908   4.045   1.334  17.600  0.0034 -0.5216 -0.6431
  187MPD1    H6 2909   4.072   1.258  17.539  0.1144  1.8330 -3.5016
  187MPD1    H7 2910   4.070   1.303  17.694 -0.2717  0.6149 -0.1919
  188MPD1     C 2911   2.751   1.686  10.145 -0.2788 -0.0839 -0.4560
  188MPD1    C1 2912   2.834   1.695  10.039  0.5862 -0.5580 -1.3325
  188MPD1    C2 2913   2.903   1.576  10.000 -0.0678 -0.2750  0.0154
  188MPD1    C3 2914   2.888   1.460  10.072 -0.3716 -1.1195 -0.4289
  188MPD1    C4 2915   2.815   1.464  10.190 -0.5652 -0.6064  0.2017
  188MPD1    C5 2916   2.734   1.571  10.218 -0.7308 -0.2051  0.2751
  188MPD1     H 2917   2.965   1.579   9.910 -1.8621  0.1964 -1.2031
  188MPD1    H1 2918   2.793   1.378  10.252  1.0834 -0.7386  0.6209
  188MPD1    H2 2919   2.683   1.770  10.156  0.6744  0.7981 -1.1812
  188MPD1    H3 2920   2.669   1.561  10.304 -0.2537 -0.3050  0.6249
  188MPD1     N 2921   2.947   1.338  10.029  0.1044  0.5674  0.8994
  188MPD1    H5 2922   2.947   1.260  10.094 -0.5694  0.4299  0.7331
  188MPD1    N1 2923   2.836   1.809   9.956  0.2080  0.1979 -0.0603
  188MPD1    H6 2924   2.922   1.812   9.900  0.7290 -2.0839  0.6266
  188MPD1    H7 2925   2.813   1.897  10.002  0.1713  0.3737 -0.4145
  189MPD1     C 2926   0.623   2.544   0.668  0.1664  0.4257 -0.3944
  189MPD1    C1 2927   0.611   2.420   0.617 -0.2741 -0.6479  0.3690
  189MPD1    C2 2928   0.493   2.385   0.558 -0.3433 -0.1745 -0.0881
  189MPD1    C3 2929   0.386   2.478   0.547  0.1526  0.0560  0.0967
  189MPD1    C4 2930   0.408   2.607   0.591  0.6258  0.0772 -0.2449
  189MPD1    C5 2931   0.521   2.634   0.656 -0.1708  0.3096  0.1792
  189MPD1     H 2932   0.481   2.282   0.527 -2.2662  0.0479 -0.0669
  189MPD1    H1 2933   0.342   2.691   0.572 -0.5349 -0.9030 -0.4962
  189MPD1    H2 2934   0.709   2.564   0.730 -0.6770 -0.9926  1.2652
  189MPD1    H3 2935   0.533   2.735   0.696  1.0158 -0.2762  1.3051
  189MPD1     N 2936   0.268   2.441   0.478 -0.3169 -0.1844 -0.1885
  189MPD1    H5 2937   0.273   2.352   0.429 -0.8668  0.7529 -1.9470
  189MPD1    N1 2938   0.706   2.319   0.640 -0.0400 -0.8222 -0.3410
  189MPD1    H6 2939   0.801   2.353   0.624  0.6223 -2.2387  0.6023
  189MPD1    H7 2940   0.693   2.243   0.574  0.1150 -0.8287 -0.3639
  190MPD1     C 2941   3.584   0.219  15.590 -0.1351 -0.4870  0.0719
  190MPD1    C1 2942   3.659   0.257  15.699  0.7044 -0.0038  0.0337
  190MPD1    C2 2943   3.796   0.270  15.684  0.5765 -0.4496 -0.2187
  190MPD1    C3 2944   3.847   0.268  15.554  0.3884  0.3323 -0.4790
  190MPD1    C4 2945   3.761   0.254  15.447 -0.2703  0.1350  0.3331
  190MPD1    C5 2946   3.628   0.231  15.465  1.0468  0.6547 -0.7443
  190MPD1     H 2947   3.861   0.279  15.771  0.2612  0.4808 -0.0802
  190MPD1    H1 2948   3.799   0.248  15.346 -0.1939 -2.6835  0.5322
  190MPD1    H2 2949   3.478   0.199  15.595 -0.2128 -0.4977 -1.7515
  190MPD1    H3 2950   3.564   0.211  15.380  0.8339  0.1315 -0.4619
  190MPD1     N 2951   3.990   0.288  15.545 -0.3084 -0.6271 -0.1452
  190MPD1    H5 2952   4.038   0.312  15.631 -0.5357  3.5607 -1.1724
  190MPD1    N1 2953   3.607   0.251  15.830 -0.6147 -0.0518  0.2192
  190MPD1    H6 2954   3.650   0.313  15.898 -0.8566 -1.7083  1.8978
  190MPD1    H7 2955   3.509   0.281  15.836 -0.0324  1.5516  1.6458
  191MPD1     C 2956   3.331   2.031  13.441 -0.2184 -0.2270  0.5861
  191MPD1    C1 2957   3.308   2.114  13.330 -0.3770  0.3118  0.0998
  191MPD1    C2 2958   3.180   2.164  13.318 -0.4328  0.2242 -0.0461
  191MPD1    C3 2959   3.080   2.133  13.407 -0.3578 -0.2643 -0.5906
  191MPD1    C4 2960   3.109   2.048  13.518  0.3203 -0.1636 -0.4030
  191MPD1    C5 2961   3.234   2.011  13.538  0.3748 -0.8124 -0.3603
  191MPD1     H 2962   3.160   2.234  13.238  0.3329  0.3383 -0.1336
  191MPD1    H1 2963   3.034   2.022  13.591  1.4764 -0.9777  0.4962
  191MPD1    H2 2964   3.428   1.983  13.444 -0.6604 -1.2098 -0.8128
  191MPD1    H3 2965   3.253   1.964  13.634  1.2762  2.1265  0.8803
  191MPD1     N 2966   2.953   2.190  13.383 -0.2181 -0.0794  0.1511
  191MPD1    H5 2967   2.949   2.249  13.300  0.5088  1.4421  1.1920
  191MPD1    N1 2968   3.412   2.145  13.237  0.5282 -0.2207 -0.1084
  191MPD1    H6 2969   3.471   2.208  13.289  1.3538 -2.4501  1.6589
  191MPD1    H7 2970   3.381   2.196  13.154 -3.2274 -0.3693  1.2188
  192MPD1     C 2971   1.869   2.322  13.589 -0.0797 -0.2685  0.0158
  192MPD1    C1 2972   1.966   2.231  13.623 -0.3454  0.1234  0.0317
  192MPD1    C2 2973   2.085   2.232  13.560 -0.2059  0.0254  0.3288
  192MPD1    C3 2974   2.129   2.330  13.480  0.6417 -0.8402 -0.2648
  192MPD1    C4 2975   2.032   2.428  13.443 -0.2221 -0.1602 -0.2747
  192MPD1    C5 2976   1.906   2.417  13.494 -0.4022 -0.2795  0.0183
  192MPD1     H 2977   2.151   2.148  13.577 -0.2323 -0.4878 -2.0998
  192MPD1    H1 2978   2.046   2.510  13.373  0.3254 -0.9432 -1.0843
  192MPD1    H2 2979   1.768   2.321  13.629 -0.4152  0.0111 -0.8258
  192MPD1    H3 2980   1.829   2.492  13.476 -0.4953 -0.5610 -0.7300
  192MPD1     N 2981   2.258   2.348  13.421  0.0158  0.0186 -0.0833
  192MPD1    H5 2982   2.273   2.432  13.366  0.9944  0.2749  0.5775
  192MPD1    N1 2983   1.912   2.112  13.688  0.0085  0.9409  0.1177
  192MPD1    H6 2984   1.827   2.138  13.738 -0.7327 -0.5860 -0.3219
  192MPD1    H7 2985   1.972   2.050  13.742  0.4378  3.3295  2.3878
  193MPD1     C 2986   2.506   2.467  16.138 -0.1102 -0.0642  0.3817
  193MPD1    C1 2987   2.445   2.575  16.195 -0.5081 -0.3415  0.1419
  193MPD1    C2 2988   2.529   2.648  16.277 -0.1365 -0.1245 -0.2552
  193MPD1    C3 2989   2.647   2.602  16.334  0.6059 -0.4402  0.2702
  193MPD1    C4 2990   2.686   2.480  16.282  0.9489 -0.0880  0.0654
  193MPD1    C5 2991   2.624   2.422  16.177 -0.6713 -0.4020  0.0654
  193MPD1     H 2992   2.504   2.745  16.319 -0.4931 -1.9230  3.7083
  193MPD1    H1 2993   2.776   2.432  16.319  1.2637 -0.4429 -1.1623
  193MPD1    H2 2994   2.458   2.411  16.059 -1.1786  3.7368 -1.6663
  193MPD1    H3 2995   2.670   2.337  16.129  1.1885 -0.9519  2.8512
  193MPD1     N 2996   2.734   2.669  16.424 -0.2863  0.3792 -0.2231
  193MPD1    H5 2997   2.821   2.618  16.437 -1.8353 -1.8376  1.2123
  193MPD1    N1 2998   2.325   2.624  16.141  0.0438 -0.7352 -1.0465
  193MPD1    H6 2999   2.286   2.671  16.222 -2.5190 -4.0486 -0.3768
  193MPD1    H7 3000   2.266   2.541  16.135 -0.2755 -0.5102 -0.9844
  194MPD1     C 3001   1.256   4.349  16.953  0.2886  0.1357 -0.5105
  194MPD1    C1 3002   1.298   4.221  17.000 -0.3371 -0.0263  0.2377
  194MPD1    C2 3003   1.201   4.125  17.010  0.6049  0.0284 -0.0792
  194MPD1    C3 3004   1.075   4.149  16.968 -0.2822  0.3229  0.0111
  194MPD1    C4 3005   1.042   4.261  16.902 -0.0473 -0.6042 -0.0260
  194MPD1    C5 3006   1.135   4.367  16.902  0.0375  0.0165  0.7659
  194MPD1     H 3007   1.223   4.026  17.049 -2.0865 -0.7897 -0.6410
  194MPD1    H1 3008   0.943   4.274  16.861 -0.1878 -1.8550 -0.0685
  194MPD1    H2 3009   1.327   4.430  16.961  0.7226 -0.1292 -1.6500
  194MPD1    H3 3010   1.107   4.462  16.858 -4.0686 -0.5663  2.1573
  194MPD1     N 3011   0.971   4.047  16.975 -0.1730 -0.4356  1.3673
  194MPD1    H5 3012   0.880   4.071  16.937  1.0396  1.7578 -0.0753
  194MPD1    N1 3013   1.437   4.213  17.036  0.3296  0.3035  0.0261
  194MPD1    H6 3014   1.463   4.115  17.029 -0.1029  0.0583  1.8743
  194MPD1    H7 3015   1.491   4.256  16.961  2.0868 -2.1514 -0.1242
  195MPD1     C 3016   2.561   2.348   0.564  0.5420 -0.0460 -0.5061
  195MPD1    C1 3017   2.596   2.271   0.669  0.6780  0.6816 -0.0340
  195MPD1    C2 3018   2.654   2.149   0.655 -0.4728  0.0481  0.1285
  195MPD1    C3 3019   2.683   2.099   0.527  0.5107  0.0323 -0.2833
  195MPD1    C4 3020   2.625   2.164   0.425  0.5784 -0.0353 -0.1226
  195MPD1    C5 3021   2.569   2.285   0.441  0.2719 -0.0128  0.3555
  195MPD1     H 3022   2.707   2.105   0.740  2.1447  3.2986  0.1713
  195MPD1    H1 3023   2.628   2.129   0.323  1.7858  1.0051 -0.4471
  195MPD1    H2 3024   2.511   2.443   0.574 -0.4740 -0.7269  0.8782
  195MPD1    H3 3025   2.528   2.326   0.349  1.1236  1.3590  0.6029
  195MPD1     N 3026   2.747   1.980   0.493 -0.2501  0.1719  0.3554
  195MPD1    H5 3027   2.768   1.957   0.397  1.7073  1.0253  0.5924
  195MPD1    N1 3028   2.607   2.333   0.800  0.0233 -0.0574 -0.7280
  195MPD1    H6 3029   2.534   2.403   0.811  1.0387  1.0805 -1.1483
  195MPD1    H7 3030   2.607   2.273   0.883  0.6964  0.0591 -0.6410
  196MPD1     C 3031   2.953   1.048   2.318 -0.5665 -0.0095 -0.0308
  196MPD1    C1 3032   2.833   0.994   2.289 -0.1999  0.0676 -0.0252
  196MPD1    C2 3033   2.736   1.088   2.244 -0.1589 -0.0210 -0.0109
  196MPD1    C3 3034   2.763   1.219   2.218 -0.0118  0.1827  0.4235
  196MPD1    C4 3035   2.892   1.265   2.236 -0.4342  0.8446 -0.7344
  196MPD1    C5 3036   2.985   1.179   2.291 -0.0826 -0.2346  0.2944
  196MPD1     H 3037   2.633   1.055   2.234 -0.4022  1.0238 -0.9543
  196MPD1    H1 3038   2.927   1.367   2.225  1.3579  0.1263 -1.5907
  196MPD1    H2 3039   3.031   0.995   2.372 -0.7031 -2.9505 -2.6440
  196MPD1    H3 3040   3.083   1.212   2.323 -0.6607 -0.4592  2.2849
  196MPD1     N 3041   2.668   1.317   2.181 -0.4089 -0.1307 -0.5373
  196MPD1    H5 3042   2.703   1.409   2.157  0.9740 -0.5225  0.0077
  196MPD1    N1 3043   2.809   0.862   2.325  0.2490 -0.4444 -0.6444
  196MPD1    H6 3044   2.734   0.816   2.273 -0.8989 -1.7210  2.1518
  196MPD1    H7 3045   2.897   0.812   2.320 -0.0344 -0.9494 -0.6349
  197MPD1     C 3046   1.081   2.690  17.198 -1.1813  0.0921  0.3933
  197MPD1    C1 3047   1.203   2.645  17.254  0.5132 -0.5554  0.2147
  197MPD1    C2 3048   1.322   2.693  17.206 -0.1768 -0.1615 -0.4342
  197MPD1    C3 3049   1.314   2.774  17.086  0.1683 -0.5023 -0.5144
  197MPD1    C4 3050   1.194   2.806  17.030  0.0902  0.3255 -0.4909
  197MPD1    C5 3051   1.076   2.763  17.083  0.2677  0.0171 -0.7223
  197MPD1     H 3052   1.413   2.642  17.235  0.2369  1.5994  1.3798
  197MPD1    H1 3053   1.186   2.853  16.933 -2.2811  2.8628  0.9191
  197MPD1    H2 3054   0.986   2.656  17.239 -0.2596 -2.3604  0.4945
  197MPD1    H3 3055   0.986   2.781  17.025 -0.7980 -1.1112  0.5660
  197MPD1     N 3056   1.433   2.828  17.025  0.1903 -0.2792 -0.3611
  197MPD1    H5 3057   1.416   2.877  16.938 -0.6231  2.2286  1.2062
  197MPD1    N1 3058   1.199   2.576  17.373 -0.1683 -0.4574  0.4753
  197MPD1    H6 3059   1.273   2.507  17.379  2.3729  2.5040  3.5674
  197MPD1    H7 3060   1.120   2.512  17.367 -1.0023  0.7197 -1.1386
  198MPD1     C 3061   3.235   1.773  15.826  0.2670 -0.5927  0.1672
  198MPD1    C1 3062   3.290   1.701  15.928 -0.6529 -0.3172 -0.5404
  198MPD1    C2 3063   3.410   1.750  15.986 -0.2100  0.7625  0.3103
  198MPD1    C3 3064   3.469   1.869  15.940  0.0890  0.2593  0.2907
  198MPD1    C4 3065   3.410   1.934  15.834  0.0643 -1.0366  0.1461
  198MPD1    C5 3066   3.297   1.884  15.783 -0.3116 -0.6666  0.3259
  198MPD1     H 3067   3.465   1.702  16.066  0.4585 -0.4939 -0.8968
  198MPD1    H1 3068   3.447   2.022  15.782  0.5082 -0.3436  1.6245
  198MPD1    H2 3069   3.142   1.750  15.775 -0.4397  0.3562  1.0388
  198MPD1    H3 3070   3.246   1.942  15.707 -2.4686 -2.1464  0.6419
  198MPD1     N 3071   3.594   1.908  16.002 -0.3897 -0.9344 -0.3571
  198MPD1    H5 3072   3.644   1.845  16.063 -1.3259  0.3887  1.7756
  198MPD1    N1 3073   3.218   1.608  15.995 -0.2459  0.2045  0.9360
  198MPD1    H6 3074   3.146   1.568  15.935  1.7583 -0.7074 -0.8797
  198MPD1    H7 3075   3.274   1.533  16.035  0.8970  0.2993 -0.4490
  199MPD1     C 3076   1.052   3.124  10.326 -0.2796 -0.4621  0.9664
  199MPD1    C1 3077   0.988   3.165  10.442  0.0637 -0.0390 -0.4728
  199MPD1    C2 3078   0.852   3.143  10.459 -0.3393  0.4474  0.0462
  199MPD1    C3 3079   0.773   3.119  10.345 -0.2371  0.2549  0.3539
  199MPD1    C4 3080   0.836   3.092  10.231 -0.2293  0.8196  0.4959
  199MPD1    C5 3081   0.972   3.078  10.224  0.4360  0.1533  0.0861
  199MPD1     H 3082   0.802   3.171  10.551 -0.9354 -1.6904  0.3727
  199MPD1    H1 3083   0.778   3.064  10.143  2.1404 -0.6079 -0.6018
  199MPD1    H2 3084   1.159   3.134  10.313 -0.2925  1.8495  2.5969
  199MPD1    H3 3085   1.009   3.037  10.131 -0.0538 -0.7569  0.2911
  199MPD1     N 3086   0.637   3.109  10.347 -0.1461  0.0577  0.4962
  199MPD1    H5 3087   0.579   3.090  10.266  1.2174  1.1843 -0.7146
  199MPD1    N1 3088   1.065   3.234  10.544  0.0940  0.0211 -0.0276
  199MPD1    H6 3089   1.038   3.231  10.642 -3.4173  0.5936 -0.9798
  199MPD1    H7 3090   1.166   3.225  10.536  0.1253  0.8948 -0.6399
  200MPD1     C 3091   4.424   2.908  15.314  0.7953  0.2746 -0.0297
  200MPD1    C1 3092   4.372   2.997  15.221  0.3901  0.7855 -0.0754
  200MPD1    C2 3093   4.453   3.074  15.141 -0.1154 -0.1715  0.3169
  200MPD1    C3 3094   4.593   3.070  15.156 -0.0197 -0.5799 -0.0090
  200MPD1    C4 3095   4.647   2.999  15.263 -0.7157  0.1532 -0.2840
  200MPD1    C5 3096   4.560   2.918  15.338  0.1545  0.1158  0.9064
  200MPD1     H 3097   4.405   3.136  15.066  1.1365  0.1862 -0.1844
  200MPD1    H1 3098   0.020   2.982  15.281 -0.2495  1.1479 -2.0656
  200MPD1    H2 3099   4.366   2.828  15.358  2.3838 -0.8952 -0.0420
  200MPD1    H3 3100   4.604   2.849  15.409  1.3888  0.3644  0.3967
  200MPD1     N 3101   4.668   3.149  15.071  0.4228 -0.1939 -1.1789
  200MPD1    H5 3102   4.615   3.200  15.000 -1.7344  0.7505  1.1191
  200MPD1    N1 3103   4.244   2.966  15.175 -0.4553  0.1406  0.0729
  200MPD1    H6 3104   4.194   3.041  15.127  0.1973  0.8015  0.4280
  200MPD1    H7 3105   4.175   2.923  15.235 -0.9504  0.4531 -0.2739
  201MPD1     C 3106   1.753   1.556  13.390  0.1591  0.2875  0.5458
  201MPD1    C1 3107   1.808   1.429  13.404  0.2112  1.0058  0.5439
  201MPD1    C2 3108   1.937   1.433  13.446  0.1741  0.0639  0.2985
  201MPD1    C3 3109   2.009   1.543  13.491  0.7107 -0.5645  0.8416
  201MPD1    C4 3110   1.950   1.667  13.477 -0.7243 -0.1698  0.6319
  201MPD1    C5 3111   1.820   1.668  13.427  0.0555 -0.1437 -0.5054
  201MPD1     H 3112   1.987   1.337  13.455  0.3405  0.2253  1.0871
  201MPD1    H1 3113   2.001   1.757  13.507 -0.8514  0.4958 -1.1775
  201MPD1    H2 3114   1.652   1.574  13.355  0.5485 -1.9101 -1.7371
  201MPD1    H3 3115   1.764   1.761  13.423  0.0086 -0.0794  1.5713
  201MPD1     N 3116   2.140   1.520  13.551 -0.3040  0.4277  0.0672
  201MPD1    H5 3117   2.175   1.426  13.532 -1.0613  0.1077  0.2327
  201MPD1    N1 3118   1.752   1.314  13.339 -0.1102  0.1107 -0.5736
  201MPD1    H6 3119   1.651   1.302  13.336 -0.2201  1.0000 -0.3367
  201MPD1    H7 3120   1.797   1.224  13.357  0.1190  0.0851 -1.2527
  202MPD1     C 3121   2.267   1.326   9.207  0.8619 -0.2023 -0.2465
  202MPD1    C1 3122   2.370   1.304   9.294 -0.4432  0.0160 -0.6505
  202MPD1    C2 3123   2.337   1.227   9.404 -0.1494 -0.5419 -0.3889
  202MPD1    C3 3124   2.205   1.207   9.442 -0.3618 -0.3889 -1.0523
  202MPD1    C4 3125   2.108   1.241   9.351  0.1290  0.3581 -0.5568
  202MPD1    C5 3126   2.137   1.297   9.234  0.1243  0.2384  0.0802
  202MPD1     H 3127   2.419   1.191   9.465  2.1762  0.7580 -2.7358
  202MPD1    H1 3128   2.003   1.221   9.370  0.1615 -0.2336 -1.0075
  202MPD1    H2 3129   2.299   1.372   9.114  0.0765 -3.0781 -1.9258
  202MPD1    H3 3130   2.054   1.325   9.170  0.3025 -0.7111 -0.5567
  202MPD1     N 3131   2.157   1.162   9.570  0.5396  0.2087 -0.2301
  202MPD1    H5 3132   2.063   1.195   9.590  0.8719  0.0015  1.6417
  202MPD1    N1 3133   2.498   1.284   9.236  0.3573  0.4113  0.1185
  202MPD1    H6 3134   2.575   1.278   9.303 -0.2417 -3.4137  0.4578
  202MPD1    H7 3135   2.520   1.356   9.167 -0.9743  1.6603  0.9833
  203MPD1     C 3136   0.881   2.030  12.407 -0.0446 -0.8438 -0.8637
  203MPD1    C1 3137   0.908   1.922  12.323  0.2458  0.4643  0.3494
  203MPD1    C2 3138   0.966   1.814  12.381  0.1872 -0.2917  0.2368
  203MPD1    C3 3139   0.984   1.801  12.519  0.1306  1.0356  0.0409
  203MPD1    C4 3140   0.954   1.906  12.597  1.1514  0.2895 -0.6867
  203MPD1    C5 3141   0.912   2.023  12.543 -0.4838  0.2594 -0.5409
  203MPD1     H 3142   0.986   1.725  12.322  0.4254  0.5396 -0.9209
  203MPD1    H1 3143   0.973   1.905  12.704 -1.3443 -0.5617 -0.2384
  203MPD1    H2 3144   0.846   2.128  12.376  1.6016  0.3984  1.2318
  203MPD1    H3 3145   0.885   2.108  12.604  0.8900  0.1792  0.1916
  203MPD1     N 3146   1.045   1.682  12.570 -0.3106 -0.4975 -0.7914
  203MPD1    H5 3147   1.047   1.606  12.502  3.0494 -0.3681 -0.8382
  203MPD1    N1 3148   0.891   1.928  12.182  0.2271 -0.5757  0.1910
  203MPD1    H6 3149   0.802   1.968  12.154 -0.0431  0.3433  2.3206
  203MPD1    H7 3150   0.886   1.835  12.142  0.0231 -0.6393  0.3631
  204MPD1     C 3151   0.182   2.881   0.245 -0.7713  0.9016 -0.0870
  204MPD1    C1 3152   0.105   2.844   0.128  0.3442  0.2267  0.0419
  204MPD1    C2 3153   0.141   2.738   0.053 -0.4686  1.2019 -0.0360
  204MPD1    C3 3154   0.237   2.647   0.101  0.5022  0.1905 -0.0739
  204MPD1    C4 3155   0.301   2.681   0.219 -0.2323 -0.2665 -0.1979
  204MPD1    C5 3156   0.273   2.794   0.295  0.0024  0.3984  0.4476
  204MPD1     H 3157   0.076   2.719  17.698  2.4494 -1.1492 -1.7498
  204MPD1    H1 3158   0.388   2.624   0.251  1.3201  2.5832  0.6489
  204MPD1    H2 3159   0.168   2.977   0.292  1.6409  1.4129 -0.4322
  204MPD1    H3 3160   0.333   2.825   0.380  0.9436  1.4690 -0.5962
  204MPD1     N 3161   0.259   2.529   0.031 -0.4087 -0.4078  0.3411
  204MPD1    H5 3162   0.233   2.526  17.661 -2.8173  0.8640  0.9305
  204MPD1    N1 3163   0.025   2.935   0.062  0.3013  0.1825 -0.5003
  204MPD1    H6 3164   4.707   3.001   0.121  0.7448 -1.4873  1.7549
  204MPD1    H7 3165   4.691   2.888   0.001 -1.9448 -0.8312  2.6735
  205MPD1     C 3166   1.595   1.411  17.375  0.3033 -0.1446 -0.4996
  205MPD1    C1 3167   1.587   1.329  17.492  0.5537 -0.0609 -0.6003
  205MPD1    C2 3168   1.510   1.364  17.605  0.3291  0.0857 -0.0353
  205MPD1    C3 3169   1.446   1.487  17.601  0.0907  0.0758 -0.4889
  205MPD1    C4 3170   1.459   1.574  17.490  0.8047 -0.1592  0.4653
  205MPD1    C5 3171   1.530   1.537  17.378  0.1171  0.0873  0.2486
  205MPD1     H 3172   1.515   1.305  17.695 -3.5838  1.5512  1.1042
  205MPD1    H1 3173   1.410   1.671  17.494 -1.7957 -1.4315 -0.4625
  205MPD1    H2 3174   1.653   1.374  17.291  1.2836  0.3145 -0.0173
  205MPD1    H3 3175   1.541   1.604  17.293  2.5441 -2.0801 -1.1560
  205MPD1     N 3176   1.366   1.534  17.706 -0.2177  0.3287 -0.0255
  205MPD1    H5 3177   1.333   1.628  17.685 -1.9832 -0.3791 -0.3947
  205MPD1    N1 3178   1.656   1.204  17.478 -0.1162 -0.0403  0.7027
  205MPD1    H6 3179   1.669   1.166  17.571  0.7945 -3.2286 -0.7544
  205MPD1    H7 3180   1.747   1.221  17.436  0.2222  0.2066  1.5358
  206MPD1     C 3181   1.238   0.353  16.913  1.0417  0.2466  0.0347
  206MPD1    C1 3182   1.284   0.241  16.849  0.2076  0.2474  0.0905
  206MPD1    C2 3183   1.245   0.199  16.721  0.4046  0.4617 -0.3923
  206MPD1    C3 3184   1.137   0.262  16.663  0.3884 -0.4006  0.2758
  206MPD1    C4 3185   1.078   0.359  16.733 -0.3616  0.3064 -0.4399
  206MPD1    C5 3186   1.127   0.408  16.854 -0.0767 -0.1831  1.1525
  206MPD1     H 3187   1.289   0.108  16.683  1.0899  0.2845  0.8176
  206MPD1    H1 3188   0.989   0.401  16.689 -1.7923 -2.7961 -0.4710
  206MPD1    H2 3189   1.272   0.387  17.010  0.5529 -0.5342  0.4828
  206MPD1    H3 3190   1.058   0.467  16.914 -0.0123  1.4089 -0.3731
  206MPD1     N 3191   1.092   0.217  16.540  0.4841  0.1831 -0.1038
  206MPD1    H5 3192   1.007   0.267  16.514 -1.3103 -3.7204 -1.6274
  206MPD1    N1 3193   1.403   0.180  16.901  0.5599 -0.6726 -0.0588
  206MPD1    H6 3194   1.413   0.080  16.882 -1.4965 -0.5159 -1.9760
  206MPD1    H7 3195   1.398   0.195  17.002  0.4556  0.4513 -0.2343
  207MPD1     C 3196   2.647   3.739   9.356 -0.7258 -0.2884 -0.2235
  207MPD1    C1 3197   2.767   3.795   9.374 -0.3249  0.0813  0.3364
  207MPD1    C2 3198   2.842   3.747   9.483  0.0950  0.2103  1.0422
  207MPD1    C3 3199   2.795   3.655   9.571  0.5954 -0.3670 -0.0323
  207MPD1    C4 3200   2.664   3.608   9.549 -0.3201  0.3908  0.5936
  207MPD1    C5 3201   2.596   3.644   9.436 -0.0395 -0.1474 -0.0394
  207MPD1     H 3202   2.949   3.764   9.470 -0.1418  0.3312 -0.7627
  207MPD1    H1 3203   2.618   3.532   9.611 -3.0523 -0.4302 -2.4207
  207MPD1    H2 3204   2.583   3.759   9.270 -1.2980 -0.3846  0.1784
  207MPD1    H3 3205   2.501   3.598   9.413 -0.3295 -0.2156  1.3211
  207MPD1     N 3206   2.865   3.595   9.677 -0.3821  0.2488 -0.2854
  207MPD1    H5 3207   2.835   3.502   9.704 -0.7168  0.1909 -0.8622
  207MPD1    N1 3208   2.829   3.865   9.267  0.1637  0.3692 -0.1329
  207MPD1    H6 3209   2.765   3.927   9.217  0.9628  1.0957 -0.2469
  207MPD1    H7 3210   2.911   3.922   9.287  0.2928 -0.4515  1.6973
  208MPD1     C 3211   2.810   1.471   1.054 -0.3041  0.1899 -0.1826
  208MPD1    C1 3212   2.778   1.574   0.965 -0.5216 -0.1104  0.0344
  208MPD1    C2 3213   2.651   1.591   0.931 -0.4813 -0.2159 -0.7886
  208MPD1    C3 3214   2.542   1.520   0.981 -0.1421  0.4170  0.7061
  208MPD1    C4 3215   2.578   1.402   1.054 -0.3720 -0.0811  0.0187
  208MPD1    C5 3216   2.709   1.387   1.092  0.5379  0.5464  0.1727
  208MPD1     H 3217   2.625   1.672   0.864 -0.6522  0.1401 -0.2902
  208MPD1    H1 3218   2.503   1.343   1.105  0.0747  1.4028  2.3980
  208MPD1    H2 3219   2.910   1.460   1.094 -0.2704  1.6471  0.1160
  208MPD1    H3 3220   2.746   1.311   1.159  0.2851 -1.4179 -1.9241
  208MPD1     N 3221   2.409   1.564   0.970 -0.3702 -0.2723  0.6851
  208MPD1    H5 3222   2.389   1.661   0.951  1.0787 -0.2263 -0.5336
  208MPD1    N1 3223   2.880   1.640   0.897 -0.1988 -0.9121 -0.0887
  208MPD1    H6 3224   2.845   1.732   0.869  0.6444 -1.0575 -1.5972
  208MPD1    H7 3225   2.962   1.652   0.956  0.2980  0.5029 -1.0544
  209MPD1     C 3226   2.725   1.906  10.610 -0.2246 -0.0150 -0.0217
  209MPD1    C1 3227   2.839   1.948  10.677  0.4944 -0.0269  0.3541
  209MPD1    C2 3228   2.915   2.045  10.622  0.5007  0.0632 -0.1536
  209MPD1    C3 3229   2.877   2.105  10.500 -0.0422 -0.0472  0.0475
  209MPD1    C4 3230   2.766   2.058  10.432 -0.0519 -0.0705 -0.3147
  209MPD1    C5 3231   2.686   1.965  10.490  0.2796 -0.5891  0.0569
  209MPD1     H 3232   3.002   2.079  10.676  1.4540  0.4106 -1.9223
  209MPD1    H1 3233   2.726   2.106  10.343 -0.8317 -0.1299  0.0033
  209MPD1    H2 3234   2.676   1.816  10.647 -0.7452 -0.8195 -2.6912
  209MPD1    H3 3235   2.595   1.930  10.443 -0.4483  1.6679 -0.2140
  209MPD1     N 3236   2.956   2.212  10.458 -0.9268  0.3772  0.4281
  209MPD1    H5 3237   3.037   2.230  10.517 -0.7395 -1.4670  0.7454
  209MPD1    N1 3238   2.894   1.872  10.781 -0.0565  0.5704 -0.0375
  209MPD1    H6 3239   2.956   1.929  10.838 -1.4151  0.0646  1.9386
  209MPD1    H7 3240   2.822   1.832  10.841  0.0151  1.1906  0.4577
  210MPD1     C 3241   3.713   2.767  10.766 -0.0744  0.0536 -0.0276
  210MPD1    C1 3242   3.629   2.675  10.821 -0.1722  0.2884  0.0922
  210MPD1    C2 3243   3.522   2.629  10.744  0.5551 -0.7728  0.8077
  210MPD1    C3 3244   3.500   2.674  10.614 -0.2685 -0.2455  0.1910
  210MPD1    C4 3245   3.589   2.770  10.564  0.3795  0.6996 -0.3125
  210MPD1    C5 3246   3.696   2.818  10.638  0.1389 -0.0874 -0.5327
  210MPD1     H 3247   3.460   2.553  10.790 -0.9119  1.4014  2.4265
  210MPD1    H1 3248   3.571   2.811  10.465 -1.3851 -0.7342 -0.5911
  210MPD1    H2 3249   3.804   2.797  10.818  1.2888 -0.6075 -2.0214
  210MPD1    H3 3250   3.766   2.887  10.593  0.1323  0.4433  0.2732
  210MPD1     N 3251   3.390   2.641  10.530 -0.7310  0.3443 -0.2004
  210MPD1    H5 3252   3.390   2.673  10.434  0.9253  2.6984  0.5777
  210MPD1    N1 3253   3.647   2.623  10.953  0.2993  0.0069  0.2204
  210MPD1    H6 3254   3.550   2.608  10.978  0.6414  0.7385  1.9574
  210MPD1    H7 3255   3.689   2.700  11.005  1.6480 -0.0945 -0.7036
  211MPD1     C 3256   1.806   1.479  16.518 -0.4498 -0.2378 -0.2270
  211MPD1    C1 3257   1.798   1.612  16.481 -0.2789 -0.6197 -0.4620
  211MPD1    C2 3258   1.674   1.668  16.476 -0.2090  0.6921 -0.5782
  211MPD1    C3 3259   1.561   1.596  16.520 -0.1497  0.7189 -0.2286
  211MPD1    C4 3260   1.567   1.458  16.530  0.8623 -0.2660  0.1722
  211MPD1    C5 3261   1.692   1.402  16.542 -0.1951 -0.1588  0.2711
  211MPD1     H 3262   1.660   1.774  16.457 -2.5672  0.3046 -0.9796
  211MPD1    H1 3263   1.489   1.386  16.552  1.2640 -0.6412  0.3841
  211MPD1    H2 3264   1.898   1.423  16.529  0.4097  1.0534 -0.9352
  211MPD1    H3 3265   1.705   1.296  16.558  0.0845 -0.3532 -1.2580
  211MPD1     N 3266   1.441   1.667  16.521  0.6759  0.4559 -0.3768
  211MPD1    H5 3267   1.441   1.768  16.507 -0.3739  0.4677 -0.2640
  211MPD1    N1 3268   1.916   1.693  16.488 -0.3999  0.6866  0.4468
  211MPD1    H6 3269   2.001   1.651  16.452 -0.9827  0.2467 -0.4205
  211MPD1    H7 3270   1.908   1.782  16.439 -2.5386  1.4332  2.1699
  212MPD1     C 3271   0.427   0.143  16.390 -0.2765 -0.3252  0.2757
  212MPD1    C1 3272   0.350   0.228  16.468  0.4007 -0.2820  0.4888
  212MPD1    C2 3273   0.293   0.175  16.580  0.7035 -0.0835 -0.5449
  212MPD1    C3 3274   0.323   0.043  16.621  0.2876 -0.1778  0.0687
  212MPD1    C4 3275   0.403   4.696  16.542 -0.5112 -0.4274  0.0601
  212MPD1    C5 3276   0.460   0.014  16.431 -0.2144  0.3353  0.1421
  212MPD1     H 3277   0.242   0.238  16.652 -2.5241 -3.0967 -0.1773
  212MPD1    H1 3278   0.440   4.603  16.583  2.2157 -0.0251 -1.5171
  212MPD1    H2 3279   0.466   0.190  16.301  0.9939 -1.7002  0.1062
  212MPD1    H3 3280   0.532   4.692  16.372  0.8085  1.1843  0.6159
  212MPD1     N 3281   0.280   4.707  16.740 -0.1447  0.1807  0.3536
  212MPD1    H5 3282   0.323   4.618  16.762  0.1125 -0.3860 -2.4541
  212MPD1    N1 3283   0.321   0.363  16.436 -0.1347 -0.1514  0.0782
  212MPD1    H6 3284   0.271   0.406  16.513  0.6102  0.4455  0.2167
  212MPD1    H7 3285   0.391   0.424  16.395 -0.3107  3.7544  5.6378
  213MPD1     C 3286   2.840   0.588  16.258 -0.1922  0.6807 -0.2951
  213MPD1    C1 3287   2.851   0.493  16.163 -0.1466  0.0378 -0.1496
  213MPD1    C2 3288   2.915   0.538  16.046 -0.7798 -0.2423 -0.1236
  213MPD1    C3 3289   2.937   0.672  16.020 -0.2685 -0.0106 -0.5453
  213MPD1    C4 3290   2.910   0.764  16.111 -0.0669 -0.1233  0.1894
  213MPD1    C5 3291   2.870   0.715  16.234  0.0412 -0.2120  0.1685
  213MPD1     H 3292   2.956   0.470  15.973 -1.0965 -0.6245  0.0563
  213MPD1    H1 3293   2.925   0.871  16.099 -0.3466 -0.0773  0.2508
  213MPD1    H2 3294   2.814   0.568  16.361  2.4968  0.6290  0.3778
  213MPD1    H3 3295   2.846   0.778  16.318 -3.5204  0.7227 -1.5331
  213MPD1     N 3296   2.975   0.704  15.890 -0.1674  0.0112  0.2329
  213MPD1    H5 3297   2.966   0.629  15.822  1.3878  0.4391 -0.4395
  213MPD1    N1 3298   2.867   0.360  16.209  1.0768  0.1319  0.0640
  213MPD1    H6 3299   2.800   0.335  16.281  0.4959  2.2336  0.2614
  213MPD1    H7 3300   2.859   0.306  16.123 -1.8744 -0.2024  0.5890
  214MPD1     C 3301   2.902   0.261  15.052  0.0801  0.2292 -0.1434
  214MPD1    C1 3302   2.887   0.245  15.184  0.4170 -0.3043 -0.4027
  214MPD1    C2 3303   2.922   0.348  15.272 -0.3763 -0.6806 -0.5553
  214MPD1    C3 3304   2.973   0.465  15.223 -0.5228 -0.5808 -0.4983
  214MPD1    C4 3305   2.984   0.476  15.087  0.2538  0.0769 -0.5047
  214MPD1    C5 3306   2.958   0.369  15.004 -0.3835 -0.3931 -0.2724
  214MPD1     H 3307   2.920   0.323  15.377  2.3501  0.2184 -0.3089
  214MPD1    H1 3308   3.025   0.561  15.035 -0.0516  0.3872 -0.2362
  214MPD1    H2 3309   2.883   0.181  14.981  0.4603  1.7137 -1.9025
  214MPD1    H3 3310   2.978   0.377  14.897  2.4489 -0.7488  0.2252
  214MPD1     N 3311   3.020   0.578  15.300 -0.0244 -0.4609  0.0961
  214MPD1    H5 3312   3.060   0.663  15.260  0.4933 -1.0572 -0.6329
  214MPD1    N1 3313   2.853   0.122  15.241 -0.0393  0.0644 -0.5939
  214MPD1    H6 3314   2.794   0.126  15.324  0.2156  0.2989 -0.4261
  214MPD1    H7 3315   2.792   0.070  15.178 -0.7046 -0.1629  0.2512
  215MPD1     C 3316   2.099   1.728  10.466  0.3060 -0.7143 -0.0624
  215MPD1    C1 3317   2.183   1.740  10.358 -0.0551 -0.1757  0.0036
  215MPD1    C2 3318   2.248   1.866  10.342  0.4967  0.1323  0.5536
  215MPD1    C3 3319   2.252   1.954  10.446 -0.3471  0.0078 -0.0918
  215MPD1    C4 3320   2.183   1.929  10.562  0.4454 -0.4264  0.3057
  215MPD1    C5 3321   2.098   1.821  10.567 -0.1027  0.0651 -0.1490
  215MPD1     H 3322   2.308   1.879  10.253 -2.7453  0.6033 -1.5702
  215MPD1    H1 3323   2.185   1.995  10.649 -1.1642 -0.7899  0.6254
  215MPD1    H2 3324   2.044   1.637  10.487 -0.7662 -0.8208 -3.4193
  215MPD1    H3 3325   2.037   1.811  10.657  2.2737 -1.1998  1.3313
  215MPD1     N 3326   2.325   2.077  10.425 -0.2951  0.1027  0.1954
  215MPD1    H5 3327   2.377   2.088  10.338 -1.4439  0.0838 -0.4843
  215MPD1    N1 3328   2.197   1.637  10.259 -0.2346  0.8211  0.0809
  215MPD1    H6 3329   2.108   1.617  10.213  0.1805 -1.7180  0.3533
  215MPD1    H7 3330   2.252   1.663  10.177  1.6942 -1.6016  0.6020
  216MPD1     C 3331   4.635   4.473   0.128 -0.7378  0.5198  0.0372
  216MPD1    C1 3332   4.609   4.352   0.062  0.2187  0.5949  0.2169
  216MPD1    C2 3333   4.727   4.273   0.038  0.4143 -0.6690 -0.1084
  216MPD1    C3 3334   0.120   4.320   0.052 -0.4548  0.5667 -0.4215
  216MPD1    C4 3335   0.132   4.446   0.094  0.5522 -0.4823  0.5184
  216MPD1    C5 3336   0.027   4.521   0.135 -0.2741  0.7569 -1.0652
  216MPD1     H 3337   4.715   4.169   0.011 -1.7061 -0.8765  1.7447
  216MPD1    H1 3338   0.224   4.494   0.126  1.5723 -1.8956 -0.2934
  216MPD1    H2 3339   4.557   4.527   0.181  0.2578  2.1210 -0.1299
  216MPD1    H3 3340   0.052   4.619   0.174 -0.8528 -0.0631  1.3665
  216MPD1     N 3341   0.230   4.226   0.020  0.0917 -0.4965 -0.2275
  216MPD1    H5 3342   0.200   4.136  17.713 -1.4023 -0.2125  0.3140
  216MPD1    N1 3343   4.480   4.297   0.072 -0.1742 -0.8260  0.5710
  216MPD1    H6 3344   4.410   4.368   0.052 -1.0572 -2.8862 -3.8172
  216MPD1    H7 3345   4.470   4.221   0.005  0.6915 -0.4616  0.0291
  217MPD1     C 3346   1.348   2.706   8.810 -0.1358  0.7678  0.1117
  217MPD1    C1 3347   1.238   2.752   8.881 -0.2291 -0.8840  0.1108
  217MPD1    C2 3348   1.175   2.662   8.967 -0.1858  0.0622 -0.1309
  217MPD1    C3 3349   1.220   2.531   8.984 -0.5679 -1.0148 -0.7805
  217MPD1    C4 3350   1.338   2.498   8.920 -0.1438  0.2472 -0.7936
  217MPD1    C5 3351   1.406   2.587   8.839 -0.2089  0.1626  0.1361
  217MPD1     H 3352   1.083   2.691   9.017 -0.6295 -0.1978 -0.7983
  217MPD1    H1 3353   1.368   2.394   8.921  1.3224  0.6929  2.1416
  217MPD1    H2 3354   1.392   2.775   8.739  1.3335 -0.3171 -0.0272
  217MPD1    H3 3355   1.500   2.568   8.788  0.3491  1.3520  0.7183
  217MPD1     N 3356   1.158   2.426   9.054  0.1497 -0.2488 -0.5045
  217MPD1    H5 3357   1.213   2.341   9.057  1.6421  0.8118  1.8020
  217MPD1    N1 3358   1.203   2.888   8.884  0.4952  0.6072 -0.0229
  217MPD1    H6 3359   1.217   2.932   8.793 -2.7167 -0.7897 -1.1941
  217MPD1    H7 3360   1.103   2.898   8.896  0.3849  0.6301 -1.0089
  218MPD1     C 3361   1.902   2.427  12.705  0.8245 -0.0585 -0.7508
  218MPD1    C1 3362   1.968   2.544  12.747  0.1789  0.1063 -0.5462
  218MPD1    C2 3363   2.102   2.547  12.765 -0.1888  0.5425 -0.3218
  218MPD1    C3 3364   2.179   2.431  12.750 -0.6795 -0.4188 -0.1453
  218MPD1    C4 3365   2.110   2.308  12.723 -0.8895  0.1006  0.5836
  218MPD1    C5 3366   1.977   2.314  12.700 -0.1132  0.3678 -0.6785
  218MPD1     H 3367   2.157   2.634  12.799 -0.8081  0.8176 -0.0301
  218MPD1    H1 3368   2.165   2.215  12.709 -0.8692  0.5774 -2.3599
  218MPD1    H2 3369   1.797   2.419  12.677  0.5055 -0.1404  0.4502
  218MPD1    H3 3370   1.925   2.226  12.664  1.0831 -0.0452 -1.3797
  218MPD1     N 3371   2.316   2.423  12.767  0.2688 -0.1113 -0.3355
  218MPD1    H5 3372   2.351   2.331  12.745 -0.7001 -0.6813  0.5271
  218MPD1    N1 3373   1.894   2.663  12.730  0.4043 -0.2567 -0.2627
  218MPD1    H6 3374   1.945   2.730  12.787  1.0390  0.0237 -1.1660
  218MPD1    H7 3375   1.801   2.642  12.766  0.5100 -3.6453 -1.9091
  219MPD1     C 3376   3.113   2.932  12.383  0.1248 -0.1445  0.1772
  219MPD1    C1 3377   3.151   2.803  12.427  0.2743  0.3691 -0.3826
  219MPD1    C2 3378   3.046   2.729  12.471 -0.0327 -0.0060 -1.1062
  219MPD1    C3 3379   2.920   2.763  12.485 -0.0025  0.2028 -0.4747
  219MPD1    C4 3380   2.889   2.891  12.457 -0.1601  0.3328 -0.5352
  219MPD1    C5 3381   2.987   2.970  12.415 -0.0414  0.3890 -0.3487
  219MPD1     H 3382   3.073   2.625  12.485 -0.5220  0.1005  0.5615
  219MPD1    H1 3383   2.788   2.931  12.467 -0.6425 -0.7889 -0.9152
  219MPD1    H2 3384   3.169   3.011  12.336 -0.8782  1.3206  1.4272
  219MPD1    H3 3385   2.952   3.070  12.394  0.2803  0.3811 -0.9244
  219MPD1     N 3386   2.828   2.682  12.556  0.1654  0.3083 -0.2805
  219MPD1    H5 3387   2.729   2.700  12.549  0.5249  2.1055 -0.6947
  219MPD1    N1 3388   3.274   2.740  12.390  0.3372  0.1751 -0.4341
  219MPD1    H6 3389   3.303   2.660  12.446  0.3502  1.6832  1.6854
  219MPD1    H7 3390   3.350   2.807  12.383  0.2987 -0.0932 -3.5309
  220MPD1     C 3391   1.999   1.465   8.972 -0.2742  0.2725  0.3340
  220MPD1    C1 3392   1.887   1.477   9.047 -0.7859 -0.3901  0.4103
  220MPD1    C2 3393   1.882   1.587   9.136 -0.6122  0.8433  0.0011
  220MPD1    C3 3394   2.002   1.664   9.157  0.1751 -0.2693 -0.0048
  220MPD1    C4 3395   2.114   1.631   9.091 -0.1187 -0.4106 -0.0900
  220MPD1    C5 3396   2.110   1.534   8.996  0.6714 -0.3118 -0.0822
  220MPD1     H 3397   1.795   1.622   9.191 -1.7477  0.1849 -1.3863
  220MPD1    H1 3398   2.211   1.678   9.102 -0.2816  0.4989 -2.5468
  220MPD1    H2 3399   2.005   1.391   8.893 -0.8239 -0.4774  0.9945
  220MPD1    H3 3400   2.194   1.511   8.932  1.1936 -0.0251  0.5028
  220MPD1     N 3401   1.994   1.763   9.261 -0.1582 -0.1474  0.5553
  220MPD1    H5 3402   1.908   1.782   9.312 -0.5714  0.5397 -0.3829
  220MPD1    N1 3403   1.760   1.418   9.001  0.9678  0.4490 -0.3283
  220MPD1    H6 3404   1.690   1.417   9.074  1.0109  2.2121 -0.2594
  220MPD1    H7 3405   1.780   1.322   8.976 -0.4131 -0.1704  0.9947
  221MPD1     C 3406   0.975   1.315  15.909  0.2294 -0.0911  0.3952
  221MPD1    C1 3407   0.884   1.398  15.967 -0.7548 -0.3235  0.6471
  221MPD1    C2 3408   0.863   1.384  16.103  0.1191  0.0241  0.4372
  221MPD1    C3 3409   0.937   1.300  16.180  0.1027 -0.2252 -0.3756
  221MPD1    C4 3410   1.033   1.217  16.125 -0.4681  0.0745 -0.4584
  221MPD1    C5 3411   1.049   1.234  15.990  0.2285  0.2083  0.0730
  221MPD1     H 3412   0.801   1.459  16.150 -0.1541 -0.9299  1.5810
  221MPD1    H1 3413   1.109   1.166  16.183  1.1053  0.0891 -2.5059
  221MPD1    H2 3414   0.993   1.324  15.802  1.1399 -1.3752  0.4434
  221MPD1    H3 3415   1.128   1.170  15.951  0.6861  0.5708  0.3909
  221MPD1     N 3416   0.908   1.296  16.319  0.3324 -0.3434 -0.2629
  221MPD1    H5 3417   0.977   1.256  16.382 -0.0547  2.2379  1.7838
  221MPD1    N1 3418   0.801   1.474  15.879 -0.5283  0.3707  0.1249
  221MPD1    H6 3419   0.848   1.510  15.796 -0.6261 -0.1704 -0.1628
  221MPD1    H7 3420   0.752   1.549  15.927  0.7681  2.5901 -2.0629
  222MPD1     C 3421   0.602   0.529  17.053 -0.0480 -0.0211 -0.1278
  222MPD1    C1 3422   0.463   0.553  17.061 -0.4024 -0.9473 -0.4271
  222MPD1    C2 3423   0.400   0.549  17.190 -0.2164 -0.0730 -0.4828
  222MPD1    C3 3424   0.479   0.541  17.306  0.5524 -0.5804  0.7155
  222MPD1    C4 3425   0.619   0.531  17.290 -0.7247  0.2857  0.0277
  222MPD1    C5 3426   0.673   0.516  17.166 -1.1121  0.3755 -0.7931
  222MPD1     H 3427   0.292   0.550  17.184 -0.3861 -0.9048  2.5131
  222MPD1    H1 3428   0.686   0.528  17.375 -0.7211  2.3024  0.0821
  222MPD1    H2 3429   0.649   0.518  16.956 -1.2468  0.9113 -0.8086
  222MPD1    H3 3430   0.780   0.504  17.162 -1.0578  1.2768 -1.9699
  222MPD1     N 3431   0.428   0.565  17.437 -0.2247  0.3369 -0.6178
  222MPD1    H5 3432   0.495   0.576  17.512 -1.2539 -0.2507  0.3944
  222MPD1    N1 3433   0.384   0.541  16.947 -0.1401  0.0168  0.2696
  222MPD1    H6 3434   0.439   0.574  16.868  0.3509 -1.5712 -0.0651
  222MPD1    H7 3435   0.299   0.597  16.942  0.0608  0.5009  2.2923
  223MPD1     C 3436   4.169   0.480  17.670 -0.6107  0.0480 -0.2939
  223MPD1    C1 3437   4.252   0.432  17.566 -0.6522  0.4442 -0.3450
  223MPD1    C2 3438   4.383   0.457  17.581 -0.1749 -0.1784 -0.0295
  223MPD1    C3 3439   4.440   0.520  17.693  0.5499 -0.2956 -0.1163
  223MPD1    C4 3440   4.357   0.568   0.057  0.6202 -0.2249 -0.4980
  223MPD1    C5 3441   4.225   0.548   0.044 -0.5788 -0.0070  0.0017
  223MPD1     H 3442   4.454   0.419  17.507  1.3363 -0.4830  1.5684
  223MPD1    H1 3443   4.397   0.609   0.148 -1.3740 -0.8239  0.6425
  223MPD1    H2 3444   4.062   0.466  17.666 -0.3055 -2.5925  0.5396
  223MPD1    H3 3445   4.166   0.587   0.126  0.8350  1.3736  0.3490
  223MPD1     N 3446   4.584   0.532  17.696 -0.4120 -0.2579 -0.3838
  223MPD1    H5 3447   4.643   0.485  17.628  0.8054  1.7423 -0.7039
  223MPD1    N1 3448   4.207   0.346  17.464 -0.0476 -0.4889  0.1020
  223MPD1    H6 3449   4.106   0.333  17.460 -0.6557  3.1334  3.7092
  223MPD1    H7 3450   4.255   0.355  17.375 -2.3615  0.6831 -1.0220
  224MPD1     C 3451   4.714   2.181   9.648 -0.3026  0.3743  0.2806
  224MPD1    C1 3452   0.099   2.166   9.582 -0.0263  0.2375 -0.2921
  224MPD1    C2 3453   0.195   2.087   9.636 -0.2826  0.1759 -0.2916
  224MPD1    C3 3454   0.172   2.007   9.745 -0.0966  1.1938  1.0596
  224MPD1    C4 3455   0.054   2.030   9.821  0.3841  0.4605  0.9220
  224MPD1    C5 3456   4.693   2.115   9.771 -0.1017 -0.1756  0.1998
  224MPD1     H 3457   0.287   2.074   9.581 -0.3805  1.9067 -0.8572
  224MPD1    H1 3458   0.023   1.981   9.913 -0.3209 -1.2952 -0.2445
  224MPD1    H2 3459   4.635   2.243   9.608 -0.1568 -0.1781 -0.8688
  224MPD1    H3 3460   4.601   2.119   9.829  0.5386  0.8379  1.1452
  224MPD1     N 3461   0.260   1.922   9.810  1.0308 -0.3030  0.9260
  224MPD1    H5 3462   0.231   1.905   9.905  3.1486  0.8336  1.7898
  224MPD1    N1 3463   0.125   2.258   9.481  0.2144  0.0747 -0.2952
  224MPD1    H6 3464   0.201   2.237   9.417 -0.8320 -2.1305 -0.8155
  224MPD1    H7 3465   0.040   2.275   9.427  0.4549  1.7964 -0.1355
  225MPD1     C 3466   2.703   2.875  13.386  0.3313 -0.1252  0.2209
  225MPD1    C1 3467   2.600   2.864  13.481  0.0867 -0.3706 -0.0220
  225MPD1    C2 3468   2.481   2.931  13.458 -0.1728  0.6766 -0.0995
  225MPD1    C3 3469   2.453   2.992  13.338  0.0957 -0.7942  0.1231
  225MPD1    C4 3470   2.554   3.002  13.249 -0.2564  0.6080 -0.5676
  225MPD1    C5 3471   2.679   2.948  13.273  0.1133  0.2916 -0.0902
  225MPD1     H 3472   2.404   2.934  13.534  1.5349 -2.6570  1.7320
  225MPD1    H1 3473   2.525   3.040  13.151 -2.7227  0.8353  0.2579
  225MPD1    H2 3474   2.798   2.825  13.397  0.3391 -0.0440  0.5387
  225MPD1    H3 3475   2.760   2.956  13.202  1.2911  0.4436  1.2702
  225MPD1     N 3476   2.326   3.021  13.294 -0.1716  0.1411 -0.0935
  225MPD1    H5 3477   2.314   3.055  13.199 -3.7113 -2.3512 -0.5587
  225MPD1    N1 3478   2.636   2.821  13.607 -0.0823 -0.5627 -0.1740
  225MPD1    H6 3479   2.707   2.748  13.608 -0.1919 -0.6800 -1.0309
  225MPD1    H7 3480   2.559   2.798  13.670 -1.8751  0.5346 -1.9951
  226MPD1     C 3481   0.606   2.180  10.392 -0.1224 -0.0123  0.5835
  226MPD1    C1 3482   0.706   2.224  10.309  0.3367  0.1850 -0.3143
  226MPD1    C2 3483   0.678   2.228  10.169  0.2616 -0.1732  0.4300
  226MPD1    C3 3484   0.553   2.210  10.122  0.4250 -0.0571  0.8844
  226MPD1    C4 3485   0.448   2.187  10.213  0.6415 -0.0146  0.0455
  226MPD1    C5 3486   0.480   2.160  10.345  0.4299  0.1668  0.2524
  226MPD1     H 3487   0.758   2.259  10.103 -1.5357  2.5460 -0.4685
  226MPD1    H1 3488   0.344   2.181  10.181  0.6752 -0.7712  0.0635
  226MPD1    H2 3489   0.617   2.164  10.499 -2.1880 -1.4678  0.5840
  226MPD1    H3 3490   0.407   2.121  10.415  0.7723 -1.7493 -0.4553
  226MPD1     N 3491   0.533   2.228   9.982  0.1860 -0.2726 -0.0702
  226MPD1    H5 3492   0.612   2.256   9.925  0.4975 -1.2379 -0.1114
  226MPD1    N1 3493   0.843   2.233  10.346 -0.4405  0.5882 -0.2394
  226MPD1    H6 3494   0.856   2.258  10.444  0.3235  0.7754 -0.3952
  226MPD1    H7 3495   0.887   2.298  10.283  0.7413  1.5192  1.5450
  227MPD1     C 3496   4.575   2.790   9.819  0.0459  0.1319 -0.5541
  227MPD1    C1 3497   4.555   2.652   9.834 -0.8393  0.0656  0.1310
  227MPD1    C2 3498   4.655   2.574   9.773  0.5548 -0.0617 -0.1005
  227MPD1    C3 3499   0.037   2.624   9.724  0.1591 -0.3934 -0.4345
  227MPD1    C4 3500   0.057   2.763   9.711  0.0100  0.1795 -0.2275
  227MPD1    C5 3501   4.678   2.837   9.744 -0.7069  0.4882 -0.7909
  227MPD1     H 3502   4.640   2.467   9.767  1.1948 -0.0591 -1.5430
  227MPD1    H1 3503   0.138   2.813   9.660 -0.3223 -0.3923 -1.3121
  227MPD1    H2 3504   4.499   2.858   9.858  0.9390  0.8883 -0.1253
  227MPD1    H3 3505   4.680   2.945   9.734 -0.5264  0.6148  0.6182
  227MPD1     N 3506   0.128   2.531   9.690 -0.4180  0.2054  0.0035
  227MPD1    H5 3507   0.101   2.438   9.722 -2.7635  0.9213  0.0843
  227MPD1    N1 3508   4.441   2.591   9.887 -0.6273  0.2482 -0.3022
  227MPD1    H6 3509   4.394   2.661   9.944  0.9368  0.8660  0.2199
  227MPD1    H7 3510   4.459   2.515   9.951  1.4106  0.6301 -0.4362
  228MPD1     C 3511   4.316   0.466  12.404  0.5824  0.3068  0.4057
  228MPD1    C1 3512   4.323   0.471  12.541  0.4187  0.0681 -0.3908
  228MPD1    C2 3513   4.213   0.521  12.605  0.6185 -0.5062  0.0039
  228MPD1    C3 3514   4.089   0.547  12.540  0.8592  0.2873 -0.0880
  228MPD1    C4 3515   4.094   0.532  12.396 -0.6059  0.0211 -0.3969
  228MPD1    C5 3516   4.206   0.490  12.333  0.1523  0.6481 -0.2148
  228MPD1     H 3517   4.217   0.526  12.713 -1.8058  1.8490 -0.0208
  228MPD1    H1 3518   4.006   0.546  12.335 -0.7222  0.7507 -0.0625
  228MPD1    H2 3519   4.408   0.442  12.352  1.1279  0.8588  1.1058
  228MPD1    H3 3520   4.201   0.480  12.226  0.1188 -1.1280 -0.0617
  228MPD1     N 3521   3.964   0.567  12.611  0.3913 -0.3888 -0.2410
  228MPD1    H5 3522   3.975   0.573  12.711 -4.2136  1.3166  0.1224
  228MPD1    N1 3523   4.440   0.459  12.612  0.0130 -0.1661 -0.4976
  228MPD1    H6 3524   4.435   0.424  12.707  0.1217 -0.0984 -0.4663
  228MPD1    H7 3525   4.514   0.411  12.561 -0.8640  0.0804 -2.0202
  229MPD1     C 3526   3.556   4.131  15.690  0.6922 -0.1764  0.0685
  229MPD1    C1 3527   3.559   4.034  15.786 -0.4903 -0.1331 -0.0988
  229MPD1    C2 3528   3.675   3.949  15.797 -0.3109  0.1324 -0.0343
  229MPD1    C3 3529   3.772   3.953  15.697 -1.1819  0.2273 -0.2934
  229MPD1    C4 3530   3.753   4.046  15.597 -0.3656  0.5881 -0.5831
  229MPD1    C5 3531   3.655   4.142  15.592 -0.2299  0.1043  0.4602
  229MPD1     H 3532   3.679   3.880  15.880  1.2272 -0.8981 -0.9623
  229MPD1    H1 3533   3.827   4.058  15.518  1.5604 -2.5902  0.7307
  229MPD1    H2 3534   3.480   4.207  15.681  1.9523  1.1083  0.1870
  229MPD1    H3 3535   3.645   4.219  15.516  1.1111 -0.0105  0.1631
  229MPD1     N 3536   3.893   3.881  15.693  0.2478 -0.3879  0.0893
  229MPD1    H5 3537   3.945   3.891  15.606  3.3572  0.1294  2.0406
  229MPD1    N1 3538   3.466   4.041  15.891  0.7710 -0.2786 -0.2887
  229MPD1    H6 3539   3.448   3.950  15.933  0.5960  0.5245  1.3710
  229MPD1    H7 3540   3.385   4.088  15.852  0.7016  0.9157  1.3120
  230MPD1     C 3541   4.606   3.157  16.096 -0.7744  0.6509 -0.3179
  230MPD1    C1 3542   4.641   3.185  15.968  0.3212 -0.0247 -0.3855
  230MPD1    C2 3543   4.594   3.306  15.914  0.4960  0.3319 -0.1789
  230MPD1    C3 3544   4.501   3.380  15.981  0.0482 -0.0059  0.5957
  230MPD1    C4 3545   4.464   3.355  16.111 -0.0630  0.0435  0.2020
  230MPD1    C5 3546   4.513   3.235  16.163 -0.1842 -0.0744  0.0415
  230MPD1     H 3547   4.636   3.347  15.823  1.7740 -2.2446 -0.7481
  230MPD1    H1 3548   4.396   3.417  16.168  1.0830  0.4410  1.1311
  230MPD1    H2 3549   4.645   3.073  16.152 -1.4396  0.1473 -0.6210
  230MPD1    H3 3550   4.502   3.218  16.270  0.0548 -0.1977  0.0464
  230MPD1     N 3551   4.431   3.486  15.917  0.2750 -0.3498  0.6409
  230MPD1    H5 3552   4.466   3.505  15.823 -0.1319 -0.1850  0.5189
  230MPD1    N1 3553   0.011   3.113  15.908  0.1806 -0.1324 -0.2090
  230MPD1    H6 3554   0.005   3.012  15.921  0.4808  0.2234  2.5890
  230MPD1    H7 3555   4.727   3.133  15.810 -0.4454  0.6863  0.0680
  231MPD1     C 3556   1.875   0.992  15.312 -0.1534 -0.3912  0.5691
  231MPD1    C1 3557   1.853   1.080  15.207 -0.3222  0.6673 -0.1652
  231MPD1    C2 3558   1.961   1.152  15.156 -0.1543  0.3144 -0.3471
  231MPD1    C3 3559   2.083   1.145  15.220  0.2261 -0.1372 -0.0858
  231MPD1    C4 3560   2.104   1.061  15.325 -0.3096 -0.0838 -0.7925
  231MPD1    C5 3561   2.000   0.982  15.373  0.6400 -0.0274  0.2488
  231MPD1     H 3562   1.934   1.220  15.075 -0.3362  1.7291  0.9094
  231MPD1    H1 3563   2.201   1.055  15.374 -1.3140  0.6008  1.2613
  231MPD1    H2 3564   1.794   0.933  15.353 -2.0016  1.7013 -0.0619
  231MPD1    H3 3565   2.015   0.914  15.456 -2.4239  1.8550  2.3100
  231MPD1     N 3566   2.194   1.217  15.170 -0.0796 -0.1230  0.0908
  231MPD1    H5 3567   2.174   1.249  15.075 -2.0023  0.7808  0.7860
  231MPD1    N1 3568   1.724   1.114  15.165  0.1690  0.1168 -0.0574
  231MPD1    H6 3569   1.656   1.047  15.202 -1.6375  0.5060 -2.6819
  231MPD1    H7 3570   1.718   1.110  15.064  3.2869  3.6141 -0.3736
  232MPD1     C 3571   4.392   3.109   0.781  0.0145  0.0160  0.7128
  232MPD1    C1 3572   4.305   3.083   0.883 -0.4607  0.2648 -0.3366
  232MPD1    C2 3573   4.175   3.055   0.853 -1.1461  0.1070 -1.0337
  232MPD1    C3 3574   4.126   3.085   0.729 -0.6576  0.3976 -0.0444
  232MPD1    C4 3575   4.215   3.122   0.630  0.4430 -0.4919  0.1006
  232MPD1    C5 3576   4.348   3.141   0.656 -0.3079 -0.0840 -0.4249
  232MPD1     H 3577   4.103   3.039   0.932  0.7720  1.5900  1.0100
  232MPD1    H1 3578   4.183   3.145   0.529  1.3168 -1.4002 -0.3778
  232MPD1    H2 3579   4.499   3.113   0.798  0.1188 -0.3904  0.1479
  232MPD1    H3 3580   4.422   3.165   0.580  0.8363  1.0358  1.0409
  232MPD1     N 3581   3.985   3.082   0.696  0.0749 -0.3710 -0.1812
  232MPD1    H5 3582   3.928   3.046   0.771  0.3365 -0.7977 -0.1913
  232MPD1    N1 3583   4.355   3.050   1.012 -0.3335  0.0590 -0.3923
  232MPD1    H6 3584   4.440   3.103   1.028 -0.0826 -1.1147  2.1755
  232MPD1    H7 3585   4.286   3.057   1.086  1.5270  0.5490  1.2742
  233MPD1     C 3586   0.097   1.022   0.876 -0.0309 -0.1488  0.1933
  233MPD1    C1 3587   0.207   1.068   0.807  1.0368 -0.3973  0.7245
  233MPD1    C2 3588   0.263   1.188   0.850 -0.4438 -0.2436  0.0061
  233MPD1    C3 3589   0.193   1.264   0.942 -0.2026 -0.5945  0.4712
  233MPD1    C4 3590   0.068   1.229   0.991 -0.6280 -0.2506  0.0581
  233MPD1    C5 3591   0.025   1.105   0.960 -1.2555 -0.4829  0.1844
  233MPD1     H 3592   0.354   1.219   0.799 -1.6877 -0.0754 -2.1018
  233MPD1    H1 3593   0.011   1.293   1.058 -1.8422  1.5701 -2.7151
  233MPD1    H2 3594   0.068   0.921   0.848  0.0150  0.0750 -0.6501
  233MPD1    H3 3595   4.658   1.076   0.994 -0.9146 -2.8462 -0.8524
  233MPD1     N 3596   0.250   1.377   1.007 -0.5227 -0.6125  0.0418
  233MPD1    H5 3597   0.176   1.430   1.052  1.2729  1.0227  1.0742
  233MPD1    N1 3598   0.284   0.973   0.739  0.2971 -0.3030  0.5495
  233MPD1    H6 3599   0.333   1.013   0.659  1.4493 -0.3804  1.2133
  233MPD1    H7 3600   0.224   0.896   0.712 -0.1808  0.4102 -0.4092
  234MPD1     C 3601   1.973   0.767   9.616 -0.0869  0.5352  0.1381
  234MPD1    C1 3602   1.853   0.735   9.679 -0.1183  0.1157 -0.2721
  234MPD1    C2 3603   1.752   0.828   9.661 -0.7739 -0.4132 -0.1842
  234MPD1    C3 3604   1.753   0.934   9.579  0.2698  0.4244 -0.1961
  234MPD1    C4 3605   1.867   0.959   9.508  0.7838 -0.1312  0.1956
  234MPD1    C5 3606   1.975   0.875   9.528 -0.2909 -0.1429 -0.0169
  234MPD1     H 3607   1.666   0.812   9.725 -1.6167 -3.3770 -2.0549
  234MPD1    H1 3608   1.880   1.050   9.450  0.5915 -1.1660 -1.4910
  234MPD1    H2 3609   2.060   0.702   9.616  0.4352  1.2399 -2.5896
  234MPD1    H3 3610   2.061   0.890   9.465  0.5111 -0.9632  0.8705
  234MPD1     N 3611   1.640   1.017   9.571  0.0233 -0.3311  0.1787
  234MPD1    H5 3612   1.555   0.985   9.617 -0.4392  3.2725  1.8297
  234MPD1    N1 3613   1.831   0.624   9.761  0.7706  0.4548  0.5741
  234MPD1    H6 3614   1.904   0.553   9.767  1.1416  0.8384  0.5682
  234MPD1    H7 3615   1.738   0.585   9.749  1.9088 -2.2253  0.3401
  235MPD1     C 3616   2.677   3.470  11.100  0.0260  0.5358 -0.3423
  235MPD1    C1 3617   2.732   3.465  10.977  0.0997  0.5314  0.4513
  235MPD1    C2 3618   2.867   3.509  10.952  0.1350  0.3797 -0.4932
  235MPD1    C3 3619   2.936   3.561  11.057 -0.3025  0.0334 -0.5216
  235MPD1    C4 3620   2.878   3.564  11.181  0.5427  0.7617  0.3628
  235MPD1    C5 3621   2.751   3.512  11.204  0.5473 -0.1484 -0.1669
  235MPD1     H 3622   2.915   3.498  10.856 -0.1223  2.2703 -0.8403
  235MPD1    H1 3623   2.924   3.621  11.260 -1.7993  1.4845  1.2176
  235MPD1    H2 3624   2.576   3.437  11.117 -0.0371  0.1523 -1.4339
  235MPD1    H3 3625   2.704   3.525  11.301 -0.6135 -1.3963 -0.5513
  235MPD1     N 3626   3.069   3.588  11.034  0.0596 -0.3675 -0.5762
  235MPD1    H5 3627   3.083   3.581  10.934  1.8141 -4.1709 -0.0790
  235MPD1    N1 3628   2.663   3.385  10.883  0.1713 -0.3268  0.0796
  235MPD1    H6 3629   2.562   3.395  10.880  0.2122 -0.1339 -0.6500
  235MPD1    H7 3630   2.702   3.395  10.789 -1.1700  3.3182 -0.0898
  236MPD1     C 3631   1.614   0.138   9.531 -0.4842 -0.4153 -0.2905
  236MPD1    C1 3632   1.726   0.187   9.590 -0.2703 -0.2715  0.7798
  236MPD1    C2 3633   1.805   0.102   9.663  0.0940  0.7601  0.0641
  236MPD1    C3 3634   1.774   4.702   9.682 -0.2763 -0.3030 -0.2757
  236MPD1    C4 3635   1.664   4.651   9.621  0.0426 -0.2305 -0.2714
  236MPD1    C5 3636   1.584   4.732   9.548  0.0266 -0.4169 -0.4354
  236MPD1     H 3637   1.892   0.147   9.709 -0.4917  2.0917 -0.1435
  236MPD1    H1 3638   1.648   4.544   9.616 -1.7589 -0.0806  2.2647
  236MPD1    H2 3639   1.554   0.200   9.465  0.9393 -1.3892 -2.4889
  236MPD1    H3 3640   1.490   4.690   9.513 -0.4277 -0.4754  0.8355
  236MPD1     N 3641   1.862   4.615   9.756 -0.6509 -0.0125 -0.6223
  236MPD1    H5 3642   1.826   4.521   9.770 -2.0235  0.6046  0.0039
  236MPD1    N1 3643   1.771   0.315   9.558 -0.3075 -0.3409 -0.1146
  236MPD1    H6 3644   1.843   0.348   9.622  0.8630 -2.4745 -0.3245
  236MPD1    H7 3645   1.695   0.381   9.575  1.3668  1.9063 -1.2397
  237MPD1     C 3646   2.717   2.420  15.267 -0.0630 -0.0503  0.3059
  237MPD1    C1 3647   2.690   2.313  15.347  0.4706  0.1798 -0.0962
  237MPD1    C2 3648   2.575   2.309  15.415 -0.2634  0.5737 -0.1521
  237MPD1    C3 3649   2.476   2.404  15.389 -0.0060  0.1005 -0.0664
  237MPD1    C4 3650   2.499   2.502  15.294  1.1145 -0.5486 -0.2931
  237MPD1    C5 3651   2.618   2.513  15.232 -0.3443 -0.0181 -0.0124
  237MPD1     H 3652   2.563   2.225  15.483  0.3151  0.0911 -0.6500
  237MPD1    H1 3653   2.432   2.586  15.276  0.1212 -0.5413  3.4276
  237MPD1    H2 3654   2.817   2.427  15.224  0.7480  0.6660  2.3300
  237MPD1    H3 3655   2.640   2.599  15.170 -2.5476 -0.5892 -1.6196
  237MPD1     N 3656   2.354   2.409  15.460  0.4243 -0.2442  0.5608
  237MPD1    H5 3657   2.280   2.467  15.423  0.6608  0.3337  0.9922
  237MPD1    N1 3658   2.797   2.220  15.377 -0.5174 -0.4502  0.1662
  237MPD1    H6 3659   2.767   2.133  15.421 -1.5945 -0.6967 -1.0801
  237MPD1    H7 3660   2.852   2.203  15.294 -0.0856  1.6165  0.0385
  238MPD1     C 3661   4.563   1.218  15.028  0.2515  0.7127 -0.2086
  238MPD1    C1 3662   4.475   1.176  15.121 -0.4308 -0.1749  0.1304
  238MPD1    C2 3663   4.340   1.161  15.084 -0.0192  0.7876  0.1336
  238MPD1    C3 3664   4.296   1.205  14.959 -0.1308  0.0744  0.2892
  238MPD1    C4 3665   4.386   1.243  14.864 -0.4622 -0.2553 -0.1694
  238MPD1    C5 3666   4.521   1.242  14.900 -0.0502 -0.3369  0.5375
  238MPD1     H 3667   4.274   1.135  15.166  0.0188 -3.2195 -1.1154
  238MPD1    H1 3668   4.363   1.278  14.764  0.5651 -0.6610 -0.5476
  238MPD1    H2 3669   4.671   1.210  15.033  0.2811  0.9258 -0.5234
  238MPD1    H3 3670   4.593   1.252  14.819  0.6499 -0.7831  1.0976
  238MPD1     N 3671   4.160   1.225  14.926 -0.2833  0.3887  0.2474
  238MPD1    H5 3672   4.136   1.257  14.833  2.4826 -0.4770 -0.7521
  238MPD1    N1 3673   4.523   1.121  15.238 -0.1327  0.1322 -0.5602
  238MPD1    H6 3674   4.446   1.107  15.302  0.1447 -1.7840 -0.6408
  238MPD1    H7 3675   4.589   1.186  15.280  0.4125  0.4791 -1.9588
  239MPD1     C 3676   4.393   2.169  14.965 -0.3862  0.2179  1.1100
  239MPD1    C1 3677   4.377   2.051  14.901 -0.2765 -0.7650  0.1642
  239MPD1    C2 3678   4.305   2.041  14.785 -0.0977 -0.0825  0.0934
  239MPD1    C3 3679   4.241   2.150  14.736  0.7222 -0.2029 -0.1982
  239MPD1    C4 3680   4.235   2.270  14.808 -0.2366  0.0281 -0.2520
  239MPD1    C5 3681   4.318   2.277  14.926  0.2614  0.7278  0.0918
  239MPD1     H 3682   4.309   1.946  14.734  0.8246 -1.0875  2.0503
  239MPD1    H1 3683   4.181   2.359  14.776 -0.9417 -0.3959 -0.2418
  239MPD1    H2 3684   4.462   2.182  15.048  0.7921  0.0602  0.1600
  239MPD1    H3 3685   4.341   2.375  14.965 -2.0312  0.9706  0.8459
  239MPD1     N 3686   4.168   2.135  14.619 -0.4501  1.3795 -0.3080
  239MPD1    H5 3687   4.090   2.199  14.607 -2.7521 -1.3385  0.2194
  239MPD1    N1 3688   4.455   1.946  14.955  0.5311  0.0442 -0.2293
  239MPD1    H6 3689   4.433   1.857  14.911  1.4435  1.2919 -3.2313
  239MPD1    H7 3690   4.443   1.941  15.056 -0.2903 -0.3834 -0.3481
  240MPD1     C 3691   3.250   2.271  13.855 -0.8248  0.9252 -0.1846
  240MPD1    C1 3692   3.168   2.187  13.925 -0.3293  0.4661 -0.5915
  240MPD1    C2 3693   3.200   2.055  13.929 -0.7276 -0.1433 -0.2597
  240MPD1    C3 3694   3.324   2.009  13.879  0.0344  0.2000 -0.3460
  240MPD1    C4 3695   3.412   2.097  13.809 -0.2641 -0.5420 -0.5120
  240MPD1    C5 3696   3.364   2.223  13.788  0.6537 -0.0375 -0.0345
  240MPD1     H 3697   3.131   1.988  13.979 -0.3204 -0.5667 -0.2632
  240MPD1    H1 3698   3.501   2.067  13.755 -0.6252  1.1508 -2.0193
  240MPD1    H2 3699   3.237   2.378  13.845 -2.0666  0.7763 -0.1569
  240MPD1    H3 3700   3.432   2.292  13.740 -1.7741  0.9068 -2.1318
  240MPD1     N 3701   3.357   1.874  13.900  0.3999 -0.9283  0.0994
  240MPD1    H5 3702   3.293   1.817  13.953 -0.7905  0.4415  0.1259
  240MPD1    N1 3703   3.058   2.242  13.986 -0.9995 -0.3625  0.0449
  240MPD1    H6 3704   3.068   2.343  13.992  0.2336 -0.7195  3.6240
  240MPD1    H7 3705   3.015   2.205  14.070 -0.5395 -1.8308 -0.3660
  241MPD1     C 3706   3.668   1.105  13.370 -0.2219 -0.5460  0.6655
  241MPD1    C1 3707   3.719   1.086  13.493  0.3303 -0.0371 -0.0487
  241MPD1    C2 3708   3.671   1.156  13.601  0.1527 -0.1537  0.1002
  241MPD1    C3 3709   3.577   1.254  13.581  0.5881 -0.3046 -0.8380
  241MPD1    C4 3710   3.528   1.280  13.452  0.0922  0.5489 -0.8720
  241MPD1    C5 3711   3.570   1.202  13.350 -0.0859  0.0063  0.3736
  241MPD1     H 3712   3.710   1.131  13.699  1.7954 -0.8949 -0.7513
  241MPD1    H1 3713   3.454   1.359  13.446  1.4294  1.9598  1.5207
  241MPD1    H2 3714   3.712   1.062  13.281 -0.2562  0.3836  0.1953
  241MPD1    H3 3715   3.536   1.225  13.250  0.5625  0.9365  0.3654
  241MPD1     N 3716   3.546   1.356  13.680 -0.2920 -0.0237 -0.3127
  241MPD1    H5 3717   3.493   1.436  13.650 -1.1378  0.4935  2.6193
  241MPD1    N1 3718   3.820   0.993  13.511 -0.6366 -0.2448  0.3322
  241MPD1    H6 3719   3.814   0.967  13.610 -1.1586  0.8411  0.5770
  241MPD1    H7 3720   3.803   0.918  13.444  0.5081 -1.4316  1.3531
  242MPD1     C 3721   3.073   4.681  16.192 -0.0854 -0.8145  0.3033
  242MPD1    C1 3722   3.159   4.579  16.187 -0.2974 -0.2047  0.0361
  242MPD1    C2 3723   3.234   4.555  16.071 -0.3210 -0.1369  0.3253
  242MPD1    C3 3724   3.254   4.654  15.982 -0.7830  0.5635 -0.0283
  242MPD1    C4 3725   3.180   0.030  15.995 -0.1531 -0.3056  1.0342
  242MPD1    C5 3726   3.085   0.037  16.089  0.0083  0.3058 -0.1113
  242MPD1     H 3727   3.294   4.465  16.071  1.9799  1.3792  1.8077
  242MPD1    H1 3728   3.187   0.109  15.922  0.7496 -0.9078  0.4703
  242MPD1    H2 3729   2.995   4.693  16.267 -0.3019 -3.3887  0.5108
  242MPD1    H3 3730   3.017   0.121  16.094 -0.8037 -0.1506 -3.2896
  242MPD1     N 3731   3.344   4.644  15.870 -0.2362  0.2932 -0.0392
  242MPD1    H5 3732   3.352   4.726  15.811 -0.3815  0.1279 -0.2848
  242MPD1    N1 3733   3.141   4.478  16.281 -0.5488  0.2394 -0.1124
  242MPD1    H6 3734   3.127   4.527  16.369 -2.1068  0.7007 -0.6151
  242MPD1    H7 3735   3.227   4.428  16.305 -0.2913  1.0462  0.6811
  243MPD1     C 3736   0.458   3.728   0.071 -0.2313 -0.1740 -0.9762
  243MPD1    C1 3737   0.502   3.624  17.722 -0.4750  0.2431 -0.6484
  243MPD1    C2 3738   0.415   3.520  17.693 -0.5130  0.8130 -0.0197
  243MPD1    C3 3739   0.275   3.532  17.724  0.2159  0.0529  0.0852
  243MPD1    C4 3740   0.237   3.647   0.058 -0.0694 -0.4740 -0.1410
  243MPD1    C5 3741   0.326   3.742   0.103 -0.0458  0.5724  0.0690
  243MPD1     H 3742   0.443   3.441  17.624 -3.0283 -0.9949  1.0183
  243MPD1    H1 3743   0.132   3.663   0.082 -0.2305 -0.1182 -1.0822
  243MPD1    H2 3744   0.528   3.799   0.114 -1.9842 -0.0421  1.7074
  243MPD1    H3 3745   0.297   3.828   0.163 -2.3782 -0.3728  0.2696
  243MPD1     N 3746   0.186   3.427  17.683  0.0946 -0.3969 -0.0668
  243MPD1    H5 3747   0.222   3.343  17.638 -0.0762  0.2254 -1.3692
  243MPD1    N1 3748   0.635   3.599  17.694 -0.0012 -0.2888 -0.2958
  243MPD1    H6 3749   0.679   3.686  17.663 -2.2369  1.5533  1.6973
  243MPD1    H7 3750   0.648   3.541  17.611  2.3195  0.5951 -0.5372
  244MPD1     C 3751   3.990   3.499   0.095  0.6835 -0.0117  0.4146
  244MPD1    C1 3752   4.106   3.573   0.120  0.1741 -0.4067  0.3541
  244MPD1    C2 3753   4.224   3.504   0.097  0.6562 -0.3836 -0.1858
  244MPD1    C3 3754   4.234   3.370   0.060  0.6464 -0.5189  0.2487
  244MPD1    C4 3755   4.116   3.302   0.040 -0.3375 -0.4030  0.4818
  244MPD1    C5 3756   3.995   3.364   0.061  0.0014  0.5593 -0.2712
  244MPD1     H 3757   4.320   3.553   0.106  0.2392  0.4983 -0.5458
  244MPD1    H1 3758   4.128   3.203  17.727  2.1537  0.9816 -2.0847
  244MPD1    H2 3759   3.896   3.552   0.106  2.2119  2.8978 -0.6993
  244MPD1    H3 3760   3.902   3.312   0.042  1.0449 -1.5549  0.4758
  244MPD1     N 3761   4.364   3.316   0.036  0.0103 -0.7284  0.1421
  244MPD1    H5 3762   4.442   3.365   0.079 -1.0430  1.0484  0.0345
  244MPD1    N1 3763   4.102   3.710   0.143  0.6929  0.3715  0.0176
  244MPD1    H6 3764   4.013   3.728   0.190 -0.0962 -1.5298 -0.7498
  244MPD1    H7 3765   4.187   3.737   0.192 -0.7002 -1.8752  3.6297
  245MPD1     C 3766   1.831   4.278  13.212  0.4044  0.0172  1.1326
  245MPD1    C1 3767   1.854   4.411  13.199  0.2288 -0.3978  0.0589
  245MPD1    C2 3768   1.981   4.451  13.231 -0.2920  0.1050 -0.1884
  245MPD1    C3 3769   2.085   4.362  13.250 -0.0947  0.6664 -0.0658
  245MPD1    C4 3770   2.064   4.229  13.239  0.0152  0.1434  0.1386
  245MPD1    C5 3771   1.931   4.190  13.228 -0.3239 -0.4316 -0.6779
  245MPD1     H 3772   2.004   4.557  13.240  0.6240 -0.2229  1.2696
  245MPD1    H1 3773   2.143   4.154  13.239  0.1527  0.2776  1.6196
  245MPD1    H2 3774   1.730   4.238  13.212  0.3017  0.2650 -1.0807
  245MPD1    H3 3775   1.915   4.082  13.230 -1.5859 -0.2094  1.1340
  245MPD1     N 3776   2.214   4.417  13.267 -0.1601  0.7774 -1.1057
  245MPD1    H5 3777   2.224   4.518  13.273 -0.6346  0.6339  2.0694
  245MPD1    N1 3778   1.747   4.500  13.193 -0.4543  0.5253 -0.2750
  245MPD1    H6 3779   1.674   4.462  13.133 -0.6389  0.2357  0.1251
  245MPD1    H7 3780   1.780   4.594  13.174  2.7428 -0.3458  0.8876
  246MPD1     C 3781   2.645   1.310   9.866  0.2720 -0.1377 -0.3965
  246MPD1    C1 3782   2.612   1.176   9.891 -0.3179 -0.3385 -0.4001
  246MPD1    C2 3783   2.622   1.090   9.781 -0.1995 -0.0677 -0.0730
  246MPD1    C3 3784   2.642   1.125   9.646  1.0748  0.2255 -0.1651
  246MPD1    C4 3785   2.667   1.262   9.633 -0.3780 -0.0692  0.5700
  246MPD1    C5 3786   2.657   1.351   9.740  0.1163 -0.2804 -1.1132
  246MPD1     H 3787   2.609   0.984   9.800  0.9091 -0.5920 -2.1852
  246MPD1    H1 3788   2.676   1.304   9.534 -0.3982 -0.0536  0.5749
  246MPD1    H2 3789   2.636   1.381   9.947  1.0700  2.1255 -2.2992
  246MPD1    H3 3790   2.683   1.455   9.721 -1.6940  0.5724  1.1738
  246MPD1     N 3791   2.650   1.025   9.545  0.0215 -0.0672  0.0347
  246MPD1    H5 3792   2.612   0.935   9.573  2.6592 -0.1333  3.4865
  246MPD1    N1 3793   2.590   1.127  10.024  0.1850  0.3216 -0.1788
  246MPD1    H6 3794   2.559   1.199  10.088  2.0862  1.2454 -0.3003
  246MPD1    H7 3795   2.531   1.044  10.016 -1.8987  1.6988  1.0753
  247MPD1     C 3796   1.703   4.620  16.067 -0.3772  0.8118 -0.3330
  247MPD1    C1 3797   1.701   4.514  16.154  0.2145  0.3459 -0.5508
  247MPD1    C2 3798   1.680   4.388  16.105  0.1543 -0.2317 -0.1762
  247MPD1    C3 3799   1.647   4.364  15.969  0.0329 -0.3294 -0.2297
  247MPD1    C4 3800   1.638   4.474  15.887 -0.4478  0.0595 -0.7037
  247MPD1    C5 3801   1.668   4.603  15.934  0.5454 -0.2207  0.7319
  247MPD1     H 3802   1.681   4.298  16.166 -0.1942  0.2024  0.4615
  247MPD1    H1 3803   1.598   4.471  15.786 -0.3862 -0.7412 -0.7082
  247MPD1    H2 3804   1.729   4.722  16.094  1.7667  0.0923  0.3483
  247MPD1    H3 3805   1.683   4.687  15.867 -1.5822 -0.5837 -0.1968
  247MPD1     N 3806   1.623   4.234  15.919  0.0586  0.3153 -0.6429
  247MPD1    H5 3807   1.618   4.225  15.818 -1.0514  0.6510 -0.6213
  247MPD1    N1 3808   1.736   4.532  16.286  0.1037  0.2574 -0.3462
  247MPD1    H6 3809   1.689   4.614  16.325  2.2083  0.5349  1.6019
  247MPD1    H7 3810   1.699   4.455  16.343  1.9306 -0.3978 -0.0580
  248MPD1     C 3811   2.762   3.557   0.104  0.7317  0.8100  0.2505
  248MPD1    C1 3812   2.629   3.574   0.086 -0.1823  0.1937  0.5924
  248MPD1    C2 3813   2.563   3.660   0.178 -0.3374 -0.4483 -0.0631
  248MPD1    C3 3814   2.640   3.732   0.274  0.8019 -0.3155  0.0461
  248MPD1    C4 3815   2.777   3.721   0.278  0.3194  0.6238 -0.1396
  248MPD1    C5 3816   2.831   3.624   0.198 -0.5073  0.6637  0.6684
  248MPD1     H 3817   2.462   3.692   0.153 -1.1649 -3.2848 -0.2835
  248MPD1    H1 3818   2.852   3.770   0.339  0.3340  1.1989 -0.6225
  248MPD1    H2 3819   2.820   3.493   0.039 -1.2564  0.8803 -1.5622
  248MPD1    H3 3820   2.934   3.597   0.215 -0.7572 -1.6205 -1.3355
  248MPD1     N 3821   2.568   3.818   0.353 -0.1455 -0.4396 -0.0545
  248MPD1    H5 3822   2.472   3.787   0.362 -0.9318  1.6590 -1.0078
  248MPD1    N1 3823   2.574   3.533  17.694 -0.1634  0.5691  0.0432
  248MPD1    H6 3824   2.487   3.482  17.707 -0.0319  0.6036  1.1254
  248MPD1    H7 3825   2.633   3.463  17.650  0.5974  0.9655  0.4200
  249MPD1     C 3826   3.156   2.169  10.136  0.4096 -0.1547  0.3136
  249MPD1    C1 3827   3.259   2.255  10.170 -0.6429  0.3801 -0.4793
  249MPD1    C2 3828   3.264   2.379  10.114 -0.0205 -0.5835  0.1702
  249MPD1    C3 3829   3.151   2.422  10.046 -0.1923  0.6659  1.0355
  249MPD1    C4 3830   3.040   2.341  10.033 -0.0242 -0.2498  0.2628
  249MPD1    C5 3831   3.049   2.210  10.064 -0.1684 -0.1746 -0.6955
  249MPD1     H 3832   3.351   2.443  10.119  0.2179 -0.8651 -0.2971
  249MPD1    H1 3833   2.952   2.383   9.986  0.2249  1.3512  1.2320
  249MPD1    H2 3834   3.162   2.063  10.155 -1.4723  0.3645  3.8729
  249MPD1    H3 3835   2.966   2.148  10.034 -1.0534 -0.5878  2.5820
  249MPD1     N 3836   3.154   2.559  10.002  0.1806 -0.7510 -0.7037
  249MPD1    H5 3837   3.241   2.609  10.014  0.2938 -1.1573  0.1862
  249MPD1    N1 3838   3.366   2.206  10.244  0.1072 -0.3992 -0.5279
  249MPD1    H6 3839   3.326   2.130  10.298 -2.5334  1.7648  0.6160
  249MPD1    H7 3840   3.403   2.277  10.306  1.3943 -0.5948 -1.0807
  250MPD2     C 3841   0.528   2.115  12.140  0.3504 -0.5174 -0.2835
  250MPD2    C1 3842   0.417   2.093  12.220 -0.1505  0.2484 -0.5818
  250MPD2    C2 3843   0.340   1.983  12.192 -0.2292 -0.2929 -0.1809
  250MPD2    C3 3844   0.345   1.911  12.074 -0.3056  0.3016  0.3872
  250MPD2    C4 3845   0.449   1.941  11.994  0.4413 -0.2576 -0.8279
  250MPD2    C5 3846   0.545   2.036  12.030  0.1540  0.3146  0.2232
  250MPD2     H 3847   0.257   1.967  12.260 -1.4448 -0.0938 -1.6244
  250MPD2    H1 3848   0.470   1.886  11.903 -1.4458  0.7472 -1.8726
  250MPD2    H2 3849   0.605   2.186  12.169 -1.5177  0.9932  0.9303
  250MPD2    H3 3850   0.622   2.048  11.954  0.8810  3.1538  1.4083
  250MPD2     N 3851   0.256   1.808  12.033  0.3836  0.2605 -0.2224
  250MPD2    H5 3852   0.272   1.763  11.944  0.5105 -0.3145  0.0914
  250MPD2    N1 3853   0.392   2.184  12.329  0.0349 -0.6876 -0.1510
  250MPD2    H7 3854   0.463   2.256  12.333 -0.8095  0.0515  1.5273
  251TMC3    C1 3855   0.300   2.260  12.535  0.5078 -0.2711  0.2065
  251TMC3    C2 3856   0.183   2.281  12.608 -0.6650 -0.1388  0.3684
  251TMC3    C3 3857   0.177   2.258  12.740  0.4837 -0.1167  0.1399
  251TMC3    C4 3858   0.413   2.219  12.593 -0.5549 -0.2103 -0.1283
  251TMC3    C5 3859   0.413   2.202  12.725  0.2476  0.4353 -0.0459
  251TMC3    C6 3860   0.294   2.214  12.803 -0.1566 -0.4097 -0.6481
  251TMC3     C 3861   0.280   2.203  12.402 -0.2465  0.4690  0.2232
  251TMC3     O 3862   0.166   2.153  12.390 -0.4763  0.5583  0.3492
  251TMC3     H 3863   0.095   2.292  12.546 -0.0093 -1.4711 -0.8103
  251TMC3    H1 3864   0.498   2.177  12.539  0.1993 -0.0906  0.9778
  251TMC3    H2 3865   0.293   2.200  12.911 -0.5506 -0.8731 -0.7128
  251TMC3    C7 3866   0.532   2.164  12.794 -0.7940 -0.5726 -0.8621
  251TMC3    C8 3867   0.089   2.337  12.826 -0.7132  0.4038  0.5760
  251TMC3    O1 3868   0.519   2.095  12.896 -0.5900 -0.2294 -0.1426
  251TMC3    O2 3869   0.141   2.362  12.932 -0.3244  0.1501  0.3626
  252TMC3    C1 3870   4.437   3.645   9.566  0.3397  0.2878  0.0899
  252TMC3    C2 3871   4.568   3.693   9.549  1.0503  0.5555  0.1619
  252TMC3    C3 3872   4.668   3.617   9.603 -0.9871 -0.4308 -0.1802
  252TMC3    C4 3873   4.405   3.520   9.606  0.2746 -1.1056 -0.2598
  252TMC3    C5 3874   4.513   3.444   9.658  0.1552 -0.7370 -0.0948
  252TMC3    C6 3875   4.647   3.487   9.648 -0.5515  0.0104 -1.0218
  252TMC3     C 3876   4.338   3.753   9.568  1.1286  0.2480  0.2503
  252TMC3     O 3877   4.375   3.864   9.537  0.3990 -0.1069 -0.7648
  252TMC3     H 3878   4.596   3.794   9.521  0.1775  0.8699  0.4509
  252TMC3    H1 3879   4.303   3.488   9.623  0.1201 -0.6816 -0.3990
  252TMC3    H2 3880   4.732   3.422   9.666 -0.4902  0.5096  0.4771
  252TMC3    C7 3881   4.484   3.320   9.725  0.0663  0.0864  0.2932
  252TMC3    C8 3882   0.066   3.663   9.572 -0.3009 -0.0793  0.4677
  252TMC3    O1 3883   4.379   3.266   9.699  0.7199 -0.1045  0.1982
  252TMC3    O2 3884   0.073   3.748   9.481  0.4360 -0.6924 -0.0450
  253MPD2     C 3885   1.731   2.484  15.912 -0.8579 -0.1456  0.5485
  253MPD2    C1 3886   1.653   2.425  15.813 -0.4186 -0.3770  0.2350
  253MPD2    C2 3887   1.585   2.308  15.840 -0.5338 -0.1812  0.1767
  253MPD2    C3 3888   1.593   2.257  15.973  0.3279 -0.8841  0.5730
  253MPD2    C4 3889   1.661   2.331  16.074 -0.7036 -0.5546  0.3143
  253MPD2    C5 3890   1.731   2.439  16.042  0.3893 -0.5621 -0.0534
  253MPD2     H 3891   1.534   2.256  15.759 -0.3970 -1.2630  0.7802
  253MPD2    H1 3892   1.656   2.301  16.178  2.4411 -0.0022  0.6505
  253MPD2    H2 3893   1.794   2.568  15.884 -1.2582 -0.3007 -0.8162
  253MPD2    H3 3894   1.792   2.490  16.116 -0.4611  0.9919 -0.4173
  253MPD2     N 3895   1.520   2.147  16.019 -0.3859  0.0298 -0.9509
  253MPD2    H5 3896   1.527   2.124  16.118 -1.9127  1.8550 -0.4033
  253MPD2    N1 3897   1.644   2.480  15.680 -0.0000  0.2145 -0.4952
  253MPD2    H7 3898   1.585   2.423  15.621  1.3042  0.1550 -1.7526
  254TMC3    C1 3899   1.382   1.971  16.012  0.6622  0.0389  0.6215
  254TMC3    C2 3900   1.249   1.973  15.973 -0.5472 -0.5243 -0.0269
  254TMC3    C3 3901   1.148   1.964  16.065 -0.3938 -0.4676  0.7654
  254TMC3    C4 3902   1.411   1.951  16.149  0.0410 -0.2741  0.2327
  254TMC3    C5 3903   1.309   1.919  16.233  0.3172 -0.1059  0.3049
  254TMC3    C6 3904   1.180   1.921  16.190  0.4060 -0.0867  0.3882
  254TMC3     C 3905   1.471   2.051  15.935  0.0474 -0.9646  0.3007
  254TMC3     O 3906   1.451   2.051  15.814 -0.2519 -0.5471  0.7187
  254TMC3     H 3907   1.226   2.013  15.875  0.2940  1.6928  0.6919
  254TMC3    H1 3908   1.507   1.964  16.198  1.3713  1.2912 -2.7947
  254TMC3    H2 3909   1.098   1.878  16.248  0.3158 -0.3429  0.0699
  254TMC3    C7 3910   1.309   1.955  16.372 -0.3128 -0.2242 -0.3657
  254TMC3    C8 3911   1.075   2.086  16.080  0.1741  0.3172  0.4555
  254TMC3    O1 3912   1.412   1.925  16.436  0.1518 -0.0923 -0.3384
  254TMC3    O2 3913   1.007   2.094  16.181  0.4457  0.1526  0.1282
  255MPD2     C 3914   0.154   0.321  10.145  0.2629 -0.2154 -0.5656
  255MPD2    C1 3915   0.160   0.404  10.038 -0.6082 -0.3555  0.5359
  255MPD2    C2 3916   0.175   0.355   9.911 -0.0256 -0.3456  0.7265
  255MPD2    C3 3917   0.197   0.225   9.905 -0.2796  0.4362  0.3958
  255MPD2    C4 3918   0.190   0.138  10.008  0.3614 -0.1291 -0.5571
  255MPD2    C5 3919   0.153   0.189  10.123  0.0202  0.5807 -0.3721
  255MPD2     H 3920   0.167   0.411   9.818 -0.7464 -0.1575  0.9008
  255MPD2    H1 3921   0.200   0.030  10.007  0.0394 -0.1523 -1.2257
  255MPD2    H2 3922   0.128   0.347  10.246  2.0125 -0.0079 -0.1824
  255MPD2    H3 3923   0.147   0.125  10.210 -0.0082  1.0943  0.0061
  255MPD2     N 3924   0.232   0.178   9.783 -0.5282 -0.5291 -0.4313
  255MPD2    H5 3925   0.254   0.248   9.713 -0.1078  0.9399  1.1885
  255MPD2    N1 3926   0.153   0.542  10.073 -0.2619  0.6610  0.2373
  255MPD2    H7 3927   0.120   0.556  10.168  1.5049  0.7441  0.8339
  256TMC3    C1 3928   0.132   0.777  10.042  0.3210  0.0702  0.3145
  256TMC3    C2 3929   0.194   0.881   9.982  0.1191  0.3072  0.4325
  256TMC3    C3 3930   0.115   0.971   9.912  0.2244  0.4846  0.0430
  256TMC3    C4 3931   4.728   0.780  10.053  0.2680 -0.6544 -0.1467
  256TMC3    C5 3932   4.655   0.867   9.981  0.8507  0.1114  0.2321
  256TMC3    C6 3933   4.715   0.968   9.911  1.0438  0.1108 -0.2235
  256TMC3     C 3934   0.185   0.648   9.995 -0.9093 -0.4523 -0.2572
  256TMC3     O 3935   0.251   0.647   9.890 -0.3706  0.4524  0.1099
  256TMC3     H 3936   0.299   0.867   9.960  0.1141 -0.8138  1.1365
  256TMC3    H1 3937   4.679   0.691  10.092 -1.1256 -1.1298 -2.9862
  256TMC3    H2 3938   4.655   1.035   9.851  1.3347  1.2455  0.7650
  256TMC3    C7 3939   4.512   0.856   9.955  0.0175 -0.1526  0.7883
  256TMC3    C8 3940   0.173   1.005   9.789  0.7529  0.0405 -0.2950
  256TMC3    O1 3941   4.471   0.883   9.844  0.6132 -0.4380  0.2181
  256TMC3    O2 3942   0.260   0.932   9.746 -0.2036 -0.1489  0.0401
  257MPD2     C 3943   3.503   2.594  13.452 -0.0830 -0.2566 -0.3583
  257MPD2    C1 3944   3.564   2.580  13.334  1.0400 -0.1601 -0.3451
  257MPD2    C2 3945   3.634   2.462  13.304 -0.0629  0.0940 -0.1381
  257MPD2    C3 3946   3.640   2.365  13.407  0.1625 -0.1548  0.2888
  257MPD2    C4 3947   3.591   2.390  13.532  0.8702 -0.1903 -0.2496
  257MPD2    C5 3948   3.516   2.507  13.555 -0.3460  0.4401 -0.7668
  257MPD2     H 3949   3.679   2.445  13.207 -1.3276  0.1899 -0.7279
  257MPD2    H1 3950   3.586   2.314  13.609 -1.3567  0.9614  0.7359
  257MPD2    H2 3951   3.467   2.690  13.487 -1.5479  0.1490 -2.9865
  257MPD2    H3 3952   3.464   2.522  13.649 -0.3129 -0.8680 -0.5438
  257MPD2     N 3953   3.694   2.240  13.379 -0.2563 -1.0971 -0.1696
  257MPD2    H5 3954   3.725   2.232  13.283 -0.2479  0.9285 -0.3324
  257MPD2    N1 3955   3.547   2.687  13.236 -0.0837  0.4563 -0.1220
  257MPD2    H7 3956   3.491   2.767  13.264  1.9203  1.4343  1.0536
  258TMC3    C1 3957   3.752   2.001  13.399  0.4308 -1.2782 -0.4378
  258TMC3    C2 3958   3.692   1.977  13.281 -0.0698 -0.3574 -0.3716
  258TMC3    C3 3959   3.680   1.848  13.237  0.8600 -0.3881  0.1409
  258TMC3    C4 3960   3.790   1.898  13.484  0.4653  0.7473  0.0038
  258TMC3    C5 3961   3.774   1.768  13.441  0.6163 -0.0243 -0.2470
  258TMC3    C6 3962   3.727   1.742  13.310  0.2255 -0.0607 -0.1030
  258TMC3     C 3963   3.712   2.128  13.461 -0.0958  0.7216  0.5833
  258TMC3     O 3964   3.676   2.111  13.575 -0.4204 -0.0016 -0.4029
  258TMC3     H 3965   3.679   2.057  13.208 -2.5985 -1.3224 -0.9841
  258TMC3    H1 3966   3.802   1.922  13.589  4.3687  0.0906 -0.2753
  258TMC3    H2 3967   3.713   1.641  13.274 -2.2925  1.2652 -2.7912
  258TMC3    C7 3968   3.793   1.651  13.531  0.4464  0.2154 -0.0358
  258TMC3    C8 3969   3.638   1.821  13.100  0.7265  0.1634 -0.0319
  258TMC3    O1 3970   3.739   1.551  13.485  0.2081  0.2951  0.1551
  258TMC3    O2 3971   3.695   1.734  13.032  0.1981 -1.1409  0.1105
  259MPD2     C 3972   3.339   4.335   0.698 -0.0471  0.0433  0.4587
  259MPD2    C1 3973   3.332   4.221   0.777  0.1464  0.6771  0.7157
  259MPD2    C2 3974   3.363   4.102   0.717  0.5596  0.2378 -0.7246
  259MPD2    C3 3975   3.393   4.092   0.580 -1.2897  0.8520 -0.6220
  259MPD2    C4 3976   3.394   4.208   0.506  0.3635  0.1665 -0.0405
  259MPD2    C5 3977   3.362   4.331   0.566  0.7398 -0.1204 -0.5722
  259MPD2     H 3978   3.370   4.009   0.771  0.3357  0.8285  0.3077
  259MPD2    H1 3979   3.411   4.195   0.400 -1.4778  0.1405 -0.3494
  259MPD2    H2 3980   3.326   4.431   0.748  0.8426  0.4612 -0.1139
  259MPD2    H3 3981   3.356   4.423   0.509  0.3692  0.4709  0.4289
  259MPD2     N 3982   3.430   3.965   0.538 -0.4343  0.0715 -0.5470
  259MPD2    H5 3983   3.442   3.895   0.611 -0.4169 -0.8922 -1.4698
  259MPD2    N1 3984   3.312   4.228   0.916 -0.0550 -0.4880 -0.3394
  259MPD2    H7 3985   3.280   4.313   0.961 -1.2757 -1.1536  0.0601
  260TMC3    C1 3986   3.520   3.788   0.402  0.2463  0.4396  0.6218
  260TMC3    C2 3987   3.562   3.745   0.283 -0.6262  0.4585 -0.0928
  260TMC3    C3 3988   3.650   3.636   0.283 -0.5415  0.1272 -0.0626
  260TMC3    C4 3989   3.535   3.716   0.518 -0.1597  0.7021 -0.2313
  260TMC3    C5 3990   3.613   3.605   0.512  0.3895 -0.0881  0.0840
  260TMC3    C6 3991   3.680   3.571   0.401 -0.2736  1.2391 -0.1251
  260TMC3     C 3992   3.470   3.922   0.413  0.6354  0.4047 -0.1558
  260TMC3     O 3993   3.440   3.971   0.306 -0.1226  0.4662  0.6896
  260TMC3     H 3994   3.541   3.804   0.195 -1.1326  0.5629  0.1034
  260TMC3    H1 3995   3.476   3.744   0.604  0.7069 -0.3138  0.7061
  260TMC3    H2 3996   3.755   3.493   0.398 -1.1785  0.3505  0.2136
  260TMC3    C7 3997   3.536   3.485   0.552  1.0065  0.2687 -0.3350
  260TMC3    C8 3998   3.631   3.545   0.173  0.5691  0.6597  0.4868
  260TMC3    O1 3999   3.561   3.380   0.487 -0.4751 -0.0651  0.0874
  260TMC3    O2 4000   3.624   3.580   0.057  0.6750 -0.1692  0.1930
  261MPD2     C 4001   4.290   1.943  11.695 -0.3949  0.1831 -0.1938
  261MPD2    C1 4002   4.393   1.979  11.779 -0.6333  1.2724  0.7331
  261MPD2    C2 4003   4.446   2.107  11.778  0.0219  0.0575  0.3218
  261MPD2    C3 4004   4.389   2.203  11.699 -0.7598  0.4179  0.6965
  261MPD2    C4 4005   4.290   2.167  11.611 -0.0407 -0.4056 -0.8724
  261MPD2    C5 4006   4.240   2.039  11.607  0.5886 -0.1342  0.0509
  261MPD2     H 4007   4.532   2.127  11.842 -1.0532  0.7065  1.5500
  261MPD2    H1 4008   4.243   2.239  11.545 -0.1378  0.1987 -0.1421
  261MPD2    H2 4009   4.263   1.839  11.684  3.2032 -0.7487 -0.1170
  261MPD2    H3 4010   4.164   2.017  11.532  0.0239  0.9533  0.2990
  261MPD2     N 4011   4.444   2.332  11.709 -0.4504 -0.3778 -0.5934
  261MPD2    H5 4012   4.529   2.347  11.762 -0.5491 -2.1734  0.0703
  261MPD2    N1 4013   4.473   1.893  11.855 -0.0974  0.1530 -0.1377
  261MPD2    H7 4014   4.545   1.932  11.915 -2.8838  2.1337  1.8689
  262TMC3    C1 4015   4.462   2.569  11.698 -0.0639 -0.4338  0.2633
  262TMC3    C2 4016   4.398   2.684  11.662 -0.6803 -0.1642 -0.1230
  262TMC3    C3 4017   4.466   2.801  11.678  0.3163 -0.2948  0.2440
  262TMC3    C4 4018   4.592   2.566  11.732  0.0242  0.2982  0.0502
  262TMC3    C5 4019   4.657   2.684  11.737  0.1591  0.6638  0.1700
  262TMC3    C6 4020   4.596   2.804  11.712 -0.1397  0.2598 -0.5843
  262TMC3     C 4021   4.391   2.447  11.657 -0.5305  0.4472  0.5814
  262TMC3     O 4022   4.291   2.459  11.587 -0.3155  0.6556 -0.0081
  262TMC3     H 4023   4.292   2.678  11.642 -0.6522  0.0554 -0.3262
  262TMC3    H1 4024   4.651   2.475  11.741  2.5158  1.9192  0.0058
  262TMC3    H2 4025   4.658   2.893  11.712  0.7193 -0.3434  0.9266
  262TMC3    C7 4026   0.072   2.669  11.754  0.4306  0.1178  0.4556
  262TMC3    C8 4027   4.408   2.928  11.659 -0.5565 -0.4851  0.3064
  262TMC3    O1 4028   0.114   2.558  11.786 -0.4208 -0.2288 -0.4452
  262TMC3    O2 4029   4.480   3.025  11.683  0.0251  0.3746  0.1666
  263MPD2     C 4030   0.799   1.258  11.508  0.1912 -0.2774  0.4716
  263MPD2    C1 4031   0.890   1.354  11.497 -0.4641 -0.2461  0.0743
  263MPD2    C2 4032   0.873   1.446  11.388  0.8535 -0.5285 -0.0118
  263MPD2    C3 4033   0.782   1.426  11.284  0.0691  0.1623  0.1371
  263MPD2    C4 4034   0.690   1.328  11.310 -0.3200 -0.5218 -0.7823
  263MPD2    C5 4035   0.698   1.243  11.416 -0.5485  0.4604 -0.0390
  263MPD2     H 4036   0.947   1.525  11.386 -1.6365  1.8890  1.5784
  263MPD2    H1 4037   0.609   1.303  11.242 -1.3826 -1.8241  0.9631
  263MPD2    H2 4038   0.808   1.193  11.594  0.4781 -0.3635  0.3777
  263MPD2    H3 4039   0.627   1.162  11.426  1.7450 -1.5250  0.2080
  263MPD2     N 4040   0.778   1.521  11.181 -0.0607  0.2583  0.8772
  263MPD2    H5 4041   0.845   1.597  11.189 -1.6876  1.5384  2.3864
  263MPD2    N1 4042   0.996   1.362  11.590  0.6541 -0.6421  0.1001
  263MPD2    H7 4043   1.003   1.284  11.654 -0.3636  0.1662  1.1840
  264TMC3    C1 4044   0.705   1.617  10.964 -0.8655 -0.5595 -0.0092
  264TMC3    C2 4045   0.746   1.738  11.014 -0.5004  0.3265  0.6683
  264TMC3    C3 4046   0.773   1.833  10.915 -0.6732  0.2601  0.3456
  264TMC3    C4 4047   0.663   1.597  10.835 -0.4784  0.4074 -0.5719
  264TMC3    C5 4048   0.700   1.688  10.747  0.1968 -0.1579 -0.5261
  264TMC3    C6 4049   0.759   1.806  10.778 -0.0461 -0.2727  0.0539
  264TMC3     C 4050   0.699   1.512  11.067 -0.5476 -0.0603 -0.3011
  264TMC3     O 4051   0.624   1.422  11.041  0.3635  0.2170  0.1404
  264TMC3     H 4052   0.768   1.757  11.118 -0.4900  1.0764  0.5299
  264TMC3    H1 4053   0.639   1.496  10.804 -1.0381 -0.0851  1.4579
  264TMC3    H2 4054   0.778   1.885  10.707 -2.0042  1.5890  1.5873
  264TMC3    C7 4055   0.731   1.638  10.613  0.5951  0.2126  0.0351
  264TMC3    C8 4056   0.822   1.963  10.953  0.4904 -0.3567 -0.4952
  264TMC3    O1 4057   0.762   1.522  10.600  0.3988  0.3841 -0.0073
  264TMC3    O2 4058   0.892   2.015  10.867 -0.0900  0.1545 -0.5836
  265MPD2     C 4059   2.882   2.019  15.725  0.0787 -0.2728 -0.0554
  265MPD2    C1 4060   2.927   2.126  15.650  0.5859 -0.1612 -0.3430
  265MPD2    C2 4061   3.017   2.106  15.547  0.9117 -0.8822 -0.5048
  265MPD2    C3 4062   3.062   1.976  15.523  0.9286 -0.3468 -0.3137
  265MPD2    C4 4063   3.004   1.867  15.591  0.8923  0.2835 -0.1008
  265MPD2    C5 4064   2.912   1.894  15.693 -0.4411  0.0776 -0.3879
  265MPD2     H 4065   3.065   2.189  15.496 -0.4759 -0.3351 -0.9278
  265MPD2    H1 4066   3.022   1.765  15.559 -1.2710 -0.3093  0.6029
  265MPD2    H2 4067   2.804   2.015  15.800  0.7326  1.2511  0.7134
  265MPD2    H3 4068   2.886   1.815  15.763 -1.8293 -0.8672 -1.9497
  265MPD2     N 4069   3.135   1.933  15.411 -0.3871 -0.1941 -0.2757
  265MPD2    H5 4070   3.142   1.832  15.408  4.0632  0.0623  1.6573
  265MPD2    N1 4071   2.889   2.264  15.685 -0.1894 -0.0149  0.6445
  265MPD2    H7 4072   2.930   2.344  15.638 -1.3539  0.4518  0.4355
  266TMC3    C1 4073   2.786   2.449  15.791  0.3432 -0.2403  0.4810
  266TMC3    C2 4074   2.799   2.489  15.916  0.0551  0.9007  0.2260
  266TMC3    C3 4075   2.807   2.618  15.951  0.0786  0.4103 -0.0098
  266TMC3    C4 4076   2.781   2.540  15.685 -0.2826 -0.4295  0.3239
  266TMC3    C5 4077   2.773   2.673  15.723  0.0656 -0.5678  0.2519
  266TMC3    C6 4078   2.792   2.717  15.854  0.1825  0.1663  0.5715
  266TMC3     C 4079   2.794   2.302  15.778 -0.1639  1.0150 -0.4129
  266TMC3     O 4080   2.726   2.240  15.851 -0.1991  0.2880 -0.4418
  266TMC3     H 4081   2.815   2.412  15.991 -0.0565  0.4489 -0.2141
  266TMC3    H1 4082   2.772   2.516  15.580  0.9011 -0.6038  0.2614
  266TMC3    H2 4083   2.789   2.822  15.879 -0.0845 -0.1736  1.9587
  266TMC3    C7 4084   2.702   2.760  15.631 -0.7022  0.1044  0.5399
  266TMC3    C8 4085   2.904   2.648  16.058  0.7129 -0.6816 -0.0654
  266TMC3    O1 4086   2.637   2.704  15.542 -0.6254 -0.2086 -0.4242
  266TMC3    O2 4087   2.982   2.560  16.086  0.2571 -0.7836 -0.5560
  267MPD2     C 4088   1.199   4.032   0.229 -0.2865  0.9358  0.7964
  267MPD2    C1 4089   1.149   3.935   0.159 -0.6054 -0.2231  0.4440
  267MPD2    C2 4090   1.025   3.938   0.101 -0.5939  0.7890 -0.1261
  267MPD2    C3 4091   0.957   4.059   0.096 -0.3211  0.6718  0.6967
  267MPD2    C4 4092   1.016   4.165   0.156  0.3691  0.6177 -0.5137
  267MPD2    C5 4093   1.135   4.150   0.224 -0.6435 -0.3815 -0.0254
  267MPD2     H 4094   0.981   3.842   0.075 -2.0996  1.2543  0.7045
  267MPD2    H1 4095   0.963   4.258   0.168  1.3938  0.8755  1.9648
  267MPD2    H2 4096   1.297   4.021   0.274 -0.2169 -0.3458  0.3350
  267MPD2    H3 4097   1.184   4.233   0.274  2.3948 -1.3474 -1.3867
  267MPD2     N 4098   0.829   4.075   0.051 -0.2682 -0.0511 -0.0963
  267MPD2    H5 4099   0.787   4.167   0.047 -1.4652 -0.5337  1.6628
  267MPD2    N1 4100   1.230   3.820   0.166  0.3013  0.3261 -0.0242
  267MPD2    H7 4101   1.298   3.820   0.242  0.3328 -1.8530 -0.0497
  268TMC3    C1 4102   1.265   3.588   0.153 -0.6004 -0.3140 -0.6714
  268TMC3    C2 4103   1.258   3.485   0.069 -0.4267 -0.3161 -0.4261
  268TMC3    C3 4104   1.226   3.359   0.114  0.4858  0.3276 -0.2928
  268TMC3    C4 4105   1.237   3.570   0.285  0.1621  0.3553 -0.3654
  268TMC3    C5 4106   1.220   3.444   0.337  0.3520  0.3390 -0.0582
  268TMC3    C6 4107   1.206   3.343   0.251 -0.7472 -0.1015 -0.0076
  268TMC3     C 4108   1.211   3.709   0.091  0.2073 -0.4523  0.7276
  268TMC3     O 4109   1.150   3.696  17.716 -0.3349 -0.0405  0.0081
  268TMC3     H 4110   1.290   3.507  17.697 -0.7170 -0.0624 -0.4606
  268TMC3    H1 4111   1.234   3.657   0.350 -1.5022 -0.1400  0.2073
  268TMC3    H2 4112   1.171   3.247   0.289  2.9953 -1.9103 -1.1175
  268TMC3    C7 4113   1.242   3.421   0.474 -0.0314  0.3884  0.4203
  268TMC3    C8 4114   1.115   3.295   0.044 -0.6720 -0.1689 -0.4344
  268TMC3    O1 4115   1.163   3.337   0.522 -0.3727  0.1572 -0.5880
  268TMC3    O2 4116   1.054   3.207   0.100  0.2450 -0.1179 -0.6607
  269MPD2     C 4117   1.211   2.551  15.674 -0.1486  0.3890  0.1221
  269MPD2    C1 4118   1.093   2.576  15.733 -0.9904 -0.6610 -0.0448
  269MPD2    C2 4119   1.053   2.704  15.752 -0.6139  0.4613  0.0721
  269MPD2    C3 4120   1.110   2.811  15.689  0.9693 -0.5043 -0.0138
  269MPD2    C4 4121   1.230   2.788  15.622  0.0402 -0.2109 -0.3674
  269MPD2    C5 4122   1.277   2.650  15.616 -0.2750 -0.6219 -0.5436
  269MPD2     H 4123   0.968   2.713  15.818 -0.8203  0.0050 -0.1261
  269MPD2    H1 4124   1.288   2.868  15.579 -0.6479  0.2680 -0.4075
  269MPD2    H2 4125   1.242   2.447  15.667 -1.9814 -0.1735  0.4853
  269MPD2    H3 4126   1.373   2.639  15.567 -0.8833 -0.3811 -1.7934
  269MPD2     N 4127   1.062   2.942  15.699  0.7233  0.0888  0.3144
  269MPD2    H5 4128   0.966   2.945  15.731  1.1721  1.0067  1.5835
  269MPD2    N1 4129   1.023   2.464  15.769  0.7097 -0.0408  0.1516
  269MPD2    H7 4130   1.053   2.371  15.744  1.5024  0.4083 -0.5574
  270TMC3    C1 4131   0.839   2.343  15.855 -0.2017  1.0441 -0.3273
  270TMC3    C2 4132   0.712   2.348  15.918 -0.3971  0.7298  0.0309
  270TMC3    C3 4133   0.632   2.237  15.911  0.4978 -0.6090 -0.6135
  270TMC3    C4 4134   0.879   2.229  15.787 -0.5594  0.8270 -0.5642
  270TMC3    C5 4135   0.799   2.118  15.796 -0.1377  0.2625  0.0953
  270TMC3    C6 4136   0.677   2.117  15.862  0.6092 -0.6425 -0.3167
  270TMC3     C 4137   0.906   2.469  15.844 -0.1383  0.5529  0.4469
  270TMC3     O 4138   0.856   2.562  15.900  0.6896  0.6757  0.3771
  270TMC3     H 4139   0.664   2.439  15.952  1.7639  1.7696  0.2988
  270TMC3    H1 4140   0.965   2.228  15.721  1.2907  0.5603  1.8536
  270TMC3    H2 4141   0.630   2.021  15.881 -0.5781  0.2257  1.1077
  270TMC3    C7 4142   0.878   1.997  15.789  0.4864 -0.3664  0.0281
  270TMC3    C8 4143   0.498   2.266  15.886  0.0143 -0.4662 -0.9274
  270TMC3    O1 4144   0.997   2.012  15.798  0.4517 -0.0477 -0.1301
  270TMC3    O2 4145   0.443   2.354  15.953 -0.0903 -0.1272 -0.2210
  271MPD2     C 4146   4.499   2.100  14.109  0.3664 -0.1853  0.4374
  271MPD2    C1 4147   4.455   2.178  14.215  0.2270 -0.4935  0.1906
  271MPD2    C2 4148   4.358   2.276  14.202  0.8150 -0.4503  0.0906
  271MPD2    C3 4149   4.288   2.300  14.088  0.5903 -0.1071 -0.9472
  271MPD2    C4 4150   4.336   2.226  13.980  0.5377 -0.0503  0.4360
  271MPD2    C5 4151   4.442   2.140  13.990 -0.4285 -0.2764 -0.6040
  271MPD2     H 4152   4.332   2.323  14.296  0.4178  0.7109 -0.6093
  271MPD2    H1 4153   4.276   2.223  13.889  0.7069 -1.1777  0.3645
  271MPD2    H2 4154   4.563   2.013  14.113  1.3292  0.5439  0.9953
  271MPD2    H3 4155   4.470   2.071  13.911  0.2197 -1.4663  0.6744
  271MPD2     N 4156   4.191   2.402  14.071 -0.5056  0.1876 -0.1043
  271MPD2    H5 4157   4.180   2.425  13.972  1.3713  2.1366  0.1414
  271MPD2    N1 4158   4.513   2.164  14.346  0.7453  0.1838 -0.2215
  271MPD2    H7 4159   4.472   2.220  14.420  1.3726  1.2450 -0.6863
  272TMC3    C1 4160   4.622   2.076  14.529  0.4136 -0.4853  0.1805
  272TMC3    C2 4161   4.652   1.956  14.588 -0.4794 -0.5790  0.0156
  272TMC3    C3 4162   4.696   1.975  14.718 -0.0940  0.2589  0.3403
  272TMC3    C4 4163   4.612   2.200  14.592 -0.3778  0.3229 -0.4946
  272TMC3    C5 4164   4.664   2.206  14.720  0.3370  0.0042  0.0230
  272TMC3    C6 4165   4.713   2.088  14.788 -0.0748 -0.0778 -0.4171
  272TMC3     C 4166   4.606   2.072  14.388  0.1637 -0.7985 -0.3914
  272TMC3     O 4167   4.677   1.991  14.332 -0.3560 -0.3225  0.0290
  272TMC3     H 4168   4.663   1.863  14.533 -1.1875 -0.8217  0.2906
  272TMC3    H1 4169   4.595   2.291  14.536 -0.6897  1.5278  1.5550
  272TMC3    H2 4170   4.717   2.085  14.896  0.3482 -1.6123 -0.4778
  272TMC3    C7 4171   4.654   2.329  14.783 -0.3450  0.4337 -0.5383
  272TMC3    C8 4172   4.705   1.852  14.793 -0.3689  0.4720 -0.3105
  272TMC3    O1 4173   4.583   2.415  14.730 -0.3206  0.3529  0.2849
  272TMC3    O2 4174   4.639   1.760  14.749  0.7937  0.6730 -0.4030
  273MPD2     C 4175   1.067   0.283  12.018  0.1421 -0.3861 -0.2865
  273MPD2    C1 4176   1.205   0.277  12.001  0.2698  0.6124 -0.5109
  273MPD2    C2 4177   1.263   0.299  11.878  0.0256  0.1799 -0.6357
  273MPD2    C3 4178   1.178   0.349  11.773  0.4222 -0.1699 -0.5699
  273MPD2    C4 4179   1.043   0.356  11.789  0.0678  0.8986 -0.0496
  273MPD2    C5 4180   0.984   0.313  11.911 -0.0914 -0.0140 -0.1321
  273MPD2     H 4181   1.369   0.302  11.861  0.0913  0.8362 -0.0987
  273MPD2    H1 4182   0.973   0.378  11.710 -0.1176  0.3111 -0.0451
  273MPD2    H2 4183   1.020   0.265  12.114  0.5696 -0.9991 -0.1932
  273MPD2    H3 4184   0.877   0.304  11.928  0.3987 -2.1636  1.9174
  273MPD2     N 4185   1.228   0.388  11.648  0.1412 -0.3235 -0.2465
  273MPD2    H5 4186   1.156   0.432  11.592  0.2526  0.1311 -0.0280
  273MPD2    N1 4187   1.278   0.236  12.115 -0.0368 -0.5778  0.3274
  273MPD2    H7 4188   1.215   0.201  12.187 -0.8149  1.0463  0.4447
  274TMC3    C1 4189   1.382   0.425  11.477 -0.1994  0.6246 -0.2165
  274TMC3    C2 4190   1.291   0.404  11.375 -0.2763  0.1741  0.5991
  274TMC3    C3 4191   1.316   0.445  11.245 -0.4382 -0.3843 -0.5416
  274TMC3    C4 4192   1.494   0.501  11.447 -0.4197 -0.3177 -0.1735
  274TMC3    C5 4193   1.513   0.544  11.323  0.6327  0.7143  0.3923
  274TMC3    C6 4194   1.426   0.528  11.217  0.2024 -0.6289 -0.3268
  274TMC3     C 4195   1.361   0.397  11.614 -0.3158 -0.0713  1.1920
  274TMC3     O 4196   1.461   0.377  11.679  0.3091 -0.5153 -0.3409
  274TMC3     H 4197   1.209   0.337  11.397  0.9212 -1.0601  1.3622
  274TMC3    H1 4198   1.565   0.518  11.527 -1.0457  0.9855  0.0903
  274TMC3    H2 4199   1.432   0.589  11.127  0.4788 -0.2751 -0.0691
  274TMC3    C7 4200   1.609   0.652  11.312 -0.5086  0.4435 -0.3579
  274TMC3    C8 4201   1.192   0.470  11.174  0.2728 -0.1143  0.2602
  274TMC3    O1 4202   1.649   0.676  11.201  0.0325 -0.0446  0.0881
  274TMC3    O2 4203   1.086   0.447  11.226  0.0735  0.0246  0.4912
  275MPD2     C 4204   1.216   3.511  14.549 -0.6840 -0.0487 -0.0492
  275MPD2    C1 4205   1.222   3.374  14.532 -0.4758  0.0697  0.3654
  275MPD2    C2 4206   1.109   3.295  14.554  0.2255 -0.9820  0.3378
  275MPD2    C3 4207   0.996   3.353  14.605 -0.4582 -0.1573 -0.3333
  275MPD2    C4 4208   0.986   3.496  14.612 -0.1518  0.5041  0.0335
  275MPD2    C5 4209   1.101   3.570  14.591 -0.2010 -1.2673  0.2285
  275MPD2     H 4210   1.116   3.188  14.542  3.0907 -0.5041 -2.2850
  275MPD2    H1 4211   0.897   3.535  14.659  0.1207  1.6003 -0.3452
  275MPD2    H2 4212   1.301   3.578  14.541 -0.5287 -0.3775 -1.0907
  275MPD2    H3 4213   1.104   3.678  14.600  1.7755 -1.2367 -0.7602
  275MPD2     N 4214   0.883   3.276  14.637  0.4292  0.0684 -0.2145
  275MPD2    H5 4215   0.800   3.328  14.665 -0.0385 -0.7193 -0.1328
  275MPD2    N1 4216   1.343   3.314  14.492 -0.8956  0.8342 -0.3835
  275MPD2    H7 4217   1.351   3.213  14.496 -4.9795  0.5599  0.2251
  276TMC3    C1 4218   1.588   3.333  14.482  0.2496  0.4607 -0.8421
  276TMC3    C2 4219   1.596   3.259  14.600 -0.8041  0.0406  0.0090
  276TMC3    C3 4220   1.722   3.251  14.654  0.9268  0.2025 -0.2750
  276TMC3    C4 4221   1.701   3.392  14.433  0.1011 -0.2524  0.2912
  276TMC3    C5 4222   1.828   3.380  14.490  0.2775  0.0306 -0.2897
  276TMC3    C6 4223   1.838   3.309  14.604 -0.2601 -0.1679  0.8702
  276TMC3     C 4224   1.456   3.389  14.453  0.3870 -0.1045 -0.2301
  276TMC3     O 4225   1.457   3.505  14.406  0.1159  0.2524 -0.2718
  276TMC3     H 4226   1.500   3.236  14.645 -1.3071  0.3305 -0.9188
  276TMC3    H1 4227   1.690   3.458  14.348 -0.2041 -1.8168 -0.8876
  276TMC3    H2 4228   1.937   3.283  14.641  0.8100  2.1724 -0.3175
  276TMC3    C7 4229   1.907   3.497  14.496  0.3555 -0.1511  0.0878
  276TMC3    C8 4230   1.724   3.196  14.783 -0.0559  0.2512 -0.2304
  276TMC3    O1 4231   1.937   3.531  14.609 -0.0300  0.3306  0.5765
  276TMC3    O2 4232   1.618   3.148  14.820 -0.2353  0.0181  0.1180
  277MPD2     C 4233   3.133   2.838  13.566 -0.1438 -0.1343  0.1080
  277MPD2    C1 4234   3.028   2.913  13.613  0.0097 -0.0304 -0.4759
  277MPD2    C2 4235   2.961   2.868  13.727  1.0484  0.0447 -0.1439
  277MPD2    C3 4236   2.995   2.756  13.795 -0.3205  0.1787 -0.5365
  277MPD2    C4 4237   3.102   2.684  13.745 -0.5085  0.2839  0.7977
  277MPD2    C5 4238   3.172   2.731  13.643  0.4038 -0.2764  0.0872
  277MPD2     H 4239   2.874   2.923  13.761  1.1120 -0.9877  1.6479
  277MPD2    H1 4240   3.148   2.604  13.800 -2.8201 -0.8417  1.1127
  277MPD2    H2 4241   3.183   2.873  13.476  1.1672  1.5325  1.4802
  277MPD2    H3 4242   3.264   2.678  13.617  1.5051  0.4408  2.5108
  277MPD2     N 4243   2.916   2.710  13.904  0.1219 -0.3220 -0.8682
  277MPD2    H5 4244   2.830   2.762  13.922  0.1735 -0.3971 -0.4134
  277MPD2    N1 4245   2.978   3.018  13.533 -0.3026 -0.1433 -0.3417
  277MPD2    H7 4246   3.011   3.024  13.437  0.8421 -3.0676 -0.1070
  278TMC3    C1 4247   2.829   2.567  14.065  0.4475 -0.4746 -0.0696
  278TMC3    C2 4248   2.849   2.456  14.145  0.5338  0.3050  0.3507
  278TMC3    C3 4249   2.745   2.370  14.145  0.8894 -0.8989  0.2184
  278TMC3    C4 4250   2.707   2.600  14.013 -0.2146  0.0416 -0.1895
  278TMC3    C5 4251   2.601   2.511  14.028 -0.5104 -0.1678 -0.5853
  278TMC3    C6 4252   2.622   2.394  14.095 -0.3312  0.2385 -0.0485
  278TMC3     C 4253   2.942   2.603  13.982  0.6728 -0.3217  0.7558
  278TMC3     O 4254   3.030   2.524  13.976  0.0960  0.0041  0.7756
  278TMC3     H 4255   2.946   2.420  14.176  0.6269  0.6598  0.4641
  278TMC3    H1 4256   2.684   2.677  13.941 -1.0298  0.9960  1.0746
  278TMC3    H2 4257   2.537   2.329  14.113  0.3541 -0.7627 -0.4386
  278TMC3    C7 4258   2.473   2.544  13.970 -0.5205  0.0238 -0.7832
  278TMC3    C8 4259   2.764   2.244  14.211 -0.5768  0.6566  0.1369
  278TMC3    O1 4260   2.484   2.602  13.865 -0.4893 -0.2497 -0.2069
  278TMC3    O2 4261   2.853   2.247  14.296 -0.4544  0.0722  0.2416
  279MPD2     C 4262   1.998   2.347   0.420 -0.6380  0.5115 -0.0678
  279MPD2    C1 4263   2.006   2.469   0.354 -0.1520 -0.3347  0.2324
  279MPD2    C2 4264   2.104   2.496   0.257 -0.2534  0.2924  0.0308
  279MPD2    C3 4265   2.185   2.389   0.208  0.2073 -0.1748 -0.7243
  279MPD2    C4 4266   2.163   2.262   0.269 -0.3607 -0.4182  0.4067
  279MPD2    C5 4267   2.074   2.241   0.373  0.9588  0.7438  0.4916
  279MPD2     H 4268   2.107   2.593   0.208  2.1473 -0.4604 -1.3474
  279MPD2    H1 4269   2.208   2.169   0.236  0.1117  0.3824 -1.1888
  279MPD2    H2 4270   1.923   2.332   0.497  0.6644  0.6446  1.2201
  279MPD2    H3 4271   2.064   2.138   0.406  2.3624  0.0840 -1.1275
  279MPD2     N 4272   2.287   2.410   0.111 -0.2982  0.0375  0.2703
  279MPD2    H5 4273   2.330   2.333   0.061  1.1304  1.5934 -0.8746
  279MPD2    N1 4274   1.894   2.550   0.382  0.1897  0.2332 -0.2322
  279MPD2    H7 4275   1.822   2.520   0.447  2.6764 -0.4008  2.1990
  280TMC3    C1 4276   1.758   2.738   0.321  0.2324 -0.1139 -0.0978
  280TMC3    C2 4277   1.646   2.674   0.363 -0.1594 -0.1324 -0.0102
  280TMC3    C3 4278   1.533   2.741   0.368 -0.1084 -0.1955 -0.0336
  280TMC3    C4 4279   1.750   2.861   0.261  0.1236  0.6043 -0.0645
  280TMC3    C5 4280   1.633   2.936   0.262  0.7746  0.0970 -0.2714
  280TMC3    C6 4281   1.524   2.873   0.330  0.3912 -0.4182 -0.2783
  280TMC3     C 4282   1.893   2.681   0.335  0.6561 -0.3661  0.1186
  280TMC3     O 4283   1.977   2.752   0.288  0.0402 -0.4663  0.6468
  280TMC3     H 4284   1.645   2.567   0.378 -0.5475 -0.3641 -1.7124
  280TMC3    H1 4285   1.839   2.902   0.215  1.7598 -2.2313  0.6020
  280TMC3    H2 4286   1.438   2.932   0.359  0.6468  1.4302 -3.3701
  280TMC3    C7 4287   1.608   3.031   0.162  0.4022  0.1226  0.4303
  280TMC3    C8 4288   1.447   2.686   0.469  0.2640 -0.6025 -0.0681
  280TMC3    O1 4289   1.703   3.098   0.121 -0.0145  0.0327  0.4678
  280TMC3    O2 4290   1.481   2.601   0.550  0.1706 -0.2585  0.0381
  281TMC3    C1 4291   1.206   1.828  13.245 -0.4837  0.4900 -0.1712
  281TMC3    C2 4292   1.152   1.849  13.121 -0.0834 -0.3179 -0.0640
  281TMC3    C3 4293   1.027   1.794  13.099  0.7148  0.7438 -0.6507
  281TMC3    C4 4294   1.141   1.768  13.353 -0.5009  0.4827  0.6328
  281TMC3    C5 4295   1.016   1.723  13.320 -0.1017 -0.3043  0.0779
  281TMC3    C6 4296   0.961   1.734  13.199  0.3240  0.5363 -0.5443
  281TMC3     C 4297   1.323   1.910  13.270  0.6898  0.1062 -0.1242
  281TMC3     O 4298   1.419   1.851  13.319 -0.7626  0.4128 -0.1436
  281TMC3     H 4299   1.206   1.906  13.046 -1.9375  0.8448 -0.4975
  281TMC3    H1 4300   1.190   1.732  13.443 -0.1012  1.2088  0.7124
  281TMC3    H2 4301   0.866   1.684  13.190  1.1408 -1.3805  1.2413
  281TMC3    C7 4302   0.962   1.625  13.401 -0.1903 -0.3062 -0.0980
  281TMC3    C8 4303   0.936   1.864  13.014  0.0453  1.0946  0.0353
  281TMC3    O1 4304   0.941   1.519  13.346 -0.4846  0.0751 -0.1723
  281TMC3    O2 4305   0.824   1.817  13.007 -0.6718  0.3740 -0.4044
  282MPD2     C 4306   2.604   3.846  14.912 -0.1657  0.1888  0.6048
  282MPD2    C1 4307   2.573   3.982  14.923 -0.2532 -0.5164 -0.2121
  282MPD2    C2 4308   2.578   4.065  14.813 -0.4502  0.3381  0.4173
  282MPD2    C3 4309   2.613   4.011  14.691 -0.6953 -0.0840  0.7626
  282MPD2    C4 4310   2.653   3.877  14.682 -0.1825  0.4726 -0.2565
  282MPD2    C5 4311   2.649   3.797  14.793  0.4334 -0.1437  0.2806
  282MPD2     H 4312   2.551   4.169  14.827  1.3844  0.9983 -0.9668
  282MPD2    H1 4313   2.677   3.835  14.585 -0.7329 -0.6722  0.1019
  282MPD2    H2 4314   2.585   3.774  14.990 -2.4096  0.2742  0.1443
  282MPD2    H3 4315   2.662   3.690  14.781 -1.2615 -0.5569  2.0112
  282MPD2     N 4316   2.604   4.091  14.573  0.4056 -0.4615  0.0587
  282MPD2    H5 4317   2.591   4.192  14.568  1.3310 -0.2826  1.6083
  282MPD2    N1 4318   2.530   4.041  15.050 -0.5874 -0.0305 -0.2371
  282MPD2    H7 4319   2.514   3.979  15.128 -0.4618  1.8804  1.3077
  283TMC3    C1 4320   2.478   4.194  15.222  0.0765  0.4777  0.9038
  283TMC3    C2 4321   2.555   4.284  15.296  0.4211 -0.0800  0.2036
  283TMC3    C3 4322   2.538   4.272  15.431  0.2133 -0.0360 -0.1823
  283TMC3    C4 4323   2.404   4.090  15.276  0.2300 -0.2508  0.5634
  283TMC3    C5 4324   2.394   4.091  15.414  0.6949 -0.3235 -0.6258
  283TMC3    C6 4325   2.450   4.188  15.493 -0.3066 -0.3764 -0.6161
  283TMC3     C 4326   2.512   4.177  15.080  0.6691  0.3936 -0.0939
  283TMC3     O 4327   2.547   4.282  15.025 -0.5519  0.0252  0.4667
  283TMC3     H 4328   2.629   4.345  15.247 -2.4046  1.1115 -2.5585
  283TMC3    H1 4329   2.336   4.035  15.213 -1.7764  1.8688  0.8536
  283TMC3    H2 4330   2.442   4.191  15.601  0.8329 -1.2039 -0.5037
  283TMC3    C7 4331   2.329   3.978  15.489 -0.9766  0.0629 -0.1795
  283TMC3    C8 4332   2.646   4.319  15.520  0.3270  0.0557 -0.7855
  283TMC3    O1 4333   2.309   3.994  15.607  0.0240 -0.1370 -0.4779
  283TMC3    O2 4334   2.661   4.262  15.626 -0.1745 -0.2592  0.0405
  284MPD2     C 4335   1.455   2.757  11.923 -0.3463 -0.3578  0.0278
  284MPD2    C1 4336   1.447   2.783  11.788  0.4366 -0.4857  0.1818
  284MPD2    C2 4337   1.377   2.697  11.714 -0.3963 -0.1988 -0.3208
  284MPD2    C3 4338   1.323   2.578  11.762  1.1265  0.6964 -0.2580
  284MPD2    C4 4339   1.345   2.543  11.890 -0.3846  0.4170 -0.1293
  284MPD2    C5 4340   1.407   2.635  11.965  0.6952  0.3645  0.3978
  284MPD2     H 4341   1.384   2.717  11.607 -1.7976  1.9506  0.0016
  284MPD2    H1 4342   1.304   2.455  11.938  0.3023 -0.9323 -2.0470
  284MPD2    H2 4343   1.505   2.817  11.998  2.1135 -0.5681 -1.4362
  284MPD2    H3 4344   1.415   2.612  12.071  0.5095  0.7791  0.5040
  284MPD2     N 4345   1.253   2.488  11.681  0.0122 -0.3323 -0.2517
  284MPD2    H5 4346   1.224   2.397  11.715 -1.3179  0.3337  0.3923
  284MPD2    N1 4347   1.498   2.907  11.732  0.0137 -0.2631 -0.5325
  284MPD2    H7 4348   1.472   2.926  11.635  0.5125  2.0774 -0.2203
  285TMC3    C1 4349   1.603   3.116  11.704 -0.3605 -0.0053 -0.7681
  285TMC3    C2 4350   1.632   3.083  11.575 -0.0172 -0.0956  0.3754
  285TMC3    C3 4351   1.622   3.182  11.478 -0.3915 -0.1800  0.1771
  285TMC3    C4 4352   1.563   3.241  11.744 -0.0786 -0.0301 -0.2920
  285TMC3    C5 4353   1.540   3.337  11.644  0.2183 -0.1451  0.3818
  285TMC3    C6 4354   1.583   3.307  11.516 -0.7357  0.1606  1.1836
  285TMC3     C 4355   1.566   3.009  11.798  0.5174  0.4932 -0.4114
  285TMC3     O 4356   1.584   3.024  11.916  0.3229 -0.3831  0.0628
  285TMC3     H 4357   1.666   2.982  11.554 -0.2619 -0.3781  1.3147
  285TMC3    H1 4358   1.559   3.277  11.846 -0.6525 -2.5172  0.5747
  285TMC3    H2 4359   1.544   3.377  11.442  0.7232 -0.1964  0.0657
  285TMC3    C7 4360   1.475   3.463  11.670  0.7076  0.6312  0.0110
  285TMC3    C8 4361   1.609   3.131  11.341  0.9629 -0.2572 -0.0194
  285TMC3    O1 4362   1.511   3.560  11.607  0.1724  0.4609  0.2150
  285TMC3    O2 4363   1.625   3.010  11.333 -0.1384  0.3460 -0.2269
  286MPD2     C 4364   1.708   2.708   1.913  0.4176 -0.0786 -0.0999
  286MPD2    C1 4365   1.678   2.619   1.811  0.4815  0.3095  0.0040
  286MPD2    C2 4366   1.747   2.500   1.793  0.2338 -0.7783  0.3072
  286MPD2    C3 4367   1.842   2.473   1.892 -0.0363 -0.3858 -0.2494
  286MPD2    C4 4368   1.875   2.560   1.999  0.0600  0.7217  0.0600
  286MPD2    C5 4369   1.806   2.680   2.004  0.5413  1.0255 -0.3603
  286MPD2     H 4370   1.713   2.431   1.718  1.2522  2.5959 -3.2677
  286MPD2    H1 4371   1.951   2.538   2.073  1.1098  1.8345 -0.6658
  286MPD2    H2 4372   1.658   2.803   1.927 -0.2460 -0.3432 -0.6531
  286MPD2    H3 4373   1.823   2.758   2.078 -2.8093  0.3746  1.0943
  286MPD2     N 4374   1.923   2.355   1.889 -0.2895 -0.1695  0.0927
  286MPD2    H5 4375   1.993   2.331   1.958 -1.0871 -0.8391  0.6685
  286MPD2    N1 4376   1.577   2.656   1.718  0.0516  0.0671  0.4229
  286MPD2    H7 4377   1.567   2.606   1.630  2.5250  0.3406 -0.0036
  287TMC3    C1 4378   1.994   2.136   1.827 -0.0984  0.3663  0.2426
  287TMC3    C2 4379   1.962   2.019   1.764 -0.0938 -0.0569 -0.3934
  287TMC3    C3 4380   2.067   1.940   1.739 -0.0713  0.3638  0.1192
  287TMC3    C4 4381   2.116   2.161   1.882  0.6274  0.4403  0.0007
  287TMC3    C5 4382   2.211   2.070   1.865  0.1243 -0.2238  0.6203
  287TMC3    C6 4383   2.193   1.969   1.779 -0.2818 -0.0929  0.0228
  287TMC3     C 4384   1.899   2.248   1.802 -0.1124 -0.1727  0.4205
  287TMC3     O 4385   1.804   2.225   1.729 -0.0868 -0.2069 -0.2856
  287TMC3     H 4386   1.867   2.013   1.711 -0.4903  1.0525  0.1963
  287TMC3    H1 4387   2.145   2.246   1.942 -0.1238  0.7486 -0.0783
  287TMC3    H2 4388   2.264   1.889   1.760  1.1031  1.6040 -1.9533
  287TMC3    C7 4389   2.354   2.105   1.903 -0.4914  0.1503 -0.8177
  287TMC3    C8 4390   2.037   1.833   1.651  0.6689 -0.4510  0.7667
  287TMC3    O1 4391   2.375   2.224   1.920  0.1405 -0.4947 -0.1736
  287TMC3    O2 4392   1.920   1.795   1.638  0.4034 -0.1003 -0.4747
  288TMC3    C1 4393   3.263   1.918  14.414 -0.3022  0.4430 -0.5600
  288TMC3    C2 4394   3.175   1.888  14.513  0.9381  0.5156  0.5583
  288TMC3    C3 4395   3.086   1.985  14.550 -0.0944 -0.3511 -0.0766
  288TMC3    C4 4396   3.270   2.047  14.362  0.5317  0.6671  0.4690
  288TMC3    C5 4397   3.179   2.136  14.413  0.2061 -0.1896 -0.5715
  288TMC3    C6 4398   3.081   2.113  14.506  0.9115  0.6272  0.1038
  288TMC3     C 4399   3.378   1.827  14.388 -0.8146  0.0190 -0.3832
  288TMC3     O 4400   3.366   1.718  14.435 -0.6323  0.2692  0.0897
  288TMC3     H 4401   3.174   1.787  14.553  1.6320 -0.3910 -1.6925
  288TMC3    H1 4402   3.340   2.083  14.288  0.0070  0.7539  0.0208
  288TMC3    H2 4403   3.011   2.187  14.544  1.6518  1.3077  0.1574
  288TMC3    C7 4404   3.193   2.282  14.391  0.2978 -0.6367  0.6730
  288TMC3    C8 4405   3.013   1.972  14.682  0.7515 -0.2894  0.1219
  288TMC3    O1 4406   3.138   2.352  14.476 -0.3147 -0.3390 -0.5882
  288TMC3    O2 4407   2.980   2.072  14.739 -0.9185  0.1049 -0.3392
  289MPD2     C 4408   3.411   1.116  14.339 -0.0491  0.4218  0.3530
  289MPD2    C1 4409   3.357   1.241  14.317 -0.1745  0.1114  0.3834
  289MPD2    C2 4410   3.222   1.255  14.329 -0.5371  0.2504  0.3417
  289MPD2    C3 4411   3.134   1.143  14.333  0.0109 -0.3008  0.0544
  289MPD2    C4 4412   3.190   1.018  14.355 -0.7281  0.0543 -0.0425
  289MPD2    C5 4413   3.331   1.002  14.360 -0.1593  0.0160  0.0079
  289MPD2     H 4414   3.181   1.355  14.326  2.5642  1.5420  0.5440
  289MPD2    H1 4415   3.132   0.928  14.372 -0.0406 -0.5870 -1.0619
  289MPD2    H2 4416   3.518   1.104  14.330 -0.2827 -0.1470 -1.8736
  289MPD2    H3 4417   3.380   0.907  14.379  0.0402  0.3720  1.2816
  289MPD2     N 4418   2.993   1.153  14.321  0.1544 -0.1610 -0.6488
  289MPD2    H5 4419   2.942   1.070  14.296  1.0648 -0.8424 -0.2506
  289MPD2    N1 4420   3.433   1.343  14.262  0.1427  0.0354  0.3841
  289MPD2    H7 4421   3.534   1.340  14.264  0.1186 -2.0315 -1.4214
  290TMC3    C1 4422   2.786   1.261  14.284  0.1436 -0.1301 -0.2318
  290TMC3    C2 4423   2.722   1.381  14.278 -0.8255 -0.3686 -0.2998
  290TMC3    C3 4424   2.589   1.374  14.240  0.4358  0.1958 -1.0060
  290TMC3    C4 4425   2.721   1.141  14.283 -0.1847 -0.2805 -0.2306
  290TMC3    C5 4426   2.587   1.135  14.251 -0.1548  0.2621 -0.4905
  290TMC3    C6 4427   2.517   1.252  14.229 -0.0291 -0.0896 -0.1346
  290TMC3     C 4428   2.925   1.273  14.321  0.2968 -0.5916 -0.0077
  290TMC3     O 4429   2.965   1.385  14.357 -0.4067 -0.3872  0.2535
  290TMC3     H 4430   2.762   1.482  14.272 -1.4006 -0.0477  1.3577
  290TMC3    H1 4431   2.768   1.043  14.291  0.2034  0.0088  0.9781
  290TMC3    H2 4432   2.410   1.252  14.213  0.0196 -1.5366 -0.4498
  290TMC3    C7 4433   2.526   1.015  14.217  0.0650 -0.0300 -0.4664
  290TMC3    C8 4434   2.517   1.498  14.233 -0.0694 -0.4127 -0.0925
  290TMC3    O1 4435   2.441   1.016  14.130  0.4709 -0.6878 -0.1964
  290TMC3    O2 4436   2.430   1.508  14.150  0.0619  0.1195  0.3571
  291MPD2     C 4437   2.509   1.038   0.743  0.0230  0.3610 -0.3329
  291MPD2    C1 4438   2.638   1.026   0.684  0.1592  0.4300  0.3083
  291MPD2    C2 4439   2.699   1.147   0.634  0.2605 -0.5682  0.3310
  291MPD2    C3 4440   2.633   1.271   0.641 -0.6083 -0.0089 -0.2465
  291MPD2    C4 4441   2.511   1.276   0.708 -0.1320 -0.5007 -0.3229
  291MPD2    C5 4442   2.460   1.159   0.762  0.4691  0.0251  0.1311
  291MPD2     H 4443   2.791   1.142   0.577 -1.0552 -3.1975 -1.6076
  291MPD2    H1 4444   2.452   1.364   0.732  0.4217 -0.2687  0.1839
  291MPD2    H2 4445   2.445   0.957   0.773 -0.3244  0.3792 -1.0223
  291MPD2    H3 4446   2.362   1.172   0.806  0.1606 -1.3726 -0.1334
  291MPD2     N 4447   2.686   1.394   0.607 -0.1619 -0.2939 -0.6734
  291MPD2    H5 4448   2.623   1.473   0.612 -2.0360 -1.7986 -0.3867
  291MPD2    N1 4449   2.704   0.901   0.671 -0.5018 -0.2059  0.2403
  291MPD2    H7 4450   2.797   0.900   0.630  0.2983 -1.8034  2.0911
  292TMC3    C1 4451   2.741   0.668   0.666  0.2685  0.4549  0.2014
  292TMC3    C2 4452   2.861   0.696   0.725  0.2114 -0.2249  1.0127
  292TMC3    C3 4453   2.961   0.611   0.689 -0.3661 -0.6591  0.4508
  292TMC3    C4 4454   2.697   0.549   0.629 -0.1876  0.7458  0.4209
  292TMC3    C5 4455   2.804   0.457   0.606  0.0670  0.2729  0.1145
  292TMC3    C6 4456   2.930   0.493   0.631  0.1053  0.7316  0.2375
  292TMC3     C 4457   2.643   0.774   0.693 -0.5468  0.6051 -0.3542
  292TMC3     O 4458   2.527   0.747   0.723 -0.0074  0.0315  0.5520
  292TMC3     H 4459   2.892   0.788   0.775  3.1002  0.9920 -2.9877
  292TMC3    H1 4460   2.604   0.550   0.574  0.1509  2.3145 -0.1003
  292TMC3    H2 4461   3.002   0.417   0.603 -0.5531  0.2361 -0.1368
  292TMC3    C7 4462   2.779   0.328   0.559 -0.2829 -0.1680  0.2502
  292TMC3    C8 4463   3.104   0.639   0.732 -0.4557  0.1119  0.2852
  292TMC3    O1 4464   2.868   0.267   0.500 -0.3748 -0.2365  0.4643
  292TMC3    O2 4465   3.199   0.585   0.677 -0.2996  0.0873  0.5621
  293MPD2     C 4466   4.096   2.180  12.450  0.4677  0.4989  0.0197
  293MPD2    C1 4467   4.008   2.267  12.514  0.1006  0.3675 -0.1619
  293MPD2    C2 4468   4.038   2.299  12.643  0.4386  0.1694  0.2815
  293MPD2    C3 4469   4.140   2.230  12.710 -0.4830  0.1451 -0.4402
  293MPD2    C4 4470   4.225   2.147  12.641  0.5316 -0.2987  0.2222
  293MPD2    C5 4471   4.197   2.127  12.515  0.2190 -0.2077  0.7830
  293MPD2     H 4472   3.974   2.368  12.697  2.2459  0.9551  1.4298
  293MPD2    H1 4473   4.303   2.094  12.694 -0.6571  1.6889  3.9656
  293MPD2    H2 4474   4.085   2.152  12.345 -0.1337 -1.6579  0.6608
  293MPD2    H3 4475   4.272   2.066  12.466 -0.9052 -1.5407  0.7262
  293MPD2     N 4476   4.138   2.250  12.854  0.5648  0.3431  0.1314
  293MPD2    H5 4477   4.059   2.305  12.887 -0.0271  1.0925 -2.5378
  293MPD2    N1 4478   3.909   2.331  12.433 -0.4207 -0.3498  0.6048
  293MPD2    H7 4479   3.903   2.296  12.338  1.4457 -2.5809  1.2903
  294TMC3    C1 4480   3.728   2.466  12.357  0.1644  0.0847 -0.0356
  294TMC3    C2 4481   3.601   2.470  12.396  0.0062 -0.2400 -0.9531
  294TMC3    C3 4482   3.499   2.460  12.306 -1.3417  0.0164 -0.5051
  294TMC3    C4 4483   3.762   2.470  12.228 -0.4345 -0.0403  0.0253
  294TMC3    C5 4484   3.658   2.455  12.135 -0.2472  0.9039 -0.5943
  294TMC3    C6 4485   3.528   2.447  12.171  0.4605 -0.2149  0.1219
  294TMC3     C 4486   3.824   2.434  12.464  0.1931  0.4590  0.0808
  294TMC3     O 4487   3.812   2.482  12.577  0.2340 -0.1387 -1.1809
  294TMC3     H 4488   3.567   2.485  12.498 -0.3294 -1.1793 -0.9206
  294TMC3    H1 4489   3.864   2.478  12.191 -0.0144 -0.0695  1.1853
  294TMC3    H2 4490   3.443   2.441  12.105 -0.3133 -0.1254  1.0949
  294TMC3    C7 4491   3.700   2.447  11.998 -0.2108 -0.8693 -0.3884
  294TMC3    C8 4492   3.366   2.417  12.360 -0.2826  0.4115  0.5956
  294TMC3    O1 4493   3.813   2.493  11.979  0.0147 -0.3366  0.3500
  294TMC3    O2 4494   3.311   2.477  12.452 -0.3017  0.4756  0.2391
  295MPD2     C 4495   0.909   1.272   1.156  0.2706  0.1724  0.2457
  295MPD2    C1 4496   0.780   1.271   1.108  0.4682  0.3523  0.5956
  295MPD2    C2 4497   0.674   1.271   1.197  0.5008 -0.6452 -0.5985
  295MPD2    C3 4498   0.702   1.265   1.331  0.1312 -0.3398  0.3705
  295MPD2    C4 4499   0.830   1.271   1.378  0.3389 -0.0935 -0.0634
  295MPD2    C5 4500   0.930   1.271   1.289  0.8838 -0.3826 -0.2027
  295MPD2     H 4501   0.573   1.272   1.157 -0.0962 -0.2597  0.9075
  295MPD2    H1 4502   0.849   1.276   1.485 -0.2631 -1.2015  0.0904
  295MPD2    H2 4503   1.001   1.286   1.099  0.8390 -3.4088  0.2308
  295MPD2    H3 4504   1.029   1.269   1.331  1.0826  1.3210 -0.5887
  295MPD2     N 4505   0.610   1.263   1.436 -0.2963  0.1958 -0.2654
  295MPD2    H5 4506   0.649   1.262   1.530 -1.4407 -1.0713  0.1994
  295MPD2    N1 4507   0.762   1.277   0.963  0.5896  0.1574 -0.0872
  295MPD2    H7 4508   0.666   1.272   0.931  1.4380 -0.3075 -2.5519
  296TMC3    C1 4509   0.395   1.202   1.530 -0.0099  0.2532 -0.4166
  296TMC3    C2 4510   0.262   1.244   1.532 -0.1337 -0.2140 -0.1333
  296TMC3    C3 4511   0.189   1.210   1.643 -0.7494  0.6413 -0.2162
  296TMC3    C4 4512   0.457   1.145   1.638 -0.0935  0.2313 -0.4219
  296TMC3    C5 4513   0.381   1.135   1.748 -0.0568 -0.7937  0.2030
  296TMC3    C6 4514   0.247   1.161   1.752 -0.3826 -0.2462 -0.3020
  296TMC3     C 4515   0.476   1.244   1.412  0.4538 -0.0915 -0.5220
  296TMC3     O 4516   0.413   1.253   1.309 -0.1671  0.2975 -0.0955
  296TMC3     H 4517   0.227   1.307   1.451  1.9991  1.3576  0.2015
  296TMC3    H1 4518   0.561   1.119   1.654 -0.0353  0.1880 -0.8551
  296TMC3    H2 4519   0.189   1.152   1.843 -0.7884 -2.9592 -0.8421
  296TMC3    C7 4520   0.411   1.051   1.858 -0.1216 -0.7526  0.0499
  296TMC3    C8 4521   0.064   1.276   1.667  0.5275  0.6714  0.4729
  296TMC3    O1 4522   0.361   1.075   1.970  0.3402  0.0013 -0.6877
  296TMC3    O2 4523   0.023   1.307   1.776  0.3458 -0.1231 -0.3453
  297MPD2     C 4524   1.784   2.708  16.325  0.2630  0.1746 -0.8488
  297MPD2    C1 4525   1.817   2.777  16.205  0.7526 -0.1644 -0.0836
  297MPD2    C2 4526   1.946   2.823  16.183  0.4784 -0.1248  0.4758
  297MPD2    C3 4527   2.038   2.820  16.290  0.2546 -0.0479  0.0219
  297MPD2    C4 4528   1.995   2.763  16.408  0.0775 -0.2527  0.6539
  297MPD2    C5 4529   1.874   2.703  16.426  0.2162  0.0157 -0.4837
  297MPD2     H 4530   1.972   2.886  16.098  3.1723 -1.3457  0.4063
  297MPD2    H1 4531   2.076   2.745  16.478 -1.9256 -1.3336  2.7037
  297MPD2    H2 4532   1.682   2.685  16.353  0.7343  0.6747  1.2853
  297MPD2    H3 4533   1.841   2.661  16.520  1.0114 -0.8310 -0.5888
  297MPD2     N 4534   2.165   2.868  16.293  0.2357 -0.4130  0.0955
  297MPD2    H5 4535   2.225   2.860  16.374 -0.4852 -0.9347  0.5778
  297MPD2    N1 4536   1.721   2.795  16.105 -0.0976  0.4007 -0.6766
  297MPD2    H7 4537   1.745   2.847  16.022 -0.5945 -1.7254 -2.1478
  298TMC3    C1 4538   1.512   2.813  16.002 -0.2692  0.8169 -0.0420
  298TMC3    C2 4539   1.578   2.859  15.892  0.2747 -0.0212  0.1953
  298TMC3    C3 4540   1.518   2.956  15.820  0.2083  0.8742  0.4846
  298TMC3    C4 4541   1.389   2.855  16.030  0.0138  0.5169 -0.0108
  298TMC3    C5 4542   1.332   2.949  15.955 -0.3790  0.6197 -0.6008
  298TMC3    C6 4543   1.397   3.006  15.852 -0.0444 -0.5149  0.3177
  298TMC3     C 4544   1.587   2.759  16.111  0.9406 -0.2992  0.1544
  298TMC3     O 4545   1.530   2.704  16.203  0.5437 -0.1603 -0.0837
  298TMC3     H 4546   1.670   2.810  15.860  0.3019  0.7667 -0.9582
  298TMC3    H1 4547   1.353   2.831  16.130 -1.4028  1.2274 -0.3559
  298TMC3    H2 4548   1.355   3.091  15.799 -0.4475 -0.3704  0.8713
  298TMC3    C7 4549   1.219   3.020  16.012  0.3656  0.1316 -0.5894
  298TMC3    C8 4550   1.591   3.005  15.707  0.5396 -0.6644  0.0587
  298TMC3    O1 4551   1.163   2.964  16.101 -0.6415 -0.5175 -0.1673
  298TMC3    O2 4552   1.707   2.969  15.693  0.4186  0.2809  0.2208
  299MPD2     C 4553   2.252   2.568  10.597  0.3615 -0.4499 -0.4246
  299MPD2    C1 4554   2.289   2.592  10.468  0.0975  0.6773  0.7679
  299MPD2    C2 4555   2.220   2.538  10.365 -0.1028 -0.5854 -0.7937
  299MPD2    C3 4556   2.118   2.447  10.391  0.2272 -0.2425 -0.1987
  299MPD2    C4 4557   2.077   2.427  10.517  0.3039 -0.0551  0.9459
  299MPD2    C5 4558   2.147   2.486  10.622 -0.3026 -0.3825  0.8379
  299MPD2     H 4559   2.252   2.556  10.263 -0.3111  2.4459 -0.3217
  299MPD2    H1 4560   1.991   2.365  10.542  0.3554  0.9188  3.6077
  299MPD2    H2 4561   2.311   2.605  10.680  0.8525 -2.6196  0.1860
  299MPD2    H3 4562   2.116   2.463  10.723 -0.7197 -0.4818  0.6902
  299MPD2     N 4563   2.047   2.384  10.290  0.2047  0.2959 -0.3810
  299MPD2    H5 4564   1.959   2.343  10.318  1.1183 -2.8534 -2.2452
  299MPD2    N1 4565   2.409   2.675  10.456 -0.0309 -0.0265 -0.3535
  299MPD2    H7 4566   2.455   2.691  10.544 -0.1924  0.2184 -0.3134
  300TMC3    C1 4567   1.986   2.324  10.078 -0.7653  0.4867  0.1551
  300TMC3    C2 4568   2.004   2.360   9.946  0.2227  0.3371 -0.4378
  300TMC3    C3 4569   1.898   2.349   9.861  0.9499 -0.3993  0.1737
  300TMC3    C4 4570   1.871   2.264  10.116  0.0396 -0.0679  0.8095
  300TMC3    C5 4571   1.777   2.243  10.016 -0.3546  0.1380 -0.1077
  300TMC3    C6 4572   1.789   2.275   9.891  0.1851  0.3355  0.1370
  300TMC3     C 4573   2.093   2.372  10.162 -0.0619 -0.2356 -0.6652
  300TMC3     O 4574   2.196   2.400  10.106 -0.9300 -0.1295  0.1330
  300TMC3     H 4575   2.100   2.401   9.915  0.4976 -1.2660 -1.7140
  300TMC3    H1 4576   1.848   2.236  10.218  2.1583 -2.0433  0.7440
  300TMC3    H2 4577   1.713   2.256   9.816  0.4939  0.9693 -0.3381
  300TMC3    C7 4578   1.639   2.218  10.053 -0.0133 -0.2851  0.0271
  300TMC3    C8 4579   1.899   2.451   9.756  0.0001 -0.5057 -0.0969
  300TMC3    O1 4580   1.569   2.173   9.963 -0.3471  0.1910 -0.2131
  300TMC3    O2 4581   1.821   2.440   9.660  0.6629 -0.3173 -0.2865
  301MPD2     C 4582   0.179   3.775   0.880 -0.0762  0.1779 -0.0028
  301MPD2    C1 4583   0.039   3.769   0.889  0.8413  0.0284 -0.6275
  301MPD2    C2 4584   4.716   3.675   0.976  0.3904 -0.6844 -0.3281
  301MPD2    C3 4585   0.062   3.602   1.061  0.2074  0.5212  0.1007
  301MPD2    C4 4586   0.197   3.620   1.065 -0.0542  0.9829 -0.0855
  301MPD2    C5 4587   0.253   3.701   0.970  0.2206 -1.1087  0.0378
  301MPD2     H 4588   4.608   3.666   0.981  0.5844 -2.8056 -0.2220
  301MPD2    H1 4589   0.256   3.587   1.150  0.0530  0.0846 -0.5015
  301MPD2    H2 4590   0.230   3.845   0.815  2.1079 -2.1755 -0.8273
  301MPD2    H3 4591   0.358   3.726   0.973 -0.3989  1.7061 -1.5335
  301MPD2     N 4592   0.014   3.526   1.170 -0.0601  0.1410 -0.2242
  301MPD2    H5 4593   0.083   3.485   1.232  0.6556  1.9362  0.1755
  301MPD2    N1 4594   4.685   3.847   0.805  0.3428  0.5249  0.1151
  301MPD2    H7 4595   4.585   3.829   0.812  0.3036  0.1220 -1.3204
  302TMC3    C1 4596   4.602   3.403   1.299 -0.5361  0.3589 -0.0150
  302TMC3    C2 4597   4.703   3.313   1.329 -0.4038  0.4325 -0.3898
  302TMC3    C3 4598   4.669   3.214   1.427  0.4920  0.1248 -0.7566
  302TMC3    C4 4599   4.473   3.385   1.341 -0.2438  0.1367  0.1387
  302TMC3    C5 4600   4.449   3.295   1.437 -0.2777  0.0625  0.0553
  302TMC3    C6 4601   4.543   3.211   1.488 -0.3853 -0.4021 -0.5024
  302TMC3     C 4602   4.619   3.487   1.187 -0.1682 -0.1576 -0.6283
  302TMC3     O 4603   4.522   3.503   1.116  0.2010 -0.0254 -0.6250
  302TMC3     H 4604   0.061   3.302   1.269  0.3706  1.0806  0.6668
  302TMC3    H1 4605   4.406   3.468   1.320  1.7514  1.2650 -1.8830
  302TMC3    H2 4606   4.500   3.143   1.561 -0.3785 -1.0164 -1.0768
  302TMC3    C7 4607   4.321   3.315   1.503 -0.4072 -0.1362  0.1806
  302TMC3    C8 4608   0.043   3.135   1.490  0.5576  0.5922  0.2378
  302TMC3    O1 4609   4.307   3.276   1.619 -0.8593  0.5601 -0.1841
  302TMC3    O2 4610   0.152   3.137   1.433  0.1800  0.0170 -0.4286
  303MPD2     C 4611   4.137   1.666  11.202  0.1465  0.2505  0.1482
  303MPD2    C1 4612   4.153   1.622  11.072 -0.5848 -0.1851  0.1051
  303MPD2    C2 4613   4.232   1.690  10.978 -0.7031 -0.4760  0.1551
  303MPD2    C3 4614   4.302   1.805  11.025 -0.2186  0.4437 -0.2054
  303MPD2    C4 4615   4.287   1.840  11.158 -0.6820 -0.3085  0.0606
  303MPD2    C5 4616   4.198   1.779  11.240  0.4642 -0.9851 -0.2196
  303MPD2     H 4617   4.233   1.656  10.875 -1.9468  1.4248 -0.4721
  303MPD2    H1 4618   4.334   1.928  11.200  0.7221 -1.1574  0.2410
  303MPD2    H2 4619   4.078   1.615  11.278  1.6126 -2.1254 -0.3018
  303MPD2    H3 4620   4.186   1.836  11.332 -0.9570  0.9981 -1.6236
  303MPD2     N 4621   4.375   1.889  10.935  0.5862 -0.8240 -0.0190
  303MPD2    H5 4622   4.415   1.973  10.975 -1.7419  0.9083 -1.3389
  303MPD2    N1 4623   4.075   1.513  11.029  0.7821 -0.1523  0.5968
  303MPD2    H7 4624   3.997   1.484  11.088  1.3177 -0.4407  1.1621
  304TMC3    C1 4625   4.002   1.329  10.896  0.1626 -0.8219  0.7370
  304TMC3    C2 4626   3.873   1.379  10.894  0.2788 -0.2557  0.0805
  304TMC3    C3 4627   3.774   1.307  10.836 -0.8754 -0.4660  0.0726
  304TMC3    C4 4628   4.033   1.211  10.835 -0.2240 -0.1851  0.5293
  304TMC3    C5 4629   3.937   1.141  10.772 -0.4929  0.4328  0.2186
  304TMC3    C6 4630   3.809   1.189  10.775 -0.2428 -0.0903  0.0657
  304TMC3     C 4631   4.108   1.428  10.922 -0.5359  0.9481  0.6581
  304TMC3     O 4632   4.213   1.411  10.859  0.3727 -0.3632 -0.1231
  304TMC3     H 4633   3.856   1.475  10.941  1.3107 -0.3754  0.6934
  304TMC3    H1 4634   4.138   1.187  10.826 -0.6610 -1.6332 -0.6820
  304TMC3    H2 4635   3.732   1.123  10.737 -1.0339 -0.6749  2.7257
  304TMC3    C7 4636   3.971   1.083  10.649 -0.1097  0.3885 -0.2145
  304TMC3    C8 4637   3.672   1.375  10.747  0.1011 -0.2350  0.4038
  304TMC3    O1 4638   4.074   1.019  10.631  0.0288 -0.2916 -0.9165
  304TMC3    O2 4639   3.643   1.313  10.648 -0.4587 -0.3562 -0.1685
  305MPD2     C 4640   3.456   4.472  14.046  0.1337  0.0297  0.5111
  305MPD2    C1 4641   3.381   4.389  14.133  0.8628  0.0040 -0.0540
  305MPD2    C2 4642   3.331   4.270  14.086  0.3051 -0.9499  0.2320
  305MPD2    C3 4643   3.352   4.235  13.955  0.1340  0.6958  0.3305
  305MPD2    C4 4644   3.422   4.320  13.875  0.3228  0.4478 -0.5382
  305MPD2    C5 4645   3.476   4.440  13.916  0.5275 -0.3076 -0.0522
  305MPD2     H 4646   3.275   4.210  14.158  0.0964 -0.0399  0.8337
  305MPD2    H1 4647   3.437   4.304  13.769  0.4038  0.0725 -0.4734
  305MPD2    H2 4648   3.507   4.562  14.078  1.1987 -0.2068 -0.5364
  305MPD2    H3 4649   3.528   4.512  13.853  1.2434  0.6757  1.6826
  305MPD2     N 4650   3.316   4.117  13.892 -0.9820  0.4340 -0.2137
  305MPD2    H5 4651   3.339   4.117  13.793  0.1462 -1.0913  0.0645
  305MPD2    N1 4652   3.367   4.445  14.265 -0.1888 -0.0482 -0.1720
  305MPD2    H7 4653   3.403   4.540  14.277  1.3895 -0.9091  2.0038
  306TMC3    C1 4654   3.305   4.447  14.501  0.5237  0.2378  0.2267
  306TMC3    C2 4655   3.207   4.395  14.588 -0.2646  0.2740 -0.2853
  306TMC3    C3 4656   3.203   4.451  14.713  0.2788  0.0142 -0.4011
  306TMC3    C4 4657   3.392   4.544  14.533 -0.2184  0.1262 -0.0443
  306TMC3    C5 4658   3.369   4.598  14.660 -0.6603  0.1123 -0.3042
  306TMC3    C6 4659   3.273   4.561  14.750 -0.6508 -0.0249 -0.6239
  306TMC3     C 4660   3.293   4.389  14.365  0.2346  0.1377 -0.2142
  306TMC3     O 4661   3.214   4.292  14.353 -0.1447 -0.3095  0.0682
  306TMC3     H 4662   3.137   4.318  14.557 -0.0913 -0.9234  2.3388
  306TMC3    H1 4663   3.475   4.572  14.468 -0.6185  1.8277  0.1700
  306TMC3    H2 4664   3.236   4.625  14.829 -2.0687 -1.3406 -0.2221
  306TMC3    C7 4665   3.480   4.667  14.714 -0.2284 -0.5311 -0.2920
  306TMC3    C8 4666   3.160   4.369  14.827  0.0173  0.1579 -0.1762
  306TMC3    O1 4667   3.580   4.683  14.645 -0.5528 -0.4066  0.0610
  306TMC3    O2 4668   3.207   4.396  14.936  0.4815 -0.1364 -0.0174
  307MPD2     C 4669   1.235   3.757   0.921 -0.0466 -0.3393 -0.3342
  307MPD2    C1 4670   1.169   3.721   0.807  0.0668  0.2694 -0.4555
  307MPD2    C2 4671   1.086   3.606   0.813 -0.0766  0.5780  0.1346
  307MPD2    C3 4672   1.064   3.543   0.933  0.6982  0.0140  0.2317
  307MPD2    C4 4673   1.133   3.587   1.041  0.1130  0.7376  0.3439
  307MPD2    C5 4674   1.218   3.690   1.034 -0.4115 -0.1025  0.2286
  307MPD2     H 4675   1.034   3.568   0.726  1.8923  1.5708 -1.4700
  307MPD2    H1 4676   1.129   3.537   1.137 -0.3366  0.9338  0.4234
  307MPD2    H2 4677   1.310   3.835   0.918  0.0299 -0.3857  0.4106
  307MPD2    H3 4678   1.279   3.713   1.121  3.3370 -1.4242 -2.0588
  307MPD2     N 4679   0.971   3.434   0.936 -0.3138 -0.5847  0.5937
  307MPD2    H5 4680   0.943   3.401   0.844  0.0882 -0.0348  0.2799
  307MPD2    N1 4681   1.168   3.809   0.698 -0.1871 -0.1728 -0.1373
  307MPD2    H7 4682   1.221   3.896   0.701 -1.8615  0.8799 -0.8299
  308TMC3    C1 4683   0.802   3.071   0.893  0.2753 -0.5856 -0.0590
  308TMC3    C2 4684   0.734   3.014   1.001  0.4496 -0.1888  0.2209
  308TMC3    C3 4685   0.704   3.095   1.115  0.5483  0.1534 -0.1580
  308TMC3    C4 4686   0.881   3.181   0.908 -0.0139  0.4333  0.3180
  308TMC3    C5 4687   0.852   3.257   1.020  0.0581 -0.4534 -0.8972
  308TMC3    C6 4688   0.768   3.216   1.121  0.1417 -1.0044 -0.5596
  308TMC3     C 4689   0.741   3.057   0.762  0.4782 -1.0934 -0.6797
  308TMC3     O 4690   0.797   3.111   0.669  0.6672 -0.1442 -0.4533
  308TMC3     H 4691   0.681   2.921   0.992 -0.2676 -0.0397  2.7445
  308TMC3    H1 4692   0.949   3.207   0.828  2.9919 -0.1659  2.6845
  308TMC3    H2 4693   0.729   3.284   1.195  0.5898 -1.2210 -0.1282
  308TMC3    C7 4694   0.919   3.383   1.044 -0.2075 -0.4821  0.4714
  308TMC3    C8 4695   0.568   3.090   1.168 -0.1641 -0.0334 -0.2586
  308TMC3    O1 4696   0.923   3.429   1.162  0.3174  0.5294  0.2885
  308TMC3    O2 4697   0.538   3.011   1.258 -0.1298  0.4313 -1.0680
  309MPD2     C 4698   4.731   2.207  17.460 -0.3421  0.2061 -0.0870
  309MPD2    C1 4699   0.001   2.333  17.405 -0.1065  0.0393  0.7150
  309MPD2    C2 4700   4.614   2.405  17.420 -0.4409  0.4928 -0.4713
  309MPD2    C3 4701   4.512   2.354  17.498 -0.0224 -0.3143  0.7328
  309MPD2    C4 4702   4.524   2.229  17.553 -0.0747  0.4596  0.4240
  309MPD2    C5 4703   4.629   2.158  17.531 -0.0575  0.6364 -0.1732
  309MPD2     H 4704   4.615   2.510  17.393  3.7956  0.3555 -0.7663
  309MPD2    H1 4705   4.444   2.184  17.610  2.1923 -3.1988  0.6836
  309MPD2    H2 4706   0.084   2.143  17.440 -0.1677  0.2238  0.5749
  309MPD2    H3 4707   4.637   2.054  17.562  2.0269  0.5940 -0.8700
  309MPD2     N 4708   4.398   2.430  17.535 -0.4756  0.4821 -0.3842
  309MPD2    H5 4709   4.337   2.375  17.594 -0.9910  0.2301 -1.1434
  309MPD2    N1 4710   0.122   2.384  17.341 -0.2118  1.3716  0.0031
  309MPD2    H7 4711   0.103   2.473  17.296 -0.2291  0.3915 -1.9519
  310TMC3    C1 4712   0.328   2.394  17.228  0.3335  0.2164  0.2635
  310TMC3    C2 4713   0.281   2.473  17.129  0.3481 -0.0809  0.3848
  310TMC3    C3 4714   0.358   2.503  17.024  0.1192  0.5868 -0.3720
  310TMC3    C4 4715   0.449   2.333  17.209  0.4954  0.4436 -0.6875
  310TMC3    C5 4716   0.517   2.362  17.096 -0.4198 -0.4459 -0.0362
  310TMC3    C6 4717   0.474   2.445  17.001  0.9982 -0.9549 -0.2965
  310TMC3     C 4718   0.248   2.328  17.330  0.0193 -0.5356  0.4927
  310TMC3     O 4719   0.284   2.218  17.374  0.4403  0.0604  0.4051
  310TMC3     H 4720   0.176   2.502  17.122  0.9762  1.5345 -1.9804
  310TMC3    H1 4721   0.483   2.259  17.281 -0.8072 -0.2553 -0.7825
  310TMC3    H2 4722   0.534   2.469  16.915 -0.0765 -1.6383 -1.2286
  310TMC3    C7 4723   0.644   2.295  17.054  0.4602 -0.4678  0.1719
  310TMC3    C8 4724   0.285   2.553  16.912  0.3844  0.7620  0.2439
  310TMC3    O1 4725   0.683   2.308  16.938  0.0867 -0.6607 -0.0479
  310TMC3    O2 4726   0.301   2.510  16.798  0.2146 -0.3185  0.1269
  311MPD2     C 4727   2.078   3.775  12.977 -0.0366 -0.4903 -0.0756
  311MPD2    C1 4728   2.006   3.889  12.955  0.5073  0.2831 -0.2577
  311MPD2    C2 4729   1.867   3.872  12.965 -0.4065  0.6694  0.4195
  311MPD2    C3 4730   1.803   3.751  12.980  0.4002  0.3703  0.2017
  311MPD2    C4 4731   1.882   3.641  13.003  0.4894 -0.0012  0.0025
  311MPD2    C5 4732   2.017   3.654  13.004 -0.8321  0.0458  0.5969
  311MPD2     H 4733   1.813   3.965  12.953 -1.6433 -0.3251 -1.5808
  311MPD2    H1 4734   1.840   3.541  13.010 -1.2848  0.5140 -3.3185
  311MPD2    H2 4735   2.186   3.774  12.982  0.0418  0.4723 -1.6854
  311MPD2    H3 4736   2.077   3.565  13.018  0.7624  0.7759 -1.6696
  311MPD2     N 4737   1.668   3.749  12.965  0.2455 -0.1270 -0.8928
  311MPD2    H5 4738   1.627   3.839  12.940 -1.5833 -0.5374  0.6811
  311MPD2    N1 4739   2.051   4.016  12.924 -0.2448 -0.2071  0.4304
  311MPD2    H7 4740   1.984   4.093  12.919 -0.4115 -0.4213 -0.7319
  312TMC3    C1 4741   1.444   3.677  12.956  0.2265 -0.2711  0.4052
  312TMC3    C2 4742   1.367   3.588  12.885  0.1724  0.1546 -0.9510
  312TMC3    C3 4743   1.246   3.636  12.847  0.1197 -1.1802 -0.1600
  312TMC3    C4 4744   1.405   3.794  13.010  0.1939  0.2062  0.0855
  312TMC3    C5 4745   1.275   3.826  12.976 -0.7044 -0.0416  0.0192
  312TMC3    C6 4746   1.195   3.749  12.894  0.2658  0.1060 -0.4840
  312TMC3     C 4747   1.588   3.640  12.962 -0.1118 -0.1999 -0.6742
  312TMC3     O 4748   1.618   3.523  12.949 -0.0322 -0.3639  0.2028
  312TMC3     H 4749   1.398   3.490  12.852 -0.9527  0.0469 -1.7067
  312TMC3    H1 4750   1.473   3.852  13.071  0.6681  0.2578 -0.4911
  312TMC3    H2 4751   1.090   3.773  12.883  0.2487  0.3639  0.2176
  312TMC3    C7 4752   1.220   3.952  13.019 -0.0270  0.0301  0.7416
  312TMC3    C8 4753   1.165   3.560  12.749  0.0692 -0.3561 -0.0759
  312TMC3    O1 4754   1.110   3.977  12.974 -0.0087  0.0416 -0.1815
  312TMC3    O2 4755   1.202   3.443  12.735  0.2837 -0.1167 -0.4503
  313MPD2     C 4756   0.860   3.811  11.547 -0.5917  0.7078  0.0811
  313MPD2    C1 4757   0.831   3.791  11.415  0.3200  0.3599 -0.1400
  313MPD2    C2 4758   0.762   3.676  11.373  0.1671  0.4940 -0.8556
  313MPD2    C3 4759   0.740   3.571  11.463 -0.2942  0.5793 -0.1783
  313MPD2    C4 4760   0.774   3.592  11.593  0.4740 -0.9452 -0.3496
  313MPD2    C5 4761   0.834   3.706  11.632  0.6209 -0.6558  0.0492
  313MPD2     H 4762   0.742   3.652  11.269  1.4851 -0.7794 -0.8129
  313MPD2    H1 4763   0.786   3.507  11.659 -0.1728  0.5818  1.7306
  313MPD2    H2 4764   0.908   3.900  11.588 -3.0366  1.5272  1.1940
  313MPD2    H3 4765   0.866   3.705  11.736  3.2058 -0.5740 -0.7363
  313MPD2     N 4766   0.697   3.446  11.410  0.9529 -0.3788  0.3257
  313MPD2    H5 4767   0.670   3.439  11.312  1.7732 -1.0902  0.1510
  313MPD2    N1 4768   0.859   3.881  11.313  0.0296 -0.2198  0.3362
  313MPD2    H7 4769   0.846   3.851  11.217  0.7453 -1.6181  0.6798
  314TMC3    C1 4770   0.969   4.047  11.197 -0.4036  0.1213 -0.3803
  314TMC3    C2 4771   1.103   4.066  11.176  0.4407  0.5774 -0.1626
  314TMC3    C3 4772   1.144   4.091  11.050  0.5724 -0.3670  0.0543
  314TMC3    C4 4773   0.879   4.053  11.099  0.7366 -0.0966 -0.4070
  314TMC3    C5 4774   0.933   4.077  10.971  0.4331 -0.1415  0.4165
  314TMC3    C6 4775   1.064   4.098  10.945  0.1295  0.0589  0.5362
  314TMC3     C 4776   0.939   3.989  11.325 -0.4390  0.3132 -0.1031
  314TMC3     O 4777   0.995   4.029  11.424 -0.7659 -0.1866 -0.1203
  314TMC3     H 4778   1.165   4.063  11.265  0.5291 -0.1360 -0.2472
  314TMC3    H1 4779   0.774   4.032  11.115  0.6378 -0.8327 -2.0967
  314TMC3    H2 4780   1.101   4.106  10.844 -0.6621  0.8441  0.3119
  314TMC3    C7 4781   0.835   4.082  10.865  0.8587  1.2249  0.3244
  314TMC3    C8 4782   1.270   4.161  11.024 -0.4079  0.1566  0.2099
  314TMC3    O1 4783   0.733   4.142  10.899  0.1125 -0.4936 -0.4051
  314TMC3    O2 4784   1.311   4.174  10.908  0.0543  0.3175  0.1135
  315MPD2     C 4785   0.803   2.551   0.341  0.7277  0.7509 -0.0657
  315MPD2    C1 4786   0.917   2.540   0.266 -0.3730 -0.2829  0.3452
  315MPD2    C2 4787   0.918   2.596   0.141  0.1986  0.3614  0.0014
  315MPD2    C3 4788   0.803   2.652   0.093  0.2388  0.1559 -0.0806
  315MPD2    C4 4789   0.691   2.653   0.169 -0.3894  0.2761 -0.9484
  315MPD2    C5 4790   0.691   2.602   0.292 -0.4756 -0.8818 -0.2542
  315MPD2     H 4791   1.008   2.610   0.082  2.0041 -2.0516  2.1606
  315MPD2    H1 4792   0.592   2.677   0.130 -0.8710 -0.7413 -0.3699
  315MPD2    H2 4793   0.800   2.505   0.439 -0.0179  0.5205 -0.2007
  315MPD2    H3 4794   0.615   2.607   0.368  0.3549  1.4916  0.4338
  315MPD2     N 4795   0.816   2.714  17.692  0.2675 -0.4474  0.0104
  315MPD2    H5 4796   0.914   2.713  17.666  0.1665 -0.4232 -0.3707
  315MPD2    N1 4797   1.028   2.474   0.313  0.0881 -0.7199  0.1890
  315MPD2    H7 4798   1.108   2.470   0.250  0.9737  2.2335  1.0984
  316TMC3    C1 4799   0.774   2.878  17.522  0.6750  0.4660  0.6289
  316TMC3    C2 4800   0.909   2.887  17.502  0.3026  0.1049  0.1656
  316TMC3    C3 4801   0.954   2.944  17.381  0.0690  0.1440  0.5366
  316TMC3    C4 4802   0.690   2.940  17.438 -0.1550  0.2004 -0.6940
  316TMC3    C5 4803   0.734   2.996  17.323  0.2309 -0.4920  0.3165
  316TMC3    C6 4804   0.865   2.997  17.294 -0.2738 -0.4318 -0.1931
  316TMC3     C 4805   0.718   2.781  17.619  0.5923 -0.8075 -0.2876
  316TMC3     O 4806   0.595   2.795  17.632 -0.2081  0.4976 -0.3602
  316TMC3     H 4807   0.978   2.866  17.583  1.0633  0.9297 -0.2728
  316TMC3    H1 4808   0.585   2.935  17.462 -0.3536  1.0473 -1.3965
  316TMC3    H2 4809   0.910   3.041  17.205  0.0170  0.5218  0.4287
  316TMC3    C7 4810   0.647   3.084  17.263  0.3346  0.5054  0.7237
  316TMC3    C8 4811   1.070   3.040  17.407  0.6260 -0.8571  0.3862
  316TMC3    O1 4812   0.551   3.114  17.329  0.4020  0.0623  0.4067
  316TMC3    O2 4813   1.076   3.130  17.326 -0.4260  0.0069  0.3793
  317MPD2     C 4814   3.050   1.359  13.383 -0.0873  0.1305  0.4851
  317MPD2    C1 4815   3.093   1.284  13.273  0.3670  0.2600 -0.5361
  317MPD2    C2 4816   3.182   1.181  13.299  0.5618  0.6228 -0.6235
  317MPD2    C3 4817   3.210   1.137  13.426  1.0011  0.6054 -0.0117
  317MPD2    C4 4818   3.159   1.211  13.530 -0.8135  0.6400 -0.6491
  317MPD2    C5 4819   3.084   1.321  13.507 -0.7224  0.5963 -0.3186
  317MPD2     H 4820   3.224   1.130  13.213  0.4884 -1.8580  0.8186
  317MPD2    H1 4821   3.165   1.180  13.634  1.0808  2.1099 -0.3255
  317MPD2    H2 4822   2.994   1.450  13.373  1.0056  0.3712 -3.5399
  317MPD2    H3 4823   3.045   1.362  13.599  0.0995  0.7795 -0.0500
  317MPD2     N 4824   3.283   1.019  13.446  0.1265  0.0485  0.3058
  317MPD2    H5 4825   3.328   0.979  13.364  1.6330  2.0878  0.1404
  317MPD2    N1 4826   3.068   1.326  13.139 -0.8721 -0.0034 -0.2277
  317MPD2    H7 4827   3.104   1.266  13.066  2.6740  1.5652  0.2684
  318TMC3    C1 4828   3.388   0.851  13.554 -0.2677  1.1932 -0.2670
  318TMC3    C2 4829   3.332   0.756  13.477  0.4023  0.1118 -0.5514
  318TMC3    C3 4830   3.396   0.632  13.478  0.3049 -0.1357 -0.6358
  318TMC3    C4 4831   3.486   0.831  13.644 -1.2767  0.8026 -0.3986
  318TMC3    C5 4832   3.544   0.706  13.641  0.3662 -0.1458  0.0751
  318TMC3    C6 4833   3.502   0.607  13.558 -0.1232 -0.0056 -0.2288
  318TMC3     C 4834   3.319   0.967  13.572  0.2076 -0.2773 -0.4320
  318TMC3     O 4835   3.267   0.981  13.682 -1.1247  0.1993 -0.6239
  318TMC3     H 4836   3.251   0.787  13.412  2.7170  1.8513 -2.5956
  318TMC3    H1 4837   3.527   0.920  13.691  0.1927 -0.9777  1.6624
  318TMC3    H2 4838   3.544   0.508  13.568  2.0445  0.6643 -2.8080
  318TMC3    C7 4839   3.649   0.686  13.742  0.2145 -0.9126  0.7429
  318TMC3    C8 4840   3.347   0.521  13.398  0.5349  0.0570 -0.4442
  318TMC3    O1 4841   3.668   0.787  13.812  0.1899 -0.0473 -0.4515
  318TMC3    O2 4842   3.417   0.424  13.386 -0.3391 -0.2285 -0.5666
  319MPD2     C 4843   4.054   2.406  16.910 -0.4481  0.9734  0.8324
  319MPD2    C1 4844   4.087   2.270  16.920 -0.6091  0.1390 -0.3045
  319MPD2    C2 4845   3.997   2.179  16.849 -0.5059 -0.8383  0.2172
  319MPD2    C3 4846   3.886   2.232  16.781 -0.5075  1.3181 -0.1937
  319MPD2    C4 4847   3.849   2.361  16.789  0.0475 -0.2734  0.3080
  319MPD2    C5 4848   3.936   2.443  16.851 -0.2363 -0.2564 -0.4037
  319MPD2     H 4849   4.020   2.074  16.837 -1.3558 -0.8191 -1.6545
  319MPD2    H1 4850   3.751   2.402  16.766  0.6030  1.5252  1.0856
  319MPD2    H2 4851   4.115   2.482  16.958  1.6717 -1.6854  2.3694
  319MPD2    H3 4852   3.923   2.550  16.849 -0.3558 -0.2545  0.2767
  319MPD2     N 4853   3.792   2.150  16.721  0.6860 -0.0291 -0.3605
  319MPD2    H5 4854   3.714   2.200  16.680 -1.6139 -2.1436  1.4554
  319MPD2    N1 4855   4.196   2.215  16.994 -0.1030  0.5573 -0.1499
  319MPD2    H7 4856   4.211   2.115  17.000 -1.1356  0.4411  0.5067
  320TMC3    C1 4857   3.705   1.959  16.603 -0.2604  0.2889  0.2414
  320TMC3    C2 4858   3.637   2.042  16.517  0.1784  0.1151 -0.4973
  320TMC3    C3 4859   3.534   1.985  16.439  0.2512 -0.1977  0.4225
  320TMC3    C4 4860   3.700   1.826  16.601  0.3904  0.0597 -0.7489
  320TMC3    C5 4861   3.596   1.772  16.530  0.4016 -0.0965  0.1378
  320TMC3    C6 4862   3.515   1.850  16.450  0.5448  0.1533 -0.1991
  320TMC3     C 4863   3.805   2.013  16.698  0.5966 -0.2395  0.4456
  320TMC3     O 4864   3.863   1.935  16.771  0.0022  0.2191 -0.4831
  320TMC3     H 4865   3.670   2.145  16.504  0.5233  0.1098  0.2901
  320TMC3    H1 4866   3.777   1.767  16.650 -1.1324 -1.0073  0.3378
  320TMC3    H2 4867   3.460   1.798  16.372 -0.0655  1.3994 -0.5946
  320TMC3    C7 4868   3.606   1.631  16.489  0.0503 -0.2245  0.4698
  320TMC3    C8 4869   3.494   2.064  16.325 -0.0978 -0.2905 -0.1400
  320TMC3    O1 4870   3.571   1.599  16.377  0.4587 -0.0280  0.0168
  320TMC3    O2 4871   3.569   2.154  16.299  0.4809  0.4707  0.2864
  321TMC3    C1 4872   4.397   2.187  17.093 -0.2087  0.4004  0.4455
  321TMC3    C2 4873   4.521   2.180  17.042 -0.0661  0.0835 -0.6171
  321TMC3    C3 4874   4.586   2.063  17.046 -0.2932 -0.1227 -0.1166
  321TMC3    C4 4875   4.343   2.081  17.162 -0.4181 -0.2373 -0.0513
  321TMC3    C5 4876   4.408   1.964  17.173  0.5084 -0.1880 -0.2646
  321TMC3    C6 4877   4.527   1.954  17.099 -0.6172 -0.7159 -0.6520
  321TMC3     C 4878   4.302   2.284  17.045 -0.2017  0.5897  0.1884
  321TMC3     O 4879   4.338   2.399  17.028  0.2449  0.1530  0.0837
  321TMC3     H 4880   4.554   2.274  17.000 -1.5156  1.0795  0.5039
  321TMC3    H1 4881   4.251   2.099  17.216  0.4020 -0.6731  1.5223
  321TMC3    H2 4882   4.573   1.856  17.104  0.2788 -0.3732 -2.2341
  321TMC3    C7 4883   4.422   1.896  17.302 -0.4291  0.9622 -0.0349
  321TMC3    C8 4884   4.727   2.073  17.092 -0.7381 -0.3777 -0.6750
  321TMC3    O1 4885   4.325   1.837  17.341  0.6842 -0.5215 -0.5532
  321TMC3    O2 4886   0.020   2.005  17.187  0.8064 -0.2273  0.0528
  322MPD2     C 4887   2.863   3.842  14.303  0.1852  0.2439  0.2312
  322MPD2    C1 4888   2.908   3.747  14.392 -0.0596 -0.1082  0.1334
  322MPD2    C2 4889   2.910   3.616  14.358 -0.1281 -0.3596  0.3887
  322MPD2    C3 4890   2.873   3.582  14.228  0.0388  0.1233  1.0928
  322MPD2    C4 4891   2.819   3.676  14.140 -0.5076  0.3508 -0.2494
  322MPD2    C5 4892   2.822   3.805  14.181  0.2685  0.2642  0.4166
  322MPD2     H 4893   2.940   3.551  14.439  0.1243  1.4981  1.7736
  322MPD2    H1 4894   2.789   3.661  14.037 -0.1481 -4.1777  0.3285
  322MPD2    H2 4895   2.868   3.948  14.326 -0.6537  0.2454  0.4234
  322MPD2    H3 4896   2.774   3.883  14.123  0.5637 -1.0172 -1.5446
  322MPD2     N 4897   2.892   3.446  14.192 -0.2925  0.2406 -0.1528
  322MPD2    H5 4898   2.917   3.380  14.265 -1.0155  0.9492  0.7567
  322MPD2    N1 4899   2.977   3.790  14.509 -0.4633  0.1800 -0.1998
  322MPD2    H7 4900   2.987   3.890  14.519 -2.6689  0.2927  0.7600
  323TMC3    C1 4901   3.128   3.801  14.682  0.8844  0.8728 -0.0571
  323TMC3    C2 4902   3.233   3.845  14.608 -0.8094 -0.1094  0.3995
  323TMC3    C3 4903   3.355   3.862  14.661 -0.2629 -0.1951 -0.5595
  323TMC3    C4 4904   3.148   3.751  14.805  0.0875  0.0800  0.6192
  323TMC3    C5 4905   3.276   3.763  14.857 -0.5928 -0.2282 -0.1466
  323TMC3    C6 4906   3.377   3.823  14.791 -0.0596 -0.0300  0.0402
  323TMC3     C 4907   3.028   3.720  14.615 -0.0141 -0.2685  1.1238
  323TMC3     O 4908   2.996   3.607  14.660 -0.5584  0.3467  0.2618
  323TMC3     H 4909   3.217   3.844  14.500  0.0102 -0.4194  0.2780
  323TMC3    H1 4910   3.065   3.719  14.868  0.6200  0.1741  1.3695
  323TMC3    H2 4911   3.477   3.833  14.833 -0.4762  3.5546  0.1689
  323TMC3    C7 4912   3.307   3.673  14.964  0.0077  0.7174  0.1746
  323TMC3    C8 4913   3.472   3.852  14.576 -0.4933  0.7584 -0.2104
  323TMC3    O1 4914   3.231   3.591  15.008  0.3624  0.2350 -0.0650
  323TMC3    O2 4915   3.579   3.828  14.633 -0.1313  0.4135  0.2339
  324MPD2     C 4916   0.429   4.586  14.316  0.3085  0.2392  0.6018
  324MPD2    C1 4917   0.393   4.681  14.409  0.3506 -0.1488  0.5829
  324MPD2    C2 4918   0.275   0.018  14.389 -0.0121  0.2301  0.9343
  324MPD2    C3 4919   0.190   4.728  14.282  0.3288 -0.0538  0.1998
  324MPD2    C4 4920   0.232   4.627  14.194 -0.2308  0.1976  0.3842
  324MPD2    C5 4921   0.344   4.558  14.208 -0.1218  0.0308  0.0847
  324MPD2     H 4922   0.242   0.072  14.477 -1.3634 -0.8540  1.0874
  324MPD2    H1 4923   0.181   4.612  14.099  0.4407  1.0038 -0.1065
  324MPD2    H2 4924   0.523   4.530  14.313  0.0070 -0.3396  1.7309
  324MPD2    H3 4925   0.364   4.479  14.136 -0.7378  0.5759 -0.6779
  324MPD2     N 4926   0.058   0.049  14.260 -0.0266 -0.1198 -0.2263
  324MPD2    H5 4927   0.002   0.007  14.187  0.1189  0.6048 -0.7562
  324MPD2    N1 4928   0.476   4.721  14.511  0.4770 -0.3471 -0.4315
  324MPD2    H7 4929   0.443   0.061  14.575  2.4557 -0.9580  1.2932
  325TMC3    C1 4930   4.599   0.182  14.323  0.2758 -0.6409 -0.6958
  325TMC3    C2 4931   4.513   0.078  14.284  0.7554 -0.2016 -0.2204
  325TMC3    C3 4932   4.377   0.087  14.308 -0.3432  0.0447 -0.6791
  325TMC3    C4 4933   4.557   0.294  14.390 -0.0603  0.0624  0.8150
  325TMC3    C5 4934   4.420   0.294  14.426  0.1115  0.9060 -0.2616
  325TMC3    C6 4935   4.330   0.189  14.389  0.0833 -0.4941 -0.1410
  325TMC3     C 4936   4.732   0.137  14.354 -0.2804 -0.5308 -0.1145
  325TMC3     O 4937   0.038   0.199  14.452 -0.5949 -0.0379 -0.8259
  325TMC3     H 4938   4.544   4.728  14.221  2.9219  1.1229 -0.8703
  325TMC3    H1 4939   4.620   0.379  14.412 -0.2155 -0.5082  3.5086
  325TMC3    H2 4940   4.225   0.196  14.415  0.1807  3.0837 -0.7022
  325TMC3    C7 4941   4.370   0.426  14.448 -0.0714 -0.4247  0.9503
  325TMC3    C8 4942   4.316   4.694  14.333 -0.3723  0.1022  0.2199
  325TMC3    O1 4943   4.452   0.516  14.445  0.1520  0.1170 -0.1604
  325TMC3    O2 4944   4.401   4.608  14.364 -1.0322  0.2399  0.1715
  326MPD2     C 4945   0.714   0.848  11.390  0.1551  0.1817  0.3724
  326MPD2    C1 4946   0.760   0.830  11.267  0.1396 -0.1477 -0.7197
  326MPD2    C2 4947   0.891   0.849  11.241 -0.4862 -0.3337 -0.3611
  326MPD2    C3 4948   0.978   0.892  11.338  0.2263 -0.4618  0.2290
  326MPD2    C4 4949   0.926   0.903  11.465  0.0670 -0.1339 -0.1067
  326MPD2    C5 4950   0.796   0.879  11.495  0.4197  0.9132  0.2458
  326MPD2     H 4951   0.921   0.864  11.137 -1.6062  2.4061 -0.2783
  326MPD2    H1 4952   0.986   0.941  11.547  0.7255 -1.3206 -0.0381
  326MPD2    H2 4953   0.608   0.845  11.413 -0.2794  3.3946 -1.1833
  326MPD2    H3 4954   0.755   0.894  11.594 -0.7159 -3.8852  0.5186
  326MPD2     N 4955   1.116   0.919  11.315  0.2405  0.2432 -0.3322
  326MPD2    H5 4956   1.178   0.940  11.393 -2.4168  0.7952  1.6288
  326MPD2    N1 4957   0.671   0.793  11.161  0.4773 -0.2427 -0.3850
  326MPD2    H7 4958   0.710   0.777  11.068  0.4342 -0.4276 -0.3720
  327TMC3    C1 4959   0.479   0.754  11.049  0.2357 -0.1339 -1.1683
  327TMC3    C2 4960   0.406   0.846  10.982  0.0620  0.1747  0.5050
  327TMC3    C3 4961   0.401   0.833  10.843 -0.8656 -0.0589 -0.2876
  327TMC3    C4 4962   0.554   0.656  10.989 -0.5741 -0.1377  0.4967
  327TMC3    C5 4963   0.549   0.653  10.854 -0.5423 -0.5662 -0.5564
  327TMC3    C6 4964   0.476   0.741  10.778 -0.1223 -0.4798  0.2431
  327TMC3     C 4965   0.536   0.798  11.170 -0.3958  0.0684  0.9939
  327TMC3     O 4966   0.453   0.841  11.252 -0.0847  0.1300  0.2105
  327TMC3     H 4967   0.362   0.934  11.027 -0.8540 -0.0372  0.0357
  327TMC3    H1 4968   0.603   0.585  11.054 -0.9012 -0.8725 -0.0625
  327TMC3    H2 4969   0.472   0.748  10.670 -1.1278  0.7922  0.3644
  327TMC3    C7 4970   0.669   0.606  10.787 -0.0697  0.6435 -0.4311
  327TMC3    C8 4971   0.304   0.897  10.769 -0.0220  0.3095  0.1876
  327TMC3    O1 4972   0.674   0.629  10.666 -1.0881  0.1332  0.9490
  327TMC3    O2 4973   0.305   0.901  10.649  0.2434 -0.3016  0.1591
  328MPD2     C 4974   3.680   1.055  17.036 -0.3475  0.4633 -0.8517
  328MPD2    C1 4975   3.561   1.021  17.102  0.3360 -0.0738  0.5647
  328MPD2    C2 4976   3.440   1.042  17.038 -0.5791  0.3143 -0.3805
  328MPD2    C3 4977   3.434   1.081  16.903 -0.5147  0.5933  0.4410
  328MPD2    C4 4978   3.552   1.108  16.837  0.7875  0.2182 -0.1989
  328MPD2    C5 4979   3.672   1.100  16.910  0.3573  0.1685  0.3348
  328MPD2     H 4980   3.350   1.035  17.097 -0.0783  3.4458  0.7376
  328MPD2    H1 4981   3.539   1.162  16.743  0.0530  1.9976  0.9181
  328MPD2    H2 4982   3.770   1.061  17.096 -0.4615  0.6388 -0.6992
  328MPD2    H3 4983   3.762   1.125  16.854  0.5576 -2.1502 -0.3882
  328MPD2     N 4984   3.308   1.103  16.843 -0.3457  0.2539 -0.7203
  328MPD2    H5 4985   3.310   1.162  16.761  1.0331  1.9361  0.5302
  328MPD2    N1 4986   3.548   0.971  17.237 -0.3343 -0.0784  0.8256
  328MPD2    H7 4987   3.457   0.968  17.282 -0.7381 -0.6408 -0.0351
  329TMC3    C1 4988   3.619   0.983  17.449 -0.4083  0.9562  0.8997
  329TMC3    C2 4989   3.569   1.113  17.445 -0.0634 -1.0127 -0.0690
  329TMC3    C3 4990   3.473   1.146  17.529  0.0841  0.0279  0.1628
  329TMC3    C4 4991   3.584   0.891  17.545  0.4479  0.2660  1.4790
  329TMC3    C5 4992   3.496   0.938  17.634 -0.1078 -0.2319 -0.2698
  329TMC3    C6 4993   3.436   1.060  17.632 -0.6758 -0.4274  0.0008
  329TMC3     C 4994   3.660   0.952  17.317 -0.7719 -0.4182  0.3597
  329TMC3     O 4995   3.779   0.934  17.294 -0.3258 -0.3675 -0.0158
  329TMC3     H 4996   3.609   1.175  17.366 -1.1382  0.5547  0.6368
  329TMC3    H1 4997   3.624   0.790  17.553  3.1291  1.2468  0.3737
  329TMC3    H2 4998   3.380   1.087  17.720  0.7159 -2.5401  1.5326
  329TMC3    C7 4999   3.442   0.839  17.728  0.3495 -0.2925  0.3033
  329TMC3    C8 5000   3.401   1.272  17.498 -0.4635 -0.0371  0.4334
  329TMC3    O1 5001   3.517   0.752   0.044  0.0639  0.0602 -0.5822
  329TMC3    O2 5002   3.403   1.300  17.378  0.0849  0.1774 -0.7814
  330TMC3    C1 5003   1.382   0.399   9.661  0.5940  0.2160 -0.6809
  330TMC3    C2 5004   1.280   0.324   9.601 -0.5366 -0.3701  0.4223
  330TMC3    C3 5005   1.260   0.194   9.649  0.5923  0.1691 -0.0689
  330TMC3    C4 5006   1.462   0.347   9.761 -0.5573 -0.0272  0.0672
  330TMC3    C5 5007   1.427   0.228   9.815 -0.1429  0.0852 -0.2826
  330TMC3    C6 5008   1.335   0.142   9.752  0.1573  0.5590  0.1855
  330TMC3     C 5009   1.445   0.509   9.591 -0.5808 -0.3047  0.3013
  330TMC3     O 5010   1.566   0.520   9.600 -0.3006 -0.3298 -0.0775
  330TMC3     H 5011   1.221   0.357   9.516 -1.1291 -1.6442  0.3306
  330TMC3    H1 5012   1.520   0.413   9.825 -2.1718  1.7746 -0.3205
  330TMC3    H2 5013   1.326   0.040   9.789  0.8275 -0.1727 -1.6209
  330TMC3    C7 5014   1.514   0.177   9.920  0.0101 -0.2336 -0.0039
  330TMC3    C8 5015   1.167   0.109   9.581  0.2912 -0.6369 -0.0024
  330TMC3    O1 5016   1.605   0.250   9.964  0.9178 -0.4427 -0.3623
  330TMC3    O2 5017   1.138   0.139   9.466  0.1827  0.0161  0.6238
  331MPD2     C 5018   0.081   3.684  12.789  0.0867 -0.4675 -0.6489
  331MPD2    C1 5019   4.693   3.735  12.740  0.2671  0.2560 -0.6764
  331MPD2    C2 5020   4.597   3.648  12.693  0.6104  0.2608  0.1669
  331MPD2    C3 5021   4.613   3.509  12.705 -0.5863 -0.1745 -0.1894
  331MPD2    C4 5022   4.722   3.462  12.774 -0.2976  0.5284 -0.2414
  331MPD2    C5 5023   0.091   3.547  12.806  0.5117  0.8891  0.2085
  331MPD2     H 5024   4.507   3.692  12.653  2.4386  2.2779 -1.7847
  331MPD2    H1 5025   0.006   3.356  12.790 -0.8954  0.3460 -0.8260
  331MPD2    H2 5026   0.163   3.755  12.799  0.6757 -1.0019 -1.6883
  331MPD2    H3 5027   0.179   3.515  12.860  1.0449 -0.8578 -1.6909
  331MPD2     N 5028   4.528   3.412  12.644  0.0230  0.1752  0.4757
  331MPD2    H5 5029   4.548   3.315  12.667 -1.1001 -0.7452 -2.4092
  331MPD2    N1 5030   4.676   3.871  12.723  0.0065  0.7351  0.0422
  331MPD2    H7 5031   0.035   3.916  12.726  0.2943  0.2351 -1.0870
  332TMC3    C1 5032   4.378   3.313  12.496  0.8660 -0.5623 -0.1764
  332TMC3    C2 5033   4.264   3.340  12.428 -0.1591  0.1471  0.0125
  332TMC3    C3 5034   4.208   3.231  12.378  0.0026  0.5415 -0.4380
  332TMC3    C4 5035   4.442   3.188  12.501  0.0207 -0.1317 -0.1661
  332TMC3    C5 5036   4.380   3.079  12.441 -0.3736 -0.7315 -0.4113
  332TMC3    C6 5037   4.247   3.099  12.391  0.2568  0.4709 -0.6112
  332TMC3     C 5038   4.427   3.437  12.557  0.3040 -0.2135  0.9297
  332TMC3     O 5039   4.377   3.544  12.520  0.2072 -0.1014 -0.4658
  332TMC3     H 5040   4.210   3.434  12.423  0.3479  0.4585  0.3159
  332TMC3    H1 5041   4.537   3.178  12.552  0.0439  0.8549 -0.0187
  332TMC3    H2 5042   4.187   3.017  12.353  0.8033  0.4042 -1.3466
  332TMC3    C7 5043   4.437   2.948  12.447 -0.1365 -0.5700 -0.6862
  332TMC3    C8 5044   4.093   3.261  12.300 -0.0764  0.1691  0.3057
  332TMC3    O1 5045   4.358   2.850  12.460 -0.3152  0.0014  0.5595
  332TMC3    O2 5046   3.996   3.192  12.323 -0.1283 -0.3389 -0.0769
  333MPD2     C 5047   4.101   4.280  11.256 -0.3145 -0.2185  0.0773
  333MPD2    C1 5048   4.162   4.179  11.186 -0.7254  0.5721  0.2182
  333MPD2    C2 5049   4.123   4.051  11.210  0.2756 -0.2513  0.3975
  333MPD2    C3 5050   4.021   4.033  11.308 -1.1665  0.6811 -0.2811
  333MPD2    C4 5051   3.968   4.137  11.383  0.1146 -0.7029 -0.0919
  333MPD2    C5 5052   4.018   4.262  11.364 -0.2737 -0.1857 -1.4398
  333MPD2     H 5053   4.147   3.975  11.137 -2.3943 -0.0121 -0.7273
  333MPD2    H1 5054   3.892   4.127  11.460 -0.0230 -0.9691 -0.2586
  333MPD2    H2 5055   4.135   4.382  11.245  3.3558 -1.5132 -0.4040
  333MPD2    H3 5056   3.982   4.343  11.428  1.6329 -0.5429  0.0714
  333MPD2     N 5057   3.983   3.895  11.325  0.1358  0.3218 -0.6285
  333MPD2    H5 5058   4.037   3.835  11.264  0.6974 -2.1915  2.3443
  333MPD2    N1 5059   4.240   4.211  11.068  0.0340  0.6200 -0.1880
  333MPD2    H7 5060   4.248   4.311  11.051 -0.9714  0.3144 -2.5498
  334TMC3    C1 5061   4.369   4.200  10.867  0.6225 -1.2829  0.5726
  334TMC3    C2 5062   4.402   4.134  10.753 -0.1999  0.2687 -0.3400
  334TMC3    C3 5063   4.484   4.200  10.662  0.2526  0.4451 -0.2748
  334TMC3    C4 5064   4.404   4.327  10.892 -0.8633  0.9431  0.5014
  334TMC3    C5 5065   4.484   4.391  10.800  0.4381  0.1205  0.8975
  334TMC3    C6 5066   4.532   4.324  10.690 -0.3569 -0.3116 -0.0413
  334TMC3     C 5067   4.297   4.131  10.977  0.6144  0.0476 -0.3524
  334TMC3     O 5068   4.282   4.009  10.964 -0.2222 -0.2371 -0.2472
  334TMC3     H 5069   4.373   4.031  10.735  0.1322  0.1473 -0.1862
  334TMC3    H1 5070   4.380   4.380  10.983 -1.4652  1.3099  0.1329
  334TMC3    H2 5071   4.591   4.383  10.621  0.5337 -0.4620  0.5827
  334TMC3    C7 5072   4.547   4.513  10.835  0.0714  0.3104 -0.0280
  334TMC3    C8 5073   4.549   4.114  10.563 -0.5854 -0.4091  0.3301
  334TMC3    O1 5074   4.571   4.533  10.956 -0.6285 -0.5563  0.2884
  334TMC3    O2 5075   4.490   4.017  10.519 -0.5709  0.1091 -0.1766
  335TMC3    C1 5076   4.164   0.848  17.459  0.1304  0.0630 -0.5141
  335TMC3    C2 5077   4.118   0.756  17.366 -0.2960 -0.2743  0.4176
  335TMC3    C3 5078   4.207   0.687  17.289 -0.3564 -0.2149 -0.1663
  335TMC3    C4 5079   4.296   0.858  17.478 -0.4292  0.1700 -0.1608
  335TMC3    C5 5080   4.384   0.796  17.392  0.0220 -0.3458 -0.2439
  335TMC3    C6 5081   4.339   0.712  17.293  0.0170  0.3988 -0.0529
  335TMC3     C 5082   4.069   0.894  17.552 -0.5382  0.4997 -0.1146
  335TMC3     O 5083   3.951   0.875  17.519  0.1558  0.1268 -0.5518
  335TMC3     H 5084   4.011   0.750  17.352 -0.2835 -0.7768  0.5372
  335TMC3    H1 5085   4.329   0.921  17.560 -0.5822  1.5471 -1.1581
  335TMC3    H2 5086   4.409   0.674  17.219 -1.2577 -1.2035 -0.4225
  335TMC3    C7 5087   4.524   0.823  17.399 -0.1395 -0.4589 -0.1417
  335TMC3    C8 5088   4.152   0.604  17.191 -0.0167 -0.0865 -0.0435
  335TMC3    O1 5089   4.590   0.769  17.309  0.0891  0.2000 -0.1335
  335TMC3    O2 5090   4.239   0.564  17.112 -0.0718  0.9256  0.5807
  336MPD2     C 5091   3.806   3.475  16.580 -0.0383  0.7052  0.0257
  336MPD2    C1 5092   3.876   3.411  16.479  0.4200  0.1804 -0.4539
  336MPD2    C2 5093   3.935   3.286  16.497  0.7492 -0.3077 -0.5931
  336MPD2    C3 5094   3.927   3.220  16.617  0.3428 -0.1289  0.8954
  336MPD2    C4 5095   3.873   3.297  16.717  0.5375 -0.0412  0.0075
  336MPD2    C5 5096   3.816   3.425  16.699 -0.2789  0.0368  0.1626
  336MPD2     H 5097   3.987   3.238  16.414  0.7815  0.6633 -1.1348
  336MPD2    H1 5098   3.879   3.255  16.817  3.2230  1.4223  0.4499
  336MPD2    H2 5099   3.766   3.575  16.572 -0.5770  0.5401  0.6440
  336MPD2    H3 5100   3.778   3.478  16.785 -2.0551 -0.3602 -0.3797
  336MPD2     N 5101   3.968   3.091  16.649 -0.2680 -0.8755  0.0626
  336MPD2    H5 5102   3.954   3.067  16.747  2.2797 -1.5894  0.2319
  336MPD2    N1 5103   3.859   3.450  16.350 -0.0616  0.0022  0.0212
  336MPD2    H7 5104   3.908   3.397  16.279  1.4259  1.1150  0.1977
  337TMC3    C1 5105   3.779   3.565  16.153  0.0590 -0.0966  0.2424
  337TMC3    C2 5106   3.662   3.617  16.103 -0.2395 -0.3777 -0.1459
  337TMC3    C3 5107   3.622   3.573  15.975 -0.4279 -0.2568 -0.1393
  337TMC3    C4 5108   3.863   3.482  16.075  0.1999  0.2248 -0.4546
  337TMC3    C5 5109   3.816   3.450  15.950 -0.0196 -0.0537 -0.2594
  337TMC3    C6 5110   3.704   3.506  15.895 -0.5774 -0.2661  0.2487
  337TMC3     C 5111   3.775   3.550  16.304 -0.2878  0.4904 -0.3851
  337TMC3     O 5112   3.696   3.617  16.366 -0.2540 -0.2491  0.6755
  337TMC3     H 5113   3.588   3.664  16.166 -1.7755 -2.4721 -0.3903
  337TMC3    H1 5114   3.960   3.459  16.117 -0.8499 -1.2802  1.1695
  337TMC3    H2 5115   3.677   3.492  15.791 -0.7852 -1.6492  0.4841
  337TMC3    C7 5116   3.922   3.409  15.854 -0.3297  0.1124  0.0714
  337TMC3    C8 5117   3.510   3.645  15.920  0.1024 -0.7617 -0.0767
  337TMC3    O1 5118   3.885   3.442  15.740  0.5322 -0.2220  0.2881
  337TMC3    O2 5119   3.476   3.748  15.977 -0.2666 -0.4033  0.2599
  338MPD2     C 5120   4.613   2.844   1.394 -0.0577 -0.2692 -0.5132
  338MPD2    C1 5121   4.513   2.860   1.301  1.3599  0.4112  0.5970
  338MPD2    C2 5122   4.384   2.882   1.342 -0.4300 -0.2577  0.7006
  338MPD2    C3 5123   4.348   2.900   1.478  0.4561  0.2398  0.3220
  338MPD2    C4 5124   4.452   2.884   1.565  0.7794  0.9521 -0.2980
  338MPD2    C5 5125   4.580   2.850   1.526 -0.3916  0.0371  0.4952
  338MPD2     H 5126   4.310   2.891   1.263 -2.4644 -1.2894  2.5072
  338MPD2    H1 5127   4.435   2.893   1.671 -0.9218  2.3871 -0.6969
  338MPD2    H2 5128   4.718   2.822   1.374  0.1845  1.8459 -1.4873
  338MPD2    H3 5129   4.659   2.826   1.595  1.6925 -0.0348 -1.8952
  338MPD2     N 5130   4.215   2.927   1.517 -0.1296 -0.2911 -0.8006
  338MPD2    H5 5131   4.151   2.942   1.439 -1.1304 -0.3103  0.0226
  338MPD2    N1 5132   4.532   2.838   1.165 -0.1841  0.4098  0.5201
  338MPD2    H7 5133   4.453   2.861   1.106 -2.0151  0.3388  2.9225
  339TMC3    C1 5134   4.034   2.920   1.661  0.5106  0.2594 -0.5564
  339TMC3    C2 5135   3.965   2.826   1.727  0.4670  0.0344 -0.2811
  339TMC3    C3 5136   3.837   2.798   1.697  0.4334  1.0228  0.7392
  339TMC3    C4 5137   3.975   2.999   1.559 -0.1128 -0.8988 -0.5388
  339TMC3    C5 5138   3.842   2.987   1.549 -0.3893  0.1242  0.2504
  339TMC3    C6 5139   3.774   2.881   1.601  0.6109  0.8909  0.5462
  339TMC3     C 5140   4.170   2.913   1.649 -0.0479  0.1872  0.6428
  339TMC3     O 5141   4.223   2.871   1.756 -0.1207  0.1554 -0.3304
  339TMC3     H 5142   4.024   2.758   1.788 -0.3037 -0.6336 -0.2711
  339TMC3    H1 5143   4.030   3.068   1.496  2.8709 -2.1314  0.7356
  339TMC3    H2 5144   3.668   2.863   1.584  0.6758 -0.4640  1.5259
  339TMC3    C7 5145   3.796   3.023   1.414 -0.1439  0.0479  1.1015
  339TMC3    C8 5146   3.829   2.654   1.680 -0.4105 -0.8594 -0.4446
  339TMC3    O1 5147   3.882   3.023   1.326 -0.2994  0.3703  0.7430
  339TMC3    O2 5148   3.903   2.580   1.742 -0.1117 -0.1341 -0.3675
  340MPD2     C 5149   4.065   0.653  10.118  0.0828  0.3543  0.0816
  340MPD2    C1 5150   4.117   0.671   9.990  0.2050  0.7442  0.0610
  340MPD2    C2 5151   4.229   0.745   9.969 -0.4894  0.4714 -0.0221
  340MPD2    C3 5152   4.315   0.762  10.076 -0.0757 -0.3012  0.8054
  340MPD2    C4 5153   4.271   0.736  10.205  0.2086 -0.0313 -0.1297
  340MPD2    C5 5154   4.141   0.694  10.222  0.3047 -0.2099  0.2493
  340MPD2     H 5155   4.267   0.759   9.868 -2.2205 -0.4087 -0.7875
  340MPD2    H1 5156   4.336   0.749  10.291  0.0882 -0.9505  0.0983
  340MPD2    H2 5157   3.979   0.591  10.141  0.1559 -0.1128 -0.8954
  340MPD2    H3 5158   4.111   0.657  10.319 -1.2756 -2.1139 -0.9494
  340MPD2     N 5159   4.450   0.810  10.067  0.1429 -0.2396 -0.0123
  340MPD2    H5 5160   4.508   0.806  10.150 -1.7880  0.9013  1.4019
  340MPD2    N1 5161   4.037   0.620   9.889  0.1171  1.1968 -0.0646
  340MPD2    H7 5162   3.965   0.553   9.913 -0.2112  1.5572 -0.0349
  341TMC3    C1 5163   3.993   0.537   9.665 -0.1488 -0.1856  0.7285
  341TMC3    C2 5164   3.970   0.407   9.708  0.5372 -0.0644  0.0775
  341TMC3    C3 5165   3.952   0.295   9.630  0.2198  0.6339 -0.5537
  341TMC3    C4 5166   4.009   0.545   9.526 -0.5250 -0.0052 -0.2334
  341TMC3    C5 5167   3.998   0.428   9.450 -0.7064 -0.6825 -0.6779
  341TMC3    C6 5168   3.975   0.305   9.498  0.2971  0.6482 -0.2309
  341TMC3     C 5169   4.055   0.636   9.752 -0.4218  0.9989  0.0999
  341TMC3     O 5170   4.135   0.715   9.704 -0.4345  0.4710  0.2935
  341TMC3     H 5171   3.951   0.398   9.814  3.0012 -2.0934  0.3466
  341TMC3    H1 5172   4.053   0.637   9.490 -1.3887  0.9968  1.3011
  341TMC3    H2 5173   3.960   0.221   9.432  2.7389  1.1150 -1.3717
  341TMC3    C7 5174   4.017   0.437   9.308  0.3328  0.3245  1.1315
  341TMC3    C8 5175   3.887   0.167   9.690 -0.1270 -0.6117  0.1237
  341TMC3    O1 5176   4.075   0.339   9.269 -0.0745  0.6440  0.2954
  341TMC3    O2 5177   3.868   0.162   9.810 -0.1062 -0.0001  0.2748
  342MPD2     C 5178   2.100   3.855  17.719 -0.2848 -0.7319  0.0730
  342MPD2    C1 5179   2.228   3.825  17.670  0.5718 -0.1136 -0.2947
  342MPD2    C2 5180   2.337   3.901  17.701  0.0746  0.8659  0.0278
  342MPD2    C3 5181   2.320   4.014   0.054  0.3433  0.0725 -0.2591
  342MPD2    C4 5182   2.189   4.046   0.098 -0.2746  0.4244  0.0685
  342MPD2    C5 5183   2.083   3.965   0.074 -1.2420 -0.2158 -0.1563
  342MPD2     H 5184   2.439   3.876  17.673 -0.3384 -0.3223 -0.4185
  342MPD2    H1 5185   2.164   4.136   0.154 -1.7296  1.6198 -2.4787
  342MPD2    H2 5186   2.024   3.787  17.683  0.7277 -1.2090 -1.1431
  342MPD2    H3 5187   1.991   3.993   0.123 -0.0842 -0.9436  2.4411
  342MPD2     N 5188   2.427   4.097   0.099  0.8778  0.5454 -0.2282
  342MPD2    H5 5189   2.409   4.180   0.155 -3.0624 -0.4508  0.0071
  342MPD2    N1 5190   2.256   3.701  17.596  0.2355 -0.9720 -0.8240
  342MPD2    H7 5191   2.348   3.697  17.552  0.0521  0.7403 -1.3464
  343TMC3    C1 5192   2.220   3.515  17.460 -0.1367 -0.4873 -0.4736
  343TMC3    C2 5193   2.306   3.560  17.357  0.2641  0.3919  0.0146
  343TMC3    C3 5194   2.354   3.470  17.262  0.3355  0.0902 -0.0530
  343TMC3    C4 5195   2.185   3.386  17.477  0.7805 -0.3406  0.6816
  343TMC3    C5 5196   2.229   3.308  17.376  0.3800  0.8659 -0.0117
  343TMC3    C6 5197   2.310   3.346  17.273  0.4865  0.5438  0.9297
  343TMC3     C 5198   2.163   3.607  17.556  0.3332  0.6100 -0.1861
  343TMC3     O 5199   2.055   3.581  17.606  0.1339  0.0276 -0.5655
  343TMC3     H 5200   2.335   3.662  17.336 -1.9827  0.4667 -2.6626
  343TMC3    H1 5201   2.117   3.357  17.557  0.3571  2.3746  1.3204
  343TMC3    H2 5202   2.329   3.272  17.196 -0.3717  0.7241  0.5452
  343TMC3    C7 5203   2.199   3.163  17.379  0.1725  0.7408  0.9147
  343TMC3    C8 5204   2.443   3.522  17.159  0.2127 -0.2660 -0.0662
  343TMC3    O1 5205   2.207   3.096  17.278 -0.0416  0.5187 -0.6062
  343TMC3    O2 5206   2.481   3.638  17.175 -0.4965  0.2031  0.2325
  344MPD2     C 5207   2.559   3.375  10.014  0.0822 -0.2324 -0.1630
  344MPD2    C1 5208   2.659   3.379  10.114  0.2377 -0.3666  0.2189
  344MPD2    C2 5209   2.741   3.488  10.123 -0.0841 -0.4379  0.2695
  344MPD2    C3 5210   2.729   3.596  10.037 -0.2688 -0.1341 -0.4729
  344MPD2    C4 5211   2.630   3.583   9.943  0.5654 -0.3669 -0.2786
  344MPD2    C5 5212   2.550   3.479   9.928  0.1566 -0.5033 -0.1775
  344MPD2     H 5213   2.814   3.491  10.203 -1.7591 -1.7131  1.8464
  344MPD2    H1 5214   2.615   3.664   9.872 -0.2693 -0.5232 -0.2790
  344MPD2    H2 5215   2.469   3.314  10.008  1.8910 -2.9761  1.0031
  344MPD2    H3 5216   2.472   3.481   9.853 -0.8341 -1.6473  0.8307
  344MPD2     N 5217   2.807   3.715  10.045 -0.2241 -1.3826  0.3985
  344MPD2    H5 5218   2.774   3.784   9.977  1.0074 -1.7051 -0.5342
  344MPD2    N1 5219   2.668   3.274  10.207 -0.1646 -0.3774 -0.4050
  344MPD2    H7 5220   2.742   3.274  10.276 -0.1445  0.9904 -0.4280
  345TMC3    C1 5221   2.999   3.837  10.092 -0.4127  0.1258  0.3365
  345TMC3    C2 5222   3.100   3.865  10.173  0.2165  0.6519  0.0090
  345TMC3    C3 5223   3.169   3.980  10.165  0.0012 -1.2455  0.1303
  345TMC3    C4 5224   2.970   3.915   9.983  0.0682  0.0128 -0.4810
  345TMC3    C5 5225   3.061   4.011   9.958  0.4339 -0.0752  0.5590
  345TMC3    C6 5226   3.151   4.055  10.051 -0.0314  0.6129 -0.3403
  345TMC3     C 5227   2.918   3.728  10.126  0.1288  0.4404  0.0083
  345TMC3     O 5228   2.965   3.652  10.212  0.4425 -0.0552  0.2335
  345TMC3     H 5229   3.111   3.808  10.264 -2.5740 -2.6576 -1.7170
  345TMC3    H1 5230   2.891   3.892   9.913 -0.7666 -0.0937  0.4878
  345TMC3    H2 5231   3.207   4.147  10.035  1.0418  0.0953  0.4093
  345TMC3    C7 5232   3.012   4.111   9.872 -0.1811  0.3621  0.5426
  345TMC3    C8 5233   3.185   4.059  10.284 -0.2354  0.1996 -0.5864
  345TMC3    O1 5234   3.011   4.223   9.919  0.8659 -0.4242 -0.6653
  345TMC3    O2 5235   3.184   4.181  10.276 -0.4378 -0.0522  0.6312
  346MPD2     C 5236   3.076   0.241  13.962 -0.7967 -0.1613  0.0752
  346MPD2    C1 5237   3.213   0.207  13.984  0.1887  0.6232  0.4714
  346MPD2    C2 5238   3.288   0.279  14.073  0.3397  0.6184 -0.2828
  346MPD2    C3 5239   3.230   0.375  14.148 -0.1601  0.2891  0.0638
  346MPD2    C4 5240   3.095   0.405  14.132  0.3318 -0.3892  0.6878
  346MPD2    C5 5241   3.027   0.343  14.034 -0.7373 -0.1203 -0.7257
  346MPD2     H 5242   3.394   0.263  14.087  0.5480  4.1762  2.1591
  346MPD2    H1 5243   3.041   0.485  14.182 -1.9901 -2.2746  1.2238
  346MPD2    H2 5244   3.021   0.199  13.879  0.8683 -1.2574 -0.4807
  346MPD2    H3 5245   2.933   0.393  14.011 -0.8308 -1.2963 -2.8753
  346MPD2     N 5246   3.310   0.455  14.231  1.2420  0.0474 -0.1785
  346MPD2    H5 5247   3.404   0.419  14.233  0.9364 -0.8487 -2.2967
  346MPD2    N1 5248   3.272   0.102  13.911  0.4295 -0.0326  0.4096
  346MPD2    H7 5249   3.209   0.064  13.840 -0.4096  2.7622 -0.3173
  347TMC3    C1 5250   3.374   0.584  14.414 -0.0663  0.1951 -0.5681
  347TMC3    C2 5251   3.504   0.571  14.371 -0.3488  0.5108 -0.5990
  347TMC3    C3 5252   3.596   0.627  14.451  0.5910  0.0472  0.1573
  347TMC3    C4 5253   3.340   0.664  14.520  0.2684  0.0606  0.7258
  347TMC3    C5 5254   3.436   0.734  14.592 -0.9562  0.6966  0.7630
  347TMC3    C6 5255   3.568   0.718  14.555 -0.7134 -0.8071 -0.5641
  347TMC3     C 5256   3.267   0.554  14.325 -0.1647  0.0585  0.1800
  347TMC3     O 5257   3.153   0.588  14.350  0.1854 -0.1409  0.4209
  347TMC3     H 5258   3.533   0.537  14.273  2.7077  1.4195 -0.0059
  347TMC3    H1 5259   3.239   0.661  14.561  1.1593 -2.1677  2.7538
  347TMC3    H2 5260   3.647   0.766  14.611 -0.2654  0.6362 -2.4572
  347TMC3    C7 5261   3.396   0.819  14.702 -0.8336  0.2959  0.2823
  347TMC3    C8 5262   3.730   0.580  14.435  0.1018  0.1738 -0.7339
  347TMC3    O1 5263   3.287   0.788  14.748  0.3152 -0.1895 -0.0499
  347TMC3    O2 5264   3.748   0.467  14.386 -0.4853  0.0856 -0.2606
  348MPD2     C 5265   1.353   4.546  12.232 -0.4305 -0.2506 -0.1695
  348MPD2    C1 5266   1.476   4.555  12.173  0.0426 -0.1269 -0.2174
  348MPD2    C2 5267   1.473   4.594  12.038 -0.1100 -0.7553 -0.5316
  348MPD2    C3 5268   1.362   4.633  11.968  0.1185  0.8828 -0.2060
  348MPD2    C4 5269   1.244   4.645  12.038  0.4949 -1.4129 -0.7031
  348MPD2    C5 5270   1.242   4.599  12.165  0.0245 -0.3445  0.5351
  348MPD2     H 5271   1.559   4.591  11.972  1.7698  0.7577  1.8841
  348MPD2    H1 5272   1.153   4.682  11.993 -0.1150 -0.4677  1.3083
  348MPD2    H2 5273   1.334   4.518  12.334 -0.1618 -2.7240 -0.8051
  348MPD2    H3 5274   1.148   4.594  12.218 -0.6212  2.8864 -0.3075
  348MPD2     N 5275   1.384   4.678  11.837 -0.1393  0.1553  0.0939
  348MPD2    H5 5276   1.481   4.669  11.811 -0.3510  2.0279 -1.3804
  348MPD2    N1 5277   1.599   4.522  12.238 -0.4985 -0.1460 -0.0049
  348MPD2    H7 5278   1.682   4.503  12.184 -1.1221 -0.7565 -0.7536
  349TMC3    C1 5279   1.756   4.481  12.406 -0.1043 -0.0252  0.1311
  349TMC3    C2 5280   1.775   4.381  12.496 -0.6993 -0.3038 -0.0778
  349TMC3    C3 5281   1.889   4.307  12.472 -0.0523 -0.0614  0.0085
  349TMC3    C4 5282   1.857   4.512  12.314 -0.0671 -0.9065  0.3684
  349TMC3    C5 5283   1.968   4.438  12.296 -0.9953  0.1493 -0.1574
  349TMC3    C6 5284   1.987   4.327  12.382 -0.7350  0.2580 -0.6065
  349TMC3     C 5285   1.614   4.504  12.376  0.7602  0.0523  0.6801
  349TMC3     O 5286   1.531   4.530  12.465  0.2036  0.0489 -0.2891
  349TMC3     H 5287   1.695   4.370  12.568  0.4539  1.5396  1.4753
  349TMC3    H1 5288   1.847   4.608  12.265 -0.7629 -0.1991  1.8826
  349TMC3    H2 5289   2.061   4.251  12.358 -0.0688  0.1403  1.7884
  349TMC3    C7 5290   1.962   4.391  12.166  0.6540  0.8069 -0.2175
  349TMC3    C8 5291   1.874   4.165  12.526  0.0931  0.2938 -1.0134
  349TMC3    O1 5292   1.920   4.276  12.153  0.2340  0.8136  0.5110
  349TMC3    O2 5293   1.778   4.144  12.598  0.1278 -0.3115  0.1747
  350MPD2     C 5294   0.773   2.550  10.871  0.0161 -0.0368 -0.6404
  350MPD2    C1 5295   0.690   2.511  10.977  0.0730  0.5688  0.3488
  350MPD2    C2 5296   0.686   2.594  11.090 -0.3544  0.0056  0.3490
  350MPD2    C3 5297   0.758   2.715  11.097 -0.1053  0.0562 -0.6059
  350MPD2    C4 5298   0.840   2.744  10.990  0.4142  0.2773  0.4497
  350MPD2    C5 5299   0.848   2.662  10.885  0.5047  0.0536 -0.3857
  350MPD2     H 5300   0.630   2.560  11.175  0.4992 -0.7868  0.5938
  350MPD2    H1 5301   0.899   2.835  10.984  1.3830 -0.3443  0.6888
  350MPD2    H2 5302   0.776   2.486  10.784  4.2210  0.0468 -0.5593
  350MPD2    H3 5303   0.908   2.698  10.802  0.9436  0.1123 -0.0441
  350MPD2     N 5304   0.733   2.795  11.217 -0.1002 -0.3798 -0.2637
  350MPD2    H5 5305   0.658   2.758  11.273  0.0331 -1.9345 -1.1355
  350MPD2    N1 5306   0.604   2.397  10.980  1.0778 -0.2937 -0.3062
  350MPD2    H7 5307   0.552   2.362  11.060 -1.7165 -0.0961 -2.0129
  351TMC3    C1 5308   0.510   2.195  10.901 -0.7882  0.0196 -0.3124
  351TMC3    C2 5309   0.498   2.095  10.804 -0.5142 -0.4042  0.0320
  351TMC3    C3 5310   0.434   1.979  10.832  0.3392  0.6536  0.2497
  351TMC3    C4 5311   0.429   2.178  11.017  0.0702  0.0138  0.6704
  351TMC3    C5 5312   0.345   2.068  11.026 -0.2689 -0.2788  0.8903
  351TMC3    C6 5313   0.349   1.963  10.934 -0.0240 -0.2660 -0.0216
  351TMC3     C 5314   0.590   2.313  10.871  0.4542 -0.0898 -0.2423
  351TMC3     O 5315   0.650   2.300  10.765 -0.1506  0.0313  0.4494
  351TMC3     H 5316   0.576   2.101  10.728 -1.0150 -4.1298 -0.7746
  351TMC3    H1 5317   0.430   2.254  11.095 -1.3445  0.2676  0.4421
  351TMC3    H2 5318   0.289   1.873  10.937 -0.7609  0.2188 -0.1918
  351TMC3    C7 5319   0.239   2.062  11.124  0.2524  0.7285  0.5147
  351TMC3    C8 5320   0.435   1.881  10.730 -0.0905 -0.5037 -0.2694
  351TMC3    O1 5321   0.201   1.949  11.146  0.0761 -0.0371 -0.0143
  351TMC3    O2 5322   0.507   1.915  10.632 -0.5629 -0.0142 -0.3203
  352MPD2     C 5323   4.502   0.010   1.042  0.0587  0.7193 -0.2307
  352MPD2    C1 5324   4.399   4.718   0.952 -0.4927  0.1861 -0.3022
  352MPD2    C2 5325   4.388   4.593   0.892 -0.0998  0.5695  0.4888
  352MPD2    C3 5326   4.490   4.500   0.910 -0.7173 -0.3676 -0.0037
  352MPD2    C4 5327   4.600   4.540   0.988 -0.6211 -0.0172 -0.0365
  352MPD2    C5 5328   4.606   4.657   1.058  0.0827 -0.1159 -0.2019
  352MPD2     H 5329   4.311   4.572   0.819 -1.3034  0.7614  1.7070
  352MPD2    H1 5330   4.691   4.480   0.983 -0.1063  0.9140 -2.1446
  352MPD2    H2 5331   4.506   0.103   1.097 -2.1092 -0.4894  1.9754
  352MPD2    H3 5332   4.691   4.688   1.118  0.0860  0.5654 -0.5671
  352MPD2     N 5333   4.495   4.373   0.848  0.0393 -0.3614  0.2785
  352MPD2    H5 5334   4.579   4.323   0.876 -0.8371 -1.6641  0.6005
  352MPD2    N1 5335   4.310   0.092   0.923  0.2879 -0.0361 -0.1113
  352MPD2    H7 5336   4.327   0.178   0.973  1.5799 -0.1458 -0.3680
  353TMC3    C1 5337   4.457   4.186   0.703  0.5960  0.5810 -0.2991
  353TMC3    C2 5338   4.586   4.141   0.719  0.1607  0.0973  0.2295
  353TMC3    C3 5339   4.603   4.013   0.677 -0.1084 -0.4758 -0.1993
  353TMC3    C4 5340   4.357   4.118   0.646 -0.2686  0.3844  0.4124
  353TMC3    C5 5341   4.374   3.987   0.602  0.3182 -0.0900  0.7997
  353TMC3    C6 5342   4.499   3.929   0.632  1.0263 -0.1590 -0.1119
  353TMC3     C 5343   4.408   4.309   0.760 -0.0565 -0.2410 -0.1883
  353TMC3     O 5344   4.295   4.348   0.737  0.2924 -0.2138  0.1444
  353TMC3     H 5345   4.667   4.197   0.763 -1.6058  2.0734  0.9728
  353TMC3    H1 5346   4.262   4.163   0.622 -0.1863  0.5561  0.4047
  353TMC3    H2 5347   4.523   3.828   0.599  2.1353 -0.4312  1.5187
  353TMC3    C7 5348   4.257   3.907   0.630 -0.3887  0.5905  0.2186
  353TMC3    C8 5349   4.722   3.957   0.726  0.6798  0.6310 -0.2923
  353TMC3    O1 5350   4.175   3.961   0.701 -0.4191  0.4371 -0.0229
  353TMC3    O2 5351   0.097   4.017   0.714  0.3713 -0.0643 -0.6901
  354TMC3    C1 5352   0.986   0.901  13.743  0.5645  0.5536 -0.8606
  354TMC3    C2 5353   1.056   1.021  13.745 -0.1615  0.4857 -0.3354
  354TMC3    C3 5354   1.050   1.089  13.624  0.3237  0.2706 -0.2989
  354TMC3    C4 5355   0.922   0.847  13.632 -0.0599 -0.0700  0.1123
  354TMC3    C5 5356   0.938   0.917  13.512 -0.3302  0.5234 -0.3360
  354TMC3    C6 5357   0.992   1.039  13.512  0.6600  0.5804 -0.6968
  354TMC3     C 5358   0.940   0.853  13.874  0.3475 -0.0445  0.1140
  354TMC3     O 5359   0.820   0.821  13.869  0.1442 -0.5115 -0.2542
  354TMC3     H 5360   1.094   1.065  13.836 -1.7359 -0.3546  0.7441
  354TMC3    H1 5361   0.914   0.739  13.641  1.7830 -0.0172  2.2757
  354TMC3    H2 5362   0.951   1.105  13.436 -3.4724 -0.8661  0.2731
  354TMC3    C7 5363   0.948   0.844  13.383  0.2872 -0.5209  0.2442
  354TMC3    C8 5364   1.135   1.205  13.609 -0.1728 -0.0537  0.2769
  354TMC3    O1 5365   0.963   0.724  13.395 -0.0645  0.2061 -0.0469
  354TMC3    O2 5366   1.148   1.279  13.704  0.2998  0.9004 -0.2558
  355MPD2     C 5367   1.760   1.672  12.188 -0.0152 -0.6508 -0.4556
  355MPD2    C1 5368   1.752   1.806  12.158 -0.4267 -0.4831  0.2118
  355MPD2    C2 5369   1.720   1.887  12.268  0.7192  0.3778 -0.1786
  355MPD2    C3 5370   1.729   1.835  12.399  0.5659 -0.6103 -0.2384
  355MPD2    C4 5371   1.757   1.706  12.424  0.3504 -0.0756 -0.0254
  355MPD2    C5 5372   1.764   1.629  12.316 -0.3492 -0.0090  0.4414
  355MPD2     H 5373   1.685   1.989  12.259  3.8808  1.6446  1.9712
  355MPD2    H1 5374   1.770   1.659  12.520  0.7487 -2.1517 -1.0810
  355MPD2    H2 5375   1.778   1.597  12.111  0.5162  1.0424 -1.9691
  355MPD2    H3 5376   1.777   1.525  12.346  0.5575  0.3392  1.2494
  355MPD2     N 5377   1.691   1.915  12.513 -0.4841  0.1033  0.2059
  355MPD2    H5 5378   1.689   1.861  12.599  1.1168  2.0919  1.4877
  355MPD2    N1 5379   1.753   1.861  12.031  0.5434  0.5352  0.6099
  355MPD2    H7 5380   1.743   1.962  12.025 -2.8424  0.2806  1.5083
  356TMC3    C1 5381   1.658   2.108  12.656 -0.4001  0.4124 -0.7281
  356TMC3    C2 5382   1.566   2.205  12.682  0.2957  0.0268  0.0245
  356TMC3    C3 5383   1.539   2.242  12.811 -0.4983  0.4143  0.2352
  356TMC3    C4 5384   1.712   2.047  12.763  0.0678  0.8313  0.5030
  356TMC3    C5 5385   1.683   2.091  12.888  0.1985 -0.0980  0.4886
  356TMC3    C6 5386   1.584   2.176  12.917  0.0222 -0.0871 -0.3682
  356TMC3     C 5387   1.654   2.043  12.521  0.2790  0.0893  0.0657
  356TMC3     O 5388   1.621   2.117  12.427  0.5773  0.2100  0.7362
  356TMC3     H 5389   1.525   2.259  12.598 -2.7119  0.7902  1.9549
  356TMC3    H1 5390   1.789   1.971  12.747 -0.3914  0.9419 -2.1922
  356TMC3    H2 5391   1.566   2.214  13.017  1.1664  0.7255 -0.4742
  356TMC3    C7 5392   1.800   2.111  12.962 -1.1247 -0.5090 -0.1671
  356TMC3    C8 5393   1.529   2.381  12.845  0.7840 -0.0590 -0.3851
  356TMC3    O1 5394   1.886   2.023  12.951 -0.2401 -0.0314 -0.2097
  356TMC3    O2 5395   1.602   2.411  12.934  0.2463 -0.0048 -1.0375
  357MPD2     C 5396   1.173   1.767   1.007 -0.3236  0.2510  0.0910
  357MPD2    C1 5397   1.114   1.837   1.103  0.2487  0.0104  0.3506
  357MPD2    C2 5398   0.980   1.812   1.126 -0.0265 -0.4614 -0.5004
  357MPD2    C3 5399   0.905   1.734   1.045  0.1986 -0.2055 -0.2886
  357MPD2    C4 5400   0.970   1.660   0.945  1.0160 -0.0612 -0.0874
  357MPD2    C5 5401   1.104   1.683   0.924  0.2225 -0.7245  0.3234
  357MPD2     H 5402   0.927   1.860   1.208 -0.8258 -1.3185 -0.5215
  357MPD2    H1 5403   0.924   1.591   0.875  2.0412 -0.2676 -0.5732
  357MPD2    H2 5404   1.280   1.782   0.991 -0.7618  1.2867 -1.8855
  357MPD2    H3 5405   1.161   1.631   0.848 -0.1881 -0.0821 -0.4259
  357MPD2     N 5406   0.762   1.718   1.057 -0.6500  0.7446 -0.2664
  357MPD2    H5 5407   0.722   1.654   0.989 -0.5062 -0.4903  0.8337
  357MPD2    N1 5408   1.191   1.932   1.170  0.0399 -0.4459 -0.0530
  357MPD2    H7 5409   1.277   1.971   1.132  0.2368  0.1219  0.9588
  358TMC3    C1 5410   1.262   2.064   1.338  0.2182  0.3155 -0.0988
  358TMC3    C2 5411   1.385   2.047   1.284 -0.6852  0.4866  0.2586
  358TMC3    C3 5412   1.486   2.133   1.318  0.2182 -0.5880  0.0069
  358TMC3    C4 5413   1.229   2.162   1.427  0.0418 -0.2353  0.6049
  358TMC3    C5 5414   1.333   2.253   1.455  0.0359  0.7510 -0.7367
  358TMC3    C6 5415   1.460   2.241   1.396 -0.3138 -0.2013  0.5011
  358TMC3     C 5416   1.154   1.994   1.283  0.3616  0.5412  0.6742
  358TMC3     O 5417   1.054   1.973   1.352 -0.4041  0.1442  0.2823
  358TMC3     H 5418   1.409   1.956   1.230 -0.6092 -0.0007  1.1043
  358TMC3    H1 5419   1.129   2.179   1.463 -0.0920  1.2935 -0.4540
  358TMC3    H2 5420   1.536   2.309   1.433  0.4843 -0.1941 -1.1815
  358TMC3    C7 5421   1.333   2.335   1.576  0.2178 -0.4448  0.2774
  358TMC3    C8 5422   1.618   2.094   1.282  0.2840 -0.5071 -0.3690
  358TMC3    O1 5423   1.431   2.404   1.604 -0.4349 -0.0483  0.3253
  358TMC3    O2 5424   1.628   2.013   1.190 -0.6292  0.2460 -0.1872
  359MPD2     C 5425   1.290   0.365  12.850 -0.3389  0.4916 -0.3701
  359MPD2    C1 5426   1.269   0.271  12.754  0.4905 -0.0451 -0.2984
  359MPD2    C2 5427   1.174   0.169  12.775 -1.0392 -0.4634  0.3088
  359MPD2    C3 5428   1.092   0.169  12.879  0.2342  0.1085 -0.2211
  359MPD2    C4 5429   1.106   0.269  12.971  0.5799 -0.1215  0.5616
  359MPD2    C5 5430   1.193   0.365  12.948 -0.1911 -0.6636 -1.1933
  359MPD2     H 5431   1.168   0.085  12.707  0.2345  0.6185 -1.1316
  359MPD2    H1 5432   1.043   0.274  13.059 -0.3073  1.3877 -0.1575
  359MPD2    H2 5433   1.360   0.447  12.846  1.8433 -1.5309 -3.0383
  359MPD2    H3 5434   1.202   0.450  13.014  0.2642 -1.5963 -0.0534
  359MPD2     N 5435   0.989   0.068  12.909 -0.5898 -0.1809  0.1628
  359MPD2    H5 5436   0.941   0.084  12.998 -0.9276  1.1113 -0.2570
  359MPD2    N1 5437   1.350   0.252  12.633  0.8024 -0.1639  0.2195
  359MPD2    H7 5438   1.344   0.161  12.588 -1.1495  0.1524 -0.1374
  360TMC3    C1 5439   1.490   0.314  12.453  0.3565  0.4221  0.8434
  360TMC3    C2 5440   1.624   0.301  12.430  0.8252  0.3579  0.2802
  360TMC3    C3 5441   1.674   0.221  12.331  0.1881  0.4729  0.0396
  360TMC3    C4 5442   1.407   0.258  12.362 -0.6642  0.0439 -0.0154
  360TMC3    C5 5443   1.461   0.195  12.249  0.4029 -0.5850 -0.1830
  360TMC3    C6 5444   1.591   0.164  12.240 -0.2566  0.9269 -0.3882
  360TMC3     C 5445   1.440   0.345  12.590 -0.6861  0.8992  0.8671
  360TMC3     O 5446   1.493   0.434  12.656 -0.0338 -0.2104 -1.0266
  360TMC3     H 5447   1.683   0.332  12.515  0.5194 -0.3517  0.7392
  360TMC3    H1 5448   1.301   0.279  12.370 -0.6908 -0.6804  1.3903
  360TMC3    H2 5449   1.631   0.111  12.154  1.0832 -0.2521  0.9811
  360TMC3    C7 5450   1.410   0.236  12.122 -0.1471 -0.1576 -0.1350
  360TMC3    C8 5451   1.807   0.241  12.280 -0.4256  0.2272 -0.3492
  360TMC3    O1 5452   1.501   0.253  12.038 -0.3175  0.0239  0.8477
  360TMC3    O2 5453   1.860   0.149  12.227 -0.6083 -0.1802  0.0957
  361MPD2     C 5454   3.353   3.890  16.532  0.2245  0.4114 -0.2279
  361MPD2    C1 5455   3.311   3.927  16.663  0.2992  0.4163 -0.1069
  361MPD2    C2 5456   3.379   3.863  16.766  0.2242  0.3307 -0.5694
  361MPD2    C3 5457   3.487   3.782  16.749  0.0575  0.0154  0.4398
  361MPD2    C4 5458   3.521   3.743  16.619 -0.1538  0.3551 -0.3855
  361MPD2    C5 5459   3.450   3.794  16.514 -0.1841  0.3965  0.1630
  361MPD2     H 5460   3.334   3.886  16.862 -1.0234 -1.8391 -0.6334
  361MPD2    H1 5461   3.598   3.671  16.594  0.0232  0.6533 -0.7023
  361MPD2    H2 5462   3.318   3.940  16.443  0.2628  2.3620  0.8428
  361MPD2    H3 5463   3.481   3.777  16.412  0.3409  1.2453  0.1808
  361MPD2     N 5464   3.543   3.706  16.851 -0.2563  0.6995  0.5421
  361MPD2    H5 5465   3.597   3.622  16.834 -1.9350 -0.3522  0.4230
  361MPD2    N1 5466   3.224   4.039  16.695  0.1669  0.4214 -0.2124
  361MPD2    H7 5467   3.219   4.061  16.793 -1.5248  0.0623 -0.2141
  362TMC3    C1 5468   3.077   4.224  16.662  0.0284  0.9967  0.2085
  362TMC3    C2 5469   3.052   4.234  16.798  0.0413  0.4358 -0.2677
  362TMC3    C3 5470   2.941   4.305  16.834  0.1917  0.7792  0.3197
  362TMC3    C4 5471   2.999   4.296  16.570  0.2675  0.6473  0.4341
  362TMC3    C5 5472   2.905   4.385  16.612 -0.3945  1.0742  0.2178
  362TMC3    C6 5473   2.876   4.385  16.738 -0.0273 -0.4580  0.6828
  362TMC3     C 5474   3.156   4.113  16.599 -0.0764  0.4376 -0.0828
  362TMC3     O 5475   3.135   4.083  16.481 -0.5257  0.2217 -0.4632
  362TMC3     H 5476   3.125   4.202  16.871 -1.3773 -1.3245  0.4010
  362TMC3    H1 5477   3.022   4.279  16.466 -0.0954  0.8846  0.3189
  362TMC3    H2 5478   2.803   4.457  16.773 -0.8212 -0.7324 -0.4236
  362TMC3    C7 5479   2.813   4.453  16.518  0.8622  0.2283 -0.4931
  362TMC3    C8 5480   2.940   4.339  16.981  0.1679 -0.5030 -0.1190
  362TMC3    O1 5481   2.758   4.554  16.561  0.4924  0.1691  0.0732
  362TMC3    O2 5482   3.009   4.266  17.050 -0.1977  0.2010  0.3743
  363TMC3    C1 5483   1.501   1.822   9.507  0.1239  0.1000 -0.7669
  363TMC3    C2 5484   1.500   1.697   9.568  0.8939 -0.4098 -0.1442
  363TMC3    C3 5485   1.385   1.672   9.635  0.8760  0.1151 -0.2244
  363TMC3    C4 5486   1.398   1.914   9.502 -0.1564 -0.0692 -1.0105
  363TMC3    C5 5487   1.289   1.881   9.574 -0.0654  0.2036  0.2827
  363TMC3    C6 5488   1.279   1.762   9.635 -0.0253 -0.0314 -0.4350
  363TMC3     C 5489   1.617   1.858   9.426  0.8049  0.2370 -0.6069
  363TMC3     O 5490   1.680   1.771   9.374  0.3811 -0.1019  0.0583
  363TMC3     H 5491   1.588   1.635   9.563  2.4531  1.9261 -1.7863
  363TMC3    H1 5492   1.408   2.009   9.451 -0.0652 -0.7638 -2.2808
  363TMC3    H2 5493   1.191   1.746   9.696 -0.4967  1.9899 -0.6028
  363TMC3    C7 5494   1.180   1.974   9.599  0.6698  0.3972  0.2827
  363TMC3    C8 5495   1.366   1.534   9.693 -1.1161  0.1093 -0.0770
  363TMC3    O1 5496   1.073   1.940   9.649 -0.1297 -0.1805  0.4061
  363TMC3    O2 5497   1.254   1.480   9.693  0.4152 -0.3610 -0.0035
  364MPD2     C 5498   4.593   1.146  10.736  0.2425 -0.1299 -0.4742
  364MPD2    C1 5499   4.696   1.140  10.647 -0.1140 -0.3773 -0.3613
  364MPD2    C2 5500   0.079   1.080  10.694 -0.2531 -0.7940 -0.1642
  364MPD2    C3 5501   0.088   1.009  10.811 -0.2303 -0.0340 -0.1057
  364MPD2    C4 5502   4.716   1.009  10.899  0.5399 -0.0495  0.8860
  364MPD2    C5 5503   4.604   1.075  10.854 -0.1798  0.0002 -0.7654
  364MPD2     H 5504   0.161   1.078  10.624  0.9316  2.1373  1.1454
  364MPD2    H1 5505   4.718   0.959  10.995  1.3060 -1.2939  0.2170
  364MPD2    H2 5506   4.504   1.202  10.707 -0.1372 -0.0609  0.8213
  364MPD2    H3 5507   4.530   1.088  10.932 -0.8624  0.9359 -1.5560
  364MPD2     N 5508   0.192   0.923  10.850 -0.3435  0.1698 -0.5536
  364MPD2    H5 5509   0.193   0.893  10.947  1.4788 -0.7857 -0.8474
  364MPD2    N1 5510   4.690   1.218  10.528  0.5320  0.2435 -0.0483
  364MPD2    H7 5511   4.601   1.257  10.502  0.3906 -0.1248 -0.1174
  365TMC3    C1 5512   0.017   1.357  10.354 -0.6205  0.5816  0.2397
  365TMC3    C2 5513   0.083   1.359  10.228 -0.4003  0.1976  0.9915
  365TMC3    C3 5514   0.067   1.474  10.156  0.3130  0.6511 -0.1915
  365TMC3    C4 5515   4.685   1.463  10.399  0.1484  0.3205 -0.4868
  365TMC3    C5 5516   4.683   1.577  10.329 -0.2861 -0.1219 -0.0374
  365TMC3    C6 5517   4.728   1.586  10.201 -0.4484  0.9536  0.0923
  365TMC3     C 5518   0.058   1.250  10.442 -0.3705  0.1190 -0.4002
  365TMC3     O 5519   0.153   1.178  10.417  0.0251  0.0084  0.0500
  365TMC3     H 5520   0.136   1.275  10.186 -0.3328  0.5601  0.3473
  365TMC3    H1 5521   4.628   1.461  10.492  0.3676  0.9688 -0.3405
  365TMC3    H2 5522   4.731   1.681  10.149 -1.4723  0.7851 -0.2816
  365TMC3    C7 5523   4.692   1.702  10.400  0.2575  0.4007 -0.1270
  365TMC3    C8 5524   0.151   1.496  10.040 -0.0287  0.0696  0.0332
  365TMC3    O1 5525   4.698   1.807  10.335 -0.2733 -0.3252 -0.3505
  365TMC3    O2 5526   0.132   1.594   9.967  0.1325  0.2969 -0.4281
  366MPD2     C 5527   4.041   2.145  15.280 -0.0733 -0.0812  0.1394
  366MPD2    C1 5528   4.056   2.164  15.419 -0.5106 -0.8028 -0.6598
  366MPD2    C2 5529   4.179   2.132  15.472 -0.3254 -0.4172 -0.7000
  366MPD2    C3 5530   4.288   2.104  15.393 -0.5460  0.4232 -0.7977
  366MPD2    C4 5531   4.269   2.082  15.261 -0.1882  0.2074 -0.2600
  366MPD2    C5 5532   4.145   2.103  15.202  0.4909 -0.3926  0.7994
  366MPD2     H 5533   4.195   2.166  15.574  1.5588 -0.4666 -0.9961
  366MPD2    H1 5534   4.346   2.056  15.189 -0.7658 -1.0486 -0.4162
  366MPD2    H2 5535   3.948   2.172  15.231 -0.6902 -1.7464  0.3791
  366MPD2    H3 5536   4.129   2.105  15.095 -0.5536  0.7523  0.9826
  366MPD2     N 5537   4.424   2.096  15.438 -0.7514 -0.3383  0.3734
  366MPD2    H5 5538   4.480   2.028  15.387 -0.5065 -1.9515  2.7860
  366MPD2    N1 5539   3.955   2.216  15.501 -0.4472  0.1909  0.1067
  366MPD2    H7 5540   3.980   2.242  15.596 -0.3734  0.8514 -0.0974
  367TMC3    C1 5541   3.797   2.366  15.548  0.8336  0.3507 -0.7058
  367TMC3    C2 5542   3.894   2.436  15.620  0.4411 -0.4409 -0.1037
  367TMC3    C3 5543   3.857   2.556  15.677  0.4318 -0.1623  0.6587
  367TMC3    C4 5544   3.671   2.414  15.529  0.4512 -0.4867  0.4001
  367TMC3    C5 5545   3.631   2.531  15.592  0.5119  0.5662 -0.7710
  367TMC3    C6 5546   3.725   2.604  15.656 -0.6516  0.8264  0.0722
  367TMC3     C 5547   3.838   2.262  15.454 -0.4146  0.3652 -0.6877
  367TMC3     O 5548   3.763   2.206  15.374  0.4191 -0.0409 -0.0777
  367TMC3     H 5549   4.000   2.411  15.612  0.6448  0.1767  0.6905
  367TMC3    H1 5550   3.607   2.356  15.463 -0.7612  1.6745 -0.3210
  367TMC3    H2 5551   3.692   2.699  15.698 -1.1329  0.0133  1.5426
  367TMC3    C7 5552   3.506   2.596  15.560 -0.2800  0.1892 -0.3020
  367TMC3    C8 5553   3.936   2.614  15.780 -0.3638  0.2654 -0.1588
  367TMC3    O1 5554   3.503   2.717  15.578 -0.0906  0.4985 -0.3407
  367TMC3    O2 5555   4.035   2.552  15.814 -0.2155  0.0591 -0.0245
  368MPD2     C 5556   4.043   4.211  13.628 -0.1582 -0.8889 -0.1820
  368MPD2    C1 5557   4.077   4.264  13.502 -0.1004  0.0528 -0.0382
  368MPD2    C2 5558   4.209   4.294  13.485  0.4711 -0.1034  0.5585
  368MPD2    C3 5559   4.313   4.248  13.569  0.0506  0.2598 -0.1171
  368MPD2    C4 5560   4.274   4.188  13.690  0.6913  0.0561  0.2138
  368MPD2    C5 5561   4.138   4.170  13.719  0.9599 -0.0086 -0.5452
  368MPD2     H 5562   4.228   4.342  13.390  0.6513 -2.0878 -0.3977
  368MPD2    H1 5563   4.342   4.164  13.771  1.1131  1.7390  0.3599
  368MPD2    H2 5564   3.942   4.192  13.662 -0.2555  1.1499  0.6257
  368MPD2    H3 5565   4.117   4.115  13.810  0.7251  0.2533 -0.4393
  368MPD2     N 5566   4.449   4.287  13.543 -0.1595  0.3424  0.2490
  368MPD2    H5 5567   4.520   4.245  13.602  0.3602  0.7652 -0.0785
  368MPD2    N1 5568   3.984   4.301  13.411  0.5714 -0.2203  0.1952
  368MPD2    H7 5569   3.888   4.307  13.444  0.6152 -1.3220  0.5518
  369TMC3    C1 5570   4.089   4.218  13.206  0.7222  0.2993  0.1080
  369TMC3    C2 5571   4.188   4.270  13.133 -0.5003  0.0579 -0.1126
  369TMC3    C3 5572   4.298   4.191  13.109  0.1083 -0.0305 -0.6408
  369TMC3    C4 5573   4.072   4.088  13.241  0.6086 -0.0734  0.0576
  369TMC3    C5 5574   4.184   4.013  13.219 -0.7868  0.8302  0.1606
  369TMC3    C6 5575   4.294   4.063  13.157 -0.2685 -0.7986 -0.4725
  369TMC3     C 5576   4.002   4.317  13.280  0.2605  0.5212  0.3552
  369TMC3     O 5577   3.939   4.381  13.198  0.6301 -0.3633 -0.4379
  369TMC3     H 5578   4.182   4.377  13.119 -0.6514 -0.1733 -1.8299
  369TMC3    H1 5579   3.994   4.070  13.313  0.1973 -0.2258 -0.4250
  369TMC3    H2 5580   4.384   4.002  13.160  0.8736  0.9157 -0.3962
  369TMC3    C7 5581   4.203   3.914  13.328  0.6321  0.3555  0.3698
  369TMC3    C8 5582   4.421   4.264  13.063  0.4303  0.6397 -0.0053
  369TMC3    O1 5583   4.310   3.908  13.387  0.8169  0.1524 -0.2279
  369TMC3    O2 5584   4.407   4.385  13.053  0.3567  0.4392  0.1552
  370TMC3    C1 5585   4.291   0.265  16.178  0.3366 -0.3509 -0.4956
  370TMC3    C2 5586   4.173   0.192  16.204  0.4043 -0.0957 -0.0199
  370TMC3    C3 5587   4.184   0.054  16.206  0.7400 -0.2946  0.3178
  370TMC3    C4 5588   4.410   0.202  16.155 -0.1997 -0.0448  0.3352
  370TMC3    C5 5589   4.417   0.063  16.150  0.4568  0.6432 -0.2415
  370TMC3    C6 5590   4.297   4.722  16.173  0.2751 -0.1594  0.6623
  370TMC3     C 5591   4.299   0.393  16.242  0.6720  0.3651 -0.2192
  370TMC3     O 5592   4.195   0.437  16.294  0.1710 -0.0127  0.2305
  370TMC3     H 5593   4.074   0.234  16.219  0.8156  2.2512 -3.8470
  370TMC3    H1 5594   4.503   0.257  16.148  0.0877 -0.4173  1.3153
  370TMC3    H2 5595   4.296   4.614  16.161 -0.3815  0.1988 -2.5437
  370TMC3    C7 5596   4.525   0.009  16.066  0.2313  0.2988  0.1442
  370TMC3    C8 5597   4.098   4.711  16.299 -0.0894 -0.1443 -0.1454
  370TMC3    O1 5598   4.592   0.095  16.006 -0.1028 -0.3867 -0.4905
  370TMC3    O2 5599   4.133   4.598  16.323 -0.0743  0.3356 -0.0564
  371TMC3    C1 5600   1.026   3.165  15.641 -1.0399 -0.5103  0.0922
  371TMC3    C2 5601   0.903   3.159  15.684  0.1649  0.0253 -0.0804
  371TMC3    C3 5602   0.842   3.282  15.699  0.0801  0.1238 -0.0574
  371TMC3    C4 5603   1.088   3.284  15.602  0.2299 -0.7941  0.6058
  371TMC3    C5 5604   1.018   3.401  15.612  0.0889 -0.5365 -0.0188
  371TMC3    C6 5605   0.896   3.408  15.670  0.0518  0.0694  0.2798
  371TMC3     C 5606   1.113   3.052  15.642 -0.0712 -0.0486  0.4992
  371TMC3     O 5607   1.223   3.065  15.592 -0.0670 -0.1107 -0.2123
  371TMC3     H 5608   0.856   3.063  15.701  1.6805 -0.8347 -0.6868
  371TMC3    H1 5609   1.192   3.289  15.570 -0.3388  0.1340 -1.1186
  371TMC3    H2 5610   0.845   3.503  15.687 -1.0400 -0.4251 -0.2833
  371TMC3    C7 5611   1.081   3.529  15.587  0.4565  0.0615  0.1723
  371TMC3    C8 5612   0.710   3.266  15.754  1.4409  0.0226  0.0824
  371TMC3    O1 5613   1.051   3.622  15.663  0.6867  0.3163 -0.0534
  371TMC3    O2 5614   0.663   3.151  15.761  0.0637 -0.2454  0.1455
  372MPD2     C 5615   0.392   4.141  13.676  0.2921 -0.3898 -0.9560
  372MPD2    C1 5616   0.515   4.198  13.722 -0.1024  0.6440 -0.0514
  372MPD2    C2 5617   0.638   4.125  13.703 -0.4907  0.4374  0.0438
  372MPD2    C3 5618   0.640   4.005  13.637  0.2255  0.7313  0.1233
  372MPD2    C4 5619   0.519   3.952  13.603 -0.3414  0.8083  0.6539
  372MPD2    C5 5620   0.399   4.018  13.619 -0.1951 -0.9836  0.3486
  372MPD2     H 5621   0.728   4.175  13.737 -0.0444  0.6873 -1.5081
  372MPD2    H1 5622   0.514   3.855  13.556 -1.3492 -1.5333  5.5334
  372MPD2    H2 5623   0.295   4.188  13.675 -0.6150 -2.2178  1.0105
  372MPD2    H3 5624   0.303   3.987  13.580 -0.9638 -1.2042  2.4411
  372MPD2     N 5625   0.760   3.930  13.626  0.8968 -0.1230 -0.3588
  372MPD2    H5 5626   0.838   3.963  13.681  0.4867  1.1595 -0.5441
  372MPD2    N1 5627   0.515   4.322  13.787  0.2768 -0.1392 -0.5598
  372MPD2    H7 5628   0.606   4.344  13.828  0.0607 -1.9937  0.8990
  373TMC3    C1 5629   0.900   3.743  13.582 -0.4297  0.9237  0.0101
  373TMC3    C2 5630   0.995   3.785  13.671  0.1328  0.2706 -0.6919
  373TMC3    C3 5631   1.111   3.715  13.676 -0.4701 -0.1494  0.4571
  373TMC3    C4 5632   0.921   3.629  13.511 -0.6939  0.6560  0.5652
  373TMC3    C5 5633   1.045   3.564  13.522 -0.5953  0.0923  0.4156
  373TMC3    C6 5634   1.140   3.602  13.608  0.9446  0.4870 -0.5721
  373TMC3     C 5635   0.773   3.812  13.559 -0.0794 -0.2086 -0.0103
  373TMC3     O 5636   0.694   3.756  13.481 -0.8709  0.5098 -0.1855
  373TMC3     H 5637   0.977   3.866  13.742  1.6094 -0.2979  0.3487
  373TMC3    H1 5638   0.849   3.602  13.434 -0.2274  2.0127 -0.3380
  373TMC3    H2 5639   1.242   3.565  13.602  1.0109  0.4247  0.9034
  373TMC3    C7 5640   1.046   3.426  13.494 -0.2156  0.3654 -0.2481
  373TMC3    C8 5641   1.207   3.772  13.769 -0.7255  0.4689 -0.5760
  373TMC3    O1 5642   1.152   3.366  13.499  0.5884 -0.2724 -0.8357
  373TMC3    O2 5643   1.189   3.889  13.800 -1.1013  0.3454  0.5746
  374TMC3    C1 5644   0.621   4.716   9.675 -0.0843 -0.2903  0.6922
  374TMC3    C2 5645   0.708   0.063   9.742 -0.2544 -0.3712 -0.2732
  374TMC3    C3 5646   0.796   0.145   9.667  0.6250 -0.0746 -0.7203
  374TMC3    C4 5647   0.608   4.721   9.539 -0.1079 -0.3048 -0.2654
  374TMC3    C5 5648   0.694   0.074   9.471  0.2769  0.3302  0.7679
  374TMC3    C6 5649   0.790   0.151   9.530  0.3396 -0.0191 -1.0811
  374TMC3     C 5650   0.547   4.614   9.739  0.1046 -0.0485 -0.1695
  374TMC3     O 5651   0.518   4.517   9.669 -0.2381 -0.1572 -0.3639
  374TMC3     H 5652   0.692   0.072   9.849  2.5127 -0.0060  0.1003
  374TMC3    H1 5653   0.538   4.664   9.478 -0.1911  0.4580 -0.8799
  374TMC3    H2 5654   0.840   0.231   9.476  0.9668  0.2528 -0.0890
  374TMC3    C7 5655   0.701   0.046   9.325 -0.2782  0.3394 -0.3023
  374TMC3    C8 5656   0.890   0.234   9.734  0.3431 -0.9559 -0.0775
  374TMC3    O1 5657   0.609   4.718   9.276  0.3489  0.3985  0.7224
  374TMC3    O2 5658   0.926   0.333   9.671  0.0415 -0.0811 -0.3946
  375MPD2     C 5659   1.167   0.755  17.276 -0.4311 -0.1724 -0.1533
  375MPD2    C1 5660   1.081   0.781  17.167  0.0260 -0.0218  0.1641
  375MPD2    C2 5661   1.127   0.766  17.041  0.7163  0.0918 -0.0404
  375MPD2    C3 5662   1.253   0.709  17.020  0.2220  0.3507 -0.1513
  375MPD2    C4 5663   1.333   0.684  17.127 -0.2141 -0.0473  0.3254
  375MPD2    C5 5664   1.294   0.716  17.251  0.2362 -0.1734 -0.1369
  375MPD2     H 5665   1.053   0.787  16.964 -0.5115  3.2848  1.9942
  375MPD2    H1 5666   1.426   0.632  17.109 -0.5935 -0.9107  0.8530
  375MPD2    H2 5667   1.144   0.766  17.381 -1.6919 -2.5983 -0.1789
  375MPD2    H3 5668   1.355   0.712  17.341  2.2365 -0.5601 -1.4980
  375MPD2     N 5669   1.307   0.688  16.891 -0.9254 -0.3162  0.5882
  375MPD2    H5 5670   1.401   0.649  16.889 -0.5467  0.5481  1.0403
  375MPD2    N1 5671   0.942   0.820  17.184 -0.4026  0.2474  0.2270
  375MPD2    H7 5672   0.884   0.831  17.101  0.4253 -0.0179 -0.3941
  376TMC3    C1 5673   1.322   0.644  16.655 -0.2734  0.1460 -0.1842
  376TMC3    C2 5674   1.456   0.615  16.671 -0.0273  0.1429  0.0934
  376TMC3    C3 5675   1.522   0.548  16.574  0.5203  0.2913 -0.1743
  376TMC3    C4 5676   1.250   0.588  16.549 -0.5718  0.0685  0.2576
  376TMC3    C5 5677   1.319   0.509  16.456  0.0117 -0.3505 -0.7300
  376TMC3    C6 5678   1.460   0.492  16.466  0.6645  0.1234  0.0475
  376TMC3     C 5679   1.240   0.696  16.771 -0.2054 -0.0964  0.5285
  376TMC3     O 5680   1.125   0.727  16.749 -0.0273 -0.4308 -0.2078
  376TMC3     H 5681   1.511   0.646  16.760 -1.3535  2.5447  0.0801
  376TMC3    H1 5682   1.145   0.612  16.539 -0.1327  1.6478 -0.5732
  376TMC3    H2 5683   1.509   0.441  16.385  1.6201  0.4478  0.4208
  376TMC3    C7 5684   1.238   0.458  16.345  0.5330 -0.6355 -0.6725
  376TMC3    C8 5685   1.662   0.545  16.575  0.3885 -0.4756 -0.6323
  376TMC3    O1 5686   1.133   0.518  16.323 -0.1139 -0.1202  0.3030
  376TMC3    O2 5687   1.721   0.541  16.681 -0.0473 -0.1810 -0.2215
  377MPD2     C 5688   3.657   0.206  12.710 -0.7905  0.2387 -0.4812
  377MPD2    C1 5689   3.785   0.190  12.766 -0.5578  0.0438  0.0951
  377MPD2    C2 5690   3.800   0.143  12.900  0.4830  0.7237 -0.4071
  377MPD2    C3 5691   3.687   0.115  12.977  0.5432 -0.4115  0.1020
  377MPD2    C4 5692   3.567   0.133  12.918 -0.0879 -0.4193 -0.2531
  377MPD2    C5 5693   3.554   0.171  12.786  0.1973 -0.3602 -0.3211
  377MPD2     H 5694   3.898   0.116  12.938 -0.5363 -1.0344  1.0021
  377MPD2    H1 5695   3.473   0.120  12.970 -1.4978 -1.4126 -3.0293
  377MPD2    H2 5696   3.636   0.241  12.609 -2.5233 -1.2373 -0.6293
  377MPD2    H3 5697   3.453   0.168  12.745  0.9155  0.5221 -2.1589
  377MPD2     N 5698   3.691   0.054  13.106  0.2757 -0.3637  0.0340
  377MPD2    H5 5699   3.602   0.013  13.132  0.1278  0.7355  1.2687
  377MPD2    N1 5700   3.896   0.219  12.683  0.5859  1.1268 -0.1090
  377MPD2    H7 5701   3.875   0.227  12.584  0.3730  0.4719 -0.1163
  378TMC3    C1 5702   4.177   0.140  12.386 -0.4484  0.3241  0.1517
  378TMC3    C2 5703   4.098   0.206  12.478 -0.1768  0.3981  0.0922
  378TMC3    C3 5704   4.134   0.198  12.616  0.4284 -0.5476 -0.0334
  378TMC3    C4 5705   4.287   0.074  12.435  0.3760  0.3481 -0.0291
  378TMC3    C5 5706   4.324   0.082  12.566 -0.1796 -0.0645 -0.1974
  378TMC3    C6 5707   4.248   0.143  12.660 -0.3425 -0.3301  0.4120
  378TMC3     C 5708   4.175   0.167  12.245  0.3090  0.3373 -0.8246
  378TMC3     O 5709   4.071   0.192  12.185 -0.4171  0.6205 -0.1820
  378TMC3     H 5710   4.017   0.268  12.441  0.5913  1.6471  0.4912
  378TMC3    H1 5711   4.340   4.732  12.377  0.6614 -2.1114  3.3690
  378TMC3    H2 5712   4.275   0.126  12.763 -2.2248 -3.5659  0.3360
  378TMC3    C7 5713   4.434   4.727  12.617  0.1795  0.1873 -0.8445
  378TMC3    C8 5714   4.030   0.209  12.721 -0.2323 -0.2978 -0.7079
  378TMC3    O1 5715   4.450   4.704  12.733  0.4382  0.5339  0.2292
  378TMC3    O2 5716   4.074   0.220  12.835 -0.3186  0.6649 -0.2551
  379MPD2     C 5717   4.612   2.817  16.749  1.0453  0.4466  0.0656
  379MPD2    C1 5718   4.704   2.747  16.671 -0.4003 -0.3719 -0.0390
  379MPD2    C2 5719   0.081   2.692  16.735  0.2640 -0.1966 -0.2129
  379MPD2    C3 5720   0.103   2.718  16.873  0.0668 -0.0294 -0.1112
  379MPD2    C4 5721   0.022   2.802  16.944 -0.1074 -0.6772 -0.0219
  379MPD2    C5 5722   4.643   2.844  16.880  0.2701 -0.2456 -0.7232
  379MPD2     H 5723   0.155   2.630  16.685 -2.0230 -2.0447 -1.2550
  379MPD2    H1 5724   0.043   2.831  17.046  0.3804 -1.3508  0.0657
  379MPD2    H2 5725   4.509   2.833  16.720  1.0021  0.5026  0.2495
  379MPD2    H3 5726   4.565   2.899  16.931  0.2003 -0.3357 -0.7321
  379MPD2     N 5727   0.202   2.656  16.953 -0.1739  0.3219  0.0389
  379MPD2    H5 5728   0.201   2.689  17.049  0.8726 -3.2201  1.2569
  379MPD2    N1 5729   4.678   2.752  16.534  0.4228 -0.3932  0.1305
  379MPD2    H7 5730   4.579   2.765  16.513 -0.1337 -1.4959  2.1154
  380TMC3    C1 5731   4.685   2.709  16.299 -0.3892 -0.0141  0.4548
  380TMC3    C2 5732   0.016   2.662  16.184  0.3606  0.5745  0.6422
  380TMC3    C3 5733   4.698   2.675  16.061 -0.5069  0.4711 -0.9573
  380TMC3    C4 5734   4.571   2.793  16.294  0.7149  0.4880  0.7588
  380TMC3    C5 5735   4.516   2.796  16.172 -0.2316 -0.0670 -0.1720
  380TMC3    C6 5736   4.575   2.743  16.063 -0.8376  0.2412  0.0196
  380TMC3     C 5737   0.016   2.690  16.431  0.3826 -0.3550  0.0876
  380TMC3     O 5738   0.121   2.628  16.446 -0.3723  0.0038 -0.7816
  380TMC3     H 5739   0.111   2.612  16.199 -0.8819 -2.2514 -0.9868
  380TMC3    H1 5740   4.532   2.851  16.377  1.2301  0.2235  1.1827
  380TMC3    H2 5741   4.535   2.777  15.968 -1.0486 -1.0934 -0.3737
  380TMC3    C7 5742   4.392   2.870  16.156  0.0880 -0.4230 -0.3410
  380TMC3    C8 5743   0.055   2.740  15.970 -0.0546 -0.1965 -0.8380
  380TMC3    O1 5744   4.359   2.948  16.246 -0.4249 -0.0117 -0.6335
  380TMC3    O2 5745   0.002   2.818  15.892 -0.1091  0.4697  0.1895
  381TMC3    C1 5746   4.071   4.275  16.340  0.1389 -0.0413  0.8234
  381TMC3    C2 5747   4.194   4.312  16.286  0.2314  0.0974  0.5113
  381TMC3    C3 5748   4.297   4.303  16.364  0.0351  0.7499  0.3750
  381TMC3    C4 5749   4.048   4.227  16.466  0.4683  0.3816  0.5369
  381TMC3    C5 5750   4.163   4.201  16.537 -0.0520  0.8984  0.5565
  381TMC3    C6 5751   4.283   4.258  16.495  0.1521 -0.2767 -0.0623
  381TMC3     C 5752   3.955   4.337  16.285  0.0333  0.2460 -0.0274
  381TMC3     O 5753   3.854   4.294  16.343  0.1625 -0.1581 -0.2072
  381TMC3     H 5754   4.206   4.367  16.193  1.7027  1.0300  1.2573
  381TMC3    H1 5755   3.955   4.184  16.502  1.0297 -1.3728 -0.0793
  381TMC3    H2 5756   4.373   4.248  16.554  0.3195  1.3215 -0.0630
  381TMC3    C7 5757   4.142   4.163  16.675  0.1470 -0.5928  0.0541
  381TMC3    C8 5758   4.406   4.390  16.332  0.3684 -0.0886  0.3846
  381TMC3    O1 5759   4.223   4.089  16.724  0.1015 -0.0676  0.3000
  381TMC3    O2 5760   4.449   4.393  16.216  0.6512 -0.0822 -0.4458
  382MPD2     C 5761   3.378   2.193  16.766 -0.6384 -0.1785 -0.0440
  382MPD2    C1 5762   3.460   2.158  16.875 -0.2304 -0.5852 -0.0504
  382MPD2    C2 5763   3.496   2.027  16.896  0.7223 -0.2302 -0.4982
  382MPD2    C3 5764   3.434   1.932  16.825 -0.4544  0.5870  0.0719
  382MPD2    C4 5765   3.335   1.964  16.731  0.0888 -0.2652 -0.6209
  382MPD2    C5 5766   3.309   2.095  16.697 -0.6542  0.3509 -0.1023
  382MPD2     H 5767   3.569   2.013  16.975 -1.2951 -2.2012  1.0067
  382MPD2    H1 5768   3.269   1.893  16.683  1.6050 -1.4303 -0.9747
  382MPD2    H2 5769   3.341   2.292  16.742 -0.4804 -0.2768 -0.7131
  382MPD2    H3 5770   3.222   2.115  16.636  1.4180  2.0940 -2.4621
  382MPD2     N 5771   3.448   1.800  16.856 -0.0230  0.4638  0.0556
  382MPD2    H5 5772   3.385   1.737  16.807  0.1450  0.9013 -0.7327
  382MPD2    N1 5773   3.536   2.252  16.945 -0.6630 -0.1825 -0.2024
  382MPD2    H7 5774   3.600   2.214  17.014 -1.0272  0.0902  0.2884
  383TMC3    C1 5775   3.547   1.603  16.948 -0.1102 -0.0983  0.6439
  383TMC3    C2 5776   3.425   1.557  16.964  0.5214  0.2340  0.4412
  383TMC3    C3 5777   3.405   1.441  17.030  0.5601  0.7705  0.6402
  383TMC3    C4 5778   3.654   1.542  17.016  0.9724 -0.6656 -0.6419
  383TMC3    C5 5779   3.630   1.434  17.091 -0.2366  0.5326  0.3115
  383TMC3    C6 5780   3.508   1.379  17.104  0.3927  0.3769 -0.2206
  383TMC3     C 5781   3.555   1.741  16.927  0.6480  0.4591 -0.6089
  383TMC3     O 5782   3.657   1.798  16.965  0.3808  0.8035 -0.0649
  383TMC3     H 5783   3.340   1.604  16.916  0.6910 -2.2188 -2.2910
  383TMC3    H1 5784   3.745   1.599  17.030  0.2871 -0.4024  2.6252
  383TMC3    H2 5785   3.495   1.285  17.155 -0.3462  1.7466  2.1060
  383TMC3    C7 5786   3.728   1.420  17.191 -0.9061  0.4665  0.2389
  383TMC3    C8 5787   3.264   1.390  17.026  0.0472 -0.2097  0.5439
  383TMC3    O1 5788   3.845   1.453  17.175  0.1544 -0.2020 -0.4914
  383TMC3    O2 5789   3.180   1.445  16.959 -0.1078 -0.1394 -0.4593
  384MPD2     C 5790   4.578   3.040  12.019  0.4298  0.3786  0.0397
  384MPD2    C1 5791   4.508   2.922  12.029  0.6601 -0.1757  1.2721
  384MPD2    C2 5792   4.577   2.808  12.040  0.5590  0.2365 -0.0543
  384MPD2    C3 5793   4.711   2.803  12.062  0.1454  0.1350  0.2161
  384MPD2    C4 5794   0.052   2.918  12.057  0.4289 -0.1136  0.1487
  384MPD2    C5 5795   4.720   3.036  12.023  0.5680  0.9452  0.7434
  384MPD2     H 5796   4.509   2.723  12.040  1.0327 -0.1398  0.3293
  384MPD2    H1 5797   0.160   2.917  12.069  0.5768 -0.7614 -1.2278
  384MPD2    H2 5798   4.522   3.131  11.997  0.8268  0.4561 -0.6465
  384MPD2    H3 5799   0.034   3.133  12.022 -0.5891  1.4932 -0.9537
  384MPD2     N 5800   0.049   2.683  12.092 -0.0264  0.0302 -0.1165
  384MPD2    H5 5801   0.150   2.681  12.101  0.0007 -1.0691 -0.6032
  384MPD2    N1 5802   4.366   2.915  12.016  0.0767  0.2875  0.0408
  384MPD2    H7 5803   4.328   2.822  12.002  1.1973  0.2702 -2.9797
  385TMC3    C1 5804   0.071   2.445  12.144  0.2857 -0.5449 -0.5056
  385TMC3    C2 5805   0.149   2.401  12.038 -0.6623 -0.2021 -0.6473
  385TMC3    C3 5806   0.162   2.269  12.011 -0.2212  0.3103  1.1860
  385TMC3    C4 5807   4.720   2.349  12.203 -0.3600 -0.1592 -0.1864
  385TMC3    C5 5808   4.729   2.221  12.163  0.6422  0.1231  0.4104
  385TMC3    C6 5809   0.076   2.181  12.065  0.5109  0.4589  0.0899
  385TMC3     C 5810   4.716   2.562  12.119 -0.1803 -1.2587  0.0580
  385TMC3     O 5811   4.598   2.532  12.138  0.3262 -0.3184 -0.5129
  385TMC3     H 5812   0.218   2.472  11.994 -0.0276  1.7860  3.5857
  385TMC3    H1 5813   4.663   2.379  12.291 -3.6249 -0.3005 -2.2531
  385TMC3    H2 5814   0.081   2.074  12.049  0.1852  0.4421  0.0817
  385TMC3    C7 5815   4.601   2.158  12.139 -0.6471  0.3906  0.5969
  385TMC3    C8 5816   0.253   2.238  11.901  0.3145  0.2720 -0.1596
  385TMC3    O1 5817   4.592   2.047  12.092  0.1729 -0.0382 -0.3250
  385TMC3    O2 5818   0.345   2.314  11.877  0.2217 -0.4094  0.2306
  386TMC3    C1 5819   0.868   4.526  11.966 -0.3765  0.0276 -0.6604
  386TMC3    C2 5820   0.865   4.601  11.855 -0.1436  0.3894 -0.3637
  386TMC3    C3 5821   0.796   4.713  11.860 -0.6014 -1.0572 -0.2703
  386TMC3    C4 5822   0.792   4.559  12.076 -0.0549 -0.1324  0.2424
  386TMC3    C5 5823   0.707   4.665  12.072 -0.0445 -0.2879  0.0723
  386TMC3    C6 5824   0.693   0.002  11.957 -0.4131 -0.2571  0.3187
  386TMC3     C 5825   0.962   4.411  11.967 -0.3120  0.2675 -0.3937
  386TMC3     O 5826   1.014   4.379  11.864  0.6258 -0.2519  0.1592
  386TMC3     H 5827   0.938   4.575  11.779 -1.4966 -0.4639 -1.3726
  386TMC3    H1 5828   0.807   4.515  12.173  1.7632 -0.5696 -0.2467
  386TMC3    H2 5829   0.626   0.086  11.945 -0.5437 -0.6769 -1.7901
  386TMC3    C7 5830   0.595   4.656  12.163 -0.6168  0.0058  0.0154
  386TMC3    C8 5831   0.767   0.038  11.735  0.4399 -0.1163  0.1367
  386TMC3    O1 5832   0.613   4.636  12.283  0.3921 -0.2287  0.0016
  386TMC3    O2 5833   0.663   0.106  11.733  0.3817 -0.5838  0.3545
  387MPD2     C 5834   3.028   0.770   9.338 -0.5396 -0.1275 -0.2487
  387MPD2    C1 5835   2.949   0.768   9.451  0.5906  0.3756  0.3252
  387MPD2    C2 5836   2.876   0.655   9.479  0.4542 -0.2101  0.6053
  387MPD2    C3 5837   2.879   0.546   9.400  0.6350 -0.1401  0.0464
  387MPD2    C4 5838   2.961   0.547   9.291 -0.1662 -0.6900 -0.2392
  387MPD2    C5 5839   3.029   0.661   9.260 -0.0585  0.2058  0.2691
  387MPD2     H 5840   2.821   0.652   9.572  1.5273  0.3847  1.2586
  387MPD2    H1 5841   2.968   0.462   9.224 -0.1115  0.0990 -1.2266
  387MPD2    H2 5842   3.077   0.856   9.295  3.3151 -2.6338 -0.9191
  387MPD2    H3 5843   3.087   0.659   9.169 -0.2774 -0.0032  0.1359
  387MPD2     N 5844   2.822   0.425   9.447 -0.2961 -0.4435 -0.5391
  387MPD2    H5 5845   2.772   0.426   9.535 -3.8296 -2.1323 -2.5086
  387MPD2    N1 5846   2.950   0.867   9.554  0.1521  0.3041 -0.1827
  387MPD2    H7 5847   2.883   0.861   9.630  0.4272 -0.2899  0.0151
  388TMC3    C1 5848   3.065   1.026   9.698  1.0860  0.2319 -0.7087
  388TMC3    C2 5849   3.048   1.155   9.734 -0.3360 -0.2251 -0.5846
  388TMC3    C3 5850   3.030   1.186   9.869  0.9862  0.2683 -0.5812
  388TMC3    C4 5851   3.062   0.919   9.788 -0.1941  0.2548 -0.5462
  388TMC3    C5 5852   3.036   0.950   9.918  0.0755  0.2616 -0.0115
  388TMC3    C6 5853   3.016   1.081   9.961 -0.8320  0.8015  0.5381
  388TMC3     C 5854   3.041   0.974   9.559  0.3839 -0.0594 -0.8352
  388TMC3     O 5855   3.119   1.016   9.477  0.1570  0.7600  0.0832
  388TMC3     H 5856   3.064   1.228   9.656 -0.1937  0.5991  0.2138
  388TMC3    H1 5857   3.084   0.814   9.771 -0.3412  0.5357 -2.4101
  388TMC3    H2 5858   3.015   1.098  10.069 -1.5112  2.9006  0.2099
  388TMC3    C7 5859   3.039   0.841  10.014  0.4389  0.3505 -0.4681
  388TMC3    C8 5860   2.997   1.319   9.904  0.2090 -0.6587 -0.2479
  388TMC3    O1 5861   3.083   0.865  10.131  0.3018  0.8809  0.8721
  388TMC3    O2 5862   2.966   1.380   9.802 -0.2638 -0.8716 -0.1284
  389MPD2     C 5863   2.400   3.256  10.503  0.2704 -0.4067 -0.8833
  389MPD2    C1 5864   2.285   3.203  10.452 -0.3761  0.3332 -0.5158
  389MPD2    C2 5865   2.222   3.105  10.531  0.3217  0.5148 -0.5712
  389MPD2    C3 5866   2.270   3.047  10.648 -0.1928  0.1129 -0.0674
  389MPD2    C4 5867   2.383   3.108  10.691  0.4801 -0.3090  1.1035
  389MPD2    C5 5868   2.445   3.217  10.629  0.0812  0.3089  0.1606
  389MPD2     H 5869   2.128   3.063  10.496 -0.2203 -0.1337  1.6600
  389MPD2    H1 5870   2.433   3.082  10.784 -1.9169  2.0991  3.0488
  389MPD2    H2 5871   2.458   3.329  10.447  0.9923  1.6906  2.6070
  389MPD2    H3 5872   2.539   3.260  10.661 -0.1015 -1.0581  2.5338
  389MPD2     N 5873   2.212   2.932  10.717 -0.0787  0.1722  0.4252
  389MPD2    H5 5874   2.261   2.907  10.802  0.3252  1.3909  0.5577
  389MPD2    N1 5875   2.244   3.254  10.331 -0.5771  0.8421 -0.0167
  389MPD2    H7 5876   2.295   3.337  10.302 -1.1807  1.4506  0.6556
  390TMC3    C1 5877   2.055   2.768  10.778 -0.4532 -0.2250  0.3330
  390TMC3    C2 5878   2.094   2.769  10.909 -0.0020  0.5743  0.6209
  390TMC3    C3 5879   2.021   2.691  10.997  0.2529  0.5884  1.1582
  390TMC3    C4 5880   1.940   2.704  10.734  0.0022 -0.1646  0.3404
  390TMC3    C5 5881   1.868   2.633  10.828  0.4642 -0.3427 -0.6312
  390TMC3    C6 5882   1.907   2.621  10.959 -0.4525 -0.2860  0.6799
  390TMC3     C 5883   2.096   2.863  10.678  0.3711  0.0874 -0.1730
  390TMC3     O 5884   2.039   2.877  10.571 -0.0465  0.4783 -0.5414
  390TMC3     H 5885   2.187   2.816  10.940 -0.0921  1.3228 -0.2406
  390TMC3    H1 5886   1.903   2.716  10.632  2.2811 -0.0139 -0.4779
  390TMC3    H2 5887   1.835   2.594  11.036  2.1339 -0.7480  2.9604
  390TMC3    C7 5888   1.779   2.532  10.775  0.3920  0.2830  0.0226
  390TMC3    C8 5889   2.072   2.679  11.130  0.5887  0.5443  0.5438
  390TMC3    O1 5890   1.793   2.471  10.670  1.1124  0.5117 -0.1523
  390TMC3    O2 5891   2.141   2.773  11.163  0.0755 -0.6561 -0.6080
  391MPD2     C 5892   1.053   4.503  11.144  0.2823 -0.6088 -0.5398
  391MPD2    C1 5893   1.177   4.562  11.145  0.9275  0.7380  0.5625
  391MPD2    C2 5894   1.247   4.565  11.029  0.7199 -0.0270  0.1566
  391MPD2    C3 5895   1.179   4.542  10.912 -0.2829 -0.0577 -0.0051
  391MPD2    C4 5896   1.051   4.500  10.905 -0.0198  0.0145  0.5925
  391MPD2    C5 5897   0.994   4.470  11.027  0.6009  0.2454  0.1330
  391MPD2     H 5898   1.348   4.601  11.012  0.4002  0.4478 -0.7548
  391MPD2    H1 5899   0.996   4.495  10.812  1.2888 -0.6678 -0.1325
  391MPD2    H2 5900   0.993   4.486  11.232  2.1070  1.8418  1.1784
  391MPD2    H3 5901   0.902   4.413  11.030  1.4935 -1.1056  1.7468
  391MPD2     N 5902   1.258   4.568  10.799 -0.8753  0.3279  0.3611
  391MPD2    H5 5903   1.339   4.625  10.824  0.4856 -2.0267  1.2964
  391MPD2    N1 5904   1.241   4.596  11.271 -0.5097  0.0354  0.2504
  391MPD2    H7 5905   1.199   4.560  11.357  0.3171  1.6393  1.3098
  392TMC3    C1 5906   1.308   4.616  10.569 -0.3765 -0.0029 -0.3149
  392TMC3    C2 5907   1.258   4.626  10.442 -0.5069  0.1269  0.3338
  392TMC3    C3 5908   1.325   4.705  10.356 -0.0081  0.0436  0.1429
  392TMC3    C4 5909   1.418   4.697  10.614 -0.3089  0.6488  0.4477
  392TMC3    C5 5910   1.483   0.040  10.516  0.1641 -0.5421 -0.0940
  392TMC3    C6 5911   1.438   0.036  10.388  0.0236 -0.2048 -0.2725
  392TMC3     C 5912   1.227   4.542  10.664 -0.0729 -0.0055  0.2221
  392TMC3     O 5913   1.133   4.481  10.622 -0.4552  0.2834  0.0951
  392TMC3     H 5914   1.177   4.560  10.413 -0.3489 -1.2657  3.0141
  392TMC3    H1 5915   1.449   4.714  10.716  0.3275  1.4847  0.1092
  392TMC3    H2 5916   1.485   0.103  10.317 -0.2744 -1.3217 -1.5270
  392TMC3    C7 5917   1.595   0.122  10.549 -0.0117 -0.2167  0.5087
  392TMC3    C8 5918   1.241   0.014  10.242 -0.0524  0.3657 -0.4843
  392TMC3    O1 5919   1.612   0.150  10.666  0.0763  0.2382  0.7287
  392TMC3    O2 5920   1.160   4.666  10.202  0.3949  0.1387  0.2336
  393TMC3    C1 5921   4.483   2.925  10.888 -0.3462  0.2014  0.3357
  393TMC3    C2 5922   4.420   2.821  10.834  0.0298  0.7753 -0.2318
  393TMC3    C3 5923   4.361   2.725  10.915  0.7932  0.5341  0.8794
  393TMC3    C4 5924   4.477   2.943  11.028 -0.1896  0.1849 -0.2381
  393TMC3    C5 5925   4.426   2.837  11.099  0.7710 -0.0734 -0.4915
  393TMC3    C6 5926   4.370   2.730  11.049  0.5794  0.0994  0.7417
  393TMC3     C 5927   4.510   3.040  10.801  0.0326  0.3747 -0.2675
  393TMC3     O 5928   4.458   3.037  10.691  0.0788 -0.6577  0.3560
  393TMC3     H 5929   4.417   2.814  10.726  0.4420 -2.9273 -0.0010
  393TMC3    H1 5930   4.520   3.031  11.075 -1.3033 -0.1166  1.3567
  393TMC3    H2 5931   4.343   2.638  11.099  0.1072 -1.3033 -2.1111
  393TMC3    C7 5932   4.487   2.794  11.226 -0.0004  0.5562  0.4437
  393TMC3    C8 5933   4.282   2.618  10.852  0.0093 -0.0219 -0.2692
  393TMC3    O1 5934   4.419   2.713  11.294  0.3032 -0.7980  0.3058
  393TMC3    O2 5935   4.230   2.535  10.925 -0.6303  0.2020 -0.1469
  394TMC3    C1 5936   2.125   3.281  10.123  0.5609  0.0602  0.1122
  394TMC3    C2 5937   2.057   3.209  10.031  1.1719  0.3617  0.3844
  394TMC3    C3 5938   2.070   3.255   9.896  0.0403 -0.1804  1.2446
  394TMC3    C4 5939   2.187   3.398  10.108  0.3288 -0.0599  0.3661
  394TMC3    C5 5940   2.192   3.449   9.975  0.4176 -0.3285  0.1899
  394TMC3    C6 5941   2.126   3.375   9.869 -0.1151  0.1017 -0.7938
  394TMC3     C 5942   2.135   3.222  10.256 -0.0103  0.4715  0.6566
  394TMC3     O 5943   2.053   3.135  10.281 -0.3544  0.2976  0.4640
  394TMC3     H 5944   1.996   3.123  10.054 -0.9750  1.9087  0.5479
  394TMC3    H1 5945   2.221   3.459  10.191  3.0953 -0.2923 -0.6095
  394TMC3    H2 5946   2.124   3.416   9.769  0.7171 -0.0342 -0.8645
  394TMC3    C7 5947   2.203   3.594   9.958  0.4767  0.0431  0.0439
  394TMC3    C8 5948   2.033   3.165   9.788  0.1351 -0.3095 -0.3239
  394TMC3    O1 5949   2.183   3.653  10.060 -0.0138  0.4011 -0.3234
  394TMC3    O2 5950   2.006   3.207   9.677 -0.5702 -0.2742 -0.5480
  395TMC3    C1 5951   1.913   0.301  14.956 -0.9187  0.2349 -1.0454
  395TMC3    C2 5952   1.837   0.328  14.850  0.6707 -0.1033  0.5328
  395TMC3    C3 5953   1.883   0.407  14.751 -0.0480  0.0966  0.0426
  395TMC3    C4 5954   2.035   0.357  14.963  0.4353  0.1185  0.0381
  395TMC3    C5 5955   2.084   0.432  14.861 -0.5598 -1.2653  0.2653
  395TMC3    C6 5956   2.006   0.465  14.754  0.5079 -0.2576 -0.4424
  395TMC3     C 5957   1.846   0.280  15.085  0.5426  0.6938  0.3398
  395TMC3     O 5958   1.858   0.377  15.159  0.6826  0.1560  0.0660
  395TMC3     H 5959   1.731   0.305  14.847  1.2255 -2.5240 -1.2895
  395TMC3    H1 5960   2.096   0.345  15.052 -0.1829  0.7575  0.5432
  395TMC3    H2 5961   2.035   0.524  14.668  1.7843  0.1631  0.2828
  395TMC3    C7 5962   2.199   0.519  14.887 -0.4327  0.8395 -0.3376
  395TMC3    C8 5963   1.790   0.457  14.652  0.4725  0.2204  0.3957
  395TMC3    O1 5964   2.207   0.570  14.994  0.5758  0.3242 -0.8202
  395TMC3    O2 5965   1.827   0.556  14.589 -0.2000  0.0328  0.0611
  396MPD2     C 5966   1.414   1.911   0.155  0.5057  0.5134 -0.5658
  396MPD2    C1 5967   1.529   1.856   0.102  0.0880 -0.6389 -0.5729
  396MPD2    C2 5968   1.550   1.873  17.700  0.2423 -0.0603 -1.0066
  396MPD2    C3 5969   1.454   1.933  17.617 -0.6909 -0.6490 -0.4543
  396MPD2    C4 5970   1.338   1.989  17.677 -0.1574 -0.5091  0.3322
  396MPD2    C5 5971   1.323   1.977   0.083  0.5650 -0.0146 -0.0508
  396MPD2     H 5972   1.643   1.850  17.649  1.7071 -0.6279  1.9252
  396MPD2    H1 5973   1.267   2.046  17.618 -0.3736 -1.2590 -0.1271
  396MPD2    H2 5974   1.399   1.905   0.263 -3.2668  0.6106 -1.0810
  396MPD2    H3 5975   1.238   2.026   0.129  0.1221 -1.7156  0.9391
  396MPD2     N 5976   1.484   1.942  17.476  0.0241  1.1026  0.3364
  396MPD2    H5 5977   1.577   1.915  17.446 -0.1170 -1.4382  2.1925
  396MPD2    N1 5978   1.637   1.796   0.174 -0.2620 -0.4999 -0.0562
  396MPD2    H7 5979   1.717   1.784   0.112 -1.5625 -1.3540 -1.5669
  397TMC3    C1 5980   1.737   1.636   0.300 -0.2954  0.4670  0.2312
  397TMC3    C2 5981   1.801   1.628   0.173  0.8311  0.9455  0.1057
  397TMC3    C3 5982   1.813   1.511   0.102 -1.0646  0.1073 -0.1252
  397TMC3    C4 5983   1.683   1.512   0.348  0.0174 -0.1336  0.4366
  397TMC3    C5 5984   1.703   1.396   0.270 -0.5325 -0.1753  0.5040
  397TMC3    C6 5985   1.771   1.393   0.152  0.3054 -0.0509  0.5957
  397TMC3     C 5986   1.634   1.737   0.301  0.3893 -0.6232 -0.6696
  397TMC3     O 5987   1.544   1.730   0.383  0.4134 -0.5179 -0.0189
  397TMC3     H 5988   1.865   1.712   0.148  2.8939 -0.2870  1.2580
  397TMC3    H1 5989   1.614   1.518   0.431  0.5546 -0.4781  0.9110
  397TMC3    H2 5990   1.759   1.305   0.090  0.5338 -1.3896  2.4757
  397TMC3    C7 5991   1.679   1.268   0.331  0.5587  0.4219  0.6180
  397TMC3    C8 5992   1.845   1.518  17.690  0.2199  0.0860 -0.0108
  397TMC3    O1 5993   1.672   1.168   0.261 -0.4997 -0.0746  0.2151
  397TMC3    O2 5994   1.826   1.617  17.618 -0.1540  0.0299  0.2291
  398MPD2     C 5995   4.348   2.922   0.240  0.2572  0.4676  0.4389
  398MPD2    C1 5996   4.482   2.895   0.280  0.2052 -0.7295  0.2150
  398MPD2    C2 5997   4.566   2.991   0.333 -0.5337  0.4194 -0.2813
  398MPD2    C3 5998   4.512   3.118   0.353  0.3367  0.0522  0.3062
  398MPD2    C4 5999   4.382   3.141   0.318 -0.2818 -0.0896  0.0236
  398MPD2    C5 6000   4.296   3.045   0.266  0.5476 -0.2655  0.0240
  398MPD2     H 6001   4.668   2.963   0.351 -0.2393  0.8505 -1.2279
  398MPD2    H1 6002   4.328   3.233   0.337 -0.8295 -0.4023 -0.0011
  398MPD2    H2 6003   4.287   2.845   0.194 -1.9101  1.7090  1.2718
  398MPD2    H3 6004   4.200   3.080   0.231 -0.1744  1.9219  4.2419
  398MPD2     N 6005   4.600   3.218   0.392 -0.2003 -0.2545  0.0500
  398MPD2    H5 6006   4.692   3.194   0.429 -0.0679 -1.7014 -1.2256
  398MPD2    N1 6007   4.544   2.771   0.273  0.0995  0.3867 -0.1800
  398MPD2    H7 6008   4.630   2.765   0.326 -0.1686  0.1409  0.2253
  399TMC3    C1 6009   4.590   2.538   0.256  0.3285  0.2986  0.2367
  399TMC3    C2 6010   4.672   2.558   0.362 -0.2438  0.4712 -0.9701
  399TMC3    C3 6011   0.041   2.470   0.382 -0.4808 -0.2942 -0.5734
  399TMC3    C4 6012   4.621   2.440   0.159 -0.3227  0.2017  0.0191
  399TMC3    C5 6013   4.723   2.348   0.191 -0.7180  0.9519  0.2083
  399TMC3    C6 6014   0.074   2.370   0.295  0.3625 -0.6290 -0.4568
  399TMC3     C 6015   4.503   2.649   0.214  0.1472  0.4051 -0.7524
  399TMC3     O 6016   4.422   2.634   0.123 -0.3156 -0.6303 -0.1076
  399TMC3     H 6017   4.634   2.618   0.444 -0.0166  1.1678 -1.3698
  399TMC3    H1 6018   4.555   2.431   0.074  0.7794  3.3426 -1.1838
  399TMC3    H2 6019   0.155   2.300   0.312 -0.6556 -1.8901 -0.8268
  399TMC3    C7 6020   4.721   2.211   0.143 -0.2169 -0.6980  0.1860
  399TMC3    C8 6021   0.150   2.516   0.470  0.1872  0.1344  0.4974
  399TMC3    O1 6022   0.098   2.161   0.129 -0.2641  0.5298  0.4621
  399TMC3    O2 6023   0.109   2.610   0.537  0.0352  0.1021 -0.6148
  400TMC3    C1 6024   3.065   1.092  16.837 -0.6336  0.2000 -0.3730
  400TMC3    C2 6025   2.956   1.010  16.846  0.0084 -0.2619  0.2762
  400TMC3    C3 6026   2.845   1.040  16.767 -0.1801  0.1841 -0.3625
  400TMC3    C4 6027   3.064   1.205  16.758  0.6518 -0.3503  0.0146
  400TMC3    C5 6028   2.951   1.233  16.683 -0.6865 -0.2481  0.6313
  400TMC3    C6 6029   2.844   1.156  16.689 -0.7219 -0.2960  0.3525
  400TMC3     C 6030   3.190   1.042  16.888 -0.3416  0.7738  0.0317
  400TMC3     O 6031   3.178   0.956  16.974 -0.4655  0.6956 -0.1064
  400TMC3     H 6032   2.946   0.912  16.892  1.0291 -1.3759 -1.8541
  400TMC3    H1 6033   3.141   1.281  16.764 -0.1201  0.3727  0.7144
  400TMC3    H2 6034   2.772   1.171  16.609 -0.9793 -1.5316  0.3568
  400TMC3    C7 6035   2.931   1.358  16.623 -0.0340  0.0434  0.4040
  400TMC3    C8 6036   2.728   0.956  16.781 -0.2239 -0.0463  0.1654
  400TMC3    O1 6037   2.851   1.373  16.528  0.3256 -0.4312  0.0313
  400TMC3    O2 6038   2.716   0.897  16.887 -0.1682 -0.4555  0.3761
  401MPD2     C 6039   2.608   0.677   1.679 -0.0548  0.0301  0.9298
  401MPD2    C1 6040   2.730   0.612   1.649 -0.3851 -0.8571  0.0716
  401MPD2    C2 6041   2.724   0.480   1.619  0.6430  0.0689  0.6481
  401MPD2    C3 6042   2.608   0.408   1.619  0.3368 -0.9008 -0.4414
  401MPD2    C4 6043   2.490   0.474   1.651 -0.3941 -0.6661  0.2438
  401MPD2    C5 6044   2.490   0.612   1.672 -0.1172  0.8257 -0.2580
  401MPD2     H 6045   2.815   0.425   1.597  0.5148 -0.5261  1.5903
  401MPD2    H1 6046   2.395   0.422   1.651 -0.1461 -1.1185 -0.0333
  401MPD2    H2 6047   2.603   0.784   1.690  1.3992  0.3950 -2.2361
  401MPD2    H3 6048   2.396   0.663   1.693  0.0556  1.1770 -0.3293
  401MPD2     N 6049   2.612   0.273   1.580 -0.0339  0.0334 -0.2113
  401MPD2    H5 6050   2.701   0.229   1.561  0.0052 -0.4149  1.0087
  401MPD2    N1 6051   2.851   0.675   1.656  0.0946  1.0654 -0.1315
  401MPD2    H7 6052   2.930   0.611   1.649  0.4502  1.5731 -0.7604
  402TMC3    C1 6053   2.560   0.063   1.521 -0.5320 -0.4674  0.0471
  402TMC3    C2 6054   2.521   4.676   1.578  0.0240  0.4756 -0.1586
  402TMC3    C3 6055   2.580   4.561   1.529 -0.1680  0.1288 -0.5215
  402TMC3    C4 6056   2.647   0.075   1.412 -0.7305  0.3633  0.2579
  402TMC3    C5 6057   2.678   4.687   1.358 -0.0138  0.2959 -0.0836
  402TMC3    C6 6058   2.650   4.567   1.414 -0.2487  0.3701  0.5393
  402TMC3     C 6059   2.511   0.187   1.576  0.1349 -0.0931  0.9476
  402TMC3     O 6060   2.404   0.188   1.635 -0.0315  0.1210  0.5157
  402TMC3     H 6061   2.454   4.674   1.664  0.2893 -1.2911  0.0129
  402TMC3    H1 6062   2.670   0.169   1.364 -1.6201  0.8414  0.7659
  402TMC3    H2 6063   2.691   4.476   1.371 -0.3173 -0.8972  3.1305
  402TMC3    C7 6064   2.708   4.686   1.215  0.2206  1.2834  0.3334
  402TMC3    C8 6065   2.551   4.434   1.592 -0.2562 -0.1744  0.3465
  402TMC3    O1 6066   2.761   0.058   1.178 -0.3261 -0.2172  0.5258
  402TMC3    O2 6067   2.565   4.333   1.522  0.0254  0.1516  0.2929
  403MPD2     C 6068   0.036   2.305  13.267 -0.2356 -0.2573 -0.1281
  403MPD2    C1 6069   4.662   2.326  13.345  0.4352  0.1510 -0.6399
  403MPD2    C2 6070   4.679   2.322  13.479  0.1692  0.3782  0.3947
  403MPD2    C3 6071   0.077   2.303  13.532 -0.2470  0.2132 -0.0964
  403MPD2    C4 6072   0.182   2.273  13.452 -0.0347  0.1932  0.4925
  403MPD2    C5 6073   0.162   2.281  13.318 -0.3378  0.1090  0.2849
  403MPD2     H 6074   4.594   2.327  13.546 -0.4778  0.1807 -0.4176
  403MPD2    H1 6075   0.281   2.254  13.494 -0.7513 -0.7894  1.7377
  403MPD2    H2 6076   0.029   2.325  13.161  2.2254  1.4193  0.0287
  403MPD2    H3 6077   0.244   2.261  13.249 -3.2449 -2.5434 -2.4027
  403MPD2     N 6078   0.081   2.301  13.675  0.4035 -0.3533 -0.6480
  403MPD2    H5 6079   4.727   2.333  13.719  1.4836  1.3554  0.2261
  403MPD2    N1 6080   4.541   2.359  13.281  0.1094 -0.2429 -0.0578
  403MPD2    H7 6081   4.540   2.353  13.180  0.6009  1.2837 -0.1475
  404TMC3    C1 6082   4.311   2.363  13.262  0.2903 -0.0772 -0.4968
  404TMC3    C2 6083   4.206   2.315  13.332  0.0233 -0.2978  0.5853
  404TMC3    C3 6084   4.109   2.239  13.275  0.6928 -0.4371 -0.6323
  404TMC3    C4 6085   4.323   2.337  13.131 -0.0911 -0.5559  0.5402
  404TMC3    C5 6086   4.221   2.273  13.075 -0.2739  0.2459  0.6190
  404TMC3    C6 6087   4.116   2.210  13.142 -0.3972  0.0640 -0.0732
  404TMC3     C 6088   4.425   2.382  13.346  0.2620 -0.5745  1.1550
  404TMC3     O 6089   4.406   2.415  13.464  0.2670 -0.4013 -0.0965
  404TMC3     H 6090   4.206   2.333  13.439  1.5532 -1.0382  0.6989
  404TMC3    H1 6091   4.402   2.384  13.073 -0.1969  0.2627  1.0617
  404TMC3    H2 6092   4.050   2.136  13.098 -1.0468 -1.0707  2.8266
  404TMC3    C7 6093   4.243   2.229  12.938 -0.3947  0.8502  0.1664
  404TMC3    C8 6094   4.091   2.114  13.346  0.2285 -0.1431 -0.4980
  404TMC3    O1 6095   4.353   2.190  12.905 -0.0829 -0.5973 -0.0829
  404TMC3    O2 6096   4.089   2.014  13.274  0.1022 -0.3699 -0.3424
  405MPD2     C 6097   0.215   3.829  14.949 -0.2634  0.6128 -0.3160
  405MPD2    C1 6098   0.142   3.733  14.889 -0.8756  0.0574 -0.5720
  405MPD2    C2 6099   0.022   3.770  14.840 -0.5241 -0.5920  0.2377
  405MPD2    C3 6100   4.705   3.900  14.849  0.3552  0.0311  0.2230
  405MPD2    C4 6101   0.044   3.994  14.912  0.1736  1.1002  0.2955
  405MPD2    C5 6102   0.168   3.953  14.953  0.4947  0.1877  0.2025
  405MPD2     H 6103   4.689   3.703  14.786 -0.7670  0.2381 -0.4968
  405MPD2    H1 6104   0.004   4.093  14.932  0.4965  1.0458  1.2162
  405MPD2    H2 6105   0.315   3.803  14.982 -0.9129 -1.5186  0.0018
  405MPD2    H3 6106   0.228   4.032  14.998  1.0798 -0.8791  1.2908
  405MPD2     N 6107   4.573   3.910  14.813  0.5623 -0.8502  0.2091
  405MPD2    H5 6108   4.517   3.833  14.778  0.1098 -0.5295  0.2263
  405MPD2    N1 6109   0.176   3.600  14.876  0.3309 -0.5196  0.6274
  405MPD2    H7 6110   0.136   3.556  14.793 -0.0622  0.3816  0.3282
  406TMC3    C1 6111   4.153   4.011  14.774 -0.3703 -0.2966  0.4723
  406TMC3    C2 6112   4.134   3.909  14.685 -0.7582 -0.5712  0.6230
  406TMC3    C3 6113   4.246   3.863  14.617 -0.2193  0.4887 -0.0146
  406TMC3    C4 6114   4.281   4.062  14.805  0.0321  0.2814 -0.5123
  406TMC3    C5 6115   4.381   4.012  14.735 -0.0604 -0.4837  0.2985
  406TMC3    C6 6116   4.366   3.915  14.643 -0.0993  0.2062  0.1003
  406TMC3     C 6117   4.032   4.042  14.842 -0.4713 -0.0979  0.3665
  406TMC3     O 6118   3.934   3.972  14.830  0.0131 -0.0240 -0.1592
  406TMC3     H 6119   4.036   3.867  14.662 -1.1379  0.6982 -0.0398
  406TMC3    H1 6120   4.302   4.125  14.891 -0.5200 -1.4380  0.8749
  406TMC3    H2 6121   4.449   3.879  14.584 -2.4523 -3.4932 -0.8701
  406TMC3    C7 6122   4.510   4.031  14.795 -0.5057 -0.1584  0.2679
  406TMC3    C8 6123   4.227   3.730  14.551  0.4783  0.4755  0.5444
  406TMC3    O1 6124   4.539   4.140  14.833  0.4310 -0.0784 -0.2757
  406TMC3    O2 6125   4.108   3.687  14.541  0.3340  0.1314 -0.0506
  407MPD2     C 6126   2.514   4.319   9.767 -0.4628  0.7067 -0.5794
  407MPD2    C1 6127   2.463   4.443   9.735 -0.1717  0.4927 -0.8417
  407MPD2    C2 6128   2.478   4.551   9.817 -0.0977 -0.0187  0.9573
  407MPD2    C3 6129   2.552   4.529   9.935  0.2807 -0.0767  0.2146
  407MPD2    C4 6130   2.592   4.402   9.974  0.3381 -0.3357  0.0664
  407MPD2    C5 6131   2.577   4.299   9.891 -0.8917  0.6004 -0.3185
  407MPD2     H 6132   2.448   4.647   9.776 -1.6103 -1.9209 -2.4126
  407MPD2    H1 6133   2.644   4.386  10.068 -1.9538 -3.1930  0.8485
  407MPD2    H2 6134   2.530   4.232   9.705 -2.6443 -0.1995  0.1351
  407MPD2    H3 6135   2.640   4.213   9.913 -0.8520  0.6570 -0.2060
  407MPD2     N 6136   2.585   4.639  10.024  0.4395 -0.9361 -0.2743
  407MPD2    H5 6137   2.639   4.613  10.107  0.1056 -2.0973 -0.4239
  407MPD2    N1 6138   2.406   4.467   9.610 -0.6828  0.2416 -0.0958
  407MPD2    H7 6139   2.380   4.564   9.595  0.0866  0.3787 -0.5745
  408TMC3    C1 6140   2.394   4.477   9.381  0.1587 -0.3315  0.2095
  408TMC3    C2 6141   2.434   4.416   9.267 -0.2277  0.6324  0.3261
  408TMC3    C3 6142   2.468   4.491   9.161  0.2617 -0.4976 -0.2274
  408TMC3    C4 6143   2.374   4.614   9.395  0.9264 -0.8069 -0.3019
  408TMC3    C5 6144   2.400   4.688   9.278  0.2162 -0.1289  0.1417
  408TMC3    C6 6145   2.461   4.631   9.163  0.0347  0.0998  0.8254
  408TMC3     C 6146   2.390   4.389   9.501  0.4872 -0.0819  0.3318
  408TMC3     O 6147   2.387   4.266   9.485 -0.2239 -0.2855 -0.2956
  408TMC3     H 6148   2.462   4.311   9.265 -2.4596  0.0448 -1.1174
  408TMC3    H1 6149   2.358   4.666   9.489  1.7532  1.5579 -1.4555
  408TMC3    H2 6150   2.483   4.692   9.076 -0.3637  0.2324  0.8171
  408TMC3    C7 6151   2.423   0.098   9.293 -0.0716 -0.2564  0.5528
  408TMC3    C8 6152   2.566   4.420   9.088 -0.2091 -0.6515 -0.5792
  408TMC3    O1 6153   2.493   0.159   9.209 -0.0363  0.6285  0.4080
  408TMC3    O2 6154   2.534   4.312   9.045 -0.6677  0.3017  0.9218
  409MPD2     C 6155   2.072   0.598  16.868  0.2332 -1.3229  0.4730
  409MPD2    C1 6156   2.171   0.621  16.961 -0.5324  0.4735  0.4737
  409MPD2    C2 6157   2.218   0.752  16.982 -0.1525  0.5267  0.0484
  409MPD2    C3 6158   2.171   0.855  16.897  0.3783 -0.0661 -0.5428
  409MPD2    C4 6159   2.072   0.836  16.812  0.2344 -0.1121 -0.0909
  409MPD2    C5 6160   2.021   0.704  16.798 -0.0451 -0.0576  0.3305
  409MPD2     H 6161   2.303   0.759  17.049 -0.5075 -1.0427  0.6693
  409MPD2    H1 6162   2.039   0.913  16.743 -2.2169 -1.1682 -0.1124
  409MPD2    H2 6163   2.029   0.499  16.864 -0.4093 -0.8905 -3.3059
  409MPD2    H3 6164   1.950   0.678  16.720 -0.6791  1.2435  0.4792
  409MPD2     N 6165   2.235   0.982  16.885 -0.3869 -0.3787 -0.2733
  409MPD2    H5 6166   2.192   1.051  16.825  1.0392  0.5058 -0.2895
  409MPD2    N1 6167   2.218   0.521  17.051  0.2530 -0.2826 -1.0653
  409MPD2    H7 6168   2.286   0.551  17.119 -0.3707 -3.6017  1.0212
  410TMC3    C1 6169   2.408   1.152  16.917 -0.3040  0.3552 -0.0878
  410TMC3    C2 6170   2.501   1.205  17.006  0.9505  0.4166 -0.8023
  410TMC3    C3 6171   2.569   1.312  16.956  0.7780 -0.2370  0.0999
  410TMC3    C4 6172   2.391   1.184  16.783  0.2674 -0.4235  0.0997
  410TMC3    C5 6173   2.464   1.295  16.745 -0.5329 -0.0431  0.1635
  410TMC3    C6 6174   2.556   1.353  16.830  0.3700 -0.4044 -0.1507
  410TMC3     C 6175   2.351   1.017  16.952 -0.6073  0.1440 -0.1323
  410TMC3     O 6176   2.399   0.970  17.055 -0.0221  0.5687  0.4851
  410TMC3     H 6177   2.500   1.191  17.113 -0.3068  1.5458 -0.6681
  410TMC3    H1 6178   2.322   1.136  16.715 -1.5602  1.4026  0.6738
  410TMC3    H2 6179   2.626   1.422  16.785  0.5950 -0.4293  0.1660
  410TMC3    C7 6180   2.462   1.331  16.606  0.2169  0.0741 -0.2489
  410TMC3    C8 6181   2.706   1.331  16.996  0.6443 -0.3430  0.6929
  410TMC3    O1 6182   2.455   1.237  16.525  0.2484 -0.0865 -0.2219
  410TMC3    O2 6183   2.766   1.426  16.949  0.3916  0.1975 -0.0680
  411MPD2     C 6184   2.630   1.483  14.659  0.5894 -0.0394  0.0049
  411MPD2    C1 6185   2.490   1.481  14.643  0.8669 -0.7959 -0.4902
  411MPD2    C2 6186   2.423   1.364  14.627  0.2607 -0.2822  0.6942
  411MPD2    C3 6187   2.500   1.250  14.605 -0.4525 -0.5704  0.5257
  411MPD2    C4 6188   2.642   1.250  14.617  0.2338 -0.0497 -0.2696
  411MPD2    C5 6189   2.704   1.368  14.647  0.4887  0.7209 -0.2604
  411MPD2     H 6190   2.316   1.368  14.610  0.1043 -2.2378  1.2037
  411MPD2    H1 6191   2.704   1.163  14.629  1.5938  1.0079  0.3645
  411MPD2    H2 6192   2.687   1.573  14.681  0.5292 -0.5215  2.0811
  411MPD2    H3 6193   2.809   1.385  14.668  0.5129  0.2278  0.0194
  411MPD2     N 6194   2.440   1.124  14.581 -0.5674  0.2469 -1.4731
  411MPD2    H5 6195   2.497   1.049  14.542  2.3625  0.0716  3.1341
  411MPD2    N1 6196   2.423   1.601  14.648 -0.0980 -0.1407  0.2389
  411MPD2    H7 6197   2.483   1.678  14.675 -0.0676  0.0663 -0.4215
  412TMC3    C1 6198   2.283   0.961  14.553  0.1568  0.2966  0.2705
  412TMC3    C2 6199   2.190   0.905  14.625 -0.1285 -0.0846 -0.2891
  412TMC3    C3 6200   2.104   0.827  14.566  0.6884  0.3738  0.3894
  412TMC3    C4 6201   2.270   0.963  14.417 -0.0708 -0.2205  0.0321
  412TMC3    C5 6202   2.184   0.884  14.348  0.0813 -0.5685  0.0606
  412TMC3    C6 6203   2.105   0.804  14.428 -0.6515 -0.1020 -0.9957
  412TMC3     C 6204   2.317   1.089  14.618 -0.1017 -0.2219 -0.3794
  412TMC3     O 6205   2.229   1.157  14.666  0.6936 -0.2096 -0.1806
  412TMC3     H 6206   2.199   0.912  14.732  1.3173 -2.9807 -0.2153
  412TMC3    H1 6207   2.325   1.037  14.361 -1.0971  0.4317 -0.1213
  412TMC3    H2 6208   2.038   0.731  14.382 -0.1980 -0.8300 -0.5086
  412TMC3    C7 6209   2.096   0.964  14.267  0.2278 -0.1922  0.1018
  412TMC3    C8 6210   1.976   0.823  14.628  0.2823  0.7741 -0.3401
  412TMC3    O1 6211   1.976   0.942  14.279 -0.4341 -0.1929 -0.3357
  412TMC3    O2 6212   1.966   0.791  14.748 -0.1083  0.0075 -0.1563
  413MPD2     C 6213   3.947   4.178  15.940 -0.2114  0.1590  0.3965
  413MPD2    C1 6214   3.967   4.251  15.829  0.4145  0.3999 -0.0074
  413MPD2    C2 6215   4.090   4.242  15.769  0.1885 -0.4355 -0.1034
  413MPD2    C3 6216   4.190   4.164  15.827 -0.4499 -0.5815  0.0182
  413MPD2    C4 6217   4.169   4.082  15.932  0.4542 -0.1056 -0.5455
  413MPD2    C5 6218   4.040   4.088  15.987  0.2496 -0.1610 -0.2364
  413MPD2     H 6219   4.113   4.292  15.676 -0.4946 -1.3921 -0.7964
  413MPD2    H1 6220   4.239   4.013  15.976  0.9208 -0.4764 -1.8634
  413MPD2    H2 6221   3.857   4.178  16.000 -0.8470 -0.1507 -0.5575
  413MPD2    H3 6222   4.022   4.018  16.068  0.7511 -0.3337 -0.2725
  413MPD2     N 6223   4.319   4.164  15.768 -0.0653 -0.5760 -0.1957
  413MPD2    H5 6224   4.321   4.223  15.685  1.1846  0.3399  0.4749
  413MPD2    N1 6225   3.858   4.332  15.791  0.3970  0.6139  0.0743
  413MPD2    H7 6226   3.771   4.331  15.844  1.2308 -1.8351  1.3927
  414TMC3    C1 6227   4.538   4.091  15.705  0.6506 -0.5080  0.7175
  414TMC3    C2 6228   4.637   3.998  15.726 -0.3881  0.0484 -0.7590
  414TMC3    C3 6229   0.016   4.022  15.658  0.5496 -0.3549  0.0930
  414TMC3    C4 6230   4.536   4.171  15.595 -0.7260 -0.3398  0.0313
  414TMC3    C5 6231   4.650   4.182  15.525 -0.0087  0.8934  0.1676
  414TMC3    C6 6232   0.036   4.123  15.567 -0.1101  0.6324 -0.4877
  414TMC3     C 6233   4.429   4.090  15.803  0.0785  0.7738 -0.1619
  414TMC3     O 6234   4.445   4.016  15.898  0.4887 -0.4323 -0.2539
  414TMC3     H 6235   4.637   3.914  15.795  0.7839 -0.4180 -1.3345
  414TMC3    H1 6236   4.447   4.223  15.565  0.8829 -0.3404 -4.7451
  414TMC3    H2 6237   0.108   4.104  15.489 -1.0085 -0.3138 -1.0896
  414TMC3    C7 6238   4.656   4.260  15.403 -0.3271  0.5729 -0.6456
  414TMC3    C8 6239   0.112   3.913  15.654  0.9775 -0.1458  0.4843
  414TMC3    O1 6240   4.557   4.259  15.333 -0.0925  0.2547  0.0421
  414TMC3    O2 6241   0.084   3.814  15.719 -0.0622  0.1748 -0.1095
  415TMC3    C1 6242   4.423   1.985  10.719 -0.3927  0.1185 -0.1040
  415TMC3    C2 6243   4.434   2.111  10.774 -0.0037  0.0698  0.4853
  415TMC3    C3 6244   4.497   2.214  10.709 -0.2726 -0.0842 -0.5299
  415TMC3    C4 6245   4.442   1.965  10.587 -0.7795  0.0788 -0.1309
  415TMC3    C5 6246   4.491   2.070  10.515 -0.2442 -0.1712  0.7719
  415TMC3    C6 6247   4.519   2.196  10.571 -0.0961 -0.5184 -0.2415
  415TMC3     C 6248   4.377   1.873  10.798  0.0625  0.0799  0.5024
  415TMC3     O 6249   4.339   1.783  10.722 -0.0230  0.1472 -0.5542
  415TMC3     H 6250   4.421   2.121  10.881 -2.2734 -4.7359  0.6471
  415TMC3    H1 6251   4.428   1.867  10.542  0.1314  0.4076 -1.1392
  415TMC3    H2 6252   4.557   2.282  10.518 -0.8524 -0.4251 -0.6276
  415TMC3    C7 6253   4.485   2.069  10.369 -0.3556 -0.2345 -0.2288
  415TMC3    C8 6254   4.537   2.329  10.790 -0.0669  0.0309 -0.0585
  415TMC3    O1 6255   4.557   2.149  10.315 -0.4362  0.1202  0.4631
  415TMC3    O2 6256   4.492   2.337  10.903 -0.3951 -0.4637 -0.3798
  416MPD2     C 6257   1.693   1.149  11.442 -0.7304  0.1246 -0.2351
  416MPD2    C1 6258   1.598   1.093  11.525 -0.4146 -0.2652 -0.6437
  416MPD2    C2 6259   1.569   0.958  11.515 -0.7570 -0.4062  0.1726
  416MPD2    C3 6260   1.634   0.875  11.420  0.1104 -0.1957  0.1915
  416MPD2    C4 6261   1.725   0.930  11.329  0.1116  0.2983  0.4194
  416MPD2    C5 6262   1.745   1.066  11.343  0.3196  0.1630 -0.3701
  416MPD2     H 6263   1.487   0.901  11.558 -1.7665 -0.9020 -2.3634
  416MPD2    H1 6264   1.767   0.873  11.247 -0.6443 -0.2374  0.4093
  416MPD2    H2 6265   1.714   1.255  11.438 -1.9012  0.3794  0.7483
  416MPD2    H3 6266   1.817   1.111  11.277 -1.1107  0.2488 -1.8754
  416MPD2     N 6267   1.583   0.742  11.411 -0.4156  0.1238 -0.3073
  416MPD2    H5 6268   1.515   0.710  11.480 -1.9906 -0.4244 -2.1203
  416MPD2    N1 6269   1.531   1.168  11.620 -0.3966 -0.3315  0.2028
  416MPD2    H7 6270   1.474   1.121  11.689 -0.2982  3.8456  3.1298
  417TMC3    C1 6271   1.421   1.345  11.707  0.1809  0.1069 -0.0358
  417TMC3    C2 6272   1.381   1.270  11.814  1.0783  0.1084 -0.1586
  417TMC3    C3 6273   1.252   1.274  11.863  0.2833 -0.0051 -1.0831
  417TMC3    C4 6274   1.333   1.428  11.650 -0.7742  0.0299  0.6448
  417TMC3    C5 6275   1.202   1.420  11.691 -0.4570 -0.4978 -0.2169
  417TMC3    C6 6276   1.156   1.352  11.802 -0.5374  0.2583  0.4839
  417TMC3     C 6277   1.529   1.306  11.624 -0.3037  0.1507  0.4643
  417TMC3     O 6278   1.580   1.389  11.551 -0.2182  0.4405 -0.0843
  417TMC3     H 6279   1.455   1.216  11.873  0.8113 -0.1630 -0.0734
  417TMC3    H1 6280   1.355   1.470  11.553 -4.9467  1.0856  0.1152
  417TMC3    H2 6281   1.054   1.353  11.837 -0.9872  2.4230 -0.8876
  417TMC3    C7 6282   1.100   1.456  11.590  0.2686 -0.3949  0.6062
  417TMC3    C8 6283   1.213   1.217  11.989  0.5751  0.2934  0.1501
  417TMC3    O1 6284   1.126   1.552  11.518 -0.1308  0.0032 -0.4464
  417TMC3    O2 6285   1.117   1.261  12.051  0.5224 -0.4702 -0.4629
  418TMC3    C1 6286   0.051   3.620   0.493  0.5458 -0.3363  0.0574
  418TMC3    C2 6287   4.676   3.554   0.443 -0.0314  0.6176  0.6228
  418TMC3    C3 6288   4.661   3.428   0.485 -0.2164 -0.3341 -0.4492
  418TMC3    C4 6289   0.113   3.569   0.608  0.0270  0.5244  0.0124
  418TMC3    C5 6290   0.080   3.446   0.662  0.5037 -0.3045 -0.0352
  418TMC3    C6 6291   4.716   3.373   0.601 -0.2056  0.2768 -0.8185
  418TMC3     C 6292   0.091   3.745   0.438  0.1759 -0.8120  0.1338
  418TMC3     O 6293   0.006   3.796   0.363  0.1702 -0.0800  0.3384
  418TMC3     H 6294   4.635   3.590   0.349 -1.1692 -0.3822  0.7341
  418TMC3    H1 6295   0.176   3.631   0.670 -0.6872  1.2054  0.0650
  418TMC3    H2 6296   4.698   3.271   0.630  2.1221  1.2680  4.1863
  418TMC3    C7 6297   0.169   3.392   0.756  0.2986  0.6156  0.2935
  418TMC3    C8 6298   4.569   3.353   0.401 -0.1300 -0.2499 -0.3750
  418TMC3    O1 6299   0.282   3.439   0.753 -0.7237 -0.2476 -0.7252
  418TMC3    O2 6300   4.493   3.411   0.328 -0.2144  0.2610 -0.0674
  419MPD2     C 6301   3.428   1.315  12.665 -0.0056 -0.4742 -0.0953
  419MPD2    C1 6302   3.374   1.439  12.651  0.5190 -0.8352 -0.2970
  419MPD2    C2 6303   3.361   1.521  12.760  0.3182 -0.1538 -0.8982
  419MPD2    C3 6304   3.403   1.479  12.881 -0.3051 -0.0723 -0.7198
  419MPD2    C4 6305   3.458   1.355  12.900 -0.0671  0.4489 -0.1437
  419MPD2    C5 6306   3.469   1.272  12.787 -0.1646  0.1617 -0.3702
  419MPD2     H 6307   3.315   1.619  12.752 -1.1427 -0.8410 -0.7339
  419MPD2    H1 6308   3.488   1.322  12.999  0.0949  0.8649 -0.0561
  419MPD2    H2 6309   3.428   1.237  12.590 -2.3524 -1.3920  0.8648
  419MPD2    H3 6310   3.505   1.171  12.802 -1.0995  0.2030  2.2365
  419MPD2     N 6311   3.371   1.562  12.987 -0.9436 -0.1924  0.6300
  419MPD2    H5 6312   3.316   1.643  12.963 -0.0675  0.3025  0.2977
  419MPD2    N1 6313   3.320   1.488  12.536  0.4416 -0.6347 -0.7472
  419MPD2    H7 6314   3.258   1.567  12.547 -0.2744 -1.0767 -1.6503
  420TMC3    C1 6315   3.302   1.615  13.209 -0.0028  0.2807 -0.6063
  420TMC3    C2 6316   3.189   1.680  13.163  0.2771 -0.7636 -0.3316
  420TMC3    C3 6317   3.111   1.739  13.248 -0.8557 -0.4027 -0.4818
  420TMC3    C4 6318   3.339   1.621  13.336 -0.5262  0.4469  0.1595
  420TMC3    C5 6319   3.253   1.674  13.429 -0.3447 -0.4609 -0.6812
  420TMC3    C6 6320   3.136   1.733  13.387 -0.6551 -0.8063  0.4927
  420TMC3     C 6321   3.391   1.537  13.119 -0.3406  0.0870 -0.4451
  420TMC3     O 6322   3.477   1.466  13.172  0.2212 -0.0730 -0.1715
  420TMC3     H 6323   3.168   1.680  13.056  2.4987 -0.5779 -0.7755
  420TMC3    H1 6324   3.431   1.576  13.370 -0.0950  1.7451  0.7278
  420TMC3    H2 6325   3.059   1.769  13.455 -0.9113  0.8457 -0.6808
  420TMC3    C7 6326   3.255   1.613  13.560 -0.5903  0.2339  0.1865
  420TMC3    C8 6327   3.023   1.838  13.187 -0.2172 -0.8205 -0.4853
  420TMC3    O1 6328   3.365   1.566  13.589 -0.0289 -0.0460  0.0849
  420TMC3    O2 6329   3.060   1.890  13.082  0.4325  0.0940 -0.1089
  421TMC3    C1 6330   0.139   2.270  13.891 -0.4035  0.3098 -0.5171
  421TMC3    C2 6331   0.033   2.350  13.936  0.2127  0.9322 -0.1084
  421TMC3    C3 6332   4.728   2.332  14.065  0.1784  0.2476 -0.7036
  421TMC3    C4 6333   0.200   2.178  13.968 -0.3233 -0.1769 -0.0097
  421TMC3    C5 6334   0.155   2.163  14.099  0.0327  0.0111  0.3886
  421TMC3    C6 6335   0.058   2.248  14.151  0.4535 -0.7267  0.2365
  421TMC3     C 6336   0.183   2.273  13.756 -0.5873  0.6441 -0.1393
  421TMC3     O 6337   0.296   2.224  13.736 -0.5396  0.0749  0.4053
  421TMC3     H 6338   4.727   2.429  13.873  2.8508 -0.3297 -3.2995
  421TMC3    H1 6339   0.280   2.117  13.927  0.7154 -0.7388  2.8692
  421TMC3    H2 6340   0.036   2.250  14.257  0.4026 -3.0399  0.2689
  421TMC3    C7 6341   0.252   2.113  14.191 -0.3344  0.7493  0.3562
  421TMC3    C8 6342   4.672   2.453  14.121  0.1009  0.9046 -0.7497
  421TMC3    O1 6343   0.369   2.103  14.155 -0.1843  0.4322 -0.1183
  421TMC3    O2 6344   4.714   2.488  14.234 -0.2946  0.1988  0.1584
  422TMC3    C1 6345   2.364   4.279  12.711  0.2518 -0.1225 -0.2561
  422TMC3    C2 6346   2.308   4.397  12.744 -0.1087 -0.1856  0.8582
  422TMC3    C3 6347   2.197   4.410  12.826  0.4762 -0.0754  0.4593
  422TMC3    C4 6348   2.314   4.158  12.746  0.4652  0.2524  0.8457
  422TMC3    C5 6349   2.207   4.171  12.831  0.0773 -0.5549  0.4218
  422TMC3    C6 6350   2.143   4.291  12.870 -0.3079  0.3981 -0.2770
  422TMC3     C 6351   2.438   4.269  12.594 -0.0115 -0.6774  0.4226
  422TMC3     O 6352   2.534   4.194  12.592  0.0035  0.2508  0.3232
  422TMC3     H 6353   2.376   4.479  12.723  0.1471 -0.4482  0.6543
  422TMC3    H1 6354   2.358   4.065  12.713 -0.1929 -0.5492  2.2375
  422TMC3    H2 6355   2.061   4.299  12.941 -0.1111 -0.8576  0.0805
  422TMC3    C7 6356   2.182   4.041  12.895  0.0081 -0.7647  0.3690
  422TMC3    C8 6357   2.198   4.530  12.906 -0.0572 -0.4161  0.5038
  422TMC3    O1 6358   2.283   3.971  12.909  0.0294  0.6475 -0.5223
  422TMC3    O2 6359   2.304   4.586  12.926  0.4658  0.3781  0.2718
  423MPD2     C 6360   3.749   0.446   0.378 -0.1104  0.3768  0.4736
  423MPD2    C1 6361   3.826   0.336   0.412  0.3142 -0.2204 -0.7752
  423MPD2    C2 6362   3.840   0.233   0.322  0.2906  0.0108  0.3921
  423MPD2    C3 6363   3.779   0.245   0.192 -1.1613  0.6333 -0.6465
  423MPD2    C4 6364   3.715   0.360   0.158 -0.0842 -1.1207  0.3935
  423MPD2    C5 6365   3.699   0.467   0.248 -0.3653  0.1276  0.5718
  423MPD2     H 6366   3.898   0.147   0.355  1.1522  0.6090  0.4163
  423MPD2    H1 6367   3.672   0.377   0.061 -0.0559 -2.7929  0.0947
  423MPD2    H2 6368   3.728   0.530   0.444 -0.4301 -0.2773  1.2022
  423MPD2    H3 6369   3.636   0.551   0.221  0.1772  0.1597 -0.5770
  423MPD2     N 6370   3.794   0.144   0.092  0.6558  0.0525  0.5416
  423MPD2    H5 6371   3.765   0.169  17.727  4.1683 -1.9408 -1.0653
  423MPD2    N1 6372   3.896   0.321   0.534  0.4577 -0.6843  0.0472
  423MPD2    H7 6373   3.961   0.244   0.551  2.7476  0.8718 -1.7285
  424TMC3    C1 6374   4.024   0.402   0.729  0.2734 -0.3427  0.4862
  424TMC3    C2 6375   4.065   0.267   0.749 -0.4516  0.5175  0.2164
  424TMC3    C3 6376   4.154   0.238   0.839 -0.0731  0.4172  0.3473
  424TMC3    C4 6377   4.065   0.502   0.803  0.0818  0.0983  0.0569
  424TMC3    C5 6378   4.143   0.468   0.911  0.4278 -0.0924  0.1564
  424TMC3    C6 6379   4.190   0.339   0.928 -0.0661  0.0819  0.2645
  424TMC3     C 6380   3.913   0.421   0.628  0.7237 -0.8071  0.0252
  424TMC3     O 6381   3.863   0.533   0.633 -0.0704 -0.4715  0.4408
  424TMC3     H 6382   4.036   0.192   0.677  0.2187  0.1996  0.2792
  424TMC3    H1 6383   4.033   0.605   0.791 -0.1190  0.1569  1.0576
  424TMC3    H2 6384   4.272   0.332   0.998 -0.1083 -1.6217  0.1482
  424TMC3    C7 6385   4.192   0.567   1.008  0.6897  0.0499  0.3985
  424TMC3    C8 6386   4.210   0.104   0.838 -0.6028 -0.1165 -0.0306
  424TMC3    O1 6387   4.312   0.579   1.031 -0.0174 -0.3722 -0.1501
  424TMC3    O2 6388   4.163   0.020   0.759  0.2329 -0.3942  0.0916
  425MPD2     C 6389   3.307   4.319  17.459  0.7225 -0.6014  0.4186
  425MPD2    C1 6390   3.269   4.199  17.517 -0.2974  0.5295  0.6188
  425MPD2    C2 6391   3.160   4.210  17.605 -0.1587 -0.9798  0.3247
  425MPD2    C3 6392   3.101   4.328  17.632 -1.0635 -0.7353 -0.2057
  425MPD2    C4 6393   3.142   4.444  17.571 -0.0829 -0.1071 -0.0848
  425MPD2    C5 6394   3.248   4.440  17.486  0.7657 -0.6458  0.1079
  425MPD2     H 6395   3.115   4.122  17.650 -1.2624 -0.7030 -0.2321
  425MPD2    H1 6396   3.087   4.533  17.600 -1.1246  0.7780 -4.8472
  425MPD2    H2 6397   3.386   4.326  17.386  0.2092 -0.7947 -0.1551
  425MPD2    H3 6398   3.284   4.528  17.435 -1.7306 -0.0301 -0.5680
  425MPD2     N 6399   2.991   4.323  17.713 -0.5912  0.8497  0.6717
  425MPD2    H5 6400   2.966   4.229   0.015  0.8892  0.8428  1.8377
  425MPD2    N1 6401   3.332   4.080  17.470  0.0980 -0.0927 -0.0331
  425MPD2    H7 6402   3.385   4.090  17.384 -0.3340  1.2506 -0.1442
  426TMC3    C1 6403   3.384   3.857  17.454  0.0512 -0.6366  0.4846
  426TMC3    C2 6404   3.312   3.820  17.339 -0.1113  0.5553 -0.2222
  426TMC3    C3 6405   3.296   3.689  17.299 -0.5454 -0.2082  0.8636
  426TMC3    C4 6406   3.422   3.754  17.539  0.3892  0.0108 -0.1347
  426TMC3    C5 6407   3.385   3.627  17.507  0.5251  0.2994  0.1551
  426TMC3    C6 6408   3.332   3.593  17.386 -0.4720 -0.3888  0.4469
  426TMC3     C 6409   3.334   3.964  17.537 -0.3085  0.0138 -0.4696
  426TMC3     O 6410   3.298   3.943  17.652 -0.3856  0.1402  1.0685
  426TMC3     H 6411   3.288   3.902  17.273  0.1828 -0.3175 -1.3998
  426TMC3    H1 6412   3.458   3.784  17.636 -0.8838 -1.0241  0.6585
  426TMC3    H2 6413   3.307   3.489  17.368  0.5672 -0.3946 -0.9389
  426TMC3    C7 6414   3.317   3.559  17.616 -0.1256  0.2896  0.7168
  426TMC3    C8 6415   3.244   3.653  17.164 -0.6228  0.3184 -0.2079
  426TMC3    O1 6416   3.281   3.444  17.596 -0.5012  0.2677 -0.0915
  426TMC3    O2 6417   3.277   3.545  17.121  0.3323 -0.1562 -0.1258
  427MPD2     C 6418   1.358   1.817  15.444 -0.6255  0.1028  0.6497
  427MPD2    C1 6419   1.356   1.688  15.392  0.0965  0.1450 -1.0415
  427MPD2    C2 6420   1.235   1.639  15.347  0.6654  0.3165 -0.3446
  427MPD2    C3 6421   1.122   1.711  15.347 -0.0710 -0.6676  0.0651
  427MPD2    C4 6422   1.122   1.827  15.415 -0.5908 -0.4571 -0.6485
  427MPD2    C5 6423   1.239   1.868  15.466 -0.3254 -0.5709  0.0668
  427MPD2     H 6424   1.237   1.540  15.303 -1.7677 -0.5372  1.5156
  427MPD2    H1 6425   1.034   1.889  15.429 -0.0920  0.2669 -0.7107
  427MPD2    H2 6426   1.452   1.856  15.482  0.4106 -2.2635  0.5383
  427MPD2    H3 6427   1.237   1.967  15.511  2.2918  0.2189 -1.5026
  427MPD2     N 6428   0.999   1.668  15.281 -0.0087  0.2556  0.3856
  427MPD2    H5 6429   0.922   1.733  15.285 -1.4020 -1.2753 -1.9197
  427MPD2    N1 6430   1.464   1.603  15.372  0.3339  0.0343 -0.4301
  427MPD2    H7 6431   1.447   1.508  15.343 -1.0010  0.2234 -0.2741
  428TMC3    C1 6432   1.686   1.523  15.399  0.3932 -0.1108  0.3810
  428TMC3    C2 6433   1.641   1.416  15.461 -0.1348  0.2729  0.3798
  428TMC3    C3 6434   1.730   1.322  15.508 -0.8465  1.0118 -0.3857
  428TMC3    C4 6435   1.823   1.542  15.392  0.5210 -0.1116  0.3268
  428TMC3    C5 6436   1.909   1.440  15.423  0.3184 -0.0331  0.1315
  428TMC3    C6 6437   1.864   1.327  15.482  0.5147 -0.3637 -0.1325
  428TMC3     C 6438   1.595   1.634  15.409  0.2645 -0.1311  0.5641
  428TMC3     O 6439   1.645   1.739  15.452  0.1369  0.0417 -0.3863
  428TMC3     H 6440   1.538   1.417  15.493  0.1836  1.0364  1.3657
  428TMC3    H1 6441   1.858   1.630  15.339 -1.8715  1.9099  2.0746
  428TMC3    H2 6442   1.924   1.239  15.501  1.0106  0.2861  1.3693
  428TMC3    C7 6443   2.045   1.470  15.405 -0.1065  0.5106  0.0731
  428TMC3    C8 6444   1.669   1.191  15.546 -0.2347 -0.3361  0.1967
  428TMC3    O1 6445   2.125   1.426  15.489  0.1570 -0.1962 -0.4175
  428TMC3    O2 6446   1.728   1.126  15.631  0.0572  0.0857 -0.4256
  429MPD2     C 6447   2.656   1.696  17.679  0.4549  0.4022 -0.1809
  429MPD2    C1 6448   2.753   1.623  17.609 -1.0041 -0.1668 -0.4613
  429MPD2    C2 6449   2.827   1.691  17.514  0.2000  0.0378  0.2438
  429MPD2    C3 6450   2.812   1.822  17.489  0.3743  0.1795  0.0174
  429MPD2    C4 6451   2.719   1.892  17.569 -0.4457  0.4233 -0.7624
  429MPD2    C5 6452   2.638   1.830  17.665  0.1322  0.3289 -0.8838
  429MPD2     H 6453   2.903   1.637  17.458  2.0053  0.5964  2.1567
  429MPD2    H1 6454   2.701   1.998  17.556  1.2143  0.5643 -1.7769
  429MPD2    H2 6455   2.594   1.642   0.021  0.0909 -0.5273 -1.2143
  429MPD2    H3 6456   2.568   1.887  17.724  1.0437  0.9287 -0.3767
  429MPD2     N 6457   2.892   1.880  17.389  0.2016 -0.1343  0.1973
  429MPD2    H5 6458   2.940   1.809  17.334  3.0629  1.8612  0.1247
  429MPD2    N1 6459   2.779   1.488  17.622 -0.0582 -0.3722  0.6951
  429MPD2    H7 6460   2.849   1.445  17.562  0.0229  0.0637  0.4813
  430TMC3    C1 6461   3.010   2.037  17.261 -0.0506  0.4522  0.0096
  430TMC3    C2 6462   3.006   2.155  17.194  0.2317  0.0129 -0.3143
  430TMC3    C3 6463   3.073   2.187  17.081  0.4974 -0.0543  0.0193
  430TMC3    C4 6464   3.088   1.934  17.208  0.5705 -0.0702  0.0670
  430TMC3    C5 6465   3.149   1.957  17.090 -0.7607  0.3590  1.0259
  430TMC3    C6 6466   3.148   2.085  17.030 -0.4206 -0.1235  0.2247
  430TMC3     C 6467   2.903   2.012  17.356 -0.1206 -0.4162  0.3163
  430TMC3     O 6468   2.854   2.105  17.422  0.8013 -0.1719  0.6934
  430TMC3     H 6469   2.935   2.226  17.235  1.3499  0.4709  0.8036
  430TMC3    H1 6470   3.074   1.835  17.251  1.7768  0.9425  2.8361
  430TMC3    H2 6471   3.212   2.115  16.947 -0.1097 -0.4096  0.3579
  430TMC3    C7 6472   3.118   1.845  17.002  0.2737 -0.2864  0.8163
  430TMC3    C8 6473   2.983   2.236  16.981  0.7116 -0.1745 -0.0814
  430TMC3    O1 6474   3.113   1.739  17.058  0.2064  0.0423 -0.1974
  430TMC3    O2 6475   2.982   2.178  16.873  0.7488  0.5123  0.1538
  431MPD2     C 6476   3.140   2.240  12.448  0.3203  0.0139 -0.0582
  431MPD2    C1 6477   3.227   2.210  12.345  0.1012  0.0301  0.1240
  431MPD2    C2 6478   3.228   2.082  12.289 -0.7471  0.3836 -0.5869
  431MPD2    C3 6479   3.131   1.994  12.334 -0.8310 -0.6821 -0.3650
  431MPD2    C4 6480   3.040   2.024  12.435  0.3692 -0.2407 -0.3480
  431MPD2    C5 6481   3.046   2.151  12.492  0.6249 -0.2169 -0.3392
  431MPD2     H 6482   3.312   2.053  12.228 -1.3411 -1.8208 -0.3437
  431MPD2    H1 6483   2.959   1.963  12.472  0.8272  0.1049  1.2187
  431MPD2    H2 6484   3.139   2.332  12.505 -0.8844  1.0408 -1.7513
  431MPD2    H3 6485   2.969   2.187  12.560 -0.1439 -1.1869 -0.7044
  431MPD2     N 6486   3.127   1.861  12.289 -0.2054  0.2865 -0.5293
  431MPD2    H5 6487   3.063   1.799  12.336  3.1143 -1.9689  1.0181
  431MPD2    N1 6488   3.325   2.299  12.299 -0.1916  0.3349  0.8186
  431MPD2    H7 6489   3.388   2.253  12.235 -2.4598 -3.0788  1.0322
  432TMC3    C1 6490   3.174   1.654  12.193 -0.6090  0.2870 -0.3703
  432TMC3    C2 6491   3.147   1.580  12.080 -0.5711  0.3876  0.7943
  432TMC3    C3 6492   3.167   1.449  12.096  0.0018  0.8717  0.6475
  432TMC3    C4 6493   3.236   1.613  12.306  0.1747 -0.1135  0.3392
  432TMC3    C5 6494   3.256   1.472  12.308  0.4780  0.3343  0.6223
  432TMC3    C6 6495   3.212   1.390  12.209 -0.2682 -0.1216  0.8317
  432TMC3     C 6496   3.183   1.803  12.179 -0.8421 -0.2543 -0.5366
  432TMC3     O 6497   3.241   1.856  12.084  0.2627 -0.1665  0.2099
  432TMC3     H 6498   3.122   1.632  11.989  1.0444  1.1990  0.8149
  432TMC3    H1 6499   3.306   1.676  12.359  0.3155 -0.0194  0.0419
  432TMC3    H2 6500   3.212   1.282  12.213  0.6606 -0.1495 -0.0839
  432TMC3    C7 6501   3.330   1.413  12.420 -0.1797 -0.3362 -0.1025
  432TMC3    C8 6502   3.182   1.374  11.962 -0.2399  0.4176 -0.1238
  432TMC3    O1 6503   3.402   1.320  12.392 -0.8129 -0.7211  0.4404
  432TMC3    O2 6504   3.101   1.405  11.879  0.5064 -0.2479 -0.4886
  433MPD2     C 6505   2.362   0.309  10.938  0.2917 -0.9723  0.1951
  433MPD2    C1 6506   2.265   0.218  10.931  0.4567 -0.6975  0.2507
  433MPD2    C2 6507   2.186   0.208  11.048 -0.3307  0.3241 -0.0915
  433MPD2    C3 6508   2.214   0.286  11.160  0.2162  0.0547  0.6204
  433MPD2    C4 6509   2.317   0.377  11.162  0.3206 -0.3749 -0.4969
  433MPD2    C5 6510   2.385   0.390  11.049 -0.1655 -0.3255  0.2113
  433MPD2     H 6511   2.103   0.139  11.055 -1.0920  1.3538  0.9894
  433MPD2    H1 6512   2.341   0.445  11.243 -1.8800 -0.9294  0.6195
  433MPD2    H2 6513   2.429   0.320  10.853 -1.2862 -0.6453 -1.0072
  433MPD2    H3 6514   2.472   0.453  11.054 -1.1994  1.1614 -0.7508
  433MPD2     N 6515   2.151   0.237  11.280  0.0493  0.8326 -0.2038
  433MPD2    H5 6516   2.121   0.140  11.277  0.6762  0.5201  3.6242
  433MPD2    N1 6517   2.256   0.131  10.820  0.2613 -0.4991 -1.0277
  433MPD2    H7 6518   2.328   0.126  10.749  0.4466 -0.5280 -0.8383
  434TMC3    C1 6519   2.201   4.663  10.704 -0.0534 -1.1454 -0.1923
  434TMC3    C2 6520   2.305   4.587  10.750  0.2106 -0.6843 -0.3213
  434TMC3    C3 6521   2.338   4.476  10.683  0.0388 -0.2883  0.0954
  434TMC3    C4 6522   2.125   4.625  10.598 -1.0477  0.0298  0.2933
  434TMC3    C5 6523   2.155   4.501  10.541 -0.7070  0.3268  0.2366
  434TMC3    C6 6524   2.267   4.433  10.577 -0.2609 -0.3487  0.3027
  434TMC3     C 6525   2.152   0.039  10.793 -0.0637 -0.0669  0.4134
  434TMC3     O 6526   2.056   0.026  10.863  0.3554  0.4365  0.7065
  434TMC3     H 6527   2.373   4.628  10.823  0.1364 -1.5917  0.2638
  434TMC3    H1 6528   2.034   4.677  10.570 -1.3159 -1.7275 -2.0752
  434TMC3    H2 6529   2.298   4.344  10.522  0.2012 -1.0572  1.7187
  434TMC3    C7 6530   2.072   4.448  10.438  0.3695 -0.5767 -0.5008
  434TMC3    C8 6531   2.442   4.400  10.748  0.2541  0.1128  0.6977
  434TMC3    O1 6532   1.986   4.525  10.397 -0.1816  0.2565 -0.0681
  434TMC3    O2 6533   2.468   4.419  10.868  0.1015  0.4016  0.5202
  435MPD2     C 6534   0.050   0.017  15.440  0.5425 -0.6397 -0.1144
  435MPD2    C1 6535   4.726   0.091  15.542  0.0504 -0.3129  0.0107
  435MPD2    C2 6536   0.066   0.122  15.656 -0.7802  0.3638  0.8748
  435MPD2    C3 6537   0.193   0.065  15.672  0.2659  0.7621  0.1327
  435MPD2    C4 6538   0.251   4.726  15.569 -0.1633 -0.3418 -0.0247
  435MPD2    C5 6539   0.178   4.700  15.458 -0.5526  0.0145  0.7443
  435MPD2     H 6540   0.034   0.180  15.742  0.9796  0.6918  1.3021
  435MPD2    H1 6541   0.348   4.676  15.569 -1.4221 -2.7728 -1.9877
  435MPD2    H2 6542   0.007   4.732  15.342  1.0393  1.0793 -0.6350
  435MPD2    H3 6543   0.227   4.661  15.369 -0.8730  0.2320  0.4694
  435MPD2     N 6544   0.258   0.076  15.797 -0.0280  0.6927 -0.3978
  435MPD2    H5 6545   0.213   0.122  15.876  1.8875  4.3061 -1.4137
  435MPD2    N1 6546   4.608   0.157  15.534  0.1712  0.1129 -0.0366
  435MPD2    H7 6547   4.584   0.228  15.602  0.1181 -1.7169  1.8496
  436TMC3    C1 6548   4.355   0.430  15.578 -0.4545  0.2168  0.4800
  436TMC3    C2 6549   4.453   0.355  15.522  0.4193 -0.1507  0.3771
  436TMC3    C3 6550   4.428   0.255  15.434 -0.4691 -0.2372  0.0698
  436TMC3    C4 6551   4.225   0.406  15.543  0.2256  0.3638  0.0368
  436TMC3    C5 6552   4.202   0.298  15.463 -0.4364  0.2321  1.0380
  436TMC3    C6 6553   4.297   0.229  15.395 -0.0129 -0.0206 -0.2105
  436TMC3     C 6554   4.384   0.522  15.684 -0.0713 -0.0353  0.5831
  436TMC3     O 6555   4.501   0.553  15.698  0.6482  0.1072 -0.0656
  436TMC3     H 6556   4.555   0.382  15.548  0.1039  1.5448 -0.1741
  436TMC3    H1 6557   4.139   0.459  15.582  2.1287  2.5543  1.2600
  436TMC3    H2 6558   4.270   0.149  15.327  0.6733 -0.6270  0.2356
  436TMC3    C7 6559   4.065   0.277  15.430  0.1464 -0.1199  0.3242
  436TMC3    C8 6560   4.526   0.149  15.424 -0.5461  0.8079 -0.1377
  436TMC3    O1 6561   4.039   0.220  15.325  0.6124 -0.0530  0.0370
  436TMC3    O2 6562   4.530   0.077  15.325  0.3362  0.1670  0.2340
  437TMC3    C1 6563   2.721   2.248  13.387 -0.2865  0.0443 -0.6599
  437TMC3    C2 6564   2.598   2.222  13.433  0.3814  0.1731  0.0905
  437TMC3    C3 6565   2.487   2.289  13.389 -0.1674  0.0140 -0.4995
  437TMC3    C4 6566   2.744   2.354  13.305 -0.1535 -0.3291 -0.2646
  437TMC3    C5 6567   2.630   2.421  13.267  0.5081  0.3127  0.2512
  437TMC3    C6 6568   2.498   2.387  13.297  0.4018 -0.3077 -0.0133
  437TMC3     C 6569   2.832   2.167  13.445 -0.1841  1.0650 -1.3103
  437TMC3     O 6570   2.805   2.086  13.530 -0.0785 -0.0604  0.2144
  437TMC3     H 6571   2.589   2.148  13.512 -1.2943  0.1285 -0.1361
  437TMC3    H1 6572   2.843   2.395  13.290 -0.8462  1.1186 -0.8116
  437TMC3    H2 6573   2.414   2.438  13.251  0.9085  1.3492  0.8858
  437TMC3    C7 6574   2.627   2.538  13.180 -0.1256  0.6135 -0.0674
  437TMC3    C8 6575   2.361   2.262  13.443 -0.9996 -0.1268  0.0724
  437TMC3    O1 6576   2.522   2.591  13.141 -0.8388 -0.2787  0.4850
  437TMC3    O2 6577   2.365   2.156  13.505  0.8265  0.3760 -0.2413
  438MPD2     C 6578   0.601   2.757  17.034  0.6586  0.4551  0.0026
  438MPD2    C1 6579   0.685   2.654  17.064  0.4521  0.5138 -0.3453
  438MPD2    C2 6580   0.693   2.604  17.194 -0.6781  0.3689  0.5507
  438MPD2    C3 6581   0.591   2.632  17.285 -0.2279  0.4028 -0.3616
  438MPD2    C4 6582   0.501   2.736  17.255 -0.3628 -0.3619 -0.1824
  438MPD2    C5 6583   0.508   2.798  17.127  0.8026 -0.1742  1.0972
  438MPD2     H 6584   0.775   2.542  17.227 -0.6035 -0.0629 -0.4397
  438MPD2    H1 6585   0.424   2.761  17.328  0.2806  0.5029  0.1967
  438MPD2    H2 6586   0.624   2.827  16.954 -1.3255  0.5518 -0.4956
  438MPD2    H3 6587   0.435   2.877  17.116  2.4234  1.1322 -0.2341
  438MPD2     N 6588   0.583   2.575  17.411  0.1254 -0.0175 -0.4570
  438MPD2    H5 6589   0.514   2.607  17.478  2.2814 -0.4237  1.9694
  438MPD2    N1 6590   0.780   2.607  16.972  0.3521  0.1337  0.4105
  438MPD2    H7 6591   0.836   2.528  17.000 -0.1250 -0.1129  0.6633
  439TMC3    C1 6592   0.871   2.570  16.745  0.0950 -0.1308  0.1043
  439TMC3    C2 6593   0.847   2.584  16.616  0.2138  0.0119  0.3701
  439TMC3    C3 6594   0.953   2.567  16.532 -0.4148 -0.8505  0.1807
  439TMC3    C4 6595   0.992   2.567  16.802 -1.1212 -0.1269 -0.2333
  439TMC3    C5 6596   1.096   2.546  16.713 -0.1513  0.3176  1.1389
  439TMC3    C6 6597   1.084   2.538  16.577  0.6517 -0.4833  0.6621
  439TMC3     C 6598   0.771   2.631  16.834  0.4414 -0.4650  0.1915
  439TMC3     O 6599   0.688   2.691  16.771  0.8143 -0.0369 -0.2141
  439TMC3     H 6600   0.752   2.592  16.564  0.3539  0.3624  0.1705
  439TMC3    H1 6601   1.014   2.564  16.908  2.4283 -0.4646 -0.9948
  439TMC3    H2 6602   1.160   2.491  16.516  0.0660 -0.6492  0.0553
  439TMC3    C7 6603   1.226   2.518  16.771  0.1395  0.1437  0.0916
  439TMC3    C8 6604   0.941   2.518  16.392  0.7741 -0.0008 -0.2554
  439TMC3    O1 6605   1.224   2.503  16.893  0.2512 -0.1432  0.3551
  439TMC3    O2 6606   0.857   2.437  16.361 -0.1374 -0.3140  0.4881
  440MPD2     C 6607   4.580   3.849  15.344 -0.0229  0.1494 -0.0079
  440MPD2    C1 6608   4.562   3.734  15.424 -0.1545  0.5974 -0.0349
  440MPD2    C2 6609   4.652   3.628  15.412  0.0674 -0.2697  1.2324
  440MPD2    C3 6610   0.037   3.642  15.329  0.0937 -0.0630 -0.2841
  440MPD2    C4 6611   0.057   3.765  15.269  0.8737  0.0232 -0.2309
  440MPD2    C5 6612   4.692   3.859  15.268  0.5512  0.2896  0.5009
  440MPD2     H 6613   4.644   3.554  15.491 -1.4901  0.0624  1.3749
  440MPD2    H1 6614   0.145   3.785  15.209  0.3944 -0.5445 -1.1313
  440MPD2    H2 6615   4.516   3.937  15.344 -0.5718 -0.2622 -2.3873
  440MPD2    H3 6616   4.700   3.949  15.207  0.7738 -1.3497 -1.8831
  440MPD2     N 6617   0.129   3.542  15.306  0.3932 -0.1191 -0.3801
  440MPD2    H5 6618   0.203   3.563  15.240 -0.0340  1.2426 -0.4250
  440MPD2    N1 6619   4.457   3.723  15.517 -0.0153  0.2768 -0.1302
  440MPD2    H7 6620   4.461   3.636  15.570  0.0641  0.4199  0.0945
  441TMC3    C1 6621   0.228   3.335  15.355  0.2567 -0.2025  0.2409
  441TMC3    C2 6622   0.346   3.402  15.355 -0.4583  0.5793 -0.2716
  441TMC3    C3 6623   0.444   3.351  15.435 -0.4854 -0.0981  0.0359
  441TMC3    C4 6624   0.218   3.215  15.419  0.3162 -0.0905  0.0724
  441TMC3    C5 6625   0.325   3.161  15.489 -0.8029  0.5337  0.4375
  441TMC3    C6 6626   0.431   3.237  15.510  0.9100  0.1995  0.3283
  441TMC3     C 6627   0.111   3.414  15.350  0.0812 -0.3361  0.2225
  441TMC3     O 6628   0.016   3.362  15.402 -0.7651 -0.2529 -0.0122
  441TMC3     H 6629   0.365   3.491  15.296  1.0006  0.8977  0.6893
  441TMC3    H1 6630   0.123   3.163  15.425 -0.9985  2.2576 -0.3293
  441TMC3    H2 6631   0.511   3.212  15.579  1.4415 -1.5834 -0.9211
  441TMC3    C7 6632   0.292   3.069  15.591  0.3288 -0.3042 -0.4165
  441TMC3    C8 6633   0.518   3.453  15.495 -0.4245 -0.1447  0.2680
  441TMC3    O1 6634   0.177   3.033  15.605 -0.1991 -0.2014 -0.2019
  441TMC3    O2 6635   0.642   3.456  15.471 -0.1277 -0.2873  0.2983
  442MPD2     C 6636   2.671   3.669  16.667 -0.4233 -0.6153  0.2033
  442MPD2    C1 6637   2.540   3.623  16.679 -0.1381 -0.0123 -0.0159
  442MPD2    C2 6638   2.509   3.502  16.620 -0.1415 -0.1645 -0.1953
  442MPD2    C3 6639   2.594   3.424  16.540  0.3973  0.3701 -0.4127
  442MPD2    C4 6640   2.722   3.474  16.515 -0.5353 -0.4844  0.3550
  442MPD2    C5 6641   2.757   3.591  16.592  0.2745 -0.1180 -0.3226
  442MPD2     H 6642   2.410   3.459  16.630 -0.2897 -0.4514 -2.7752
  442MPD2    H1 6643   2.797   3.425  16.455 -2.6604  0.2048 -2.8491
  442MPD2    H2 6644   2.705   3.757  16.721  1.2820 -2.3898  2.0381
  442MPD2    H3 6645   2.860   3.626  16.584  1.1299 -2.7385 -0.6599
  442MPD2     N 6646   2.566   3.307  16.466  0.9109  0.1212  0.5501
  442MPD2    H5 6647   2.639   3.280  16.401  0.2979 -1.6201  0.5806
  442MPD2    N1 6648   2.443   3.693  16.750  0.5288  0.8941  0.0549
  442MPD2    H7 6649   2.352   3.651  16.769 -0.0306  1.3197 -1.6324
  443TMC3    C1 6650   2.337   3.880  16.862  0.2729  0.6530  0.0012
  443TMC3    C2 6651   2.274   3.984  16.813  0.3147 -0.5169  0.5814
  443TMC3    C3 6652   2.149   4.012  16.857  0.3896  0.5689  0.0183
  443TMC3    C4 6653   2.275   3.801  16.950  0.2200  1.0211 -0.1414
  443TMC3    C5 6654   2.158   3.837  17.012 -0.4666  0.3324 -0.1921
  443TMC3    C6 6655   2.090   3.942  16.959 -0.1421  0.0944 -0.5485
  443TMC3     C 6656   2.455   3.832  16.784 -0.9409  0.3291 -0.2064
  443TMC3     O 6657   2.542   3.906  16.734  0.0422  0.1690 -0.1766
  443TMC3     H 6658   2.322   4.035  16.731 -0.6311  2.6275  1.9870
  443TMC3    H1 6659   2.323   3.708  16.980 -0.7604 -0.4817 -3.1970
  443TMC3    H2 6660   1.998   3.980  17.001 -1.0030 -0.0764 -2.2602
  443TMC3    C7 6661   2.100   3.749  17.114 -0.1638  0.5495 -0.4462
  443TMC3    C8 6662   2.057   4.040  16.756 -0.3371 -0.6364  0.2872
  443TMC3    O1 6663   2.072   3.800  17.224  1.1314 -0.3500 -0.3755
  443TMC3    O2 6664   1.945   3.986  16.757 -0.1821 -0.5423 -0.9757
  444MPD2     C 6665   2.695   3.524  17.009 -0.3838 -0.3456  0.3921
  444MPD2    C1 6666   2.609   3.419  17.005  0.6012  0.2649 -0.1257
  444MPD2    C2 6667   2.644   3.304  16.934  0.0486 -0.0743 -0.5938
  444MPD2    C3 6668   2.757   3.300  16.856 -0.3252 -0.2562  0.1331
  444MPD2    C4 6669   2.838   3.415  16.853 -0.4877 -0.1585  0.5757
  444MPD2    C5 6670   2.799   3.523  16.928  0.4878  0.3453 -0.0644
  444MPD2     H 6671   2.579   3.219  16.947  1.9011 -1.3591  0.1930
  444MPD2    H1 6672   2.920   3.433  16.786  2.4443 -2.5975  3.5182
  444MPD2    H2 6673   2.666   3.616  17.059 -0.2278  0.4767 -1.0312
  444MPD2    H3 6674   2.860   3.613  16.927 -2.7954  2.5387 -0.3014
  444MPD2     N 6675   2.785   3.183  16.782 -0.1285 -0.0253 -0.5669
  444MPD2    H5 6676   2.716   3.108  16.779 -1.5014  1.1501  1.6109
  444MPD2    N1 6677   2.486   3.421  17.081 -1.3986  0.0583 -0.2989
  444MPD2    H7 6678   2.430   3.336  17.079 -0.0945 -0.8159  0.5687
  445TMC3    C1 6679   2.915   3.031  16.652  0.2314  0.0474 -0.1790
  445TMC3    C2 6680   2.800   2.966  16.609  0.1625  0.6881  0.2479
  445TMC3    C3 6681   2.828   2.849  16.546 -0.6467 -0.3999  0.4855
  445TMC3    C4 6682   3.041   2.970  16.658 -0.9764 -0.3690  1.1459
  445TMC3    C5 6683   3.058   2.861  16.585  0.2012  0.0804 -0.0879
  445TMC3    C6 6684   2.953   2.791  16.529  0.5685 -0.4598  0.0612
  445TMC3     C 6685   2.906   3.160  16.726  0.1216 -0.5249 -0.1848
  445TMC3     O 6686   3.012   3.218  16.728 -0.1871 -0.4317 -0.0984
  445TMC3     H 6687   2.700   3.007  16.603  0.8307  2.1678 -0.6892
  445TMC3    H1 6688   3.126   3.030  16.689 -0.4269 -0.0599 -0.9643
  445TMC3    H2 6689   2.977   2.736  16.439 -0.2105 -1.4660  0.4733
  445TMC3    C7 6690   3.193   2.818  16.579  0.3936  0.1999 -0.6287
  445TMC3    C8 6691   2.713   2.795  16.480 -0.3546 -0.4321  0.9243
  445TMC3    O1 6692   3.280   2.887  16.636  0.2348  0.0294 -0.4587
  445TMC3    O2 6693   2.610   2.859  16.489 -0.0175  0.3606  0.1608
  446MPD2     C 6694   2.276   4.372  11.124  0.2146  0.6017 -0.5326
  446MPD2    C1 6695   2.216   4.483  11.070 -0.4819  0.5919 -0.1999
  446MPD2    C2 6696   2.273   4.599  11.098  0.2834 -0.4701  0.5192
  446MPD2    C3 6697   2.377   4.616  11.194 -0.3206 -0.2824  0.1337
  446MPD2    C4 6698   2.429   4.504  11.256  0.2769  0.2336  0.3432
  446MPD2    C5 6699   2.378   4.385  11.211  0.3499  0.1205 -1.1059
  446MPD2     H 6700   2.236   4.693  11.058  2.5179 -0.1212 -0.7250
  446MPD2    H1 6701   2.516   4.502  11.321 -0.3514  1.0279  1.2095
  446MPD2    H2 6702   2.235   4.272  11.111 -0.5347  0.6611  1.3287
  446MPD2    H3 6703   2.418   4.291  11.247 -0.7786 -0.7106 -2.0062
  446MPD2     N 6704   2.433   0.010  11.213 -0.3465  0.1826 -0.5538
  446MPD2    H5 6705   2.431   0.082  11.141  0.9700  0.8455  0.0609
  446MPD2    N1 6706   2.099   4.484  10.977  0.1248 -0.3691  0.2007
  446MPD2    H7 6707   2.064   4.571  10.938 -2.2590 -1.6796 -0.5688
  447TMC3    C1 6708   2.610   0.146  11.293 -0.2297  0.4425 -0.5586
  447TMC3    C2 6709   2.647   0.176  11.166 -0.3073 -0.0947 -0.3874
  447TMC3    C3 6710   2.771   0.227  11.138 -0.0814 -0.1941 -0.0576
  447TMC3    C4 6711   2.704   0.158  11.392 -0.3157  0.2438  0.0349
  447TMC3    C5 6712   2.828   0.203  11.361  0.3465 -0.6121  0.1950
  447TMC3    C6 6713   2.864   0.241  11.235  0.9122 -0.4365  0.1253
  447TMC3     C 6714   2.521   0.035  11.318 -0.3364 -0.0343 -0.1919
  447TMC3     O 6715   2.547   4.706  11.421  0.0511  0.6031  0.3485
  447TMC3     H 6716   2.583   0.159  11.080 -0.0307 -0.9770 -0.4150
  447TMC3    H1 6717   2.672   0.154  11.496 -0.0758  0.8545  0.1276
  447TMC3    H2 6718   2.964   0.279  11.216  0.4377 -0.4272 -2.4373
  447TMC3    C7 6719   2.931   0.131  11.436 -0.5069  0.6050 -1.0219
  447TMC3    C8 6720   2.813   0.268  11.009 -0.3892  0.4333 -0.2573
  447TMC3    O1 6721   3.047   0.171  11.436 -0.0132  0.4164  0.7911
  447TMC3    O2 6722   2.734   0.324  10.932 -0.2154  0.0691  0.5345
  448TMC3    C1 6723   0.850   3.845  17.035  0.7123 -0.2283 -0.0481
  448TMC3    C2 6724   0.761   3.855  16.932  0.4536  0.7903  0.0522
  448TMC3    C3 6725   0.642   3.785  16.939  0.0039 -0.1479  0.1070
  448TMC3    C4 6726   0.826   3.751  17.136 -0.1245 -0.3888  0.3286
  448TMC3    C5 6727   0.706   3.685  17.144 -0.0926  0.0753 -0.4286
  448TMC3    C6 6728   0.612   3.698  17.042 -0.5063 -0.1206 -0.1671
  448TMC3     C 6729   0.976   3.926  17.047 -0.0389 -0.5698 -0.7718
  448TMC3     O 6730   1.065   3.872  17.114 -0.1471 -0.3929 -0.2239
  448TMC3     H 6731   0.787   3.916  16.847 -1.1262  1.4379  0.0257
  448TMC3    H1 6732   0.899   3.754  17.216 -1.2529 -2.9179  1.4403
  448TMC3    H2 6733   0.519   3.643  17.038 -0.6419  0.0734  0.4750
  448TMC3    C7 6734   0.687   3.583  17.259  0.6483 -0.2669 -0.5725
  448TMC3    C8 6735   0.550   3.772  16.831 -0.4491  0.4249  0.5663
  448TMC3    O1 6736   0.579   3.544  17.290 -0.5640 -0.4372 -0.4226
  448TMC3    O2 6737   0.470   3.682  16.835  0.2518  0.1614  0.0365
  449MPD2     C 6738   2.047   2.696  14.201  0.0482 -0.0680 -0.0734
  449MPD2    C1 6739   1.930   2.733  14.140 -0.3223 -0.2697 -0.3382
  449MPD2    C2 6740   1.811   2.708  14.212 -0.4189  0.0483 -0.1348
  449MPD2    C3 6741   1.812   2.665  14.343  0.1829  0.6100  0.2332
  449MPD2    C4 6742   1.935   2.631  14.401  0.4705 -0.0214  0.2878
  449MPD2    C5 6743   2.048   2.653  14.334 -0.1227  0.6262  0.2315
  449MPD2     H 6744   1.716   2.739  14.169 -0.4968 -1.3110 -0.9270
  449MPD2    H1 6745   1.933   2.579  14.496  2.1461 -0.4732  0.0747
  449MPD2    H2 6746   2.144   2.708  14.155 -0.4706 -2.2706 -1.7043
  449MPD2    H3 6747   2.139   2.609  14.373 -0.0124  0.1301 -0.5847
  449MPD2     N 6748   1.686   2.666  14.409 -0.4666 -0.6310  0.4601
  449MPD2    H5 6749   1.605   2.692  14.353  0.5696  1.1458 -0.1929
  449MPD2    N1 6750   1.915   2.775  14.006 -0.3103 -0.2938 -0.2272
  449MPD2    H7 6751   1.822   2.769  13.965 -1.3265 -2.0283  2.2915
  450TMC3    C1 6752   1.963   2.837  13.798 -0.5676  0.4581  0.0766
  450TMC3    C2 6753   1.981   2.969  13.752 -0.4060 -0.4399 -0.1383
  450TMC3    C3 6754   1.867   3.034  13.708 -0.1640 -1.0368 -0.8116
  450TMC3    C4 6755   1.849   2.771  13.768  0.2378 -0.5202  0.1964
  450TMC3    C5 6756   1.736   2.843  13.738 -0.4040 -0.0300 -0.2849
  450TMC3    C6 6757   1.747   2.970  13.700 -0.1978  0.2821  0.9004
  450TMC3     C 6758   2.013   2.827  13.933  0.4158  0.2361  0.5655
  450TMC3     O 6759   2.129   2.853  13.965 -0.2402 -0.3756  0.5285
  450TMC3     H 6760   2.072   3.025  13.766  0.3326 -0.9910 -2.6594
  450TMC3    H1 6761   1.833   2.670  13.802 -1.3589 -0.5464 -0.6454
  450TMC3    H2 6762   1.656   3.024  13.675 -0.6355 -1.0920 -0.4850
  450TMC3    C7 6763   1.626   2.792  13.813 -0.5838  0.2716 -0.0617
  450TMC3    C8 6764   1.876   3.147  13.620  0.0299 -0.5130 -0.2546
  450TMC3    O1 6765   1.639   2.712  13.904  0.1029 -0.0456 -0.2363
  450TMC3    O2 6766   1.773   3.206  13.580  0.6106 -0.5575  0.1981
  451MPD2     C 6767   3.890   1.518   1.288 -0.1761  0.1636  0.0640
  451MPD2    C1 6768   3.825   1.499   1.166  0.3266  0.5755 -0.6677
  451MPD2    C2 6769   3.873   1.402   1.078 -0.4231 -0.5337  0.0263
  451MPD2    C3 6770   3.994   1.335   1.111 -0.2846  0.7661  0.7806
  451MPD2    C4 6771   4.051   1.346   1.239  0.6793  0.0296  0.7005
  451MPD2    C5 6772   3.998   1.445   1.321  0.1324  0.7081  0.1807
  451MPD2     H 6773   3.830   1.388   0.980 -1.4603 -0.2752  0.4419
  451MPD2    H1 6774   4.134   1.287   1.275  0.8708  0.7880  1.4998
  451MPD2    H2 6775   3.853   1.589   1.361  1.4315  0.6992  0.3571
  451MPD2    H3 6776   4.039   1.463   1.419  0.3193 -0.8793  0.3904
  451MPD2     N 6777   4.046   1.238   1.023  0.4733 -0.1881 -0.0399
  451MPD2    H5 6778   3.990   1.201   0.946  1.2356  0.1572 -0.7532
  451MPD2    N1 6779   3.720   1.590   1.148 -0.0641 -0.4074  0.3421
  451MPD2    H7 6780   3.708   1.654   1.226 -2.4256  1.3883 -1.5323
  452TMC3    C1 6781   4.187   1.072   0.943  0.7218  0.1257  0.3284
  452TMC3    C2 6782   4.082   1.020   0.870 -0.0347  0.1713  0.6517
  452TMC3    C3 6783   4.113   0.922   0.781  0.1327  0.6255 -0.6218
  452TMC3    C4 6784   4.322   1.045   0.918  0.3778 -0.1423  1.0650
  452TMC3    C5 6785   4.337   0.955   0.816 -0.0247 -0.4678  0.2768
  452TMC3    C6 6786   4.242   0.882   0.757  0.0885  0.0615  0.0325
  452TMC3     C 6787   4.169   1.179   1.040 -0.4598  0.2433  0.5142
  452TMC3     O 6788   4.269   1.210   1.100  0.5589 -0.0622  0.4941
  452TMC3     H 6789   3.978   1.050   0.873  0.7340  2.9609 -1.0626
  452TMC3    H1 6790   4.407   1.088   0.970 -0.2264 -0.6503  2.4936
  452TMC3    H2 6791   4.268   0.815   0.676  1.5834 -0.0568  0.6061
  452TMC3    C7 6792   4.450   0.983   0.731  0.3899  1.0531 -0.0682
  452TMC3    C8 6793   4.008   0.878   0.684  0.2435  0.1601  0.0632
  452TMC3    O1 6794   4.489   1.100   0.734 -0.3898  0.1904  0.3426
  452TMC3    O2 6795   3.897   0.864   0.731 -0.1502 -0.7714  0.2717
  453TMC3    C1 6796   4.405   3.739  11.774  0.4635 -0.4549  0.4896
  453TMC3    C2 6797   4.321   3.635  11.788  1.2151  0.1818  0.4343
  453TMC3    C3 6798   4.221   3.624  11.696  0.3778  0.5454 -0.4642
  453TMC3    C4 6799   4.398   3.833  11.671  0.4139 -0.4116  0.7911
  453TMC3    C5 6800   4.296   3.811  11.589 -0.3900 -0.0293 -0.2100
  453TMC3    C6 6801   4.207   3.706  11.590  0.0693 -0.0927  0.1150
  453TMC3     C 6802   4.532   3.732  11.846  0.2509  0.3350 -0.5387
  453TMC3     O 6803   4.585   3.843  11.856  0.3600  0.3361  0.1795
  453TMC3     H 6804   4.311   3.586  11.884  0.0917 -0.4680 -0.0181
  453TMC3    H1 6805   4.458   3.922  11.678  0.0676 -0.1058 -0.0910
  453TMC3    H2 6806   4.136   3.681  11.512 -1.2630 -0.6963  1.5157
  453TMC3    C7 6807   4.328   3.856  11.456  0.3483 -0.2557 -0.4651
  453TMC3    C8 6808   4.125   3.514  11.698  0.2419 -0.2440 -0.2188
  453TMC3    O1 6809   4.307   3.774  11.365  0.4445  0.5309 -0.8218
  453TMC3    O2 6810   4.014   3.545  11.651 -0.6293  0.1096  0.1282
  454MPD2     C 6811   3.656   2.970  16.210  0.4568 -0.3755 -0.2261
  454MPD2    C1 6812   3.573   3.022  16.117 -0.1764  0.5339  0.8275
  454MPD2    C2 6813   3.526   3.148  16.136 -0.5317  0.1657 -0.0812
  454MPD2    C3 6814   3.559   3.218  16.246 -0.5736  0.2196  0.2442
  454MPD2    C4 6815   3.646   3.171  16.342 -0.4777 -0.0792  0.2759
  454MPD2    C5 6816   3.698   3.046  16.317  0.5082  0.0131 -1.2633
  454MPD2     H 6817   3.458   3.193  16.064 -0.6129  1.5576  0.8762
  454MPD2    H1 6818   3.664   3.229  16.431 -2.2691 -0.2244  0.7416
  454MPD2    H2 6819   3.691   2.867  16.206 -0.4651 -0.6165 -1.7055
  454MPD2    H3 6820   3.765   2.998  16.388 -1.6133 -0.2236  0.5531
  454MPD2     N 6821   3.492   3.335  16.281 -0.1491 -0.4043  0.0837
  454MPD2    H5 6822   3.492   3.356  16.380 -1.3123 -0.3956  0.0765
  454MPD2    N1 6823   3.516   2.947  16.010  0.0053  0.4740 -0.6505
  454MPD2    H7 6824   3.452   3.005  15.957 -3.2819 -2.9504 -0.4447
  455TMC3    C1 6825   3.306   3.470  16.280 -0.8005  0.3084  0.2962
  455TMC3    C2 6826   3.330   3.500  16.413  0.3065  0.6132  0.2751
  455TMC3    C3 6827   3.220   3.489  16.493 -0.2727 -0.1609  0.9562
  455TMC3    C4 6828   3.191   3.401  16.248 -0.0945  0.3970 -0.4089
  455TMC3    C5 6829   3.089   3.379  16.337  0.4446  0.3495  0.4717
  455TMC3    C6 6830   3.104   3.432  16.465 -0.0101  0.2776 -0.1823
  455TMC3     C 6831   3.411   3.409  16.201  0.6421 -0.1151 -1.1545
  455TMC3     O 6832   3.391   3.410  16.081  0.4411 -0.2923  0.3560
  455TMC3     H 6833   3.423   3.541  16.452  2.2966 -1.9449 -1.7806
  455TMC3    H1 6834   3.184   3.336  16.162  3.2559 -0.8921  0.2651
  455TMC3    H2 6835   3.022   3.414  16.533  0.3526  1.1368  0.4843
  455TMC3    C7 6836   3.026   3.249  16.314  0.6189 -1.0986 -0.5819
  455TMC3    C8 6837   3.230   3.538  16.627 -0.6332 -0.2834 -0.9465
  455TMC3    O1 6838   2.904   3.243  16.327  0.2690  0.0692 -0.0161
  455TMC3    O2 6839   3.310   3.487  16.706 -0.4010 -0.6366  0.6999
  456MPD2     C 6840   1.150   3.381  15.997 -0.6883  0.0220 -0.3001
  456MPD2    C1 6841   1.129   3.247  16.021  0.2719 -0.6252 -0.1135
  456MPD2    C2 6842   1.006   3.211  16.070  0.4278 -0.3946  0.2073
  456MPD2    C3 6843   0.904   3.306  16.096 -0.8392  0.1376 -0.2348
  456MPD2    C4 6844   0.928   3.438  16.070  0.9846 -0.0096  0.6944
  456MPD2    C5 6845   1.050   3.473  16.021 -0.0548  0.3619  0.1462
  456MPD2     H 6846   0.984   3.106  16.084 -0.8349  0.1735  2.3256
  456MPD2    H1 6847   0.861   3.521  16.088 -1.2828 -1.9913  1.3671
  456MPD2    H2 6848   1.246   3.413  15.960 -1.1625  0.2321 -1.3592
  456MPD2    H3 6849   1.076   3.574  15.990  2.3022  0.5044  2.6120
  456MPD2     N 6850   0.782   3.265  16.151  0.7042 -0.3906 -0.3837
  456MPD2    H5 6851   0.777   3.166  16.171 -0.2063  0.1920  2.2967
  456MPD2    N1 6852   1.229   3.148  15.983  0.0175 -0.4596 -0.1657
  456MPD2    H7 6853   1.314   3.179  15.936  1.3841 -2.3328  1.0744
  457TMC3    C1 6854   0.571   3.273  16.260 -0.3157  0.4446 -0.4606
  457TMC3    C2 6855   0.450   3.335  16.261 -1.0917 -0.3404  1.2842
  457TMC3    C3 6856   0.372   3.328  16.371  0.1840  0.0046  0.1858
  457TMC3    C4 6857   0.616   3.203  16.368  0.4245 -0.5910 -0.0496
  457TMC3    C5 6858   0.527   3.185  16.471  0.3527 -0.2763  0.3816
  457TMC3    C6 6859   0.403   3.237  16.467  0.1056  0.7821  0.0735
  457TMC3     C 6860   0.667   3.343  16.177 -0.2942  0.3128  0.7284
  457TMC3     O 6861   0.641   3.458  16.142  0.3183 -0.3060 -0.0643
  457TMC3     H 6862   0.411   3.375  16.168  0.3053 -0.9825  0.4212
  457TMC3    H1 6863   0.716   3.163  16.381  0.4598 -0.1273  1.1206
  457TMC3    H2 6864   0.322   3.194  16.526 -0.0788 -0.8641 -1.3557
  457TMC3    C7 6865   0.576   3.164  16.598 -0.0391  0.0314 -0.8126
  457TMC3    C8 6866   0.363   3.456  16.430 -0.5150 -0.4601 -0.3232
  457TMC3    O1 6867   0.675   3.094  16.619  0.6468  0.3199 -0.4809
  457TMC3    O2 6868   0.347   3.454  16.550  0.1916 -0.0772 -0.4014
  458MPD2     C 6869   2.865   2.844  12.841 -0.4312 -0.1922 -0.1619
  458MPD2    C1 6870   2.961   2.766  12.904  0.1532  0.0462 -0.2959
  458MPD2    C2 6871   2.915   2.677  13.002  0.0796  0.4261 -0.7520
  458MPD2    C3 6872   2.783   2.669  13.033 -0.0310 -0.0129 -0.2562
  458MPD2    C4 6873   2.693   2.753  12.960 -0.1209  0.2199  1.1443
  458MPD2    C5 6874   2.730   2.836  12.856  0.3293 -0.0475 -0.0961
  458MPD2     H 6875   2.982   2.613  13.059 -0.3144  0.8406  0.1776
  458MPD2    H1 6876   2.586   2.758  12.980 -0.3663 -2.1004  0.4543
  458MPD2    H2 6877   2.904   2.910  12.764 -1.1795 -1.5105 -1.6826
  458MPD2    H3 6878   2.659   2.902  12.806  1.2184  1.3373  0.4545
  458MPD2     N 6879   2.754   2.569  13.131  0.6322  0.1040  0.3662
  458MPD2    H5 6880   2.840   2.529  13.165 -1.5727 -2.7366  2.5802
  458MPD2    N1 6881   3.099   2.797  12.876 -0.3932 -0.0836  0.5628
  458MPD2    H7 6882   3.117   2.869  12.807  0.8559 -1.4050 -0.5103
  459TMC3    C1 6883   3.327   2.818  12.938 -0.4099  0.0284  0.5747
  459TMC3    C2 6884   3.374   2.833  12.810  0.2529 -0.4657  0.3694
  459TMC3    C3 6885   3.510   2.828  12.798 -0.5819 -0.3047 -0.6160
  459TMC3    C4 6886   3.407   2.805  13.047  0.3238 -0.2275 -0.2404
  459TMC3    C5 6887   3.536   2.788  13.022  0.2309 -0.7463 -0.3533
  459TMC3    C6 6888   3.592   2.798  12.899 -1.0737  0.0642 -0.1883
  459TMC3     C 6889   3.197   2.756  12.961 -0.4544  0.0919 -0.5456
  459TMC3     O 6890   3.191   2.696  13.067 -0.1808 -0.2142  0.3118
  459TMC3     H 6891   3.306   2.833  12.726 -0.6498  1.8910  1.1328
  459TMC3    H1 6892   3.366   2.822  13.146 -0.3296  2.5203 -0.9769
  459TMC3    H2 6893   3.699   2.806  12.892 -0.8886 -1.1190  1.1848
  459TMC3    C7 6894   3.600   2.695  13.112  0.4028  0.0552  0.8751
  459TMC3    C8 6895   3.572   2.841  12.663  0.1928  0.2181 -0.2342
  459TMC3    O1 6896   3.694   2.634  13.066 -0.6196 -0.1592  0.1214
  459TMC3    O2 6897   3.676   2.784  12.639 -0.6014  0.1915 -0.1406
  460MPD2     C 6898   3.098   0.119  10.834 -0.7595  0.0112  0.5701
  460MPD2    C1 6899   2.976   0.181  10.848  0.3039  0.0564 -0.7987
  460MPD2    C2 6900   2.903   0.202  10.732 -0.8631 -0.9384 -0.2013
  460MPD2    C3 6901   2.936   0.146  10.616 -0.0008  0.1703 -0.5244
  460MPD2    C4 6902   3.066   0.086  10.598 -0.2264 -0.2730 -0.0014
  460MPD2    C5 6903   3.143   0.086  10.711  0.3905  0.1413 -0.0054
  460MPD2     H 6904   2.798   0.230  10.740 -0.5424  0.1426  0.1611
  460MPD2    H1 6905   3.114   0.067  10.503 -1.8613 -1.2835 -0.6207
  460MPD2    H2 6906   3.156   0.102  10.924 -0.0703  1.2068  0.3492
  460MPD2    H3 6907   3.238   0.035  10.707 -1.1907 -2.7274 -0.9542
  460MPD2     N 6908   2.847   0.167  10.506 -0.3104 -0.0635 -0.2911
  460MPD2    H5 6909   2.763   0.220  10.527  0.0398  0.9313 -1.4244
  460MPD2    N1 6910   2.930   0.210  10.981  0.2409  0.4414 -0.0347
  460MPD2    H7 6911   2.977   0.167  11.060 -0.2441 -0.7627 -0.4033
  461TMC3    C1 6912   2.741   0.157  10.305 -0.0620  0.0325  0.2420
  461TMC3    C2 6913   2.709   0.077  10.196  0.6271 -0.2033  0.1176
  461TMC3    C3 6914   2.618   0.127  10.103  0.3293 -0.7060 -0.1203
  461TMC3    C4 6915   2.676   0.278  10.323  0.6618 -0.2319  0.1285
  461TMC3    C5 6916   2.599   0.330  10.223  0.3436  0.6528 -0.8487
  461TMC3    C6 6917   2.564   0.252  10.119 -0.0024  0.6220 -0.3594
  461TMC3     C 6918   2.846   0.113  10.382 -0.1326  0.1298  0.1709
  461TMC3     O 6919   2.930   0.027  10.350 -0.8242 -0.3355  0.5861
  461TMC3     H 6920   2.755   4.712  10.194 -1.1858 -1.0555  0.4351
  461TMC3    H1 6921   2.703   0.342  10.406 -0.5649  0.1303  0.2518
  461TMC3    H2 6922   2.485   0.278  10.050 -1.1867 -0.8663  0.4405
  461TMC3    C7 6923   2.531   0.460  10.219  0.2643 -0.4877  0.6840
  461TMC3    C8 6924   2.565   0.045  10.000  0.8328  1.0082 -0.4614
  461TMC3    O1 6925   2.447   0.486  10.134  0.0422  0.4667 -0.0682
  461TMC3    O2 6926   2.508   0.094   9.902 -0.0220  0.1870 -0.2744
  462TMC3    C1 6927   2.840   1.776   0.514  0.3454  0.5882  0.1707
  462TMC3    C2 6928   2.882   1.780   0.385  0.6845  0.2876 -0.2740
  462TMC3    C3 6929   2.914   1.674   0.308  0.2356  0.9205  0.0932
  462TMC3    C4 6930   2.805   1.650   0.561  0.2370 -0.2874  0.3209
  462TMC3    C5 6931   2.834   1.540   0.479  0.2313 -0.8444 -0.2011
  462TMC3    C6 6932   2.889   1.545   0.354 -0.2806  0.7032 -0.3478
  462TMC3     C 6933   2.780   1.886   0.587  0.5518  0.1204 -0.5958
  462TMC3     O 6934   2.763   1.870   0.710  0.3794  0.4938  0.3480
  462TMC3     H 6935   2.904   1.879   0.347  0.6429  0.3088 -0.2438
  462TMC3    H1 6936   2.771   1.636   0.663  0.6768 -0.6395  0.4198
  462TMC3    H2 6937   2.892   1.457   0.290  1.4924  1.0337 -0.7007
  462TMC3    C7 6938   2.794   1.405   0.520 -0.2298 -0.3116 -0.4676
  462TMC3    C8 6939   2.965   1.695   0.174 -0.4830  0.2772 -0.2597
  462TMC3    O1 6940   2.858   1.317   0.464  0.1405 -0.1495  0.0139
  462TMC3    O2 6941   2.946   1.807   0.126  0.1272 -1.1518  0.2602
  463MPD2     C 6942   0.035   4.299   1.485  0.8076  0.2013  0.7013
  463MPD2    C1 6943   4.729   4.400   1.574 -0.5409  0.0704 -0.4315
  463MPD2    C2 6944   0.094   4.487   1.625 -1.2265  0.3653 -0.5234
  463MPD2    C3 6945   0.225   4.488   1.560 -0.3347 -0.2007  0.9955
  463MPD2    C4 6946   0.259   4.383   1.475 -0.6387  0.2793 -0.1707
  463MPD2    C5 6947   0.163   4.286   1.445 -0.0186  0.6891 -0.4777
  463MPD2     H 6948   0.061   4.560   1.698  1.4841 -0.3162  1.3707
  463MPD2    H1 6949   0.360   4.370   1.438 -0.3682  5.6691 -1.3581
  463MPD2    H2 6950   4.702   4.228   1.435  0.0442  0.7715  0.8843
  463MPD2    H3 6951   0.184   4.194   1.393  1.9373  0.8359  0.0797
  463MPD2     N 6952   0.319   4.591   1.572  0.5199  0.5000  0.4258
  463MPD2    H5 6953   0.413   4.585   1.533 -0.1845 -0.0770 -1.1448
  463MPD2    N1 6954   4.598   4.405   1.626 -0.0977  0.3852  0.8423
  463MPD2    H7 6955   4.571   4.482   1.686  0.1200  0.4888  0.8071
  464TMC3    C1 6956   4.371   4.352   1.614  0.3672 -0.2344 -0.8423
  464TMC3    C2 6957   4.337   4.482   1.632 -1.2059  0.0840  0.2814
  464TMC3    C3 6958   4.202   4.519   1.628 -0.0820  0.4246 -0.1535
  464TMC3    C4 6959   4.274   4.252   1.631  0.4878 -0.5432  0.1222
  464TMC3    C5 6960   4.144   4.297   1.648 -0.5707  0.0343  0.1672
  464TMC3    C6 6961   4.102   4.431   1.642 -0.0945  0.0247  0.2836
  464TMC3     C 6962   4.504   4.312   1.591 -0.0889 -0.1761  0.1286
  464TMC3     O 6963   4.515   4.199   1.552  0.0636  0.2277  0.1632
  464TMC3     H 6964   4.415   4.555   1.615 -0.4156 -1.3934 -2.5253
  464TMC3    H1 6965   4.308   4.149   1.636  0.0992 -0.7872 -1.9738
  464TMC3    H2 6966   4.001   4.468   1.651 -0.5310 -1.2618  0.6536
  464TMC3    C7 6967   4.045   4.191   1.668  1.4947 -0.3841 -0.6183
  464TMC3    C8 6968   4.171   4.654   1.613  0.4383  0.1026  0.0874
  464TMC3    O1 6969   4.097   4.083   1.694 -0.0396 -0.3320 -0.0645
  464TMC3    O2 6970   4.064   4.671   1.555  0.0115  0.0627 -0.1900
  465MPD2     C 6971   0.212   3.074  17.095  0.7181  0.2488 -0.5849
  465MPD2    C1 6972   0.087   3.112  17.131 -0.1965  0.5655  0.1663
  465MPD2    C2 6973   4.729   3.142  17.030 -0.2044  0.2468 -0.0386
  465MPD2    C3 6974   0.032   3.136  16.896  0.8841 -0.2511  0.5024
  465MPD2    C4 6975   0.157   3.095  16.862  0.1741  0.5729 -0.1677
  465MPD2    C5 6976   0.244   3.067  16.962  0.1872 -0.3365 -0.2868
  465MPD2     H 6977   4.634   3.184  17.059 -0.2552  0.0968  0.0096
  465MPD2    H1 6978   0.172   3.078  16.755 -0.1279 -0.5626 -0.0336
  465MPD2    H2 6979   0.279   3.042  17.174 -0.6516 -0.6483  0.1991
  465MPD2    H3 6980   0.349   3.044  16.949  0.0603 -0.5552 -0.9220
  465MPD2     N 6981   4.670   3.195  16.802  0.1671  0.2538  0.5049
  465MPD2    H5 6982   4.588   3.231  16.850  0.6706  0.7611  0.9851
  465MPD2    N1 6983   0.046   3.120  17.273 -0.2149 -0.5475 -0.6931
  465MPD2    H7 6984   0.117   3.105  17.343  1.1338  1.9546 -1.5163
  466TMC3    C1 6985   4.350   3.374  16.627 -0.0708 -0.6710  0.7187
  466TMC3    C2 6986   4.385   3.487  16.562 -0.2572  0.0859  0.0700
  466TMC3    C3 6987   4.523   3.505  16.532 -0.4727 -0.5634 -0.7728
  466TMC3    C4 6988   4.442   3.270  16.648 -0.1573  0.2719 -0.0845
  466TMC3    C5 6989   4.575   3.291  16.614  0.2585  0.3898  0.5515
  466TMC3    C6 6990   4.615   3.407  16.552  0.0380 -0.2327 -0.5243
  466TMC3     C 6991   4.244   3.376  16.729 -0.8421 -0.3664 -0.3672
  466TMC3     O 6992   4.252   3.286  16.814  0.5382  0.8407  0.7652
  466TMC3     H 6993   4.333   3.582  16.559 -1.1310 -0.3689  0.9152
  466TMC3    H1 6994   4.416   3.177  16.696  1.0775 -0.1948 -0.3392
  466TMC3    H2 6995   4.719   3.427  16.527  0.0790 -2.0986 -1.8629
  466TMC3    C7 6996   4.681   3.212  16.668 -0.7330  0.4706  0.4001
  466TMC3    C8 6997   4.551   3.633  16.470 -0.3548 -0.6544  0.2364
  466TMC3    O1 6998   0.051   3.197  16.599 -0.0688  0.4215 -0.2606
  466TMC3    O2 6999   4.613   3.629  16.368 -0.2180 -0.6722 -0.1948
  467TMC3    C1 7000   0.763   1.967  14.284 -0.7005  0.0415  0.3664
  467TMC3    C2 7001   0.733   1.956  14.145 -0.3654  0.1296 -0.1405
  467TMC3    C3 7002   0.667   1.842  14.111  0.0743  0.3148  0.2807
  467TMC3    C4 7003   0.707   1.880  14.375  0.1142  0.2448 -0.6541
  467TMC3    C5 7004   0.626   1.780  14.325  0.6342 -0.4846  0.2769
  467TMC3    C6 7005   0.605   1.755  14.192  0.7846  0.7815  0.4287
  467TMC3     C 7006   0.869   2.060  14.324 -0.4827 -1.0022  0.0859
  467TMC3     O 7007   0.933   2.035  14.419 -0.0495 -0.7111  0.2082
  467TMC3     H 7008   0.789   2.002  14.064  1.1880  1.0041  1.4494
  467TMC3    H1 7009   0.719   1.893  14.482  1.9862 -0.3604 -0.7818
  467TMC3    H2 7010   0.548   1.672  14.153  0.3813  1.8270 -1.2021
  467TMC3    C7 7011   0.553   1.693  14.415 -0.0470 -0.1320 -0.1382
  467TMC3    C8 7012   0.683   1.802  13.971  0.2299  0.6464 -0.6019
  467TMC3    O1 7013   0.612   1.647  14.514 -0.3587 -0.2435  0.3723
  467TMC3    O2 7014   0.694   1.896  13.886  0.6514  0.5284 -0.2113
  468MPD2     C 7015   0.015   0.224  10.693  0.0651 -0.1797  0.3679
  468MPD2    C1 7016   0.025   0.160  10.811 -0.2545  0.6603  0.9750
  468MPD2    C2 7017   4.687   0.041  10.825  0.1946 -0.3514  0.2661
  468MPD2    C3 7018   4.617   4.722  10.715  0.5829 -0.8186 -0.3426
  468MPD2    C4 7019   4.624   0.048  10.586 -0.6712  0.4661 -0.1390
  468MPD2    C5 7020   4.685   0.172  10.583  0.2588 -0.1674  0.2446
  468MPD2     H 7021   4.682   4.732  10.925  0.0686  2.9928  1.6518
  468MPD2    H1 7022   4.568   0.004  10.505 -1.2955 -0.2266  0.6770
  468MPD2    H2 7023   0.058   0.323  10.693 -2.1199  0.7800  1.3852
  468MPD2    H3 7024   4.674   0.236  10.496  3.1800  0.6829  0.4894
  468MPD2     N 7025   4.564   4.593  10.721 -0.6218 -0.1737 -0.1506
  468MPD2    H5 7026   4.521   4.562  10.635 -1.6662  0.5983  0.0907
  468MPD2    N1 7027   0.109   0.200  10.916  1.0530  1.0238  0.1068
  468MPD2    H7 7028   0.091   0.164  11.009 -0.0989  0.5926 -0.2944
  469TMC3    C1 7029   0.271   0.326  11.035 -0.2267 -0.9453  0.1859
  469TMC3    C2 7030   0.409   0.342  11.040 -0.6138  0.6046 -0.2841
  469TMC3    C3 7031   0.468   0.341  11.166 -1.3027 -0.0427 -0.2522
  469TMC3    C4 7032   0.196   0.332  11.147  0.2787 -0.1006  0.6231
  469TMC3    C5 7033   0.253   0.368  11.269 -0.4815 -0.4632 -0.7787
  469TMC3    C6 7034   0.390   0.365  11.287 -0.3743  0.2176 -0.4439
  469TMC3     C 7035   0.215   0.288  10.901  0.1632  0.0096 -0.4471
  469TMC3     O 7036   0.263   0.331  10.797  0.0590  0.1674  0.0354
  469TMC3     H 7037   0.462   0.302  10.954  0.5370 -2.5136  1.8788
  469TMC3    H1 7038   0.088   0.329  11.134  0.0648 -0.6800  2.6211
  469TMC3    H2 7039   0.438   0.376  11.383 -1.9685  0.1504  0.3475
  469TMC3    C7 7040   0.166   0.340  11.381 -0.6272 -0.1866 -0.1536
  469TMC3    C8 7041   0.599   0.308  11.181 -0.6744 -0.0524 -0.1130
  469TMC3    O1 7042   0.048   0.324  11.356 -0.1926 -0.3502  0.2988
  469TMC3    O2 7043   0.675   0.374  11.114  0.1024  0.0977 -0.2369
  470TMC3    C1 7044   2.461   1.417   2.163  0.0269  0.2932 -0.0152
  470TMC3    C2 7045   2.479   1.458   2.035 -0.6518 -0.1521 -0.1700
  470TMC3    C3 7046   2.376   1.523   1.974 -0.1068  0.1931 -0.5542
  470TMC3    C4 7047   2.345   1.447   2.230  0.1675  0.4848 -0.9807
  470TMC3    C5 7048   2.259   1.530   2.168  0.0325  0.4255  0.0789
  470TMC3    C6 7049   2.263   1.559   2.029  0.2130  0.6786 -0.7287
  470TMC3     C 7050   2.535   1.297   2.199  0.0311  0.0446  0.5869
  470TMC3     O 7051   2.471   1.219   2.274 -0.3076 -0.0485 -0.1613
  470TMC3     H 7052   2.572   1.429   1.988  0.2399  2.0197  0.2834
  470TMC3    H1 7053   2.324   1.398   2.324 -0.2624 -1.5171 -2.1406
  470TMC3    H2 7054   2.186   1.620   1.982 -0.3991  0.0405 -0.5549
  470TMC3    C7 7055   2.119   1.537   2.231 -0.3074  0.2084  0.4046
  470TMC3    C8 7056   2.403   1.591   1.855  0.1435 -0.2394  0.6842
  470TMC3    O1 7057   2.094   1.441   2.303 -0.5218  0.0236 -0.3878
  470TMC3    O2 7058   2.366   1.710   1.856 -0.1255  0.1386 -0.7174
  471MPD2     C 7059   2.656   2.573  16.793 -0.3182 -0.3704 -0.2693
  471MPD2    C1 7060   2.658   2.439  16.779  0.5377  0.1940  0.1102
  471MPD2    C2 7061   2.756   2.368  16.847  0.0126  0.2962 -0.3731
  471MPD2    C3 7062   2.837   2.429  16.944 -0.2558 -0.1757 -0.2406
  471MPD2    C4 7063   2.815   2.562  16.969  0.2496 -0.3442  0.2292
  471MPD2    C5 7064   2.737   2.628  16.883  0.0754  0.1355 -0.3671
  471MPD2     H 7065   2.760   2.260  16.836  1.0370  0.2591  0.3103
  471MPD2    H1 7066   2.866   2.608  17.052 -0.3456  1.7547 -0.5828
  471MPD2    H2 7067   2.598   2.636  16.726 -0.9648 -1.2927 -0.5805
  471MPD2    H3 7068   2.733   2.735  16.897 -1.7332 -0.0506  0.4665
  471MPD2     N 7069   2.934   2.356  17.016 -0.4547  0.1421  0.0239
  471MPD2    H5 7070   2.973   2.400  17.099  0.4127 -0.0878 -0.2571
  471MPD2    N1 7071   2.578   2.373  16.686 -0.6060 -0.6023 -0.7445
  471MPD2    H7 7072   2.581   2.271  16.693 -0.5131 -0.6243 -1.0994
  472TMC3    C1 7073   2.432   2.324  16.503  0.0685 -0.0950 -0.1601
  472TMC3    C2 7074   2.308   2.351  16.447 -0.1380  0.4451  0.4402
  472TMC3    C3 7075   2.244   2.254  16.376  0.2687  0.2536  0.3206
  472TMC3    C4 7076   2.494   2.197  16.482  0.5044 -0.7320  0.7800
  472TMC3    C5 7077   2.425   2.101  16.409 -0.0118 -0.1612 -0.1234
  472TMC3    C6 7078   2.303   2.130  16.359 -0.4562 -0.0182  0.6664
  472TMC3     C 7079   2.484   2.422  16.596 -0.2467 -0.0533 -0.1016
  472TMC3     O 7080   2.442   2.536  16.592  0.4445 -0.2493 -0.0780
  472TMC3     H 7081   2.257   2.441  16.482  0.3671  1.1193 -0.5500
  472TMC3    H1 7082   2.588   2.163  16.525  0.2709  1.8655  3.2951
  472TMC3    H2 7083   2.244   2.052  16.313  0.1490 -0.1205  0.0536
  472TMC3    C7 7084   2.458   1.959  16.438  0.2229 -0.5430  0.5308
  472TMC3    C8 7085   2.100   2.256  16.367  0.0061  0.0731 -0.4590
  472TMC3    O1 7086   2.510   1.933  16.545 -0.3479  0.2640  0.1678
  472TMC3    O2 7087   2.054   2.363  16.334 -0.1082  0.2884  0.2764
  473MPD2     C 7088   2.977   4.455  13.718  1.0114  0.3218 -0.2128
  473MPD2    C1 7089   2.870   4.537  13.733  0.2438  0.7285  0.6856
  473MPD2    C2 7090   2.859   4.618  13.843 -0.0360 -0.4012 -0.0086
  473MPD2    C3 7091   2.962   4.625  13.934 -0.6453 -0.1509 -0.1984
  473MPD2    C4 7092   3.075   4.548  13.911  0.3676  0.0494  0.2210
  473MPD2    C5 7093   3.083   4.464  13.808 -0.1634  0.4410 -0.0623
  473MPD2     H 7094   2.767   4.675  13.843 -0.3893 -0.9726  0.1612
  473MPD2    H1 7095   3.155   4.540  13.984  1.5494 -0.7057 -1.1419
  473MPD2    H2 7096   2.986   4.390  13.632 -1.4873  1.7483 -1.5751
  473MPD2    H3 7097   3.170   4.402  13.792 -0.0950  0.8939 -1.4464
  473MPD2     N 7098   2.954   4.699  14.057  0.2716  0.2203 -0.7058
  473MPD2    H5 7099   3.029   4.687  14.124  0.8899 -0.1649 -1.4637
  473MPD2    N1 7100   2.765   4.550  13.638 -0.1310  0.4464 -0.3448
  473MPD2    H7 7101   2.691   4.608  13.675  0.5722  1.0148  0.1660
  474TMC3    C1 7102   2.869   0.070  14.251 -0.4803  0.4089 -0.1067
  474TMC3    C2 7103   2.762   0.133  14.310 -0.1099  0.1307 -0.2395
  474TMC3    C3 7104   2.781   0.223  14.405 -0.1598  0.8301  0.0480
  474TMC3    C4 7105   2.998   0.094  14.289 -0.2202 -0.2617  0.2035
  474TMC3    C5 7106   3.009   0.193  14.381 -0.2657 -0.4912  1.1373
  474TMC3    C6 7107   2.909   0.267  14.438 -0.3611  0.1556  0.2532
  474TMC3     C 7108   2.843   0.024  14.113 -0.5371  0.4184  0.3552
  474TMC3     O 7109   2.737   0.038  14.057 -0.2522 -0.3198  0.1168
  474TMC3     H 7110   2.661   0.115  14.274  0.2858 -1.3220 -0.6511
  474TMC3    H1 7111   3.084   0.043  14.248 -1.6222 -0.7201 -2.1307
  474TMC3    H2 7112   2.916   0.346  14.511  2.4121  1.2947 -1.2735
  474TMC3    C7 7113   3.145   0.188  14.443 -0.7417  0.0110 -0.1021
  474TMC3    C8 7114   2.672   0.313  14.415 -0.1274  0.0003 -0.2615
  474TMC3    O1 7115   3.241   0.167  14.366 -0.1345  0.5313  0.3926
  474TMC3    O2 7116   2.563   0.263  14.434 -0.2635  0.3692 -0.5602
  475MPD2     C 7117   0.203   2.679  11.433 -0.2961 -0.0335  0.0197
  475MPD2    C1 7118   0.209   2.808  11.398  0.0423 -0.1037  0.1654
  475MPD2    C2 7119   0.098   2.864  11.334  0.0608  0.1576 -0.2988
  475MPD2    C3 7120   4.713   2.788  11.321  0.5059  0.0614 -0.2412
  475MPD2    C4 7121   4.705   2.660  11.369  0.3962 -0.2680 -0.6628
  475MPD2    C5 7122   0.086   2.609  11.423  0.4599  0.7442 -0.2269
  475MPD2     H 7123   0.102   2.959  11.282  1.4640  0.1728 -0.1692
  475MPD2    H1 7124   4.626   2.586  11.358 -0.6538  0.6150  0.8725
  475MPD2    H2 7125   0.282   2.630  11.489  0.6249  1.4804  0.0106
  475MPD2    H3 7126   0.090   2.503  11.443 -2.0277  0.8741  0.9689
  475MPD2     N 7127   4.611   2.841  11.242 -0.1252  0.3784  0.1267
  475MPD2    H5 7128   4.644   2.927  11.199  1.5591  0.6623  1.9781
  475MPD2    N1 7129   0.334   2.872  11.413 -0.2838  0.1276  0.1562
  475MPD2    H7 7130   0.412   2.809  11.430  0.3662  0.1795 -2.7136
  476TMC3    C1 7131   0.484   3.060  11.367  0.6134 -0.1282 -0.1964
  476TMC3    C2 7132   0.577   2.963  11.330  0.4730  0.0253  0.2148
  476TMC3    C3 7133   0.708   2.992  11.332  0.4650  0.1269  0.1936
  476TMC3    C4 7134   0.526   3.191  11.384 -0.1933  0.6185  0.5763
  476TMC3    C5 7135   0.665   3.220  11.378 -0.2541  0.0050  0.4000
  476TMC3    C6 7136   0.755   3.117  11.361 -1.0786  0.3682  0.3442
  476TMC3     C 7137   0.349   3.013  11.397 -0.6753 -0.6281 -0.2619
  476TMC3     O 7138   0.261   3.100  11.385  0.4482 -0.0977 -0.6260
  476TMC3     H 7139   0.540   2.863  11.310 -0.9006  1.2828 -3.6472
  476TMC3    H1 7140   0.462   3.260  11.439 -0.4980  0.6895  0.1268
  476TMC3    H2 7141   0.860   3.142  11.350 -0.5966 -0.3561  3.1719
  476TMC3    C7 7142   0.710   3.321  11.470 -0.0987 -0.0446 -1.0477
  476TMC3    C8 7143   0.784   2.922  11.232  0.4529  0.0904  0.2170
  476TMC3    O1 7144   0.764   3.289  11.573 -0.0816  0.6225  0.8417
  476TMC3    O2 7145   0.884   2.980  11.191  0.8572 -0.2651 -0.3195
  477MPD2     C 7146   2.719   4.181  11.836  0.4712 -0.5372 -0.6402
  477MPD2    C1 7147   2.761   4.066  11.777  0.1161  0.2151 -0.4911
  477MPD2    C2 7148   2.849   3.984  11.847 -0.6797 -0.1729 -0.0043
  477MPD2    C3 7149   2.888   4.015  11.979  0.2888  0.4009 -0.1898
  477MPD2    C4 7150   2.851   4.137  12.028  0.3225 -0.4383 -0.3007
  477MPD2    C5 7151   2.766   4.224  11.956 -0.0331  0.4391 -0.0921
  477MPD2     H 7152   2.884   3.890  11.804 -0.5106 -0.3393  0.5032
  477MPD2    H1 7153   2.875   4.181  12.124 -1.9599 -1.8566  0.9172
  477MPD2    H2 7154   2.652   4.245  11.779 -1.6672 -2.1368  0.0590
  477MPD2    H3 7155   2.744   4.323  11.994 -1.2461  0.5854 -1.1765
  477MPD2     N 7156   2.970   3.922  12.049 -0.1368 -0.3385 -0.4462
  477MPD2    H5 7157   2.991   3.833  12.004  0.9297  1.9021 -4.3985
  477MPD2    N1 7158   2.702   4.030  11.653 -0.0566 -0.5428  0.3427
  477MPD2    H7 7159   2.628   4.088  11.615  0.5014 -1.5175 -2.2466
  478TMC3    C1 7160   2.676   3.923  11.447 -0.0471 -0.0461  0.3403
  478TMC3    C2 7161   2.541   3.951  11.461  0.5361  0.1676 -0.3920
  478TMC3    C3 7162   2.465   3.937  11.351  0.2836  0.2873  0.2493
  478TMC3    C4 7163   2.733   3.893  11.334  0.8322 -0.2594 -0.1640
  478TMC3    C5 7164   2.651   3.895  11.224 -0.3765  0.7543 -0.2956
  478TMC3    C6 7165   2.516   3.901  11.228 -1.1538 -0.5772 -0.1833
  478TMC3     C 7166   2.760   3.945  11.565 -0.1100 -0.9382  0.0192
  478TMC3     O 7167   2.873   3.897  11.564 -0.4118 -0.2645 -0.2003
  478TMC3     H 7168   2.502   3.985  11.556  0.8055  1.5222 -0.7743
  478TMC3    H1 7169   2.839   3.874  11.321  1.5098  3.0341  0.5017
  478TMC3    H2 7170   2.451   3.894  11.141  1.0198  1.2995 -1.9601
  478TMC3    C7 7171   2.717   3.919  11.094 -0.3522  0.2765 -0.1100
  478TMC3    C8 7172   2.327   3.979  11.345  0.0741  0.4176  0.4329
  478TMC3    O1 7173   2.838   3.931  11.085 -0.2509 -0.4088 -0.0701
  478TMC3    O2 7174   2.259   3.949  11.248 -0.5252 -0.0831 -0.1480
  479MPD2     C 7175   2.190   1.566  15.097 -0.1157  0.1140 -0.0380
  479MPD2    C1 7176   2.182   1.564  15.231  0.8865 -0.6205 -1.2612
  479MPD2    C2 7177   2.294   1.595  15.310  0.1573  0.1649 -0.6457
  479MPD2    C3 7178   2.404   1.655  15.253 -0.5777 -0.3696 -0.3285
  479MPD2    C4 7179   2.404   1.660  15.114  0.1066 -0.6626  0.3191
  479MPD2    C5 7180   2.299   1.613  15.037 -0.3875 -1.4176  0.6192
  479MPD2     H 7181   2.292   1.584  15.417  2.6958 -0.7505 -0.7020
  479MPD2    H1 7182   2.486   1.711  15.066  0.6045  1.2019  3.1329
  479MPD2    H2 7183   2.110   1.532  15.033  1.0936 -2.2875 -0.2725
  479MPD2    H3 7184   2.294   1.618  14.929  0.8997  1.2642  0.6696
  479MPD2     N 7185   2.507   1.708  15.334  0.0213  0.1713  0.3596
  479MPD2    H5 7186   2.572   1.775  15.293  1.0599 -1.5327 -0.7720
  479MPD2    N1 7187   2.061   1.521  15.284  0.1705  0.7178  0.1970
  479MPD2    H7 7188   1.977   1.519  15.228 -0.8602  1.6256  1.7171
  480TMC3    C1 7189   2.481   1.796  15.757  0.5084 -0.1064 -0.5872
  480TMC3    C2 7190   2.411   1.906  15.726  0.1015 -0.3578 -0.0774
  480TMC3    C3 7191   2.413   1.953  15.598  0.4424 -0.9132  0.3720
  480TMC3    C4 7192   2.569   1.742  15.667  0.2020 -0.0299 -0.9381
  480TMC3    C5 7193   2.572   1.788  15.542 -0.4975  0.3546  0.4146
  480TMC3    C6 7194   2.502   1.898  15.504 -0.2368 -0.2517 -0.3640
  480TMC3     C 7195   2.399   1.693  15.813 -0.0379 -0.3065  0.5869
  480TMC3     O 7196   2.455   1.604  15.878 -0.0497 -0.5187  0.6001
  480TMC3     H 7197   2.345   1.962  15.792  2.3216  1.6174  0.4896
  480TMC3    H1 7198   2.613   1.647  15.695 -1.1322 -1.1521 -2.6073
  480TMC3    H2 7199   2.516   1.937  15.404 -1.0227  0.8906 -0.0207
  480TMC3    C7 7200   2.538   1.671  15.462  0.6349  0.3204  0.5880
  480TMC3    C8 7201   2.282   1.991  15.555  0.4533 -0.8157  0.5250
  480TMC3    O1 7202   2.523   1.562  15.516  0.0746  0.8298  0.1396
  480TMC3    O2 7203   2.186   1.977  15.632  0.2442  0.0182 -0.2078
  481MPD2     C 7204   3.873   1.207  14.122 -0.2375  0.4608 -0.3177
  481MPD2    C1 7205   3.784   1.120  14.180 -0.0849  0.0190  0.1652
  481MPD2    C2 7206   3.792   1.094  14.316 -0.5292  0.2204  0.7267
  481MPD2    C3 7207   3.885   1.163  14.397 -0.2156  0.1802  0.1158
  481MPD2    C4 7208   3.981   1.233  14.330 -0.0289  0.1694  0.4573
  481MPD2    C5 7209   3.973   1.261  14.195  0.5131 -0.4458 -0.0058
  481MPD2     H 7210   3.717   1.028  14.359  0.3288  1.4367  4.0808
  481MPD2    H1 7211   4.058   1.291  14.378  0.5001 -0.1924  0.0528
  481MPD2    H2 7212   3.876   1.237  14.017 -2.5237  1.0333 -0.2085
  481MPD2    H3 7213   4.047   1.328  14.152  0.6660 -0.3533  0.4057
  481MPD2     N 7214   3.883   1.154  14.541 -1.1579  0.4449 -0.3436
  481MPD2    H5 7215   3.945   1.219  14.588 -1.0089  1.2016 -1.5876
  481MPD2    N1 7216   3.685   1.069  14.093  0.1111 -0.1393  0.1646
  481MPD2    H7 7217   3.680   1.105  13.998  0.3524 -0.1062  0.1658
  482TMC3    C1 7218   3.496   0.925  14.036  0.2405  0.2500 -0.2276
  482TMC3    C2 7219   3.442   0.801  14.030  0.1449  0.0007 -0.4017
  482TMC3    C3 7220   3.318   0.782  13.993 -0.5047 -0.5263 -0.3087
  482TMC3    C4 7221   3.422   1.034  14.002  0.3174  0.3421 -0.0096
  482TMC3    C5 7222   3.288   1.013  13.982 -0.5730 -0.4299  0.2228
  482TMC3    C6 7223   3.227   0.888  13.979  0.1621  0.0640  0.9993
  482TMC3     C 7224   3.611   0.954  14.124  0.6746 -0.1019 -0.6615
  482TMC3     O 7225   3.623   0.870  14.216  0.3535  0.4693  0.4643
  482TMC3     H 7226   3.507   0.714  14.040  0.5220  0.1041 -1.9233
  482TMC3    H1 7227   3.455   1.137  14.017  4.4768 -1.0553  0.4769
  482TMC3    H2 7228   3.119   0.879  13.974  0.4992 -4.0041  0.9684
  482TMC3    C7 7229   3.200   1.133  13.982 -0.1801  0.4018 -0.5096
  482TMC3    C8 7230   3.286   0.659  13.926  0.0607 -0.3840  0.7936
  482TMC3    O1 7231   3.081   1.111  13.989 -0.2105 -0.6249  0.3201
  482TMC3    O2 7232   3.373   0.569  13.928 -0.1672  0.6232  0.1774
  483TMC3    C1 7233   3.019   0.839   1.652  0.6654 -0.2763  0.1190
  483TMC3    C2 7234   3.065   0.916   1.546 -0.4275 -0.1162  0.2636
  483TMC3    C3 7235   3.188   0.895   1.490  0.1276  0.6620 -0.0344
  483TMC3    C4 7236   3.100   0.751   1.708  0.3514  0.5135  0.3731
  483TMC3    C5 7237   3.235   0.744   1.665 -0.3761  0.2520  0.0003
  483TMC3    C6 7238   3.275   0.805   1.547 -0.2620  0.8436 -0.1637
  483TMC3     C 7239   2.875   0.808   1.645  0.3782  0.0804  0.2565
  483TMC3     O 7240   2.803   0.899   1.618 -0.1326  0.3089 -0.7239
  483TMC3     H 7241   2.994   0.976   1.490  0.5531  0.3851 -0.4422
  483TMC3    H1 7242   3.055   0.709   1.796  0.4861  0.3143  0.3483
  483TMC3    H2 7243   3.375   0.789   1.509 -0.7793  1.8277 -1.9276
  483TMC3    C7 7244   3.323   0.634   1.710 -0.3257  1.3809  1.1706
  483TMC3    C8 7245   3.184   0.897   1.337 -0.4721 -0.6808 -0.0461
  483TMC3    O1 7246   3.408   0.587   1.637  0.1846 -0.3540 -0.1286
  483TMC3    O2 7247   3.072   0.925   1.290 -0.1532  0.7204  0.1087
  484MPD2     C 7248   3.436   3.083  12.406  0.4994 -0.0139  0.3276
  484MPD2    C1 7249   3.519   2.988  12.459  0.1570 -0.4763 -0.2741
  484MPD2    C2 7250   3.635   2.950  12.389 -0.0393  0.0791 -0.3517
  484MPD2    C3 7251   3.670   3.014  12.270 -0.2483  0.5673  0.0601
  484MPD2    C4 7252   3.583   3.111  12.218  0.8850 -0.0992  0.0278
  484MPD2    C5 7253   3.471   3.137  12.285 -0.2679 -0.1130  0.2888
  484MPD2     H 7254   3.709   2.887  12.437 -2.1170 -3.2339 -1.5078
  484MPD2    H1 7255   3.608   3.179  12.138 -1.7093 -0.5225 -1.1379
  484MPD2    H2 7256   3.353   3.129  12.458  0.7947  1.0529 -0.1524
  484MPD2    H3 7257   3.406   3.211  12.240 -0.1073 -0.6017 -0.7497
  484MPD2     N 7258   3.792   2.975  12.197 -0.9181  0.0470 -0.4557
  484MPD2    H5 7259   3.814   3.025  12.112 -1.5299  1.6986  0.3644
  484MPD2    N1 7260   3.491   2.929  12.585 -0.7448 -0.0412  0.0355
  484MPD2    H7 7261   3.405   2.956  12.631 -1.1764  0.4394 -1.0503
  485TMC3    C1 7262   3.976   2.864  12.115 -0.7001  0.0296 -0.0696
  485TMC3    C2 7263   3.995   2.739  12.058  0.1247 -0.0110  0.4766
  485TMC3    C3 7264   4.081   2.729  11.955 -0.8939 -0.4041  0.2725
  485TMC3    C4 7265   4.046   2.975  12.087  0.7970 -0.2540 -0.4451
  485TMC3    C5 7266   4.139   2.959  11.987  0.2764  1.0028  0.3942
  485TMC3    C6 7267   4.157   2.838  11.925 -0.2364 -0.3874  0.1890
  485TMC3     C 7268   3.878   2.866  12.220 -0.3574  0.1250 -0.6403
  485TMC3     O 7269   3.860   2.765  12.288 -0.4200  0.3719 -0.8252
  485TMC3     H 7270   3.917   2.667  12.081  1.4135 -1.6864 -0.3829
  485TMC3    H1 7271   4.035   3.063  12.148  1.5088 -0.6925  0.3116
  485TMC3    H2 7272   4.222   2.825  11.839 -1.7237  2.4352 -1.3410
  485TMC3    C7 7273   4.274   3.019  12.009 -0.4198  0.9989 -0.1677
  485TMC3    C8 7274   4.170   2.617  11.958  0.1671 -0.8320 -0.5469
  485TMC3    O1 7275   4.291   3.142  12.027  0.1905  0.4385 -0.6818
  485TMC3    O2 7276   4.289   2.645  11.949 -0.3006  0.4569  0.1126
  486MPD2     C 7277   1.645   1.613  13.041  0.4091 -0.4174 -0.0159
  486MPD2    C1 7278   1.600   1.539  12.933  0.2281 -0.1831 -0.6016
  486MPD2    C2 7279   1.517   1.603  12.840  0.2121  0.1684  0.5770
  486MPD2    C3 7280   1.479   1.736  12.852 -0.2031 -0.6936 -0.8987
  486MPD2    C4 7281   1.532   1.811  12.958 -0.4186  0.1318  0.4965
  486MPD2    C5 7282   1.613   1.749  13.055 -0.1759  0.3225  0.8720
  486MPD2     H 7283   1.494   1.553  12.747 -1.4159  0.0294  1.0511
  486MPD2    H1 7284   1.517   1.917  12.970  2.8280  0.5514  0.7722
  486MPD2    H2 7285   1.696   1.563  13.122  0.0426  1.6638  1.5164
  486MPD2    H3 7286   1.648   1.800  13.144  1.2239  2.6579 -1.0182
  486MPD2     N 7287   1.394   1.783  12.748  1.2222  0.0150 -0.0408
  486MPD2    H5 7288   1.378   1.721  12.670 -0.4163 -0.1211  0.3910
  486MPD2    N1 7289   1.642   1.401  12.921 -0.5055  0.8740 -0.3890
  486MPD2    H7 7290   1.720   1.379  12.982 -2.0713 -2.3103  0.4733
  487TMC3    C1 7291   1.586   1.179  12.901 -0.6785  0.9043 -0.7941
  487TMC3    C2 7292   1.533   1.075  12.825 -0.1032  0.3478  0.6905
  487TMC3    C3 7293   1.495   0.955  12.890 -0.1086 -0.2418 -0.7200
  487TMC3    C4 7294   1.588   1.160  13.041 -1.0504 -0.1100 -0.1227
  487TMC3    C5 7295   1.558   1.048  13.104  0.3838  0.7872  0.1853
  487TMC3    C6 7296   1.510   0.946  13.028  0.4040  0.5941  0.1906
  487TMC3     C 7297   1.590   1.305  12.833 -0.1539  0.1684  0.0434
  487TMC3     O 7298   1.519   1.320  12.732 -0.1041  0.2703  0.0354
  487TMC3     H 7299   1.523   1.080  12.717 -3.2890 -0.9484  0.9072
  487TMC3    H1 7300   1.619   1.238  13.109  2.4247 -1.6397  0.0226
  487TMC3    H2 7301   1.499   0.846  13.068  2.4435  0.1282 -0.4418
  487TMC3    C7 7302   1.516   1.060  13.243  0.1741 -0.1249 -1.0215
  487TMC3    C8 7303   1.378   0.889  12.849  0.9158  0.0353  0.4776
  487TMC3    O1 7304   1.529   1.168  13.297  0.2532  0.4389 -0.6518
  487TMC3    O2 7305   1.380   0.795  12.771  0.1514 -0.0397  0.9082
  488MPD2     C 7306   1.538   3.226  16.205  0.4636 -0.6249 -0.3215
  488MPD2    C1 7307   1.659   3.264  16.269 -0.7928  0.8444 -0.1068
  488MPD2    C2 7308   1.708   3.195  16.377  0.6246  0.5343  0.8360
  488MPD2    C3 7309   1.639   3.089  16.427  0.0544  0.1538  0.4232
  488MPD2    C4 7310   1.519   3.047  16.370 -1.2602 -0.1853  0.1174
  488MPD2    C5 7311   1.476   3.108  16.258  0.0926  0.3757  0.0088
  488MPD2     H 7312   1.802   3.223  16.422  1.0691  0.9794 -0.3841
  488MPD2    H1 7313   1.463   2.969  16.421 -2.8235  0.6127 -0.3638
  488MPD2    H2 7314   1.492   3.287  16.128 -0.2658  0.4137  0.9136
  488MPD2    H3 7315   1.381   3.077  16.216  0.7460 -0.2386 -1.0243
  488MPD2     N 7316   1.699   3.040  16.547  0.6324  0.2727  0.0821
  488MPD2    H5 7317   1.793   3.071  16.571  0.0785  1.6991  0.4238
  488MPD2    N1 7318   1.728   3.377  16.221  0.2845 -0.2489  0.1541
  488MPD2    H7 7319   1.798   3.411  16.287  1.8021 -0.3175 -1.4083
  489TMC3    C1 7320   1.701   2.937  16.751 -0.4234  0.0653 -0.0841
  489TMC3    C2 7321   1.809   3.015  16.789 -0.0302 -0.1287 -0.0242
  489TMC3    C3 7322   1.841   3.012  16.923  0.4027 -0.4227 -0.2402
  489TMC3    C4 7323   1.631   2.864  16.844  0.2897  0.4065 -0.3019
  489TMC3    C5 7324   1.661   2.870  16.973  0.1467 -0.2783  0.3514
  489TMC3    C6 7325   1.763   2.951  17.022 -0.4680 -0.2249 -0.5295
  489TMC3     C 7326   1.644   2.943  16.620  0.2355  0.1104  0.0723
  489TMC3     O 7327   1.549   2.866  16.600  0.5943 -0.0938 -0.6077
  489TMC3     H 7328   1.865   3.084  16.727  2.0662 -2.3558 -0.6189
  489TMC3    H1 7329   1.558   2.791  16.810 -0.2430  0.2554  1.1686
  489TMC3    H2 7330   1.789   2.940  17.126 -2.5834 -0.1854  0.0152
  489TMC3    C7 7331   1.563   2.810  17.067  0.1718  0.6575 -0.2995
  489TMC3    C8 7332   1.918   3.134  16.961  0.7915  0.3902  0.3629
  489TMC3    O1 7333   1.602   2.750  17.167 -0.5771  0.1181  0.1374
  489TMC3    O2 7334   2.006   3.185  16.891 -0.3647  0.1232 -0.0815
  490MPD2     C 7335   2.567   3.075  17.370 -0.4739  0.3711 -0.0522
  490MPD2    C1 7336   2.565   3.011  17.491 -0.3306 -0.5082  0.3916
  490MPD2    C2 7337   2.652   3.055  17.589  0.4512  0.0977  0.6495
  490MPD2    C3 7338   2.735   3.163  17.565  0.7551 -0.0552  0.5820
  490MPD2    C4 7339   2.740   3.224  17.437  0.0491 -0.0920 -0.7658
  490MPD2    C5 7340   2.660   3.172  17.341  0.0324  0.4002  0.9877
  490MPD2     H 7341   2.670   2.997  17.679  2.2651  1.5596  1.2111
  490MPD2    H1 7342   2.807   3.305  17.409  0.0663  0.3428  0.5474
  490MPD2    H2 7343   2.492   3.061  17.293 -0.5919  0.9067 -0.0313
  490MPD2    H3 7344   2.667   3.215  17.242 -1.1440 -1.2607  0.1707
  490MPD2     N 7345   2.823   3.210  17.659 -0.0970  0.8684 -0.3580
  490MPD2    H5 7346   2.900   3.258  17.614  0.5502  1.9794  1.8854
  490MPD2    N1 7347   2.487   2.896  17.519  0.3742 -0.0608  0.3634
  490MPD2    H7 7348   2.503   2.860  17.613 -0.6737  4.1239  2.1258
  491TMC3    C1 7349   2.397   2.678  17.483  0.1183 -0.4207  1.0581
  491TMC3    C2 7350   2.418   2.647  17.618  0.6381  0.1853 -0.7633
  491TMC3    C3 7351   2.365   2.531  17.658  0.4787 -0.1937 -0.3153
  491TMC3    C4 7352   2.331   2.597  17.397 -0.4298 -0.7827 -0.1594
  491TMC3    C5 7353   2.296   2.475  17.442  0.0381  0.2678 -0.0100
  491TMC3    C6 7354   2.303   2.447  17.574 -1.1830 -0.7150  0.7887
  491TMC3     C 7355   2.428   2.818  17.431  0.1416 -0.2308 -0.0638
  491TMC3     O 7356   2.412   2.843  17.314 -0.1403  0.2234  0.3795
  491TMC3     H 7357   2.457   2.716  17.692 -0.4712  2.5591 -2.3744
  491TMC3    H1 7358   2.321   2.633  17.295 -0.2940 -0.8219 -0.1867
  491TMC3    H2 7359   2.280   2.348  17.611 -2.7513 -0.2773  1.0238
  491TMC3    C7 7360   2.221   2.387  17.353 -0.1824  0.4122  0.3673
  491TMC3    C8 7361   2.327   2.532   0.071 -0.6397  0.9128 -0.1901
  491TMC3    O1 7362   2.151   2.304  17.405  0.1471 -0.7160 -0.4864
  491TMC3    O2 7363   2.326   2.643   0.136  0.1042 -0.5592 -0.0456
  492MPD2     C 7364   3.006   3.233  10.709 -0.5528  0.4472  0.1790
  492MPD2    C1 7365   2.905   3.139  10.730 -0.7608  0.5818  1.2782
  492MPD2    C2 7366   2.880   3.084  10.858  0.1889  0.0246  0.4198
  492MPD2    C3 7367   2.958   3.120  10.968 -0.1388 -0.1892  0.2463
  492MPD2    C4 7368   3.058   3.211  10.944  0.1337  0.4976 -0.5181
  492MPD2    C5 7369   3.082   3.260  10.818  0.1471  0.0563 -0.0454
  492MPD2     H 7370   2.803   3.009  10.869 -0.5118  1.0048  2.2645
  492MPD2    H1 7371   3.109   3.256  11.029  1.5955 -0.4819 -0.8738
  492MPD2    H2 7372   3.014   3.279  10.611  1.6324 -2.8199 -1.1848
  492MPD2    H3 7373   3.160   3.335  10.809 -0.8997  1.3480  1.6307
  492MPD2     N 7374   2.930   3.067  11.100  0.0656 -0.0099  0.8546
  492MPD2    H5 7375   2.993   3.093  11.175  1.8068 -0.5731 -0.4207
  492MPD2    N1 7376   2.819   3.111  10.622 -0.0878  0.4151  0.0729
  492MPD2    H7 7377   2.840   3.159  10.535 -0.7740  0.6051  0.0089
  493TMC3    C1 7378   2.694   2.970  10.484  0.1833  0.6895 -0.0249
  493TMC3    C2 7379   2.683   3.075  10.402 -0.5330  0.3752  0.0923
  493TMC3    C3 7380   2.606   3.058  10.292  0.3250 -0.0248 -0.7598
  493TMC3    C4 7381   2.619   2.858  10.470  0.2760 -0.3405 -0.8858
  493TMC3    C5 7382   2.549   2.844  10.357  0.0594 -0.0860  0.1483
  493TMC3    C6 7383   2.537   2.947  10.271 -1.1531  0.0478 -0.4277
  493TMC3     C 7384   2.741   2.996  10.618 -0.1075  0.0354  0.4964
  493TMC3     O 7385   2.723   2.903  10.696 -0.2044 -0.5194  0.2684
  493TMC3     H 7386   2.721   3.172  10.431  0.6975 -0.7744  2.3258
  493TMC3    H1 7387   2.644   2.771  10.529  1.4035  0.5595 -0.0560
  493TMC3    H2 7388   2.473   2.939  10.183 -1.6837 -1.4630  0.0871
  493TMC3    C7 7389   2.447   2.740  10.339  0.6640 -0.2231 -0.5466
  493TMC3    C8 7390   2.573   3.165  10.206 -0.2323 -0.2025  0.1478
  493TMC3    O1 7391   2.410   2.733  10.225  0.1576  0.2616  0.6704
  493TMC3    O2 7392   2.454   3.162  10.166 -0.1067 -0.1361  0.3022
  494TMC3    C1 7393   3.726   4.713   0.707  0.3324  0.4897 -0.0778
  494TMC3    C2 7394   3.769   4.583   0.743  0.5245 -0.0541 -0.3333
  494TMC3    C3 7395   3.732   4.475   0.665 -0.2560  0.6780 -0.2272
  494TMC3    C4 7396   3.647   0.001   0.594  0.3111 -0.2083 -0.2032
  494TMC3    C5 7397   3.616   4.621   0.519  0.1296  0.9178  0.9549
  494TMC3    C6 7398   3.661   4.494   0.550  0.0619  0.0830  0.3936
  494TMC3     C 7399   3.696   0.071   0.816 -0.0676 -0.6061  0.4472
  494TMC3     O 7400   3.774   0.068   0.909 -0.7198 -0.7481  0.4323
  494TMC3     H 7401   3.826   4.579   0.836  1.1783  0.9994 -0.6855
  494TMC3    H1 7402   3.618   0.101   0.565 -0.8046 -1.6756 -4.0213
  494TMC3    H2 7403   3.643   4.409   0.485 -0.2721 -0.6794  1.4936
  494TMC3    C7 7404   3.563   4.635   0.381  0.2262  0.0379  0.2176
  494TMC3    C8 7405   3.707   4.352   0.733 -0.5956 -0.1914 -0.3161
  494TMC3    O1 7406   3.589   4.549   0.296 -0.0998  0.0819 -0.3338
  494TMC3    O2 7407   3.696   4.249   0.668  0.1431 -0.1958 -0.2376
  495TMC3    C1 7408   2.262   1.760  14.593  0.0730  1.0161 -0.1826
  495TMC3    C2 7409   2.154   1.792  14.519 -0.3700 -0.9771 -0.4686
  495TMC3    C3 7410   2.067   1.891  14.569  0.0590 -0.1409  0.3096
  495TMC3    C4 7411   2.285   1.822  14.712 -0.0160  0.0840 -0.4720
  495TMC3    C5 7412   2.191   1.909  14.763  1.0715  0.1564  0.4751
  495TMC3    C6 7413   2.077   1.944  14.696 -0.4063 -0.6047 -0.2773
  495TMC3     C 7414   2.300   1.622  14.581 -0.6384  0.3406  0.1293
  495TMC3     O 7415   2.219   1.547  14.526  0.2191  0.2913 -0.6500
  495TMC3     H 7416   2.133   1.742  14.425 -4.1257 -0.0757 -0.1217
  495TMC3    H1 7417   2.350   1.783  14.789  0.3996 -0.7299 -1.2437
  495TMC3    H2 7418   2.008   2.015  14.739 -0.0444  0.1588 -0.9494
  495TMC3    C7 7419   2.201   1.945  14.900 -0.5613  0.4432 -0.1349
  495TMC3    C8 7420   1.951   1.936  14.489 -0.3958  0.2122 -0.1617
  495TMC3    O1 7421   2.312   1.986  14.933 -0.1960 -0.5151  0.6354
  495TMC3    O2 7422   1.861   1.987  14.553 -0.5971  0.1412  0.2346
  496MPD2     C 7423   4.608   1.892  15.884  0.2187 -0.5922  0.3048
  496MPD2    C1 7424   4.502   1.884  15.795 -0.0448 -0.3039 -0.2289
  496MPD2    C2 7425   4.386   1.958  15.825  0.6961 -0.0257 -0.6584
  496MPD2    C3 7426   4.379   2.032  15.941  0.4405  1.0429 -0.5606
  496MPD2    C4 7427   4.479   2.033  16.025 -0.8768  0.2071 -0.8244
  496MPD2    C5 7428   4.598   1.971  15.995 -0.6557 -0.7555 -0.3276
  496MPD2     H 7429   4.303   1.956  15.754 -1.9445  1.0710  2.3812
  496MPD2    H1 7430   4.476   2.098  16.112  1.2191  0.2709 -0.7976
  496MPD2    H2 7431   4.699   1.837  15.865  0.6615  1.0904 -2.3660
  496MPD2    H3 7432   4.680   1.995  16.061 -0.3994  0.9461 -1.2755
  496MPD2     N 7433   4.258   2.087  15.986  0.0441 -0.4710 -0.2149
  496MPD2    H5 7434   4.253   2.128  16.079  1.8446 -0.1206 -0.2547
  496MPD2    N1 7435   4.521   1.814  15.674  0.2972  0.1582  0.3075
  496MPD2    H7 7436   4.606   1.758  15.667  1.2385  1.6971 -0.7472
  497TMC3    C1 7437   4.024   2.080  16.030 -0.9290 -0.2998 -0.2100
  497TMC3    C2 7438   3.900   2.085  15.963 -0.2045  0.3464 -0.4124
  497TMC3    C3 7439   3.793   2.016  16.021 -0.0406 -0.3508 -0.1763
  497TMC3    C4 7440   4.038   2.021  16.158 -0.3174 -0.0055  0.5109
  497TMC3    C5 7441   3.929   1.971  16.215  0.0774  0.3987 -0.0122
  497TMC3    C6 7442   3.816   1.958  16.146 -0.4336 -0.0863 -0.0900
  497TMC3     C 7443   4.128   2.087  15.932 -0.5112 -0.0068 -0.3188
  497TMC3     O 7444   4.101   2.063  15.812  0.1725 -0.0397  0.5044
  497TMC3     H 7445   3.897   2.121  15.861 -1.2269  2.2266  0.2866
  497TMC3    H1 7446   4.135   1.996  16.200 -0.6814  0.2271  1.4926
  497TMC3    H2 7447   3.732   1.918  16.202  0.5180 -1.5143  0.3349
  497TMC3    C7 7448   3.942   1.866  16.319 -0.6016 -0.1118 -0.0936
  497TMC3    C8 7449   3.669   2.007  15.953  0.3775  0.4032  0.5488
  497TMC3    O1 7450   3.846   1.792  16.325  0.1980  0.2168 -0.3654
  497TMC3    O2 7451   3.649   2.088  15.866  0.0504 -0.1760 -0.3522
  498MPD2     C 7452   0.061   2.781  10.869  1.4090 -0.1823  0.0059
  498MPD2    C1 7453   0.056   2.763  10.733  0.7098  1.1266 -0.0429
  498MPD2    C2 7454   4.731   2.644  10.681  0.4320 -0.3476  0.1973
  498MPD2    C3 7455   4.685   2.541  10.775 -0.1759 -0.2241 -0.5790
  498MPD2    C4 7456   4.703   2.564  10.909  0.0993  1.1835  0.7081
  498MPD2    C5 7457   0.026   2.685  10.955 -0.0495 -0.0288  0.4293
  498MPD2     H 7458   4.719   2.619  10.576 -0.9883 -1.8659  0.7323
  498MPD2    H1 7459   4.679   2.486  10.980  2.5932 -1.3542 -1.2340
  498MPD2    H2 7460   0.096   2.873  10.913  0.2457 -0.0917  0.7544
  498MPD2    H3 7461   0.048   2.697  11.061 -0.2058  1.5425  0.2911
  498MPD2     N 7462   4.619   2.428  10.724  0.1384 -0.7697 -0.4790
  498MPD2    H5 7463   4.631   2.406  10.625 -0.2432  1.3311 -0.9790
  498MPD2    N1 7464   0.097   2.863  10.635 -0.0523 -0.4379 -0.4766
  498MPD2    H7 7465   0.084   2.850  10.535  2.9732 -0.4759 -0.8440
  499TMC3    C1 7466   0.236   3.030  10.558 -0.4692  0.1644 -0.5102
  499TMC3    C2 7467   0.365   3.054  10.562  0.4201 -0.2558  0.0946
  499TMC3    C3 7468   0.419   3.099  10.448  0.3988  0.9095  0.6246
  499TMC3    C4 7469   0.156   3.054  10.449  0.4983  0.1400 -0.5254
  499TMC3    C5 7470   0.216   3.105  10.337  0.3575 -0.0542  0.5099
  499TMC3    C6 7471   0.351   3.129  10.333 -0.4256  0.1842  0.3718
  499TMC3     C 7472   0.182   2.962  10.671  0.3757 -0.7651  0.1080
  499TMC3     O 7473   0.243   2.976  10.776 -0.0255 -0.0754 -0.3123
  499TMC3     H 7474   0.430   3.009  10.636 -1.2114  0.0404  1.7286
  499TMC3    H1 7475   0.049   3.037  10.454  0.6164 -0.6855 -0.9014
  499TMC3    H2 7476   0.403   3.185  10.256 -2.3595  0.7410 -0.5426
  499TMC3    C7 7477   0.140   3.144  10.216  0.2704 -0.1078  0.1430
  499TMC3    C8 7478   0.558   3.130  10.457 -0.4305  0.1856  0.4812
  499TMC3    O1 7479   0.196   3.220  10.137 -0.0236  0.6132  0.5826
  499TMC3    O2 7480   0.587   3.166  10.570  0.0155 -0.1452 -0.0415
  500MPD2     C 7481   1.570   3.345   9.910  0.7671 -0.1281 -0.0605
  500MPD2    C1 7482   1.543   3.378  10.040 -0.0466  0.0421  0.3878
  500MPD2    C2 7483   1.410   3.389  10.080 -1.1816  0.0384  0.0546
  500MPD2    C3 7484   1.306   3.355   9.998  0.0795  0.7701 -1.3444
  500MPD2    C4 7485   1.338   3.304   9.869 -0.4456 -0.4646  0.6769
  500MPD2    C5 7486   1.468   3.314   9.824  0.1256  0.0007 -0.2668
  500MPD2     H 7487   1.393   3.441  10.173 -0.1207  0.0567  0.2350
  500MPD2    H1 7488   1.262   3.269   9.799 -1.2399 -1.7741  2.1990
  500MPD2    H2 7489   1.671   3.337   9.871  1.2560  0.0348  1.1975
  500MPD2    H3 7490   1.497   3.253   9.739  3.6629  1.9413 -0.4565
  500MPD2     N 7491   1.170   3.364  10.030 -0.3674  0.2418  1.1927
  500MPD2    H5 7492   1.108   3.304   9.976  2.0315 -1.5736  0.4668
  500MPD2    N1 7493   1.646   3.409  10.132 -0.2210 -0.2364 -0.1561
  500MPD2    H7 7494   1.611   3.430  10.225  0.2046 -1.2323  0.2324
  501TMC3    C1 7495   1.840   3.476  10.225  0.3882  0.1160  0.0449
  501TMC3    C2 7496   1.882   3.606  10.229 -0.4273  0.7107  0.0209
  501TMC3    C3 7497   1.938   3.655  10.343 -0.1116 -0.3380  0.4680
  501TMC3    C4 7498   1.854   3.392  10.328  0.8891 -1.2142  0.3549
  501TMC3    C5 7499   1.922   3.439  10.434 -0.0651  0.2952  0.8109
  501TMC3    C6 7500   1.969   3.570  10.439  0.3324  0.5599 -0.2091
  501TMC3     C 7501   1.772   3.438  10.106  0.2353  0.4339  0.1209
  501TMC3     O 7502   1.826   3.469   9.999  0.5318 -0.0227 -0.1516
  501TMC3     H 7503   1.854   3.665  10.142  0.4324  0.1356 -0.6394
  501TMC3    H1 7504   1.841   3.287  10.304  0.3551 -0.9536 -0.5127
  501TMC3    H2 7505   2.010   3.608  10.532  1.3679  2.6078 -1.4922
  501TMC3    C7 7506   1.969   3.357  10.545  0.5721  0.3621 -0.7072
  501TMC3    C8 7507   1.959   3.796  10.362 -0.5063  0.4409  0.2718
  501TMC3    O1 7508   2.035   3.418  10.628  0.3462  0.0449 -0.0913
  501TMC3    O2 7509   2.014   3.827  10.469 -0.2079  0.0143 -0.1809
  502TMC3    C1 7510   1.675   2.603  15.481  0.0995 -1.2148  0.2912
  502TMC3    C2 7511   1.689   2.728  15.414  0.6298  0.2166  0.3721
  502TMC3    C3 7512   1.607   2.757  15.312 -0.3036 -0.1648  0.5384
  502TMC3    C4 7513   1.596   2.509  15.427 -0.1834  0.1380 -0.1249
  502TMC3    C5 7514   1.534   2.531  15.309  0.0557  0.0879 -0.8232
  502TMC3    C6 7515   1.534   2.653  15.252 -0.0746 -0.2743 -0.4356
  502TMC3     C 7516   1.717   2.585  15.615 -0.1032 -0.7108  0.0893
  502TMC3     O 7517   1.805   2.654  15.664  0.4719 -0.2740  0.4920
  502TMC3     H 7518   1.737   2.813  15.463  1.1966 -0.3101  0.7405
  502TMC3    H1 7519   1.583   2.408  15.464  1.9125 -0.1064 -0.0627
  502TMC3    H2 7520   1.457   2.665  15.176  1.0623 -4.0843 -2.1731
  502TMC3    C7 7521   1.436   2.436  15.264 -0.1449  0.0926  0.6884
  502TMC3    C8 7522   1.655   2.858  15.215 -0.6526  0.5786  0.0446
  502TMC3    O1 7523   1.482   2.323  15.258 -0.4673 -0.1303  0.2176
  502TMC3    O2 7524   1.577   2.888  15.121 -0.6210 -0.2022  0.8946
  503MPD2     C 7525   3.825   3.036  16.986 -0.4598  0.4006  0.1555
  503MPD2    C1 7526   3.832   3.087  17.114 -0.8554 -0.4001  0.5386
  503MPD2    C2 7527   3.881   3.000  17.210  0.8231 -0.0167  0.9256
  503MPD2    C3 7528   3.945   2.879  17.184 -0.5214 -0.0837  0.1239
  503MPD2    C4 7529   3.957   2.846  17.048  0.2404 -0.4630  0.1576
  503MPD2    C5 7530   3.885   2.916  16.952 -0.2296 -0.3034 -0.3976
  503MPD2     H 7531   3.863   3.031  17.313 -2.5107  2.9807 -0.5399
  503MPD2    H1 7532   4.006   2.753  17.022  1.1000  0.0192  0.0407
  503MPD2    H2 7533   3.769   3.080  16.904 -1.2465 -0.9696 -0.0478
  503MPD2    H3 7534   3.886   2.867  16.856 -1.3448 -1.9199  0.4257
  503MPD2     N 7535   3.997   2.787  17.279 -0.4070  0.1699 -0.3728
  503MPD2    H5 7536   4.044   2.704  17.243 -0.1022 -0.8314  2.3235
  503MPD2    N1 7537   3.789   3.218  17.142  0.4293 -0.3445  0.2401
  503MPD2    H7 7538   3.804   3.249  17.237  0.5421  0.3447  0.0034
  504TMC3    C1 7539   4.033   2.697  17.502  0.3094 -0.0249 -0.4689
  504TMC3    C2 7540   3.977   2.662  17.621  0.2046 -0.1094 -0.3038
  504TMC3    C3 7541   4.057   2.591  17.699  0.2244  0.2277  0.0345
  504TMC3    C4 7542   4.167   2.679  17.474 -0.1437  0.6260 -0.3126
  504TMC3    C5 7543   4.246   2.606  17.564  0.0275  0.0049  0.2955
  504TMC3    C6 7544   4.191   2.557  17.675  0.2636 -0.2364  0.4266
  504TMC3     C 7545   3.969   2.796  17.418  0.6547 -0.3686  0.5221
  504TMC3     O 7546   3.879   2.863  17.473 -0.1567  0.6438  0.0839
  504TMC3     H 7547   3.878   2.695  17.648  0.2043 -2.0961  2.1935
  504TMC3    H1 7548   4.210   2.716  17.381  0.7149  0.5643  0.0652
  504TMC3    H2 7549   4.249   2.498   0.017 -0.4105  0.2193  1.3565
  504TMC3    C7 7550   4.374   2.564  17.505 -0.5315 -0.2665 -0.0594
  504TMC3    C8 7551   4.014   2.596   0.107  0.0909 -0.2704 -0.3845
  504TMC3    O1 7552   4.421   2.636  17.420  0.1437 -0.6319  0.1206
  504TMC3    O2 7553   3.896   2.587   0.124 -0.7687 -0.0729 -0.7367
  505MPD2     C 7554   3.539   1.829  10.541  0.8092  0.1989 -0.3275
  505MPD2    C1 7555   3.559   1.704  10.486  0.2339 -0.1102  0.4912
  505MPD2    C2 7556   3.593   1.593  10.562  0.5120  0.4436  0.3608
  505MPD2    C3 7557   3.603   1.611  10.696  0.0898  0.0190  0.6213
  505MPD2    C4 7558   3.588   1.739  10.748 -0.3763 -0.4715 -0.6086
  505MPD2    C5 7559   3.569   1.845  10.669 -0.3246  0.1877  0.0655
  505MPD2     H 7560   3.599   1.491  10.526 -0.0861 -0.2651  2.2644
  505MPD2    H1 7561   3.620   1.765  10.849 -3.0184 -1.6661  0.5330
  505MPD2    H2 7562   3.522   1.921  10.486  2.2904 -0.0888 -1.2440
  505MPD2    H3 7563   3.559   1.940  10.720  0.8531 -0.9085  2.3531
  505MPD2     N 7564   3.658   1.509  10.779 -0.5044  0.2530 -0.1827
  505MPD2    H5 7565   3.678   1.529  10.876  0.4453  1.3047 -0.5800
  505MPD2    N1 7566   3.563   1.705  10.345  0.1964 -0.2625 -0.6938
  505MPD2    H7 7567   3.558   1.790  10.290 -0.3330 -0.7940 -1.4525
  506TMC3    C1 7568   3.646   1.634  10.136 -0.9555  0.5614  0.3758
  506TMC3    C2 7569   3.746   1.728  10.140  0.2369  0.2070  0.6508
  506TMC3    C3 7570   3.853   1.724  10.058  0.2930 -0.0640 -0.3106
  506TMC3    C4 7571   3.670   1.525  10.054 -0.4163  0.2757 -0.4393
  506TMC3    C5 7572   3.782   1.516   9.974 -0.0346 -0.3076  0.1449
  506TMC3    C6 7573   3.871   1.616   9.973  0.2283 -0.2564  0.8912
  506TMC3     C 7574   3.584   1.593  10.267 -0.3328 -0.3489 -0.9485
  506TMC3     O 7575   3.594   1.475  10.292 -0.0327  0.1408 -0.1625
  506TMC3     H 7576   3.749   1.809  10.212 -0.3813 -0.0601  0.9842
  506TMC3    H1 7577   3.595   1.447  10.049  1.5452 -1.4355 -3.2126
  506TMC3    H2 7578   3.962   1.593   9.919 -1.0745 -1.4255 -0.8341
  506TMC3    C7 7579   3.842   1.378   9.979  0.3529 -0.8014 -0.7146
  506TMC3    C8 7580   3.979   1.773  10.112  0.3361 -0.1754 -0.2201
  506TMC3    O1 7581   3.934   1.353   9.902  0.1435  0.3926  0.6320
  506TMC3    O2 7582   3.991   1.781  10.230 -0.9473  0.1971 -0.0582
  507TMC3    C1 7583   0.124   3.236  14.957 -0.0688  0.0957 -0.5426
  507TMC3    C2 7584   0.074   3.228  14.836 -0.1724 -0.4239 -0.2550
  507TMC3    C3 7585   0.113   3.314  14.740 -0.1577  0.4616 -0.2502
  507TMC3    C4 7586   0.229   3.321  14.991 -0.0457 -0.0313  0.5437
  507TMC3    C5 7587   0.276   3.396  14.892 -0.3335 -0.2732  0.2539
  507TMC3    C6 7588   0.221   3.398  14.765 -0.0614 -0.5476  0.4997
  507TMC3     C 7589   0.067   3.157  15.071  0.5691 -0.1063  0.7624
  507TMC3     O 7590   0.148   3.110  15.153  0.0515  0.6130  0.1879
  507TMC3     H 7591   4.729   3.153  14.822 -1.4267  1.0077 -0.8782
  507TMC3    H1 7592   0.261   3.330  15.094  1.4256  1.3894 -0.0374
  507TMC3    H2 7593   0.260   3.463  14.688  0.5682 -2.5364 -0.8330
  507TMC3    C7 7594   0.277   3.532  14.938 -0.3450 -0.2466 -0.7459
  507TMC3    C8 7595   0.013   3.366  14.649  0.2331 -0.6334  0.0003
  507TMC3    O1 7596   0.326   3.558  15.048 -0.4626  0.3308 -0.7532
  507TMC3    O2 7597   0.037   3.481  14.619 -0.4952  0.0056 -0.5666
  508MPD2     C 7598   1.321   0.195  16.097 -0.1349 -0.0204 -0.7916
  508MPD2    C1 7599   1.259   0.310  16.147 -0.6868 -0.6887  0.1491
  508MPD2    C2 7600   1.150   0.361  16.075 -0.6185  1.0966  0.8540
  508MPD2    C3 7601   1.113   0.299  15.955 -0.3960 -0.1121  0.2889
  508MPD2    C4 7602   1.175   0.190  15.910 -0.8541  0.3754 -0.1987
  508MPD2    C5 7603   1.278   0.137  15.981  0.7476 -0.1776 -0.0484
  508MPD2     H 7604   1.094   0.449  16.104  0.3864  1.6487  1.0928
  508MPD2    H1 7605   1.148   0.147  15.814 -1.0405 -0.3933  0.1925
  508MPD2    H2 7606   1.422   0.173  16.130 -0.1530  0.1878 -0.5963
  508MPD2    H3 7607   1.337   0.056  15.939 -1.1218 -0.1811 -2.6824
  508MPD2     N 7608   1.009   0.364  15.878  0.1950 -0.2523  0.3864
  508MPD2    H5 7609   0.982   0.457  15.908 -3.7037 -1.5666  0.8633
  508MPD2    N1 7610   1.304   0.364  16.274  0.3556  0.5242 -0.3781
  508MPD2    H7 7611   1.388   0.321  16.312 -0.0876  0.2773  0.3047
  509TMC3    C1 7612   0.858   0.571  15.556 -0.1398  0.4576 -0.2331
  509TMC3    C2 7613   0.869   0.673  15.655  0.5344 -0.3794  0.7989
  509TMC3    C3 7614   0.848   0.640  15.784 -0.4960 -0.2453 -0.0744
  509TMC3    C4 7615   0.856   0.442  15.593 -0.3153  0.1514 -0.2712
  509TMC3    C5 7616   0.848   0.407  15.725 -0.6491  0.2011  0.4276
  509TMC3    C6 7617   0.828   0.510  15.817  0.1537 -0.4077 -0.1808
  509TMC3     C 7618   0.876   0.610  15.422 -0.0509  0.0155  0.2095
  509TMC3     O 7619   0.893   0.519  15.340 -0.5556 -0.7576  0.3550
  509TMC3     H 7620   0.897   0.775  15.632  2.4162 -1.4068 -1.5070
  509TMC3    H1 7621   0.867   0.369  15.513 -2.3332 -0.4533 -0.0092
  509TMC3    H2 7622   0.808   0.477  15.919 -0.7041 -1.7152 -0.7645
  509TMC3    C7 7623   0.944   0.311  15.773 -0.1127 -0.0969 -0.4781
  509TMC3    C8 7624   0.947   0.686  15.877 -0.2963  0.2421  0.3103
  509TMC3    O1 7625   0.963   0.215  15.702  0.5070 -0.5708  0.4962
  509TMC3    O2 7626   0.935   0.638  15.989 -0.0088 -0.1696 -0.3157
  510MPD2     C 7627   3.392   2.251  14.687  0.1121 -0.0353  0.5876
  510MPD2    C1 7628   3.453   2.136  14.719  0.3559 -0.4740  0.3184
  510MPD2    C2 7629   3.559   2.090  14.645  0.2494  0.2926  0.9171
  510MPD2    C3 7630   3.598   2.147  14.525  0.3027 -0.5610  0.0354
  510MPD2    C4 7631   3.538   2.268  14.488 -0.0507  0.4102  0.7904
  510MPD2    C5 7632   3.441   2.318  14.577  0.4414  0.1920 -0.3801
  510MPD2     H 7633   3.607   1.999  14.680 -0.5290 -0.3053  0.4090
  510MPD2    H1 7634   3.569   2.322  14.400  2.0089  0.1105  1.3406
  510MPD2    H2 7635   3.307   2.291  14.742  0.4450 -0.4178  1.3704
  510MPD2    H3 7636   3.397   2.414  14.553 -0.1420  0.3274  1.2199
  510MPD2     N 7637   3.718   2.102  14.466 -0.2364  0.2981 -0.8393
  510MPD2    H5 7638   3.761   2.019  14.506 -0.4970  0.1098 -0.9508
  510MPD2    N1 7639   3.417   2.085  14.856 -0.7095  0.3569  0.2808
  510MPD2    H7 7640   3.349   2.129  14.917 -0.4685  0.6123  0.3648
  511TMC3    C1 7641   3.367   1.911  15.011 -0.1468 -0.1675  1.5784
  511TMC3    C2 7642   3.317   1.982  15.112  0.3188 -0.1655 -0.2691
  511TMC3    C3 7643   3.234   1.921  15.204  0.5948 -0.7334 -0.0462
  511TMC3    C4 7644   3.345   1.774  15.006 -0.4545  0.6992 -0.3673
  511TMC3    C5 7645   3.264   1.716  15.101  0.4064  0.1280 -0.4535
  511TMC3    C6 7646   3.199   1.783  15.199  0.5467 -0.2186 -0.4219
  511TMC3     C 7647   3.451   1.960  14.903 -0.0233  0.1966 -0.0708
  511TMC3     O 7648   3.534   1.886  14.853  0.1671  0.3065 -0.5264
  511TMC3     H 7649   3.318   2.090  15.111 -1.3753 -0.1556 -1.1392
  511TMC3    H1 7650   3.364   1.719  14.915 -0.7000 -1.4795  0.9120
  511TMC3    H2 7651   3.118   1.737  15.256  2.2940 -0.6539  1.7157
  511TMC3    C7 7652   3.205   1.596  15.060 -0.3279 -0.0463  0.1390
  511TMC3    C8 7653   3.186   2.007  15.310  0.3304 -0.0915  0.1349
  511TMC3    O1 7654   3.216   1.565  14.943  0.3793  0.4662 -0.3448
  511TMC3    O2 7655   3.185   2.126  15.300 -0.2751 -0.1929  0.4270
  512TMC3    C1 7656   2.340   1.569  13.657  0.5168 -0.2093  0.1386
  512TMC3    C2 7657   2.408   1.622  13.767  0.1181 -0.1567 -0.3946
  512TMC3    C3 7658   2.536   1.584  13.778  0.2011  0.0430 -0.6587
  512TMC3    C4 7659   2.410   1.495  13.561  0.8400  0.3525 -0.0593
  512TMC3    C5 7660   2.536   1.451  13.592  0.1021  0.2448  0.2942
  512TMC3    C6 7661   2.601   1.494  13.707  0.1285  0.0751 -0.4483
  512TMC3     C 7662   2.204   1.615  13.622  0.4573 -0.3277  0.6322
  512TMC3     O 7663   2.170   1.725  13.662  0.5142  0.1831 -0.0185
  512TMC3     H 7664   2.360   1.687  13.839  1.4412 -0.3858  0.6928
  512TMC3    H1 7665   2.361   1.469  13.468 -0.3737 -2.2539  1.3124
  512TMC3    H2 7666   2.709   1.480  13.708 -0.0903 -1.5575  0.8934
  512TMC3    C7 7667   2.619   1.384  13.495 -0.6484  0.4897  0.0966
  512TMC3    C8 7668   2.607   1.608  13.900  0.5273  0.9991 -0.8579
  512TMC3    O1 7669   2.733   1.419  13.481 -0.4238  0.2354 -0.1617
  512TMC3    O2 7670   2.680   1.518  13.940 -0.5455  0.2963 -0.0590
  513MPD2     C 7671   4.390   1.744  12.885 -0.1138  0.3409 -0.8415
  513MPD2    C1 7672   4.454   1.628  12.844  0.2551 -0.5906 -0.6036
  513MPD2    C2 7673   4.579   1.640  12.791 -0.5297  0.7453  0.1237
  513MPD2    C3 7674   4.640   1.767  12.776 -0.2285  0.0287  0.3121
  513MPD2    C4 7675   4.575   1.874  12.829  0.3408 -0.9924  0.5844
  513MPD2    C5 7676   4.454   1.868  12.890  0.7764 -0.3329 -0.0777
  513MPD2     H 7677   4.626   1.551  12.752  1.3438  1.7575  0.0749
  513MPD2    H1 7678   4.614   1.975  12.822  0.4636 -1.0147  0.9169
  513MPD2    H2 7679   4.290   1.743  12.927  0.8303 -1.1439  1.4099
  513MPD2    H3 7680   4.405   1.954  12.934  0.3093 -0.8276  0.3831
  513MPD2     N 7681   0.035   1.765  12.720  0.3626 -0.0911 -0.5039
  513MPD2    H5 7682   0.070   1.677  12.684  0.1343 -0.0867 -0.7351
  513MPD2    N1 7683   4.395   1.508  12.866  0.3611 -0.1604 -0.1388
  513MPD2    H7 7684   4.303   1.507  12.908  1.4660  0.2415  2.2906
  514TMC3    C1 7685   4.387   1.265  12.859 -0.1229  0.3171  0.1175
  514TMC3    C2 7686   4.270   1.284  12.788 -0.2536  0.1398 -0.6255
  514TMC3    C3 7687   4.253   1.204  12.683  0.4807  0.3594  0.1107
  514TMC3    C4 7688   4.477   1.168  12.831 -0.2704  0.1707 -0.6650
  514TMC3    C5 7689   4.459   1.091  12.721 -0.5246  0.9028 -0.4316
  514TMC3    C6 7690   4.344   1.108  12.644  0.0662 -0.3279  0.8622
  514TMC3     C 7691   4.460   1.390  12.859 -0.4404 -0.4290  0.9405
  514TMC3     O 7692   4.579   1.372  12.884  0.0634 -0.2468  0.1932
  514TMC3     H 7693   4.197   1.358  12.818  0.6349  1.6662 -2.2552
  514TMC3    H1 7694   4.559   1.161  12.901 -1.3580  1.2684  0.7109
  514TMC3    H2 7695   4.331   1.042  12.559 -1.5829  1.9593 -0.6583
  514TMC3    C7 7696   4.585   1.096  12.650 -0.0065  0.0094  0.6607
  514TMC3    C8 7697   4.117   1.205  12.625 -0.0214 -0.0523  0.8274
  514TMC3    O1 7698   4.690   1.080  12.711  0.0335 -0.0087  0.5241
  514TMC3    O2 7699   4.053   1.303  12.660 -0.3571  0.7550  0.3294
  515MPD2     C 7700   2.361   3.346  14.894  0.0435  0.2076  0.6777
  515MPD2    C1 7701   2.390   3.215  14.904  0.5914 -0.4116 -1.0518
  515MPD2    C2 7702   2.514   3.180  14.968  0.4438  0.0470 -0.1222
  515MPD2    C3 7703   2.579   3.278  15.031  0.1698 -0.0941  0.0810
  515MPD2    C4 7704   2.545   3.413  15.022 -0.2903  0.6017  0.0530
  515MPD2    C5 7705   2.438   3.445  14.945  0.1445  0.2296  0.2724
  515MPD2     H 7706   2.560   3.082  14.969 -2.6204 -1.3644  1.1937
  515MPD2    H1 7707   2.600   3.499  15.060 -0.8233 -0.0468  2.2764
  515MPD2    H2 7708   2.268   3.383  14.852  0.7770  0.5922 -0.6010
  515MPD2    H3 7709   2.410   3.548  14.926 -1.8128  0.2289  3.1358
  515MPD2     N 7710   2.688   3.248  15.121 -0.1187 -0.1266 -0.2071
  515MPD2    H5 7711   2.739   3.326  15.160  0.8359 -0.4580 -0.7814
  515MPD2    N1 7712   2.312   3.111  14.851 -0.3367 -0.4566  0.0837
  515MPD2    H7 7713   2.334   3.013  14.866  0.8544 -0.1718  0.2084
  516TMC3    C1 7714   2.132   3.010  14.750  0.1648  0.1285 -0.0574
  516TMC3    C2 7715   2.055   3.019  14.637 -0.2727  0.2968  0.2771
  516TMC3    C3 7716   1.949   2.934  14.630  1.2140 -0.0862  1.0072
  516TMC3    C4 7717   2.110   2.915  14.846 -0.4625  0.3370  0.1341
  516TMC3    C5 7718   1.997   2.838  14.840 -0.6722 -0.2210  0.1156
  516TMC3    C6 7719   1.908   2.852  14.736  0.2399 -0.0847 -0.5581
  516TMC3     C 7720   2.201   3.136  14.773 -0.1857  0.4575 -0.8202
  516TMC3     O 7721   2.145   3.240  14.737 -0.0699  0.4993 -0.7971
  516TMC3     H 7722   2.066   3.097  14.564  0.4193  0.2667  0.3487
  516TMC3    H1 7723   2.169   2.919  14.937 -3.1308 -0.1043  1.8886
  516TMC3    H2 7724   1.808   2.811  14.731 -0.2781  1.1232 -0.0545
  516TMC3    C7 7725   1.969   2.746  14.949  0.3715  0.2384  0.3875
  516TMC3    C8 7726   1.848   2.948  14.533  0.2581 -0.1900  0.2533
  516TMC3    O1 7727   2.053   2.748  15.036  0.8749 -0.2520  0.1950
  516TMC3    O2 7728   1.733   2.946  14.571 -0.7349  0.4044  1.1223
  517MPD2     C 7729   2.459   4.653   0.545 -0.2539 -0.9140  0.3973
  517MPD2    C1 7730   2.592   4.666   0.495 -0.4261 -0.0924  0.7383
  517MPD2    C2 7731   2.663   0.052   0.510  0.4824 -0.4557 -0.0150
  517MPD2    C3 7732   2.608   0.153   0.592 -0.2982  0.1199  0.1081
  517MPD2    C4 7733   2.485   0.133   0.648 -0.0543  0.6006 -0.0411
  517MPD2    C5 7734   2.413   0.027   0.620  0.0094  0.3681  0.1085
  517MPD2     H 7735   2.757   0.070   0.459 -0.5503  2.5625 -0.7909
  517MPD2    H1 7736   2.441   0.201   0.720  2.2046  1.3832  0.6178
  517MPD2    H2 7737   2.399   4.565   0.521  1.0423 -1.6394 -0.1818
  517MPD2    H3 7738   2.313   0.023   0.662  0.6711  1.5437  1.8283
  517MPD2     N 7739   2.660   0.283   0.609 -0.2790 -0.0847  0.4580
  517MPD2    H5 7740   2.607   0.350   0.663 -2.5771 -0.3953 -1.4342
  517MPD2    N1 7741   2.646   4.569   0.408 -0.3089  0.0958 -0.8058
  517MPD2    H7 7742   2.722   4.605   0.351 -0.2385  1.4160  0.1106
  518TMC3    C1 7743   2.645   4.378   0.270  0.4535 -0.0643 -0.5340
  518TMC3    C2 7744   2.582   4.268   0.223 -0.3220 -0.2784  0.2113
  518TMC3    C3 7745   2.627   4.208   0.109 -0.0736  0.1119  0.0398
  518TMC3    C4 7746   2.739   4.446   0.197 -0.3304  0.1112  0.4703
  518TMC3    C5 7747   2.784   4.375   0.088  0.1301  0.6170  0.6094
  518TMC3    C6 7748   2.737   4.253   0.047  0.1046 -0.6775 -0.0448
  518TMC3     C 7749   2.593   4.441   0.387 -0.8984 -0.2383  0.2905
  518TMC3     O 7750   2.509   4.377   0.456 -0.2792 -0.3980  0.2515
  518TMC3     H 7751   2.503   4.219   0.279  1.0194 -2.2670  0.3700
  518TMC3    H1 7752   2.795   4.532   0.232  1.0239  0.0609 -1.5734
  518TMC3    H2 7753   2.779   4.200  17.692 -0.3614  1.5691 -1.7109
  518TMC3    C7 7754   2.908   4.419   0.022  0.4985  0.0358 -0.3354
  518TMC3    C8 7755   2.559   4.098   0.048 -0.5702  0.2198  0.2645
  518TMC3    O1 7756   2.911   4.542   0.004  0.1307 -1.0701  0.5016
  518TMC3    O2 7757   2.621   4.030  17.694 -0.1018 -0.0121 -0.1165
  519MPD2     C 7758   4.077   3.146  14.795 -0.2842 -0.3774  0.1570
  519MPD2    C1 7759   3.964   3.133  14.721  0.1609 -0.0957 -0.0960
  519MPD2    C2 7760   3.961   3.051  14.613  0.0268  0.8664  0.8565
  519MPD2    C3 7761   4.074   2.977  14.573  0.1600  0.8540 -0.0454
  519MPD2    C4 7762   4.190   2.994  14.643  0.3078 -0.3511 -0.2164
  519MPD2    C5 7763   4.193   3.073  14.760  0.5563 -0.6605 -0.2137
  519MPD2     H 7764   3.862   3.040  14.568  0.5197 -1.4232  0.3666
  519MPD2    H1 7765   4.284   2.945  14.618  0.0160 -0.4257 -1.1732
  519MPD2    H2 7766   4.087   3.211  14.882 -0.5325 -1.0624  0.6926
  519MPD2    H3 7767   4.285   3.088  14.813 -0.4230 -0.1643  1.3414
  519MPD2     N 7768   4.075   2.893  14.456  0.0987 -0.6646 -0.1877
  519MPD2    H5 7769   4.165   2.853  14.431 -1.0070 -2.3126 -1.5168
  519MPD2    N1 7770   3.853   3.207  14.756 -0.0111  0.3401  0.4480
  519MPD2    H7 7771   3.858   3.256  14.845 -2.3625 -1.1277  1.3727
  520TMC3    C1 7772   3.995   2.797  14.246  0.2700  0.3375  0.4258
  520TMC3    C2 7773   3.910   2.820  14.142 -0.4297 -0.5164  0.0855
  520TMC3    C3 7774   3.905   2.724  14.045 -0.0800 -0.0338  0.0608
  520TMC3    C4 7775   4.072   2.685  14.251 -0.3418 -0.7681  0.2686
  520TMC3    C5 7776   4.068   2.595  14.146 -0.3355 -0.2562 -0.0206
  520TMC3    C6 7777   3.989   2.621  14.037  0.0814 -0.5155 -0.4721
  520TMC3     C 7778   3.970   2.874  14.368 -0.1039 -0.1663 -0.3225
  520TMC3     O 7779   3.851   2.905  14.389 -0.8254 -0.1760 -0.3254
  520TMC3     H 7780   3.850   2.910  14.144 -0.0349 -0.2133 -1.9203
  520TMC3    H1 7781   4.134   2.665  14.337  0.2515  2.4214  0.5702
  520TMC3    H2 7782   3.965   2.541  13.968 -3.0186  2.6592 -3.0983
  520TMC3    C7 7783   4.130   2.468  14.173  0.0360  0.3959  0.0868
  520TMC3    C8 7784   3.812   2.748  13.937  0.5787  0.1051 -0.2704
  520TMC3    O1 7785   4.133   2.443  14.293 -0.6244 -0.1901 -0.1117
  520TMC3    O2 7786   3.826   2.678  13.842 -0.1252 -0.3242 -0.3879
  521MPD2     C 7787   4.716   0.945  17.692 -0.4870 -0.3141 -0.0766
  521MPD2    C1 7788   4.695   0.905  17.562  0.4666  0.3509  0.1548
  521MPD2    C2 7789   0.067   0.906  17.468 -0.1534  0.2225 -0.0294
  521MPD2    C3 7790   0.193   0.933  17.513  0.3368 -0.5132 -0.0755
  521MPD2    C4 7791   0.218   0.982  17.642  0.5676 -0.3388 -0.4972
  521MPD2    C5 7792   0.113   0.983   0.001  0.1935  0.3065  0.0054
  521MPD2     H 7793   0.046   0.902  17.362  1.2558 -3.1247 -0.2023
  521MPD2    H1 7794   0.317   0.998  17.682  1.2945 -0.4720 -2.2648
  521MPD2    H2 7795   4.642   0.939   0.042 -0.2771  0.9958  0.2280
  521MPD2    H3 7796   0.141   1.000   0.105 -1.2465  1.0051  0.2700
  521MPD2     N 7797   0.300   0.928  17.417  0.3961 -0.2719 -0.0423
  521MPD2    H5 7798   0.281   0.927  17.318  2.2131 -1.2014 -0.3765
  521MPD2    N1 7799   4.567   0.879  17.522 -0.3472 -0.3217  0.6652
  521MPD2    H7 7800   4.486   0.907  17.578 -2.9982 -2.1453 -2.2732
  522TMC3    C1 7801   0.529   0.931  17.343  0.5049 -0.7469 -0.1793
  522TMC3    C2 7802   0.647   0.869  17.362 -0.5274  0.3932  0.1284
  522TMC3    C3 7803   0.745   0.891  17.271  0.5336  0.0917 -0.0461
  522TMC3    C4 7804   0.510   1.035  17.258  0.4352  0.7736 -0.3751
  522TMC3    C5 7805   0.612   1.061  17.169 -0.1699 -0.1545  0.6533
  522TMC3    C6 7806   0.731   0.994  17.174  0.2800 -0.1047 -0.2624
  522TMC3     C 7807   0.431   0.921  17.453  0.3639  0.9169  0.5535
  522TMC3     O 7808   0.477   0.876  17.555  0.0714  0.6775  0.1434
  522TMC3     H 7809   0.656   0.788  17.433  2.8690  0.3217 -0.4097
  522TMC3    H1 7810   0.422   1.096  17.273  0.8166  1.2387  0.0016
  522TMC3    H2 7811   0.787   1.001  17.081 -1.1655  0.2840 -1.1119
  522TMC3    C7 7812   0.612   1.176  17.077  0.2807  0.2008 -0.3022
  522TMC3    C8 7813   0.874   0.835  17.297  0.6754  0.4268 -0.2999
  522TMC3    O1 7814   0.715   1.206  17.019  0.0485  0.0213 -0.5285
  522TMC3    O2 7815   0.896   0.823  17.417  0.4546 -0.6521  0.9852
  523MPD2     C 7816   2.531   0.719  10.487  0.5094  0.3094  0.3491
  523MPD2    C1 7817   2.504   0.662  10.363  0.7450  0.1244 -0.2335
  523MPD2    C2 7818   2.422   0.735  10.271 -0.4708  0.0815 -0.4043
  523MPD2    C3 7819   2.370   0.862  10.305 -0.2503  0.1443  0.2088
  523MPD2    C4 7820   2.404   0.913  10.429  0.0674 -0.8530 -0.4431
  523MPD2    C5 7821   2.477   0.843  10.522  0.6559 -0.4741 -0.1752
  523MPD2     H 7822   2.410   0.685  10.176 -1.1646 -1.7877  0.6587
  523MPD2    H1 7823   2.360   1.007  10.458  1.6776  0.4485 -2.2096
  523MPD2    H2 7824   2.589   0.676  10.567 -1.5916 -0.6628  1.3438
  523MPD2    H3 7825   2.493   0.879  10.624 -0.2630  0.8475 -0.4971
  523MPD2     N 7826   2.283   0.932  10.219 -0.2316  0.5293  0.0895
  523MPD2    H5 7827   2.224   1.001  10.263 -1.5813 -0.2692 -0.4752
  523MPD2    N1 7828   2.565   0.538  10.330 -0.4900  0.0821 -0.5746
  523MPD2    H7 7829   2.644   0.512  10.387  0.9432  0.9259 -2.1638
  524TMC3    C1 7830   2.215   1.002  10.002 -0.6417  1.0020 -0.1042
  524TMC3    C2 7831   2.263   1.034   9.881  0.0583 -0.5489  0.1844
  524TMC3    C3 7832   2.176   1.084   9.791 -0.8553 -0.6172 -0.7660
  524TMC3    C4 7833   2.083   1.020  10.036 -0.2792 -0.5110  0.0298
  524TMC3    C5 7834   2.006   1.069   9.941  0.5239 -0.6002 -0.0444
  524TMC3    C6 7835   2.042   1.085   9.810 -0.2757 -0.1148 -0.1355
  524TMC3     C 7836   2.310   0.930  10.083  0.6042 -0.3281 -0.9368
  524TMC3     O 7837   2.412   0.888  10.022 -0.0259 -0.4284  0.4610
  524TMC3     H 7838   2.368   1.057   9.868  0.2762 -1.3925  0.4766
  524TMC3    H1 7839   2.043   1.011  10.136  1.3063 -1.0456  0.6049
  524TMC3    H2 7840   1.973   1.104   9.729 -1.3204 -1.3995  0.4359
  524TMC3    C7 7841   1.865   1.082   9.968 -0.1647  0.4438  0.2369
  524TMC3    C8 7842   2.239   1.109   9.665 -0.1795  0.3906  0.0236
  524TMC3    O1 7843   1.814   1.021  10.063 -0.3113 -0.2117  0.1100
  524TMC3    O2 7844   2.343   1.056   9.637  0.1099  0.6762 -0.4477
  525MPD2     C 7845   0.311   2.325  14.679 -0.3147  0.3891  0.2414
  525MPD2    C1 7846   0.404   2.366  14.764  0.1073 -0.7386 -0.4836
  525MPD2    C2 7847   0.477   2.474  14.735  0.1526 -0.0567  0.2908
  525MPD2    C3 7848   0.447   2.561  14.631 -0.4121  0.5601  0.6399
  525MPD2    C4 7849   0.344   2.521  14.558 -0.2348  0.8600 -0.1211
  525MPD2    C5 7850   0.278   2.405  14.576 -0.2069  0.1406  0.1204
  525MPD2     H 7851   0.560   2.506  14.797 -0.2882  0.8894  0.3905
  525MPD2    H1 7852   0.323   2.567  14.462 -0.1819 -1.5558 -1.3072
  525MPD2    H2 7853   0.253   2.233  14.687  0.6629 -0.1456  1.1193
  525MPD2    H3 7854   0.210   2.373  14.498  0.2213  1.3609 -0.7546
  525MPD2     N 7855   0.502   2.692  14.610  0.3020 -0.4786 -0.1501
  525MPD2    H5 7856   0.457   2.748  14.538  2.1094  0.8026 -0.2798
  525MPD2    N1 7857   0.423   2.296  14.884  0.2144 -0.3706  0.5149
  525MPD2    H7 7858   0.497   2.316  14.950 -0.7668 -2.4761  2.2629
  526TMC3    C1 7859   0.400   2.125  15.049  0.2117  0.1673 -0.3298
  526TMC3    C2 7860   0.307   2.057  15.124 -0.2451  0.1864  0.1731
  526TMC3    C3 7861   0.354   1.968  15.215 -0.6354 -0.3866 -0.5216
  526TMC3    C4 7862   0.534   2.104  15.061  0.2413  0.7053 -0.4538
  526TMC3    C5 7863   0.570   2.013  15.157 -0.4830  0.1110 -0.2628
  526TMC3    C6 7864   0.489   1.946  15.236 -0.5416  0.4714 -0.3750
  526TMC3     C 7865   0.345   2.196  14.931 -0.5191  0.4304  0.2048
  526TMC3     O 7866   0.237   2.152  14.900  0.1249  0.4310  0.5079
  526TMC3     H 7867   0.201   2.062  15.102  0.1042  1.2217 -1.2443
  526TMC3    H1 7868   0.608   2.160  15.005  0.6375 -1.0936 -1.7374
  526TMC3    H2 7869   0.510   1.868  15.308 -0.4641  2.9482  2.3374
  526TMC3    C7 7870   0.710   1.978  15.166  0.9066  0.0554  0.1037
  526TMC3    C8 7871   0.300   1.988  15.349 -0.3320  0.2406 -0.5362
  526TMC3    O1 7872   0.758   1.941  15.273  0.0681  0.3041 -0.0853
  526TMC3    O2 7873   0.327   1.907  15.432 -0.5739 -0.2766  0.3764
  527MPD2     C 7874   4.108   0.952   1.339  0.4243  0.7172 -0.7481
  527MPD2    C1 7875   3.998   0.939   1.257 -0.8083  0.0412  0.4895
  527MPD2    C2 7876   3.997   0.841   1.159  0.2021 -0.3303 -0.7519
  527MPD2    C3 7877   4.102   0.749   1.144 -0.2411 -0.4878  0.5863
  527MPD2    C4 7878   4.204   0.760   1.233 -0.1448  1.0180 -0.0434
  527MPD2    C5 7879   4.210   0.865   1.318  0.2667 -0.2355 -0.2101
  527MPD2     H 7880   3.912   0.825   1.094 -1.9331  1.6481  1.5615
  527MPD2    H1 7881   4.292   0.698   1.220 -1.4650 -0.8495 -0.1899
  527MPD2    H2 7882   4.129   1.034   1.407  1.9545  1.1268 -1.7089
  527MPD2    H3 7883   4.301   0.877   1.377  0.3521 -0.4623 -0.2940
  527MPD2     N 7884   4.090   0.650   1.043  0.4253 -0.3009 -0.3507
  527MPD2    H5 7885   3.996   0.642   1.005  0.2546 -0.9087  0.1862
  527MPD2    N1 7886   3.882   1.022   1.266  0.0571 -0.1451 -0.3230
  527MPD2    H7 7887   3.810   1.009   1.195  0.0213 -0.3606 -0.2471
  528TMC3    C1 7888   3.711   1.147   1.367  0.3063  0.0851 -0.7556
  528TMC3    C2 7889   3.657   1.164   1.246 -1.1594 -0.9619 -0.2524
  528TMC3    C3 7890   3.520   1.190   1.241  0.1002 -0.4103  0.3913
  528TMC3    C4 7891   3.646   1.152   1.481 -0.0299 -0.1738 -0.2980
  528TMC3    C5 7892   3.508   1.183   1.473 -0.0535  0.4674 -0.1797
  528TMC3    C6 7893   3.448   1.209   1.351  0.2068  0.2140  0.6016
  528TMC3     C 7894   3.844   1.090   1.376  0.4787  0.1878  0.2900
  528TMC3     O 7895   3.903   1.094   1.480  0.1293 -0.6518  0.4975
  528TMC3     H 7896   3.710   1.154   1.152 -2.2636 -0.6749 -0.9056
  528TMC3    H1 7897   3.692   1.145   1.579 -2.0474  0.6377  0.7233
  528TMC3    H2 7898   3.340   1.199   1.356  0.0827  0.0326 -2.2715
  528TMC3    C7 7899   3.410   1.169   1.583  0.6390 -0.0235  0.7058
  528TMC3    C8 7900   3.449   1.170   1.119 -0.5397 -0.0697 -0.2710
  528TMC3    O1 7901   3.303   1.225   1.577 -0.1057  0.7462 -0.7018
  528TMC3    O2 7902   3.510   1.124   1.023 -0.5881 -0.2997 -0.2416
  529MPD2     C 7903   1.535   3.498   0.880 -0.1692 -0.3348 -0.4823
  529MPD2    C1 7904   1.429   3.413   0.860 -0.4177 -0.2621  0.3644
  529MPD2    C2 7905   1.365   3.418   0.740  0.1671 -0.0629  0.1042
  529MPD2    C3 7906   1.405   3.503   0.641 -0.1383  0.3831 -0.2439
  529MPD2    C4 7907   1.500   3.601   0.669  0.7611  0.3812  0.4469
  529MPD2    C5 7908   1.569   3.598   0.790 -0.2709  0.0764  0.3489
  529MPD2     H 7909   1.284   3.350   0.716  0.6167 -0.9036  0.9718
  529MPD2    H1 7910   1.535   3.672   0.595  1.7113  0.7654  1.2627
  529MPD2    H2 7911   1.577   3.499   0.980  3.8811 -1.2839 -2.2149
  529MPD2    H3 7912   1.647   3.669   0.815 -0.2011 -0.0565  0.5022
  529MPD2     N 7913   1.349   3.498   0.514 -0.0325 -0.6619 -0.3590
  529MPD2    H5 7914   1.402   3.552   0.447 -0.6864  1.6697  0.9989
  529MPD2    N1 7915   1.384   3.321   0.954  0.1272  0.2913 -0.4039
  529MPD2    H7 7916   1.292   3.283   0.934  0.2005 -0.4886  0.7376
  530TMC3    C1 7917   1.357   3.205   1.150  0.4857 -0.6855  0.0345
  530TMC3    C2 7918   1.360   3.229   1.282 -0.6211 -0.0269 -0.3302
  530TMC3    C3 7919   1.272   3.161   1.363  0.5197  0.1205  0.2332
  530TMC3    C4 7920   1.253   3.133   1.093  0.1907 -0.7110  0.6769
  530TMC3    C5 7921   1.161   3.074   1.180  0.6310  0.0757  0.3989
  530TMC3    C6 7922   1.169   3.082   1.315 -0.0682  0.2988 -0.2329
  530TMC3     C 7923   1.444   3.285   1.069 -0.6854  0.7925  0.1469
  530TMC3     O 7924   1.537   3.340   1.126  0.0351  0.0657 -0.3634
  530TMC3     H 7925   1.439   3.287   1.330 -0.5660 -0.5184  0.1761
  530TMC3    H1 7926   1.264   3.104   0.989 -1.2587 -1.4484  0.7297
  530TMC3    H2 7927   1.114   3.021   1.386  0.9919  0.7245  0.9518
  530TMC3    C7 7928   1.088   2.960   1.121 -1.2234  0.6637  0.1959
  530TMC3    C8 7929   1.307   3.165   1.495  0.2634  0.0393 -0.0470
  530TMC3    O1 7930   1.118   2.933   1.007 -0.1887  0.0686  0.1338
  530TMC3    O2 7931   1.224   3.180   1.586 -0.1127 -0.0691  0.3661
  531MPD2     C 7932   0.110   1.361  12.290 -0.4133  0.4586  0.2207
  531MPD2    C1 7933   0.126   1.355  12.433 -0.2086  1.0782 -0.1366
  531MPD2    C2 7934   0.038   1.284  12.514 -0.1245 -0.2672 -0.0356
  531MPD2    C3 7935   4.670   1.207  12.455  0.4444  0.1869  0.0907
  531MPD2    C4 7936   4.651   1.219  12.321  1.2149 -0.0594 -0.0284
  531MPD2    C5 7937   4.729   1.298  12.239 -0.3114  0.2137 -1.2986
  531MPD2     H 7938   0.041   1.281  12.622 -3.0905 -1.5446  0.0146
  531MPD2    H1 7939   4.563   1.175  12.274  0.7841  0.4514  0.2975
  531MPD2    H2 7940   0.177   1.418  12.227 -0.6948  0.3894 -0.1431
  531MPD2    H3 7941   4.712   1.305  12.133  0.4682 -2.1229 -1.5913
  531MPD2     N 7942   4.572   1.144  12.527  0.7784  0.1132  0.0838
  531MPD2    H5 7943   4.485   1.130  12.477 -0.0319 -0.9551  1.7885
  531MPD2    N1 7944   0.214   1.451  12.483  1.1184  0.0616  0.0644
  531MPD2    H7 7945   0.253   1.515  12.414 -1.3064 -0.3974 -1.7214
  532TMC3    C1 7946   0.308   1.576  12.663  0.0631  0.1908  0.0754
  532TMC3    C2 7947   0.246   1.686  12.614 -0.4648 -0.3274 -0.8856
  532TMC3    C3 7948   0.249   1.800  12.693  0.5386 -0.7437 -0.0344
  532TMC3    C4 7949   0.366   1.578  12.784 -0.0749  0.1946  0.0638
  532TMC3    C5 7950   0.374   1.692  12.854 -0.1402 -0.5549 -0.8003
  532TMC3    C6 7951   0.326   1.808  12.805 -0.1131  0.0387  0.0788
  532TMC3     C 7952   0.254   1.450  12.618 -0.4711  0.0459 -0.2813
  532TMC3     O 7953   0.276   1.359  12.697 -0.0131 -0.1738  0.2420
  532TMC3     H 7954   0.196   1.688  12.518 -3.2144  2.0701  0.6200
  532TMC3    H1 7955   0.408   1.482  12.812 -2.3355 -0.5764  0.8221
  532TMC3    H2 7956   0.337   1.891  12.874 -2.5111  1.6217 -1.4039
  532TMC3    C7 7957   0.440   1.698  12.984  0.4746  0.4133 -0.9301
  532TMC3    C8 7958   0.126   1.866  12.718 -0.2479 -0.2145  0.0784
  532TMC3    O1 7959   0.457   1.807  13.037 -0.2003  0.2355 -0.1063
  532TMC3    O2 7960   0.115   1.979  12.763  0.4014  0.0553 -0.2002
  533TMC3    C1 7961   0.613   2.904  14.665 -0.7126 -0.2588 -0.4765
  533TMC3    C2 7962   0.740   2.958  14.650 -0.1690  0.5584 -0.1309
  533TMC3    C3 7963   0.760   3.087  14.694 -0.4161 -0.4600  0.0474
  533TMC3    C4 7964   0.511   2.984  14.701 -0.5411 -0.4254 -0.0746
  533TMC3    C5 7965   0.536   3.109  14.756 -0.4280  0.1805 -1.1406
  533TMC3    C6 7966   0.659   3.165  14.737  0.0784 -0.1811 -0.1721
  533TMC3     C 7967   0.595   2.757  14.685 -0.5825  0.5272  0.2039
  533TMC3     O 7968   0.687   2.716  14.753 -0.1471 -0.0212 -0.1486
  533TMC3     H 7969   0.824   2.907  14.606 -0.9856  0.9131 -2.1046
  533TMC3    H1 7970   0.412   2.940  14.708 -0.0678 -1.8257 -2.2702
  533TMC3    H2 7971   0.669   3.266  14.774  1.8439  0.2927 -1.9837
  533TMC3    C7 7972   0.492   3.094  14.893 -0.7442  0.4273  0.1013
  533TMC3    C8 7973   0.888   3.142  14.663 -0.5971 -0.0967  0.3612
  533TMC3    O1 7974   0.424   3.001  14.918 -0.1414 -0.2768  0.2420
  533TMC3    O2 7975   0.973   3.058  14.652 -0.0830 -0.0254 -0.1677
  534MPD2     C 7976   3.816   3.992   1.668  0.0824 -0.2945 -0.4673
  534MPD2    C1 7977   3.815   4.121   1.619 -0.2783  0.0034  0.5448
  534MPD2    C2 7978   3.704   4.165   1.551 -0.0033 -0.4657  0.7651
  534MPD2    C3 7979   3.586   4.085   1.550 -0.2486  0.1364  0.3387
  534MPD2    C4 7980   3.584   3.959   1.610 -0.5464 -0.2906  0.1670
  534MPD2    C5 7981   3.701   3.915   1.665  0.1332  0.2250  0.4103
  534MPD2     H 7982   3.693   4.269   1.525 -0.0314 -0.9978 -1.3612
  534MPD2    H1 7983   3.493   3.900   1.615  0.1442 -1.1570  2.5069
  534MPD2    H2 7984   3.904   3.941   1.707 -0.6197 -0.1062  1.3609
  534MPD2    H3 7985   3.704   3.811   1.695  1.8372  0.6916  1.8446
  534MPD2     N 7986   3.463   4.117   1.488 -0.1353 -0.1461  0.0501
  534MPD2    H5 7987   3.393   4.044   1.488 -0.7112  0.4076 -0.3332
  534MPD2    N1 7988   3.923   4.212   1.620 -0.1803 -0.3383 -0.0071
  534MPD2    H7 7989   3.915   4.300   1.570 -1.4550 -0.2658  0.3057
  535TMC3    C1 7990   3.315   4.215   1.336 -0.1327  0.3587 -0.2314
  535TMC3    C2 7991   3.222   4.140   1.399  0.1313  0.5637 -1.1288
  535TMC3    C3 7992   3.144   4.064   1.317  0.7208 -0.1251 -0.0834
  535TMC3    C4 7993   3.327   4.230   1.205  0.3962 -0.1557  1.0627
  535TMC3    C5 7994   3.245   4.154   1.127  0.7932  0.3695  0.4184
  535TMC3    C6 7995   3.152   4.077   1.183 -1.2882 -0.3211  0.0736
  535TMC3     C 7996   3.437   4.224   1.411 -0.4514 -1.0770  0.2275
  535TMC3     O 7997   3.510   4.319   1.391 -0.1882 -0.1597  0.5333
  535TMC3     H 7998   3.207   4.134   1.506 -2.0331 -0.5787 -1.4849
  535TMC3    H1 7999   3.405   4.293   1.163 -2.2824  1.7523 -1.0638
  535TMC3    H2 8000   3.086   4.033   1.110 -0.7717 -0.1631 -0.4885
  535TMC3    C7 8001   3.280   4.118   0.991  0.2958 -0.0797  0.7630
  535TMC3    C8 8002   3.037   3.980   1.374 -0.6365 -0.4972 -0.1249
  535TMC3    O1 8003   3.260   4.001   0.959  0.4414 -0.0430 -0.0257
  535TMC3    O2 8004   2.989   4.002   1.481  0.1222  0.0448 -0.1194
  536MPD2     C 8005   1.099   2.218  16.763 -0.0140 -0.3795 -0.1910
  536MPD2    C1 8006   1.222   2.146  16.763 -0.9112  0.2789  0.3842
  536MPD2    C2 8007   1.253   2.083  16.645  0.4764  0.1399 -0.3547
  536MPD2    C3 8008   1.174   2.082  16.535  0.2984  0.3752 -0.3864
  536MPD2    C4 8009   1.064   2.160  16.543  0.1881  0.2365 -0.7560
  536MPD2    C5 8010   1.026   2.229  16.655 -0.3325 -0.6865 -0.6194
  536MPD2     H 8011   1.341   2.021  16.651  0.1210 -0.2428  0.8547
  536MPD2    H1 8012   1.006   2.172  16.452 -0.6747  0.0339 -0.2317
  536MPD2    H2 8013   1.066   2.268  16.853  0.1372  0.6041 -0.6828
  536MPD2    H3 8014   0.946   2.301  16.649 -0.9485 -1.3271 -0.0972
  536MPD2     N 8015   1.199   2.019  16.411  1.0759  0.6313  0.2548
  536MPD2    H5 8016   1.127   2.043  16.344  1.3277  0.6211 -0.0163
  536MPD2    N1 8017   1.296   2.149  16.881 -0.9571  0.2863 -0.1581
  536MPD2    H7 8018   1.271   2.214  16.955 -0.7284  0.5130 -0.2761
  537TMC3    C1 8019   1.469   2.094  17.025 -0.0747 -0.0482  0.3186
  537TMC3    C2 8020   1.608   2.098  17.013 -0.0445  0.7378  0.4796
  537TMC3    C3 8021   1.680   2.070  17.126  0.0910  0.1312  0.1207
  537TMC3    C4 8022   1.405   2.045  17.135  0.4958 -0.8868  0.7403
  537TMC3    C5 8023   1.487   2.019  17.250  0.0883 -0.5972 -0.7556
  537TMC3    C6 8024   1.622   2.030  17.243 -0.5541  0.1839 -0.0023
  537TMC3     C 8025   1.403   2.067  16.896  0.3018  0.2997 -0.2598
  537TMC3     O 8026   1.455   1.984  16.822  0.3464 -0.3198 -0.1044
  537TMC3     H 8027   1.654   2.133  16.922  0.6890  1.9338  1.3159
  537TMC3    H1 8028   1.297   2.043  17.142  0.3304  0.1704 -1.5185
  537TMC3    H2 8029   1.679   2.015  17.334 -2.1269 -0.9156  0.7918
  537TMC3    C7 8030   1.410   2.009  17.380 -0.6455 -0.2221  0.1159
  537TMC3    C8 8031   1.819   2.114  17.139 -0.0169  0.2457  0.5380
  537TMC3    O1 8032   1.305   2.068  17.384 -0.1188  0.6793 -0.6247
  537TMC3    O2 8033   1.862   2.112  17.254  0.2097 -0.1557  0.5276
  538TMC3    C1 8034   3.152   0.500  11.049 -0.6446 -0.2845 -0.1206
  538TMC3    C2 8035   3.235   0.452  10.947  0.3636  0.1024  0.2778
  538TMC3    C3 8036   3.189   0.464  10.816  0.6938  0.5677  0.5843
  538TMC3    C4 8037   3.032   0.559  11.023 -0.1770 -0.1200 -0.3385
  538TMC3    C5 8038   2.991   0.565  10.890 -0.3647 -0.2594  0.0238
  538TMC3    C6 8039   3.067   0.514  10.786 -0.8097  0.9331 -0.0726
  538TMC3     C 8040   3.191   0.492  11.187 -1.3241  0.4720 -0.4355
  538TMC3     O 8041   3.107   0.525  11.268  0.0838 -0.0274 -0.0171
  538TMC3     H 8042   3.326   0.398  10.968 -0.6893 -1.0015  1.9574
  538TMC3    H1 8043   2.973   0.603  11.102  0.1424  0.0687 -0.2059
  538TMC3    H2 8044   3.016   0.520  10.690  1.0267 -0.4276 -1.1465
  538TMC3    C7 8045   2.873   0.647  10.864 -0.3639  0.3393  0.0664
  538TMC3    C8 8046   3.253   0.392  10.703  0.6347 -0.4217  0.2459
  538TMC3    O1 8047   2.807   0.629  10.767 -0.8096 -0.3308  0.1101
  538TMC3    O2 8048   3.348   0.329  10.745 -0.5859 -0.2704  0.0593
  539MPD2     C 8049   2.082   4.151  11.335 -0.3158 -1.6522  0.0726
  539MPD2    C1 8050   2.193   4.178  11.408 -0.4396 -0.9372  0.1188
  539MPD2    C2 8051   2.206   4.309  11.462  0.5604  0.0564  0.0180
  539MPD2    C3 8052   2.113   4.411  11.437 -0.4564 -0.5929  0.1246
  539MPD2    C4 8053   2.012   4.376  11.353  0.6951  0.9712 -0.1131
  539MPD2    C5 8054   1.999   4.251  11.302  0.4936  0.3874  0.5807
  539MPD2     H 8055   2.296   4.327  11.519  0.2133  2.1173 -0.0606
  539MPD2    H1 8056   1.940   4.454  11.333 -1.9179 -2.0086 -2.2604
  539MPD2    H2 8057   2.051   4.053  11.299  1.0136 -1.7290 -0.8674
  539MPD2    H3 8058   1.913   4.233  11.239 -0.5975 -1.2083  2.5266
  539MPD2     N 8059   2.124   4.543  11.486  0.4136 -0.4317 -0.0733
  539MPD2    H5 8060   2.078   4.610  11.425 -0.5880  0.3766  1.5892
  539MPD2    N1 8061   2.300   4.084  11.432  0.1004 -0.2473 -0.5274
  539MPD2    H7 8062   2.373   4.110  11.498 -0.6278 -2.0795  1.0168
  540TMC3    C1 8063   2.218   4.730  11.600 -0.5609  0.0659  0.5292
  540TMC3    C2 8064   2.183   0.079  11.493  0.3215  0.7724 -0.7294
  540TMC3    C3 8065   2.146   0.205  11.517 -0.0869  0.1778  0.3642
  540TMC3    C4 8066   2.202   0.045  11.723  0.4864  0.4868 -0.6247
  540TMC3    C5 8067   2.183   0.180  11.739 -0.0340  0.8480 -0.1186
  540TMC3    C6 8068   2.151   0.269  11.640  0.0519 -0.5091  0.3081
  540TMC3     C 8069   2.210   4.585  11.588  0.3266  0.1010  0.2650
  540TMC3     O 8070   2.281   4.518  11.662  0.7055  0.4692  0.2512
  540TMC3     H 8071   2.212   0.043  11.395 -0.5300 -0.6583 -0.4581
  540TMC3    H1 8072   2.231   4.714  11.807 -1.0951 -2.0870 -2.0292
  540TMC3    H2 8073   2.119   0.372  11.647  0.0717 -0.4920  0.1386
  540TMC3    C7 8074   2.167   0.222  11.876  0.2658 -0.4350 -0.4725
  540TMC3    C8 8075   2.164   0.291  11.407 -0.1931 -0.9091 -0.1582
  540TMC3    O1 8076   2.143   0.134  11.953 -0.1335  0.5237  0.2041
  540TMC3    O2 8077   2.196   0.405  11.433 -0.4577  0.3514 -0.1026
  541MPD2     C 8078   1.293   1.423  13.482  0.5756 -0.4056 -0.0531
  541MPD2    C1 8079   1.240   1.318  13.414  0.1960 -0.0457 -0.4220
  541MPD2    C2 8080   1.251   1.318  13.274  0.2283  0.0252 -0.0015
  541MPD2    C3 8081   1.321   1.421  13.206 -0.6494 -0.3788  0.3415
  541MPD2    C4 8082   1.381   1.521  13.282  0.5320 -0.5339  0.4115
  541MPD2    C5 8083   1.369   1.520  13.421 -0.1952  0.1994 -0.2709
  541MPD2     H 8084   1.181   1.254  13.220 -0.0444 -0.1018  0.5045
  541MPD2    H1 8085   1.444   1.597  13.238  0.7443 -0.5832  0.6250
  541MPD2    H2 8086   1.293   1.429  13.590 -0.3720  0.4267 -0.0992
  541MPD2    H3 8087   1.405   1.603  13.481 -0.9588  0.9563 -0.8413
  541MPD2     N 8088   1.327   1.419  13.062 -0.4107 -0.1320  0.3149
  541MPD2    H5 8089   1.373   1.499  13.019  0.5543 -0.1319  1.3462
  541MPD2    N1 8090   1.164   1.212  13.475  0.2398  0.2093 -0.3846
  541MPD2    H7 8091   1.128   1.143  13.410  0.4342  0.5866 -0.8937
  542TMC3    C1 8092   1.227   1.353  12.848 -0.0043  0.6009 -0.1420
  542TMC3    C2 8093   1.199   1.261  12.754 -0.6396 -0.1719 -0.7335
  542TMC3    C3 8094   1.126   1.293  12.641 -0.4150  0.3478 -0.5089
  542TMC3    C4 8095   1.188   1.483  12.833  0.0241  0.7613  0.2391
  542TMC3    C5 8096   1.117   1.512  12.718 -0.8470 -0.0781  0.6889
  542TMC3    C6 8097   1.081   1.421  12.621 -0.2727 -0.3046  0.3906
  542TMC3     C 8098   1.272   1.316  12.982 -0.4556  0.4692  0.2590
  542TMC3     O 8099   1.265   1.197  13.011 -0.1030 -0.1330  0.5816
  542TMC3     H 8100   1.245   1.163  12.764 -0.6708 -0.0020  1.0682
  542TMC3    H1 8101   1.207   1.562  12.904  0.8470  1.2755 -0.5446
  542TMC3    H2 8102   1.049   1.440  12.519 -0.4701  1.0764  0.7164
  542TMC3    C7 8103   1.082   1.658  12.702  0.1703  0.6923  0.6238
  542TMC3    C8 8104   1.148   1.225  12.520  0.2037  0.3519 -0.2179
  542TMC3    O1 8105   1.086   1.730  12.802 -0.2243 -0.2571  0.0809
  542TMC3    O2 8106   1.063   1.234  12.433 -0.8402  0.4446  0.0836
  543TMC3    C1 8107   0.596   2.394  17.578 -0.5278  0.0645 -0.3373
  543TMC3    C2 8108   0.616   2.259  17.590 -0.0459 -0.2550 -0.3895
  543TMC3    C3 8109   0.528   2.169  17.655 -0.0258 -0.3298  0.3661
  543TMC3    C4 8110   0.477   2.442  17.620  0.1807 -0.2583 -0.7984
  543TMC3    C5 8111   0.396   2.359  17.702  0.2721  0.0816  0.5665
  543TMC3    C6 8112   0.420   2.221  17.719  0.0998  0.0057  0.4503
  543TMC3     C 8113   0.647   2.460  17.451 -0.6439  0.0178  1.0897
  543TMC3     O 8114   0.731   2.394  17.396 -0.2589  0.0865 -0.1323
  543TMC3     H 8115   0.702   2.208  17.548  0.4452 -0.9086  1.4014
  543TMC3    H1 8116   0.466   2.550  17.620  1.1787 -0.1469  0.9309
  543TMC3    H2 8117   0.361   2.169   0.066  0.0170  2.0152  1.7471
  543TMC3    C7 8118   0.336   2.430   0.080  1.0703  0.2031 -0.2602
  543TMC3    C8 8119   0.591   2.050  17.710  0.2368  0.1759  0.1780
  543TMC3    O1 8120   0.356   2.390   0.195  0.3162 -0.2657 -0.5628
  543TMC3    O2 8121   0.699   2.020  17.665  0.2736 -0.1920  0.1848
  544MPD2     C 8122   0.650   1.705   0.360 -0.5099 -0.0514 -0.5966
  544MPD2    C1 8123   0.741   1.752   0.268  0.4334 -0.3269 -0.2262
  544MPD2    C2 8124   0.697   1.849   0.179 -0.2306 -0.0786 -0.2430
  544MPD2    C3 8125   0.565   1.886   0.169 -0.9031  0.0447 -0.2950
  544MPD2    C4 8126   0.477   1.844   0.275 -0.4541  0.5625  0.1098
  544MPD2    C5 8127   0.520   1.755   0.364  0.4803  0.5270 -0.3115
  544MPD2     H 8128   0.766   1.892   0.108 -1.7292  0.9619 -1.0616
  544MPD2    H1 8129   0.372   1.872   0.275 -0.1050  1.8251  2.9509
  544MPD2    H2 8130   0.681   1.619   0.418  1.6527  0.8498 -0.4222
  544MPD2    H3 8131   0.454   1.715   0.440  1.4208  0.3513  0.4134
  544MPD2     N 8132   0.521   1.989   0.081  0.1627  0.0620  0.2009
  544MPD2    H5 8133   0.423   2.016   0.083  0.1746  0.0899  0.3557
  544MPD2    N1 8134   0.871   1.702   0.273  0.6127  0.5236  0.3543
  544MPD2    H7 8135   0.900   1.640   0.348 -1.6732  2.2500  2.6507
  545TMC3    C1 8136   1.107   1.707   0.240  0.3268 -0.4502 -0.4092
  545TMC3    C2 8137   1.180   1.643   0.148 -0.6634 -0.5806  0.7254
  545TMC3    C3 8138   1.284   1.565   0.195  0.4529  0.2390 -0.7974
  545TMC3    C4 8139   1.127   1.694   0.371  0.0316  0.2248  0.3703
  545TMC3    C5 8140   1.223   1.604   0.410  0.3604  0.1472 -0.4500
  545TMC3    C6 8141   1.298   1.537   0.325  1.0584  0.3517 -0.1064
  545TMC3     C 8142   0.974   1.757   0.196 -0.1946 -0.5471 -0.2554
  545TMC3     O 8143   0.972   1.796   0.082  1.4065 -0.4996 -0.0457
  545TMC3     H 8144   1.163   1.643   0.041 -0.1921  0.4378  0.6527
  545TMC3    H1 8145   1.063   1.740   0.446  1.2355 -0.0460  1.5749
  545TMC3    H2 8146   1.370   1.461   0.354  0.0053 -0.0276  1.5094
  545TMC3    C7 8147   1.239   1.588   0.548 -0.2654  0.3415 -0.0182
  545TMC3    C8 8148   1.363   1.488   0.108 -0.1738  0.3238  0.3076
  545TMC3    O1 8149   1.140   1.596   0.623 -0.8591 -0.2507 -0.4021
  545TMC3    O2 8150   1.422   1.394   0.160 -0.1448  0.0276  0.0983
  546MPD2     C 8151   2.087   2.778  17.690 -0.1492  0.1362  0.4285
  546MPD2    C1 8152   2.083   2.784  17.556  0.1470 -0.0100  0.0405
  546MPD2    C2 8153   2.116   2.897  17.485  0.0298 -0.1634  0.7171
  546MPD2    C3 8154   2.157   3.007  17.560  0.0800 -0.1110 -0.6200
  546MPD2    C4 8155   2.172   3.000  17.696  0.4948 -0.1292  0.2645
  546MPD2    C5 8156   2.134   2.887   0.029 -0.1118  0.1509 -0.2182
  546MPD2     H 8157   2.116   2.906  17.377  3.1001 -0.5373  0.6784
  546MPD2    H1 8158   2.228   3.072   0.026  0.5681  0.4782 -0.5404
  546MPD2    H2 8159   2.056   2.689   0.014  1.5674 -0.7147  0.0087
  546MPD2    H3 8160   2.157   2.873   0.135 -0.4439  0.8167 -0.0588
  546MPD2     N 8161   2.197   3.133  17.509  0.4619 -0.3287  0.1425
  546MPD2    H5 8162   2.234   3.192  17.582 -2.3401  2.8221 -0.9752
  546MPD2    N1 8163   2.014   2.673  17.499 -0.1311 -0.0309  0.1083
  546MPD2    H7 8164   1.977   2.608  17.568  0.7216 -1.3939 -0.7085
  547TMC3    C1 8165   1.905   2.533  17.339  0.2803  0.0319  0.2429
  547TMC3    C2 8166   1.816   2.551  17.232  0.3137  0.0048  0.0183
  547TMC3    C3 8167   1.702   2.470  17.233  0.9564 -0.0526 -0.1820
  547TMC3    C4 8168   1.887   2.434  17.436 -0.0539  0.0653  0.0544
  547TMC3    C5 8169   1.779   2.351  17.426 -0.0130 -0.1341 -0.0817
  547TMC3    C6 8170   1.684   2.371  17.329  0.4307  0.6664 -0.7392
  547TMC3     C 8171   1.979   2.652  17.365  0.1297  0.2554 -0.2022
  547TMC3     O 8172   1.998   2.729  17.270  0.4904  0.1368  0.3096
  547TMC3     H 8173   1.825   2.631  17.160  1.3403 -0.9296 -0.8854
  547TMC3    H1 8174   1.952   2.427  17.522  1.4115 -0.0405 -1.0647
  547TMC3    H2 8175   1.607   2.295  17.318 -0.3578  1.6072 -1.6420
  547TMC3    C7 8176   1.728   2.280  17.539  0.0788 -0.3204  0.0354
  547TMC3    C8 8177   1.624   2.454  17.114 -0.1862 -0.1659  0.3351
  547TMC3    O1 8178   1.604   2.269  17.547 -0.0378  0.0108 -0.9484
  547TMC3    O2 8179   1.513   2.400  17.125 -0.0074  0.6333 -0.0583
  548MPD2     C 8180   1.746   3.384  12.607 -0.8873 -0.0049 -0.6722
  548MPD2    C1 8181   1.652   3.296  12.656  0.2945  0.6150  0.1315
  548MPD2    C2 8182   1.682   3.238  12.778  0.6026  0.3023 -0.2552
  548MPD2    C3 8183   1.798   3.263  12.840 -0.3951  0.1448  0.3209
  548MPD2    C4 8184   1.895   3.348  12.783  0.0804 -0.1579 -0.4816
  548MPD2    C5 8185   1.862   3.412  12.667  0.2357 -0.3757  0.3522
  548MPD2     H 8186   1.608   3.183  12.835  0.2275  1.6160  0.5196
  548MPD2    H1 8187   1.992   3.376  12.822  0.3846  0.8121 -1.9270
  548MPD2    H2 8188   1.723   3.425  12.510 -0.5125 -0.4629 -0.9552
  548MPD2    H3 8189   1.938   3.467  12.614 -2.0661 -0.1483 -2.7370
  548MPD2     N 8190   1.822   3.202  12.967 -0.2224  0.2812  0.5993
  548MPD2    H5 8191   1.757   3.132  13.000  1.0128 -1.1472  0.0242
  548MPD2    N1 8192   1.525   3.280  12.585 -0.2706 -0.1485  0.5560
  548MPD2    H7 8193   1.523   3.327  12.494  0.9275  2.6921  1.9998
  549TMC3    C1 8194   1.322   3.184  12.509  0.5423 -0.3597  0.3752
  549TMC3    C2 8195   1.284   3.299  12.438 -0.4128 -0.3744 -0.1499
  549TMC3    C3 8196   1.184   3.283  12.344 -0.0723  0.1985  0.4695
  549TMC3    C4 8197   1.272   3.060  12.475 -0.2537 -0.0824 -0.3138
  549TMC3    C5 8198   1.161   3.052  12.386  0.0769  0.2691  0.2665
  549TMC3    C6 8199   1.111   3.167  12.337 -0.1101 -0.1079  0.5827
  549TMC3     C 8200   1.418   3.198  12.620  0.0635  0.3876 -0.3253
  549TMC3     O 8201   1.416   3.129  12.722 -0.3300  0.0677  0.1542
  549TMC3     H 8202   1.321   3.397  12.466 -1.0488 -0.7008  1.8496
  549TMC3    H1 8203   1.302   2.977  12.537  1.3868  0.0003 -1.0015
  549TMC3    H2 8204   1.029   3.167  12.267  0.8169  5.3757 -0.5641
  549TMC3    C7 8205   1.101   2.937  12.326 -0.0537 -0.3189  0.0522
  549TMC3    C8 8206   1.125   3.393  12.268 -0.1264  1.2733 -0.2212
  549TMC3    O1 8207   1.001   2.946  12.257  0.7915 -0.2729 -0.0461
  549TMC3    O2 8208   1.012   3.382  12.218  0.0623  0.2030 -0.0337
  550TMC3    C1 8209   0.049   0.652  11.496 -0.0042  0.1145 -0.1147
  550TMC3    C2 8210   0.115   0.730  11.582 -0.2047 -0.7970 -0.2910
  550TMC3    C3 8211   0.061   0.765  11.704 -0.2437  0.3319  0.2722
  550TMC3    C4 8212   4.652   0.615  11.525  0.0416 -0.2180 -1.3651
  550TMC3    C5 8213   4.594   0.655  11.645  0.4461  0.2675  0.1174
  550TMC3    C6 8214   4.668   0.724  11.741  0.0141  0.3517  0.0597
  550TMC3     C 8215   0.091   0.669  11.358  0.1375  0.1115  0.4256
  550TMC3     O 8216   0.204   0.700  11.326  0.2506  0.3805 -0.2830
  550TMC3     H 8217   0.213   0.764  11.551 -0.6114  0.4043 -0.2696
  550TMC3    H1 8218   4.608   0.543  11.458 -0.3900 -0.8257 -0.4229
  550TMC3    H2 8219   4.638   0.756  11.840  0.8325  0.6148  0.2229
  550TMC3    C7 8220   4.451   0.632  11.668 -0.3293  0.5929 -0.0907
  550TMC3    C8 8221   0.104   0.890  11.758  0.0721  0.2041  0.3161
  550TMC3    O1 8222   4.412   0.588  11.777 -0.1472 -0.0856 -0.7443
  550TMC3    O2 8223   0.021   0.954  11.818 -0.1005  0.2054  0.4540
  551TMC3    C1 8224   3.084   3.784  13.742 -0.4890 -0.2052 -0.0050
  551TMC3    C2 8225   3.174   3.783  13.635 -0.1063  0.5811  0.2961
  551TMC3    C3 8226   3.302   3.828  13.661  0.0978  0.0309 -0.1498
  551TMC3    C4 8227   3.113   3.843  13.863  0.1350 -0.0770 -0.2652
  551TMC3    C5 8228   3.234   3.907  13.866 -0.3309 -0.6664 -0.5102
  551TMC3    C6 8229   3.333   3.890  13.778 -0.3439  0.3444  0.5385
  551TMC3     C 8230   2.944   3.753  13.710 -0.9713 -0.0556 -0.3066
  551TMC3     O 8231   2.867   3.751  13.805 -0.3985  0.4676 -0.5454
  551TMC3     H 8232   3.155   3.738  13.538 -4.1091  1.2108  0.8220
  551TMC3    H1 8233   3.039   3.857  13.941  0.4595  1.6518 -0.2635
  551TMC3    H2 8234   3.433   3.922  13.806 -0.1332  1.1487 -1.1149
  551TMC3    C7 8235   3.245   4.019  13.955 -0.4133  0.7996  0.2578
  551TMC3    C8 8236   3.390   3.839  13.550  0.1033  0.5049 -0.0194
  551TMC3    O1 8237   3.199   4.014  14.066 -0.7570 -0.5399  0.3651
  551TMC3    O2 8238   3.381   3.754  13.464  0.0362 -0.1842 -0.6695
  552MPD2     C 8239   0.059   1.075  13.965 -0.8355  0.3010  0.6148
  552MPD2    C1 8240   0.032   1.012  14.084  0.2564  0.1670 -0.4025
  552MPD2    C2 8241   0.133   0.958  14.158  0.5450 -0.2019  0.1922
  552MPD2    C3 8242   0.263   0.967  14.115  0.3172 -0.5482 -0.5081
  552MPD2    C4 8243   0.289   1.019  13.989 -0.2607  1.2634 -0.2130
  552MPD2    C5 8244   0.189   1.076  13.915 -0.6283  0.0987 -0.0588
  552MPD2     H 8245   0.115   0.901  14.248  0.3080 -3.7772 -2.1507
  552MPD2    H1 8246   0.388   1.032  13.946  0.6573 -2.2977  0.8463
  552MPD2    H2 8247   4.717   1.116  13.898 -0.4395  3.4391  2.1284
  552MPD2    H3 8248   0.215   1.131  13.825 -0.7558  1.3254  0.6528
  552MPD2     N 8249   0.372   0.922  14.193 -0.1484 -0.4198 -0.1017
  552MPD2    H5 8250   0.462   0.914  14.148 -1.2044  1.9433 -2.6000
  552MPD2    N1 8251   4.629   0.995  14.134  0.1040  0.3667  0.0171
  552MPD2    H7 8252   4.616   0.940  14.218  2.2049 -0.0047  0.0931
  553TMC3    C1 8253   4.395   1.033  14.163  0.1696  0.7573 -0.8006
  553TMC3    C2 8254   4.292   1.069  14.082 -0.5767 -0.3623  0.4378
  553TMC3    C3 8255   4.196   0.979  14.046  0.5858  0.6686  0.5422
  553TMC3    C4 8256   4.394   0.902  14.215  0.3395  0.0407  0.1714
  553TMC3    C5 8257   4.306   0.807  14.174 -0.1720  0.5954  0.0886
  553TMC3    C6 8258   4.205   0.848  14.086  0.0883 -0.8302 -0.4558
  553TMC3     C 8259   4.519   1.066  14.089 -0.8631 -0.1192 -0.1183
  553TMC3     O 8260   4.502   1.110  13.980 -0.5549  0.1351 -0.4683
  553TMC3     H 8261   4.283   1.172  14.049 -0.8818 -0.4323  0.2947
  553TMC3    H1 8262   4.465   0.873  14.292  0.4924 -1.9699 -0.7110
  553TMC3    H2 8263   4.134   0.771  14.059 -2.5003  1.6069 -0.6970
  553TMC3    C7 8264   4.374   0.687  14.122  0.2738  0.0251 -0.2006
  553TMC3    C8 8265   4.174   0.982  13.904  0.0004 -0.0426  0.9499
  553TMC3    O1 8266   4.320   0.640  14.021  0.2244  0.1943  0.3235
  553TMC3    O2 8267   4.102   0.888  13.864 -0.2980 -0.3114  0.2304
  554TMC3    C1 8268   1.366   0.016  11.619  0.1767 -0.5955  0.2368
  554TMC3    C2 8269   1.318   4.692  11.506  0.1904  0.2945  0.3277
  554TMC3    C3 8270   1.408   4.674  11.405  0.1388 -0.0707  0.2078
  554TMC3    C4 8271   1.490   0.062  11.630 -0.1197 -0.5975 -0.3563
  554TMC3    C5 8272   1.575   0.050  11.525  0.1936 -0.7980 -0.0495
  554TMC3    C6 8273   1.535   4.718  11.413 -0.0339 -0.2107  0.0215
  554TMC3     C 8274   1.293   4.716  11.739 -0.1604  0.4802 -0.4467
  554TMC3     O 8275   1.172   4.695  11.736  0.5825  0.4210  0.8376
  554TMC3     H 8276   1.218   4.650  11.511  0.1869  0.1261 -1.2042
  554TMC3    H1 8277   1.524   0.116  11.718  1.5245 -1.3589 -0.5128
  554TMC3    H2 8278   1.593   4.696  11.324  2.3310  1.7526  1.0810
  554TMC3    C7 8279   1.691   0.138  11.502  0.3838 -1.2297  0.3201
  554TMC3    C8 8280   1.358   4.665  11.271  0.1192 -0.0061 -0.2474
  554TMC3    O1 8281   1.755   0.117  11.401  0.1564  0.0867  0.4954
  554TMC3    O2 8282   1.405   4.731  11.179 -0.2832  0.0940  0.0667
  555TMC3    C1 8283   1.247   4.388  15.466  0.0891  0.1700 -0.7828
  555TMC3    C2 8284   1.258   4.451  15.585 -0.9048  0.7259  0.6884
  555TMC3    C3 8285   1.261   4.377  15.703 -0.1721  0.3497 -0.0854
  555TMC3    C4 8286   1.256   4.253  15.463 -0.4493  0.5606 -0.1340
  555TMC3    C5 8287   1.267   4.183  15.576 -0.2066  0.2546 -0.1416
  555TMC3    C6 8288   1.261   4.240  15.703  0.1529 -0.2138  0.7311
  555TMC3     C 8289   1.295   4.452  15.349 -0.6835  0.5918  0.5464
  555TMC3     O 8290   1.367   4.384  15.279  0.1048  0.3394  0.1981
  555TMC3     H 8291   1.267   4.559  15.586  0.0444  0.6539 -2.2758
  555TMC3    H1 8292   1.273   4.210  15.365  1.7057  2.1633 -0.4650
  555TMC3    H2 8293   1.256   4.175  15.789  1.8319 -2.5515 -0.9387
  555TMC3    C7 8294   1.267   4.040  15.577  0.4023 -0.0074  0.2202
  555TMC3    C8 8295   1.278   4.451  15.829 -0.6927 -0.5445 -0.2057
  555TMC3    O1 8296   1.213   3.989  15.674  0.0755  0.5181  0.1950
  555TMC3    O2 8297   1.249   4.571  15.832  0.3894 -0.5196  0.1769
  556MPD2     C 8298   3.303   1.471   9.893 -0.9334  0.0401  0.4940
  556MPD2    C1 8299   3.301   1.405  10.009 -0.0043  0.0110  0.4780
  556MPD2    C2 8300   3.339   1.271  10.026 -0.0808 -0.1143 -0.2233
  556MPD2    C3 8301   3.361   1.193   9.909 -0.5059  0.6282  0.5055
  556MPD2    C4 8302   3.362   1.266   9.791  0.5885  0.4689  0.0758
  556MPD2    C5 8303   3.338   1.402   9.785  0.3004 -0.3585  0.3205
  556MPD2     H 8304   3.342   1.222  10.123 -1.9200  1.6358  0.7236
  556MPD2    H1 8305   3.383   1.229   9.691 -0.1682 -2.8113  1.1331
  556MPD2    H2 8306   3.277   1.574   9.870 -1.3044 -0.0707  0.4141
  556MPD2    H3 8307   3.352   1.461   9.695 -0.4591 -1.3410 -0.4446
  556MPD2     N 8308   3.399   1.058   9.926  0.3593 -0.1589  0.1425
  556MPD2    H5 8309   3.400   1.015  10.017  0.7329  1.2056  0.7830
  556MPD2    N1 8310   3.243   1.470  10.121  0.2734 -0.2226 -0.7149
  556MPD2    H7 8311   3.226   1.410  10.201  0.4393  0.4496 -0.1711
  557TMC3    C1 8312   3.463   0.844   9.855  0.6263 -0.5905  0.1532
  557TMC3    C2 8313   3.535   0.769   9.768 -0.1596 -0.4444 -0.2533
  557TMC3    C3 8314   3.544   0.630   9.788 -0.4805 -0.0877  0.7727
  557TMC3    C4 8315   3.376   0.783   9.945 -0.0521 -0.0807  0.5494
  557TMC3    C5 8316   3.402   0.654   9.971  0.5831  0.7653  0.1344
  557TMC3    C6 8317   3.478   0.573   9.895 -0.3423  0.1780 -1.3955
  557TMC3     C 8318   3.458   0.984   9.821  0.6803  0.2743 -0.5632
  557TMC3     O 8319   3.485   1.020   9.703 -0.2007 -0.4422  0.1419
  557TMC3     H 8320   3.600   0.823   9.699  0.0068 -1.5731 -0.9773
  557TMC3    H1 8321   3.301   0.839  10.000 -1.5203 -1.3021 -0.2075
  557TMC3    H2 8322   3.507   0.477   9.937 -0.2453  1.1658  0.7784
  557TMC3    C7 8323   3.353   0.614  10.101  0.3135 -0.2207 -0.8353
  557TMC3    C8 8324   3.620   0.546   9.696 -0.5135 -0.4865  0.1745
  557TMC3    O1 8325   3.329   0.701  10.181 -0.3587  0.2963 -0.3389
  557TMC3    O2 8326   3.695   0.609   9.623 -0.0939 -0.2596 -0.6095
  558TMC3    C1 8327   0.980   3.465  10.127 -0.3857 -0.3460  0.2782
  558TMC3    C2 8328   0.912   3.489  10.245 -0.0175 -1.1698 -0.6562
  558TMC3    C3 8329   0.779   3.526  10.229 -0.9535 -0.3906  0.2030
  558TMC3    C4 8330   0.916   3.488  10.005  0.4775 -0.7892 -0.1499
  558TMC3    C5 8331   0.783   3.519   9.994 -0.0458 -0.0936 -0.0404
  558TMC3    C6 8332   0.709   3.534  10.107 -0.0158 -0.1186  0.0740
  558TMC3     C 8333   1.125   3.442  10.134 -0.5964  0.0109  0.1162
  558TMC3     O 8334   1.190   3.513  10.212 -0.4425 -0.2366 -0.4285
  558TMC3     H 8335   0.966   3.493  10.338 -0.0976  1.8890 -0.7278
  558TMC3    H1 8336   0.966   3.474   9.910 -1.2311  2.3015 -1.4971
  558TMC3    H2 8337   0.616   3.589  10.103  1.0269  1.6021 -0.5103
  558TMC3    C7 8338   0.732   3.579   9.873  0.2973  0.4244 -0.3229
  558TMC3    C8 8339   0.709   3.592  10.335  0.1780  0.0989  0.1430
  558TMC3    O1 8340   0.817   3.619   9.789 -0.2408  0.2115  0.4311
  558TMC3    O2 8341   0.587   3.574  10.332  0.6970 -0.5531 -0.0169
  559MPD2     C 8342   1.282   4.082  10.379 -0.3148  0.1924  1.1219
  559MPD2    C1 8343   1.245   4.176  10.475 -0.3212 -0.1284  0.1063
  559MPD2    C2 8344   1.345   4.240  10.549 -0.8411  0.2204  0.4978
  559MPD2    C3 8345   1.479   4.209  10.526 -0.2264  0.3584 -0.1471
  559MPD2    C4 8346   1.507   4.111  10.433 -0.6768  0.1234 -0.6597
  559MPD2    C5 8347   1.412   4.034  10.374 -0.4319 -0.6972  0.9569
  559MPD2     H 8348   1.312   4.304  10.630  0.4653  2.6242 -0.8739
  559MPD2    H1 8349   1.608   4.083  10.405 -0.3161  0.6786  0.0866
  559MPD2    H2 8350   1.211   4.024  10.321 -1.1507  0.9901  1.3595
  559MPD2    H3 8351   1.433   3.943  10.319  0.0834  0.5983 -1.0253
  559MPD2     N 8352   1.582   4.283  10.583 -0.0835 -0.1267 -0.2278
  559MPD2    H5 8353   1.557   4.363  10.642  1.8178 -0.6140  1.2377
  559MPD2    N1 8354   1.109   4.223  10.493 -0.1050 -0.1337 -0.2064
  559MPD2    H7 8355   1.104   4.291  10.569 -0.4288 -1.7164  1.1730
  560TMC3    C1 8356   1.790   4.362  10.647  0.0603  0.1635  0.4184
  560TMC3    C2 8357   1.721   4.478  10.650  0.4422  0.2291 -0.0819
  560TMC3    C3 8358   1.754   4.562  10.755 -0.3438  0.2179  0.2594
  560TMC3    C4 8359   1.895   4.335  10.728 -0.4194  0.4007  0.1990
  560TMC3    C5 8360   1.940   4.424  10.821  0.3675  0.4780  0.6907
  560TMC3    C6 8361   1.867   4.540  10.832  0.4423  0.0031 -0.5149
  560TMC3     C 8362   1.718   4.249  10.591 -0.1212  0.1285  0.2870
  560TMC3     O 8363   1.775   4.137  10.590  0.0750  0.3859  0.3799
  560TMC3     H 8364   1.651   4.511  10.574 -1.6112 -2.7679  0.5130
  560TMC3    H1 8365   1.938   4.236  10.721  0.1584  0.7513 -1.3463
  560TMC3    H2 8366   1.891   4.610  10.911  0.2989  0.6926 -1.0868
  560TMC3    C7 8367   2.045   4.376  10.911 -0.0915 -0.5111 -1.3308
  560TMC3    C8 8368   1.634   4.540  10.833  0.8094  0.0374  0.1686
  560TMC3    O1 8369   2.095   4.266  10.885 -0.6358  0.4352  0.0522
  560TMC3    O2 8370   1.550   4.495  10.757 -0.1748  0.0532  0.9672
  561TMC3    C1 8371   3.945   3.495  11.312  0.2732 -0.0051 -0.5573
  561TMC3    C2 8372   3.851   3.436  11.392  0.0766 -0.8643  0.2400
  561TMC3    C3 8373   3.761   3.508  11.473  0.1692  0.6809  0.2358
  561TMC3    C4 8374   3.965   3.633  11.322 -0.4761 -0.2098 -0.1911
  561TMC3    C5 8375   3.878   3.700  11.411  0.0349 -0.2952 -0.2277
  561TMC3    C6 8376   3.782   3.646  11.481 -0.7157  0.1073  0.5237
  561TMC3     C 8377   4.050   3.411  11.265 -0.6386 -0.4327 -1.2143
  561TMC3     O 8378   4.027   3.287  11.261  0.2005 -0.3734  0.1192
  561TMC3     H 8379   3.853   3.328  11.401  0.8944 -0.7486  1.5012
  561TMC3    H1 8380   4.038   3.680  11.258  0.9634  1.6530  2.8259
  561TMC3    H2 8381   3.723   3.704  11.551 -1.6308  1.5836 -1.5027
  561TMC3    C7 8382   3.888   3.844  11.415  0.1719  0.0191  0.0356
  561TMC3    C8 8383   3.658   3.431  11.540  1.2086 -0.3613  0.3323
  561TMC3    O1 8384   3.828   3.901  11.505  0.5956  0.1954  0.0824
  561TMC3    O2 8385   3.652   3.314  11.505 -0.1307  0.0041 -0.1976
  562TMC3    C1 8386   1.048   0.084  16.341  0.6834  0.5973 -0.6744
  562TMC3    C2 8387   0.961   0.186  16.303  0.4661  0.1429  0.1983
  562TMC3    C3 8388   0.878   0.165  16.197  0.4825 -0.1144 -0.0975
  562TMC3    C4 8389   1.054   4.700  16.282  0.2897 -0.4612  0.3560
  562TMC3    C5 8390   0.979   4.680  16.168  0.3437 -0.5283 -0.1989
  562TMC3    C6 8391   0.882   0.040  16.128 -0.7286  1.2305 -0.4582
  562TMC3     C 8392   1.131   0.109  16.460  0.2018 -0.5142 -0.4714
  562TMC3     O 8393   1.221   0.025  16.470  0.0437  0.8243  0.4389
  562TMC3     H 8394   0.967   0.285  16.347 -0.1332  0.5279 -0.5626
  562TMC3    H1 8395   1.133   4.633  16.313 -0.7281 -1.4743  0.7653
  562TMC3    H2 8396   0.812   0.003  16.054 -1.0618 -0.7767  0.8631
  562TMC3    C7 8397   0.967   4.553  16.106  0.8286  0.7737 -0.2421
  562TMC3    C8 8398   0.770   0.262  16.180  0.6496  0.2303  0.2047
  562TMC3    O1 8399   0.917   4.559  15.995  0.0680 -0.2306  0.4653
  562TMC3    O2 8400   0.748   0.341  16.271  0.5514  0.0974 -0.2542
  563MPD2     C 8401   3.259   1.321  15.682 -0.2409  0.5749  0.6074
  563MPD2    C1 8402   3.275   1.302  15.816 -0.4574  0.6269 -0.0853
  563MPD2    C2 8403   3.403   1.277  15.864  0.3877 -0.7793  0.0064
  563MPD2    C3 8404   3.507   1.262  15.785 -0.1310 -0.0457 -0.0095
  563MPD2    C4 8405   3.488   1.268  15.652 -0.6668 -0.1518  0.1766
  563MPD2    C5 8406   3.365   1.308  15.600 -0.9493 -0.0371  0.0064
  563MPD2     H 8407   3.424   1.262  15.969 -0.5145 -0.6923  0.1988
  563MPD2    H1 8408   3.571   1.275  15.582 -0.3656  0.2720  0.5747
  563MPD2    H2 8409   3.165   1.342  15.632 -0.5167 -1.4394  0.2924
  563MPD2    H3 8410   3.348   1.320  15.493  0.4305 -0.1511 -0.2257
  563MPD2     N 8411   3.631   1.235  15.844 -0.3074  0.1435  0.2207
  563MPD2    H5 8412   3.638   1.256  15.944 -2.3003  0.8523  0.2126
  563MPD2    N1 8413   3.159   1.305  15.897  0.0100  0.0612 -0.5676
  563MPD2    H7 8414   3.070   1.305  15.847  0.7547 -2.2562 -1.8891
  564TMC3    C1 8415   3.040   1.252  16.105  0.6017  0.4711 -0.1529
  564TMC3    C2 8416   2.921   1.226  16.037  0.1508  0.0585 -0.4556
  564TMC3    C3 8417   2.824   1.157  16.095 -0.1524 -0.5256 -0.7521
  564TMC3    C4 8418   3.051   1.206  16.237 -0.0921 -0.2078 -0.4539
  564TMC3    C5 8419   2.950   1.129  16.280  0.4307  0.0378 -0.2934
  564TMC3    C6 8420   2.837   1.103  16.218 -0.4165 -0.1074  0.3259
  564TMC3     C 8421   3.164   1.301  16.034 -0.1335 -0.1782 -0.4754
  564TMC3     O 8422   3.259   1.302  16.110 -0.1595  0.4288  0.3604
  564TMC3     H 8423   2.911   1.255  15.932  0.8910 -1.0285 -0.8229
  564TMC3    H1 8424   3.130   1.241  16.303 -0.8818 -0.8936  0.8742
  564TMC3    H2 8425   2.773   1.022  16.250 -0.7135 -0.1655 -0.4142
  564TMC3    C7 8426   2.979   1.027  16.383  0.5050 -0.1116  0.2048
  564TMC3    C8 8427   2.716   1.104  16.021 -0.2284 -0.3972 -0.2298
  564TMC3    O1 8428   2.885   0.976  16.441 -0.2794  0.1297  0.0215
  564TMC3    O2 8429   2.609   1.095  16.073 -0.6395 -0.4637  0.3032
  565TMC3    C1 8430   3.258   3.519   9.919  0.4580 -0.7894 -0.3217
  565TMC3    C2 8431   3.203   3.414   9.991  0.2000  0.0903  0.1769
  565TMC3    C3 8432   3.071   3.386   9.963 -0.0882  0.4524  0.6507
  565TMC3    C4 8433   3.189   3.601   9.837 -0.4673 -0.2539 -0.1639
  565TMC3    C5 8434   3.057   3.571   9.817 -0.1839 -0.1260  0.1697
  565TMC3    C6 8435   2.994   3.467   9.876 -0.1314 -0.5470 -0.2619
  565TMC3     C 8436   3.402   3.533   9.921  0.4808 -0.4989 -0.3325
  565TMC3     O 8437   3.448   3.641   9.884  0.2209 -0.2505  0.0551
  565TMC3     H 8438   3.264   3.350  10.054  2.5564  1.6262 -0.5194
  565TMC3    H1 8439   3.219   3.701   9.809 -0.5839  0.0960  0.9579
  565TMC3    H2 8440   2.887   3.449   9.875 -0.4366  1.1599  0.7532
  565TMC3    C7 8441   2.976   3.661   9.729  0.1536 -0.1790  1.0537
  565TMC3    C8 8442   3.012   3.269  10.022 -0.2679 -0.4801 -0.4386
  565TMC3    O1 8443   3.013   3.772   9.708  0.4713  0.1875 -0.0369
  565TMC3    O2 8444   3.062   3.229  10.126 -0.2708 -0.4138  0.3105
  566MPD2     C 8445   1.583   3.748  14.112  0.2572 -0.1987 -0.1534
  566MPD2    C1 8446   1.495   3.850  14.084 -0.0895 -0.6104 -0.8279
  566MPD2    C2 8447   1.401   3.831  13.984 -0.1947  0.4829 -0.3948
  566MPD2    C3 8448   1.395   3.708  13.913 -0.5168 -0.3082 -0.5594
  566MPD2    C4 8449   1.483   3.611  13.948 -0.4262  0.1935 -0.6581
  566MPD2    C5 8450   1.582   3.627  14.040 -0.5845 -0.3338 -0.3644
  566MPD2     H 8451   1.331   3.910  13.960  0.8492  1.3845 -0.4943
  566MPD2    H1 8452   1.483   3.523  13.886  2.3711  0.3191 -0.8119
  566MPD2    H2 8453   1.667   3.758  14.179  0.2583 -1.0703 -0.0285
  566MPD2    H3 8454   1.667   3.563  14.058  0.1479  1.1443  1.3844
  566MPD2     N 8455   1.295   3.683  13.815 -0.0050 -0.9864  1.0799
  566MPD2    H5 8456   1.301   3.594  13.766  1.2453 -0.2486 -0.1361
  566MPD2    N1 8457   1.499   3.969  14.163 -0.1522  0.1984 -0.7382
  566MPD2    H7 8458   1.562   3.974  14.243 -2.5968  1.2922  1.1375
  567TMC3    C1 8459   1.446   4.201  14.220 -0.3578  0.0850 -0.1914
  567TMC3    C2 8460   1.359   4.302  14.193  0.1707  0.2138 -0.7407
  567TMC3    C3 8461   1.299   4.375  14.293  0.2950 -0.1471 -0.2710
  567TMC3    C4 8462   1.476   4.182  14.351  0.8019  0.3485 -0.4247
  567TMC3    C5 8463   1.429   4.255  14.450  0.1803  0.5197  0.0665
  567TMC3    C6 8464   1.337   4.355  14.421  0.5379  0.1610  0.0396
  567TMC3     C 8465   1.429   4.082  14.131 -0.7810  0.1350 -0.0150
  567TMC3     O 8466   1.344   4.103  14.048  0.1638 -0.4556  0.1909
  567TMC3     H 8467   1.340   4.331  14.090 -1.3810  0.3082 -0.4335
  567TMC3    H1 8468   1.557   4.112  14.369  0.7884 -0.1925 -2.3916
  567TMC3    H2 8469   1.276   4.400  14.499  1.2007  3.3623 -1.3285
  567TMC3    C7 8470   1.454   4.201  14.585 -0.4463  0.3931 -0.6562
  567TMC3    C8 8471   1.168   4.428  14.261  0.2802  0.1508 -0.7020
  567TMC3    O1 8472   1.549   4.124  14.598  0.1241  0.4104  0.2845
  567TMC3    O2 8473   1.112   4.381  14.161  0.6402 -0.7252  0.4228
  568MPD2     C 8474   2.769   4.366  16.164 -0.4073  0.7971 -0.0031
  568MPD2    C1 8475   2.776   4.443  16.277  1.3781 -0.3299  0.1038
  568MPD2    C2 8476   2.728   4.577  16.264 -0.0056  0.2960  0.7369
  568MPD2    C3 8477   2.663   4.615  16.144 -0.2327 -0.6936  0.1628
  568MPD2    C4 8478   2.657   4.527  16.036  0.2796 -0.2767 -0.3193
  568MPD2    C5 8479   2.700   4.404  16.056  0.0574 -0.4911  0.3238
  568MPD2     H 8480   2.732   4.654  16.340 -2.5316  0.9193  0.2445
  568MPD2    H1 8481   2.604   4.541  15.943  1.1803  0.7613 -0.6790
  568MPD2    H2 8482   2.800   4.263  16.175 -0.2255  0.9155  0.5884
  568MPD2    H3 8483   2.699   4.332  15.974  0.7917  0.5218 -0.5808
  568MPD2     N 8484   2.609   0.015  16.136 -0.4501 -0.3932 -0.6617
  568MPD2    H5 8485   2.619   0.078  16.215  0.4693 -3.8771  1.9778
  568MPD2    N1 8486   2.822   4.391  16.393 -0.7954 -0.3100  0.3287
  568MPD2    H7 8487   2.874   4.304  16.397 -3.2995 -1.8259 -0.3966
  569TMC3    C1 8488   2.497   0.207  16.059 -0.1309  0.4928  0.1601
  569TMC3    C2 8489   2.479   0.257  16.187  0.2815 -0.4927 -0.3333
  569TMC3    C3 8490   2.483   0.391  16.200 -1.2772 -0.2090  0.0308
  569TMC3    C4 8491   2.519   0.287  15.951 -0.0338 -0.0988 -0.5188
  569TMC3    C5 8492   2.520   0.418  15.972 -0.8489  0.3625  0.5401
  569TMC3    C6 8493   2.512   0.478  16.098  0.3910 -0.2019 -0.2409
  569TMC3     C 8494   2.547   0.076  16.031 -0.9857 -0.9999  0.0146
  569TMC3     O 8495   2.535   0.035  15.916 -0.1989 -0.0870  0.1170
  569TMC3     H 8496   2.459   0.192  16.271 -2.7335  0.7497 -0.1081
  569TMC3    H1 8497   2.538   0.248  15.851  1.0493 -1.7150  0.3131
  569TMC3    H2 8498   2.488   0.578  16.131 -1.3763 -0.9085  0.6010
  569TMC3    C7 8499   2.547   0.510  15.857 -0.8310 -0.1400 -0.0362
  569TMC3    C8 8500   2.450   0.442  16.337 -0.0796  0.1186 -0.7484
  569TMC3    O1 8501   2.568   0.451  15.755  0.2695 -0.3303 -0.1277
  569TMC3    O2 8502   2.393   0.357  16.407 -0.6035  0.5264 -0.5529
  570TMC3    C1 8503   1.760   3.566  16.071 -0.1644  0.1369 -1.0471
  570TMC3    C2 8504   1.805   3.602  15.937  0.0769 -0.7389 -0.1583
  570TMC3    C3 8505   1.879   3.717  15.934 -0.8894  0.3954  0.1272
  570TMC3    C4 8506   1.783   3.653  16.181  0.3187  0.3129  0.0057
  570TMC3    C5 8507   1.842   3.776  16.161 -0.0374  0.1133  0.0772
  570TMC3    C6 8508   1.894   3.797  16.039 -0.3215  0.0150  0.7301
  570TMC3     C 8509   1.718   3.430  16.093  1.0851 -0.5257 -0.6030
  570TMC3     O 8510   1.685   3.372  15.987 -0.3097 -0.5123 -0.2948
  570TMC3     H 8511   1.805   3.525  15.861  1.0520  0.2393 -1.1516
  570TMC3    H1 8512   1.771   3.618  16.283 -0.8418  1.5881  0.3152
  570TMC3    H2 8513   1.935   3.897  16.028  0.0691 -0.2463 -0.2032
  570TMC3    C7 8514   1.876   3.859  16.279  0.4140  0.5424  0.8800
  570TMC3    C8 8515   1.955   3.751  15.814 -0.2610 -0.0193 -0.1547
  570TMC3    O1 8516   1.893   3.809  16.389  0.3357  0.1686  0.2878
  570TMC3    O2 8517   2.018   3.855  15.836  0.2729 -0.1440  0.8549
  571MPD2     C 8518   0.392   0.551   0.544  0.3321 -0.9505  0.2802
  571MPD2    C1 8519   0.400   0.644   0.445 -0.3649  0.1798  0.2382
  571MPD2    C2 8520   0.478   0.759   0.472 -0.3997 -0.1122  0.0624
  571MPD2    C3 8521   0.539   0.786   0.595 -0.2978 -0.7711 -0.6819
  571MPD2    C4 8522   0.524   0.692   0.692  0.5235 -0.1256 -0.2712
  571MPD2    C5 8523   0.452   0.574   0.667  0.1531 -0.1470  0.4094
  571MPD2     H 8524   0.500   0.825   0.389 -0.2449  0.0867  0.2616
  571MPD2    H1 8525   0.589   0.696   0.779 -1.3232  0.9449  1.0525
  571MPD2    H2 8526   0.341   0.455   0.534 -1.1566 -0.0395 -0.8501
  571MPD2    H3 8527   0.451   0.492   0.737  1.0461 -0.0261  0.5713
  571MPD2     N 8528   0.612   0.904   0.620 -0.8138  0.2788  0.4690
  571MPD2    H5 8529   0.693   0.904   0.681 -0.2042 -0.6139 -0.3374
  571MPD2    N1 8530   0.333   0.626   0.321  0.4193  0.3402  0.0989
  571MPD2    H7 8531   0.271   0.548   0.306 -1.9115  1.9832  1.1846
  572TMC3    C1 8532   0.690   1.125   0.592 -1.0835  0.2176 -0.0865
  572TMC3    C2 8533   0.698   1.161   0.725  0.3615  0.2105  0.0689
  572TMC3    C3 8534   0.795   1.267   0.740 -0.4116  0.0705  0.3912
  572TMC3    C4 8535   0.756   1.174   0.488 -0.1268  1.0366 -0.1545
  572TMC3    C5 8536   0.859   1.255   0.517  0.4688  0.2355  0.8535
  572TMC3    C6 8537   0.881   1.307   0.640  0.0666  0.1750  0.7009
  572TMC3     C 8538   0.585   1.025   0.557  0.4679 -0.1635  0.1714
  572TMC3     O 8539   0.499   1.053   0.472  0.0017  0.4293  0.0321
  572TMC3     H 8540   0.630   1.121   0.799  1.2815  2.1707  1.9986
  572TMC3    H1 8541   0.725   1.145   0.389 -0.0858  0.7382 -0.0791
  572TMC3    H2 8542   0.965   1.372   0.660  0.5760  0.2627 -1.6666
  572TMC3    C7 8543   0.905   1.343   0.408 -0.5499  0.4622  0.1230
  572TMC3    C8 8544   0.856   1.279   0.870  0.0077 -0.0743  0.2377
  572TMC3    O1 8545   0.893   1.466   0.410  0.0254 -0.2373  0.1356
  572TMC3    O2 8546   0.978   1.289   0.884 -0.3642  0.0835 -0.3130
  573MPD2     C 8547   1.929   2.205   1.433 -0.2680 -0.2467 -1.1479
  573MPD2    C1 8548   1.850   2.159   1.336  0.2147  0.0384 -0.4840
  573MPD2    C2 8549   1.902   2.088   1.229  0.3450  0.2613  1.2564
  573MPD2    C3 8550   2.037   2.036   1.233  0.3887 -0.2335  0.5937
  573MPD2    C4 8551   2.109   2.074   1.344 -0.4435  0.0946  0.7697
  573MPD2    C5 8552   2.059   2.162   1.442 -0.0622 -0.0967 -0.0707
  573MPD2     H 8553   1.852   2.075   1.134  2.5536 -0.1922  0.1386
  573MPD2    H1 8554   2.211   2.040   1.358 -0.3794 -0.9399 -2.1107
  573MPD2    H2 8555   1.894   2.273   1.510  3.0336 -0.4232  0.5010
  573MPD2    H3 8556   2.123   2.181   1.527  0.6989 -0.2448 -0.6074
  573MPD2     N 8557   2.093   1.945   1.136 -0.4238  0.1158 -0.8058
  573MPD2    H5 8558   2.178   1.900   1.170 -0.0824  0.5403 -1.0976
  573MPD2    N1 8559   1.712   2.179   1.339 -0.4115  0.0862 -0.1567
  573MPD2    H7 8560   1.681   2.252   1.403  0.5307  2.0201 -1.9138
  574TMC3    C1 8561   2.050   1.757   1.006 -0.6061 -0.4314 -0.2492
  574TMC3    C2 8562   1.936   1.687   0.975 -0.0734  0.0440  0.4642
  574TMC3    C3 8563   1.947   1.553   0.971  0.3331  0.2046 -0.7662
  574TMC3    C4 8564   2.162   1.698   1.036 -0.7694  0.3452  0.2084
  574TMC3    C5 8565   2.174   1.568   1.017 -0.3702  0.9088 -0.3330
  574TMC3    C6 8566   2.062   1.487   0.996  0.2464 -0.1078 -0.0121
  574TMC3     C 8567   2.028   1.898   1.023  0.1154  0.7212  0.3373
  574TMC3     O 8568   1.927   1.940   0.969 -0.0636 -0.5178 -0.5934
  574TMC3     H 8569   1.844   1.745   0.973  0.8710  1.5355 -0.2295
  574TMC3    H1 8570   2.253   1.758   1.041  0.0929 -1.0314  0.9436
  574TMC3    H2 8571   2.062   1.379   0.990 -2.1057 -0.0323 -1.4788
  574TMC3    C7 8572   2.300   1.493   0.997  0.3376 -0.5102 -0.2598
  574TMC3    C8 8573   1.830   1.476   0.940 -0.2043  0.0592  0.5138
  574TMC3    O1 8574   2.285   1.370   0.998  0.1441  0.1035  0.1091
  574TMC3    O2 8575   1.828   1.353   0.963 -0.6397 -0.9248 -0.0330
  575TMC3    C1 8576   3.186   2.539  10.457 -0.2258 -0.4787 -0.6596
  575TMC3    C2 8577   3.119   2.417  10.445  0.3382  0.3347 -1.1814
  575TMC3    C3 8578   3.013   2.414  10.364  0.3366  0.1158  0.3583
  575TMC3    C4 8579   3.155   2.649  10.379  0.6504 -0.6156  0.0588
  575TMC3    C5 8580   3.045   2.648  10.304  0.7081 -0.1678 -0.2577
  575TMC3    C6 8581   2.976   2.529  10.294  0.1470 -0.2583  0.4478
  575TMC3     C 8582   3.292   2.550  10.561 -0.3160 -0.0256  0.0181
  575TMC3     O 8583   3.296   2.463  10.649 -0.0222 -0.4661  0.2627
  575TMC3     H 8584   3.138   2.336  10.515 -2.0060  1.0058  0.2069
  575TMC3    H1 8585   3.209   2.740  10.402 -0.1682  0.6408 -2.9032
  575TMC3    H2 8586   2.909   2.511  10.211  3.3426 -2.3516 -1.7024
  575TMC3    C7 8587   2.999   2.767  10.235 -0.0663 -0.3651  0.2855
  575TMC3    C8 8588   2.929   2.298  10.354  1.0240 -0.5635 -0.0251
  575TMC3    O1 8589   3.078   2.855  10.236  0.9581  0.0188 -0.5063
  575TMC3    O2 8590   2.838   2.279  10.273 -0.2238 -1.0004 -0.1519
  576MPD2     C 8591   3.027   3.591  12.843 -0.2919 -0.8711 -0.1685
  576MPD2    C1 8592   3.040   3.717  12.783  0.0530  0.2588  0.2229
  576MPD2    C2 8593   3.057   3.824  12.866 -0.4498  0.3547 -0.1210
  576MPD2    C3 8594   3.075   3.807  12.999  0.2295 -0.2097  0.0768
  576MPD2    C4 8595   3.064   3.685  13.061 -0.6650 -0.8070  0.5859
  576MPD2    C5 8596   3.032   3.585  12.977  0.6495  0.9081 -0.2530
  576MPD2     H 8597   3.085   3.918  12.821 -3.8729  0.6932 -1.4982
  576MPD2    H1 8598   3.048   3.663  13.166 -0.1375 -2.2463  0.3744
  576MPD2    H2 8599   3.000   3.510  12.776 -0.9673 -1.3946  0.7382
  576MPD2    H3 8600   3.014   3.488  13.022 -0.6446  1.3507  0.1525
  576MPD2     N 8601   3.112   3.921  13.073  0.3331  0.2109 -0.4751
  576MPD2    H5 8602   3.097   4.006  13.020  0.5499 -0.3607 -1.4444
  576MPD2    N1 8603   3.058   3.741  12.646  0.3758 -0.2165  0.1657
  576MPD2    H7 8604   3.057   3.839  12.623 -0.1834 -0.5698 -1.3118
  577TMC3    C1 8605   3.116   3.707  12.429  0.9309 -0.2039 -0.4400
  577TMC3    C2 8606   3.196   3.622  12.356 -0.0931 -0.4034  0.3333
  577TMC3    C3 8607   3.222   3.646  12.226 -0.0760 -0.4099 -0.1819
  577TMC3    C4 8608   3.053   3.813  12.369 -0.2865  0.8750  0.3115
  577TMC3    C5 8609   3.071   3.829  12.237 -0.0667 -0.3337 -0.1166
  577TMC3    C6 8610   3.155   3.744  12.166 -0.3177  0.1569  0.5114
  577TMC3     C 8611   3.078   3.649  12.551 -0.4070  1.0567  0.2685
  577TMC3     O 8612   3.106   3.532  12.564  0.2755 -0.5062 -1.1011
  577TMC3     H 8613   3.271   3.562  12.407 -0.5968 -1.4018 -0.1037
  577TMC3    H1 8614   2.995   3.887  12.423  1.0246  1.6854  0.6039
  577TMC3    H2 8615   3.176   3.762  12.061 -1.6501  0.6661  0.3305
  577TMC3    C7 8616   3.014   3.945  12.179  0.6992  0.0914  0.0628
  577TMC3    C8 8617   3.279   3.534  12.150 -0.2352 -0.3766  0.8183
  577TMC3    O1 8618   3.014   4.051  12.238  0.1324 -0.1284  0.4803
  577TMC3    O2 8619   3.290   3.430  12.214  0.5301  0.1443 -0.0726
  578MPD2     C 8620   2.505   4.372   1.942 -0.3958 -0.5625  0.4950
  578MPD2    C1 8621   2.513   4.332   1.816  0.5678  0.4688 -0.7507
  578MPD2    C2 8622   2.486   4.199   1.780 -0.0491 -0.9299 -0.1036
  578MPD2    C3 8623   2.458   4.102   1.879  0.4449 -0.1198  0.8687
  578MPD2    C4 8624   2.469   4.145   2.013 -0.8556  0.2734  0.5172
  578MPD2    C5 8625   2.486   4.276   2.036 -0.6184 -0.0663 -0.0899
  578MPD2     H 8626   2.475   4.163   1.679 -0.2901 -2.1563  0.3653
  578MPD2    H1 8627   2.461   4.081   2.100  1.5618 -2.7909 -1.5377
  578MPD2    H2 8628   2.516   4.478   1.965  1.1183 -1.1573  2.4864
  578MPD2    H3 8629   2.494   4.298   2.142  0.8458 -1.0107  0.0008
  578MPD2     N 8630   2.423   3.966   1.848  0.3704  0.1732 -0.1467
  578MPD2    H5 8631   2.421   3.945   1.749 -2.5392  0.7253 -0.2104
  578MPD2    N1 8632   2.528   4.440   1.726 -0.0565  0.4980 -0.0320
  578MPD2    H7 8633   2.543   4.525   1.780 -1.5948 -0.8564  2.5512
  579TMC3    C1 8634   2.377   3.751   1.850 -0.1399  0.2883 -0.7346
  579TMC3    C2 8635   2.474   3.715   1.762 -0.2348  0.0493  0.0483
  579TMC3    C3 8636   2.448   3.610   1.675  0.3079  0.0288 -0.9724
  579TMC3    C4 8637   2.259   3.685   1.855  0.4423  0.0609  0.6432
  579TMC3    C5 8638   2.234   3.583   1.767  0.3809  0.7227  0.2172
  579TMC3    C6 8639   2.334   3.540   1.687  0.4457  0.6356  0.4266
  579TMC3     C 8640   2.398   3.865   1.933 -0.9113 -0.0787  0.0838
  579TMC3     O 8641   2.341   3.874   2.041  0.2509 -0.1241 -0.2313
  579TMC3     H 8642   2.577   3.745   1.779  0.2472 -1.5184 -0.0435
  579TMC3    H1 8643   2.179   3.736   1.908  1.0905  0.0230  1.6405
  579TMC3    H2 8644   2.313   3.454   1.625  0.0927  1.4874 -0.6370
  579TMC3    C7 8645   2.106   3.528   1.738 -0.4788 -0.9116  0.1831
  579TMC3    C8 8646   2.527   3.582   1.561 -0.4476  0.4860 -0.8852
  579TMC3    O1 8647   2.032   3.516   1.837 -0.6939  0.1798 -0.2024
  579TMC3    O2 8648   2.518   3.466   1.528 -0.0242  0.1511  0.2942
  580TMC3    C1 8649   1.158   2.379  11.486 -1.0643  0.3322  0.3337
  580TMC3    C2 8650   1.213   2.348  11.364 -0.0100  0.4024  0.0964
  580TMC3    C3 8651   1.247   2.217  11.342  0.3261  0.2750  0.4654
  580TMC3    C4 8652   1.128   2.282  11.577 -0.1196  0.4185 -0.1482
  580TMC3    C5 8653   1.158   2.154  11.555  0.2245  0.3789  0.0230
  580TMC3    C6 8654   1.207   2.118  11.427  0.6961  0.8642 -0.6077
  580TMC3     C 8655   1.211   2.504  11.550 -0.5219  0.2337  0.3949
  580TMC3     O 8656   1.230   2.598  11.477  0.2918 -0.0637  0.2859
  580TMC3     H 8657   1.226   2.431  11.296  2.7235 -0.5873 -0.5891
  580TMC3    H1 8658   1.087   2.303  11.676  1.2502 -0.1990  0.5514
  580TMC3    H2 8659   1.243   2.020  11.398 -4.1087 -1.0547  0.0354
  580TMC3    C7 8660   1.223   2.092  11.672  0.4557 -0.2377 -0.2532
  580TMC3    C8 8661   1.316   2.184  11.215  0.5108 -0.3361 -0.0925
  580TMC3    O1 8662   1.242   2.182  11.757 -0.2901 -0.2905 -0.3626
  580TMC3    O2 8663   1.306   2.065  11.182 -0.1174  0.0529  0.4986
  581MPD2     C 8664   4.076   2.424  15.143 -0.6916  0.9229 -0.1282
  581MPD2    C1 8665   4.080   2.499  15.261 -0.4587 -0.5077  0.7416
  581MPD2    C2 8666   3.975   2.584  15.301 -0.4879 -0.1399 -0.0370
  581MPD2    C3 8667   3.854   2.572  15.227  0.8350 -0.0729  0.5683
  581MPD2    C4 8668   3.847   2.491  15.122  0.1904 -0.4551  1.0602
  581MPD2    C5 8669   3.955   2.420  15.081 -0.3449  0.8921  0.0205
  581MPD2     H 8670   3.971   2.649  15.388  1.5600 -1.4328  1.0250
  581MPD2    H1 8671   3.763   2.490  15.054  3.8046 -0.4597 -3.4054
  581MPD2    H2 8672   4.164   2.375  15.101 -0.9126  0.9852 -0.6650
  581MPD2    H3 8673   3.941   2.361  14.992 -1.8026 -0.0230  0.8596
  581MPD2     N 8674   3.744   2.658  15.266  0.0107 -0.3980 -0.2485
  581MPD2    H5 8675   3.770   2.735  15.327 -1.7849  0.5606 -0.7042
  581MPD2    N1 8676   4.201   2.490  15.342 -0.6556  0.1556  0.3472
  581MPD2    H7 8677   4.274   2.433  15.302 -1.0974 -1.2185  1.5088
  582TMC3    C1 8678   4.327   2.490  15.540 -0.3783  0.4200 -0.3969
  582TMC3    C2 8679   4.327   2.518  15.675  0.5485 -0.0280 -0.8110
  582TMC3    C3 8680   4.383   2.426  15.764 -0.3894 -0.5241 -0.4540
  582TMC3    C4 8681   4.376   2.370  15.503  0.3433  0.3138 -0.0407
  582TMC3    C5 8682   4.421   2.280  15.595 -0.7203 -0.2919  0.2808
  582TMC3    C6 8683   4.414   2.297  15.728  0.0536 -0.3483  0.2134
  582TMC3     C 8684   4.217   2.540  15.464 -0.0938 -0.1048 -0.1819
  582TMC3     O 8685   4.149   2.621  15.522 -0.0450 -0.3408  0.5399
  582TMC3     H 8686   4.284   2.613  15.705  0.5563 -0.4419  0.4970
  582TMC3    H1 8687   4.386   2.339  15.400  0.4605 -0.8028  0.3058
  582TMC3    H2 8688   4.457   2.228  15.799 -0.2898 -0.8585 -0.0741
  582TMC3    C7 8689   4.482   2.158  15.551 -0.5863  0.3426 -0.3581
  582TMC3    C8 8690   4.384   2.473  15.900 -0.2118 -0.1837  0.4085
  582TMC3    O1 8691   4.588   2.138  15.613  0.3061 -0.3810  0.0264
  582TMC3    O2 8692   4.341   2.585  15.917  0.0955  0.0837  0.1422
  583MPD2     C 8693   4.052   4.116  16.955 -0.5482 -0.6392 -0.4832
  583MPD2    C1 8694   3.987   4.203  16.868 -0.5722  0.1018 -0.8288
  583MPD2    C2 8695   3.883   4.287  16.916 -0.4883  0.0473  0.1086
  583MPD2    C3 8696   3.850   4.288  17.051  0.3477 -0.1470 -0.0106
  583MPD2    C4 8697   3.931   4.221  17.138  0.0671  0.4415  0.4167
  583MPD2    C5 8698   4.023   4.129  17.090  0.5337  0.5336  0.1585
  583MPD2     H 8699   3.830   4.356  16.853  1.2852  0.9565 -0.3999
  583MPD2    H1 8700   3.926   4.231  17.246 -1.9980 -1.1675  0.4605
  583MPD2    H2 8701   4.125   4.045  16.920  0.5323 -0.1287  0.7200
  583MPD2    H3 8702   4.077   4.074  17.167  0.5370 -2.3403 -1.9101
  583MPD2     N 8703   3.752   4.386  17.091  0.6806  0.3635 -0.0577
  583MPD2    H5 8704   3.712   4.444  17.018 -0.8720 -0.2971  0.2608
  583MPD2    N1 8705   4.023   4.204  16.729  0.7261 -0.3875 -0.1345
  583MPD2    H7 8706   3.977   4.270  16.668 -1.1311 -0.2561  1.3764
  584TMC3    C1 8707   3.607   4.507  17.241 -0.2356  1.3071  0.8607
  584TMC3    C2 8708   3.612   4.617  17.162 -0.9349 -0.4202  0.4132
  584TMC3    C3 8709   3.587   0.011  17.210 -0.6087 -0.2953 -0.0170
  584TMC3    C4 8710   3.563   4.521  17.371  0.7069  0.3566  0.2012
  584TMC3    C5 8711   3.523   4.649  17.408  0.2893  0.1563  0.1861
  584TMC3    C6 8712   3.537   0.033  17.335 -0.2773 -0.5633  0.1155
  584TMC3     C 8713   3.709   4.402  17.219 -0.4256  0.0984 -0.8107
  584TMC3     O 8714   3.742   4.327  17.313  0.1999 -0.2279 -0.6630
  584TMC3     H 8715   3.654   4.613  17.062 -0.3082  1.0205  0.6224
  584TMC3    H1 8716   3.567   4.439  17.442  0.2923 -0.2676 -0.4959
  584TMC3    H2 8717   3.518   0.131  17.377  0.8438 -1.1721  2.0908
  584TMC3    C7 8718   3.515   4.665  17.550 -0.1118 -0.3649 -0.3446
  584TMC3    C8 8719   3.615   0.124  17.123  0.1658  0.0798  0.2532
  584TMC3    O1 8720   3.526   4.567  17.624  0.0526 -0.4357  0.0879
  584TMC3    O2 8721   3.595   0.090  17.008  0.4118  0.0000 -0.5140
  585MPD2     C 8722   3.252   3.451   0.780 -0.8966  0.1191 -0.5326
  585MPD2    C1 8723   3.334   3.420   0.672  0.4956 -0.0444  0.1599
  585MPD2    C2 8724   3.296   3.325   0.582 -0.0681  0.2088  0.1196
  585MPD2    C3 8725   3.178   3.256   0.597  0.1355 -0.1985  0.0981
  585MPD2    C4 8726   3.098   3.275   0.712  1.0857 -0.7717 -0.0591
  585MPD2    C5 8727   3.145   3.373   0.803 -0.7724 -0.0868 -0.2259
  585MPD2     H 8728   3.363   3.298   0.501 -1.5744 -1.5230 -0.5432
  585MPD2    H1 8729   3.002   3.227   0.731 -0.0347  1.9829  1.2979
  585MPD2    H2 8730   3.281   3.534   0.844 -0.5747 -0.6221  0.2642
  585MPD2    H3 8731   3.089   3.399   0.893  1.4236 -0.7718  1.3572
  585MPD2     N 8732   3.128   3.177   0.489  0.0142 -0.3299 -0.1238
  585MPD2    H5 8733   3.031   3.148   0.485  0.4889 -1.9022 -0.1449
  585MPD2    N1 8734   3.438   3.504   0.647 -0.2742 -0.2223 -0.0588
  585MPD2    H7 8735   3.449   3.589   0.701  0.0761 -0.6765  0.5825
  586TMC3    C1 8736   3.132   3.088   0.260 -0.4838 -0.3016 -0.4363
  586TMC3    C2 8737   3.224   3.066   0.153 -0.3044  0.2852 -0.0825
  586TMC3    C3 8738   3.193   3.097   0.032  1.2481  0.8660 -0.4459
  586TMC3    C4 8739   3.005   3.146   0.232  0.2082 -0.6072  0.0286
  586TMC3    C5 8740   2.974   3.171   0.101 -0.0049  0.0429  0.7722
  586TMC3    C6 8741   3.066   3.148   0.005  0.8927  0.5209  0.2539
  586TMC3     C 8742   3.206   3.133   0.380 -0.0384  0.2992  0.3897
  586TMC3     O 8743   3.327   3.119   0.375 -0.8951 -0.2305  0.2280
  586TMC3     H 8744   3.309   3.001   0.169 -0.5522 -0.5540 -2.2186
  586TMC3    H1 8745   2.935   3.167   0.312 -0.7648 -0.4702 -0.8603
  586TMC3    H2 8746   3.040   3.138  17.629 -0.5639  0.4065  0.6365
  586TMC3    C7 8747   2.841   3.159   0.059  0.7599  0.5968 -0.6999
  586TMC3    C8 8748   3.275   3.039  17.657 -0.3745 -0.0481 -0.2484
  586TMC3    O1 8749   2.767   3.094   0.135  0.5091  1.2871 -0.1201
  586TMC3    O2 8750   3.305   2.921  17.671  0.5386  0.3886 -0.1773
  587TMC3    C1 8751   0.970   1.717  16.543  0.4114  0.5498 -0.0384
  587TMC3    C2 8752   0.973   1.772  16.673 -0.0027  0.7179 -0.4831
  587TMC3    C3 8753   1.088   1.786  16.745  0.2123  0.1541  0.2253
  587TMC3    C4 8754   1.091   1.687  16.480 -0.1052 -0.1313  0.6029
  587TMC3    C5 8755   1.208   1.701  16.557 -0.3560  0.0085 -0.2809
  587TMC3    C6 8756   1.206   1.749  16.687 -0.5409 -0.1199  0.0412
  587TMC3     C 8757   0.844   1.682  16.471  0.0306 -0.2886  0.1424
  587TMC3     O 8758   0.868   1.643  16.357 -0.2172 -0.0268 -0.1057
  587TMC3     H 8759   0.879   1.786  16.725 -0.6201  1.3883 -1.7702
  587TMC3    H1 8760   1.089   1.657  16.376 -2.2325 -0.8493  0.8475
  587TMC3    H2 8761   1.302   1.774  16.732 -0.2558 -0.5053 -0.3470
  587TMC3    C7 8762   1.313   1.608  16.517 -0.3480 -0.2304  0.1782
  587TMC3    C8 8763   1.095   1.845  16.873 -0.4447  0.3085  0.3519
  587TMC3    O1 8764   1.272   1.496  16.490 -0.2015 -0.3639 -0.4931
  587TMC3    O2 8765   1.187   1.807  16.944  0.3811 -0.1581  0.0342
  588TMC3    C1 8766   2.797   0.212   9.495 -0.0703 -0.1278 -0.1515
  588TMC3    C2 8767   2.743   0.091   9.461  0.2214  0.0931 -0.5921
  588TMC3    C3 8768   2.754   4.728   9.558 -0.2266 -0.4629 -0.4207
  588TMC3    C4 8769   2.852   0.243   9.610  0.0882 -0.1598  0.2977
  588TMC3    C5 8770   2.852   0.140   9.705  0.1163 -0.4973  0.3504
  588TMC3    C6 8771   2.813   0.017   9.675  0.0980  0.2723 -0.0246
  588TMC3     C 8772   2.838   0.302   9.391 -0.4010  0.4458 -0.1662
  588TMC3     O 8773   2.855   0.262   9.277  0.1348 -0.0630 -0.0308
  588TMC3     H 8774   2.700   0.068   9.364  2.6938 -3.0422 -0.9402
  588TMC3    H1 8775   2.931   0.317   9.619 -1.5467  1.5193  0.9539
  588TMC3    H2 8776   2.813   4.671   9.749  0.5769 -0.0654 -0.3872
  588TMC3    C7 8777   2.867   0.169   9.847  0.0859  0.2875  0.0608
  588TMC3    C8 8778   2.753   4.593   9.510 -0.0882 -0.0919 -0.6091
  588TMC3    O1 8779   2.921   0.085   9.918 -0.1171 -0.1518  0.0610
  588TMC3    O2 8780   2.699   4.582   9.399 -0.2882 -0.3499  0.6285
  589TMC3    C1 8781   2.486   2.337   1.560 -0.1952 -0.0255 -0.3040
  589TMC3    C2 8782   2.612   2.381   1.580  0.2377 -0.3534  0.0061
  589TMC3    C3 8783   2.709   2.300   1.537 -0.0801  0.3294  0.6934
  589TMC3    C4 8784   2.456   2.210   1.518  0.2192  0.4127 -0.8449
  589TMC3    C5 8785   2.559   2.129   1.499 -0.0075 -0.4961  0.3645
  589TMC3    C6 8786   2.689   2.171   1.510  0.1411  0.6782  0.1138
  589TMC3     C 8787   2.377   2.412   1.619  0.3167  0.4159  0.0277
  589TMC3     O 8788   2.259   2.375   1.605  0.1185  0.0665  0.3310
  589TMC3     H 8789   2.632   2.487   1.596  1.1050 -0.8060  1.9182
  589TMC3    H1 8790   2.353   2.186   1.497  0.3959  0.4841 -1.7816
  589TMC3    H2 8791   2.768   2.097   1.507 -2.2146 -1.8567  0.4124
  589TMC3    C7 8792   2.521   1.986   1.515 -0.1161  0.1939 -0.3326
  589TMC3    C8 8793   2.848   2.349   1.540  0.1977 -0.4459 -0.0514
  589TMC3    O1 8794   2.412   1.959   1.568  0.0078  0.2316 -0.1650
  589TMC3    O2 8795   2.874   2.455   1.598 -0.8881 -0.4613 -0.0341
  590MPD2     C 8796   1.949   0.559  16.492 -0.4324  0.5261  1.2176
  590MPD2    C1 8797   1.847   0.582  16.403  0.4995  0.3297 -0.0209
  590MPD2    C2 8798   1.875   0.650  16.284  0.2863  0.1066 -0.0612
  590MPD2    C3 8799   2.006   0.690  16.255 -0.1859 -0.7755  0.5903
  590MPD2    C4 8800   2.110   0.660  16.345 -0.0351  0.1773 -0.0377
  590MPD2    C5 8801   2.077   0.594  16.460 -0.5462 -0.6632  0.1702
  590MPD2     H 8802   1.804   0.679  16.208 -0.2450 -1.6121 -0.2336
  590MPD2    H1 8803   2.214   0.688  16.329  0.1147 -0.3634 -0.0423
  590MPD2    H2 8804   1.930   0.512  16.588 -1.6415 -1.4199  0.0041
  590MPD2    H3 8805   2.146   0.575  16.541  1.4057  0.5015 -1.2149
  590MPD2     N 8806   2.019   0.750  16.129  0.2973  0.0067 -0.2630
  590MPD2    H5 8807   1.938   0.779  16.077 -0.2280  1.7353  1.5372
  590MPD2    N1 8808   1.711   0.569  16.445 -0.1846  0.5502 -0.0180
  590MPD2    H7 8809   1.655   0.584  16.362 -0.6419 -1.7095 -0.1246
  591TMC3    C1 8810   2.129   0.851  15.949  0.3453 -0.2309 -0.6890
  591TMC3    C2 8811   2.230   0.840  15.858  0.1767  0.0206 -0.5383
  591TMC3    C3 8812   2.232   0.932  15.754  0.1503 -0.0371 -0.6200
  591TMC3    C4 8813   2.038   0.951  15.949  0.6071 -0.6427 -0.8312
  591TMC3    C5 8814   2.035   1.031  15.842  0.1336 -0.1221  0.5697
  591TMC3    C6 8815   2.125   1.016  15.743  0.1576  0.5982 -0.3170
  591TMC3     C 8816   2.136   0.764  16.060 -1.0239 -0.3962  0.3308
  591TMC3     O 8817   2.250   0.721  16.080 -0.6201  0.2163  0.3846
  591TMC3     H 8818   2.312   0.771  15.869  2.0178  1.9364 -2.3378
  591TMC3    H1 8819   1.969   0.967  16.031 -0.1112  1.9223 -1.9366
  591TMC3    H2 8820   2.110   1.066  15.648  2.8332  3.5896  0.8422
  591TMC3    C7 8821   1.989   1.164  15.881  0.3728 -0.2429  0.2133
  591TMC3    C8 8822   2.295   0.892  15.632  0.6576 -0.0801 -0.5385
  591TMC3    O1 8823   1.881   1.175  15.942 -0.0448  0.0545  0.1143
  591TMC3    O2 8824   2.307   0.776  15.626 -0.2162  0.3345  0.5324
  592MPD2     C 8825   1.579   2.861  12.729  0.5883  0.2352  0.2325
  592MPD2    C1 8826   1.551   2.793  12.611 -0.5013 -0.8322  0.0722
  592MPD2    C2 8827   1.515   2.657  12.616 -0.2491  0.3507 -0.1184
  592MPD2    C3 8828   1.510   2.594  12.735  0.3601 -0.3127 -0.0837
  592MPD2    C4 8829   1.528   2.670  12.854 -0.1005  0.7817  0.1135
  592MPD2    C5 8830   1.563   2.802  12.848  0.2117  0.2058  0.5738
  592MPD2     H 8831   1.489   2.616  12.519 -2.0256  0.1335  0.4670
  592MPD2    H1 8832   1.521   2.623  12.951  1.0213  0.0621 -0.1616
  592MPD2    H2 8833   1.609   2.965  12.724 -0.7118  0.6426  0.8239
  592MPD2    H3 8834   1.576   2.848  12.945  0.7463 -0.1711  0.6798
  592MPD2     N 8835   1.493   2.462  12.737 -0.6687  0.0771  0.3249
  592MPD2    H5 8836   1.448   2.417  12.658 -0.8070  1.4917 -0.4080
  592MPD2    N1 8837   1.591   2.858  12.492  0.2834 -0.0912  0.0684
  592MPD2    H7 8838   1.643   2.944  12.503 -1.4485  0.7094  2.2004
  593TMC3    C1 8839   1.635   2.900  12.265  0.7019 -1.2806  0.7308
  593TMC3    C2 8840   1.657   3.031  12.300 -0.0642 -0.1682  0.0264
  593TMC3    C3 8841   1.748   3.107  12.225  0.4941 -0.2810  0.7839
  593TMC3    C4 8842   1.709   2.849  12.160  0.3050  0.0319 -0.2714
  593TMC3    C5 8843   1.807   2.928  12.099 -0.0435 -0.1717  0.0021
  593TMC3    C6 8844   1.836   3.056  12.140 -0.3937  0.6681  0.4832
  593TMC3     C 8845   1.583   2.812  12.365  0.0314 -0.5335  0.4393
  593TMC3     O 8846   1.545   2.708  12.319 -0.3436 -0.2930 -0.3335
  593TMC3     H 8847   1.589   3.081  12.367 -0.4193  1.2100 -1.3712
  593TMC3    H1 8848   1.684   2.749  12.126 -1.1354  0.8313 -1.5447
  593TMC3    H2 8849   1.904   3.115  12.079  0.4172  0.2973  1.0185
  593TMC3    C7 8850   1.869   2.899  11.973  0.1781  0.3063 -0.5609
  593TMC3    C8 8851   1.771   3.244  12.270 -0.1895 -0.4586  0.8607
  593TMC3    O1 8852   1.950   2.977  11.926  0.1141  0.3886 -0.2015
  593TMC3    O2 8853   1.674   3.317  12.298  0.1296  0.1683 -0.0017
  594MPD2     C 8854   0.886   1.167  14.026  0.1758  0.6499  0.1993
  594MPD2    C1 8855   0.893   1.161  14.166  0.1141 -0.0811 -0.1408
  594MPD2    C2 8856   0.971   1.254  14.233 -0.9750  0.3030 -0.0353
  594MPD2    C3 8857   1.020   1.362  14.169 -0.2109  0.0323 -0.6798
  594MPD2    C4 8858   1.007   1.371  14.032  0.6005 -0.3950 -0.5449
  594MPD2    C5 8859   0.948   1.266  13.955  0.8370  0.1153  0.1292
  594MPD2     H 8860   0.982   1.241  14.340  0.3370 -0.3442 -0.2510
  594MPD2    H1 8861   1.031   1.458  13.972  2.5848 -1.4715 -1.3070
  594MPD2    H2 8862   0.846   1.082  13.972 -1.1576  1.0040  0.6327
  594MPD2    H3 8863   0.946   1.269  13.847 -2.2406  0.6772  0.1951
  594MPD2     N 8864   1.076   1.467  14.250  0.5012  0.2248 -0.4848
  594MPD2    H5 8865   1.082   1.462  14.352 -0.6005  0.8178 -0.3933
  594MPD2    N1 8866   0.829   1.055  14.223 -0.0622  0.5912  0.2771
  594MPD2    H7 8867   0.765   1.006  14.161  0.2513 -1.0020  1.2221
  595TMC3    C1 8868   1.320   1.846  14.380  0.5486 -0.3851  0.2905
  595TMC3    C2 8869   1.293   1.749  14.282 -0.3759 -0.2041  0.0115
  595TMC3    C3 8870   1.183   1.672  14.300  0.9203  0.4180 -0.0447
  595TMC3    C4 8871   1.243   1.872  14.484  0.3380 -0.0296 -0.1987
  595TMC3    C5 8872   1.122   1.802  14.486 -0.2221 -0.3364  0.0112
  595TMC3    C6 8873   1.092   1.692  14.404  0.5103 -0.4094  0.1748
  595TMC3     C 8874   1.444   1.922  14.372  1.0312 -0.4913 -0.4018
  595TMC3     O 8875   1.489   1.975  14.474  0.5285  0.4169 -0.2941
  595TMC3     H 8876   1.359   1.720  14.200 -1.5478  1.0074 -1.3608
  595TMC3    H1 8877   1.259   1.955  14.552  1.5274 -0.4819  0.0643
  595TMC3    H2 8878   1.001   1.634  14.403 -0.4456  1.1083  0.3727
  595TMC3    C7 8879   1.037   1.815  14.608  0.3276 -0.1251 -0.9457
  595TMC3    C8 8880   1.152   1.570  14.202  0.5319 -0.1990 -0.1249
  595TMC3    O1 8881   0.929   1.761  14.614  0.7954  0.5861  0.2156
  595TMC3    O2 8882   1.186   1.585  14.085 -0.3797 -0.1758 -0.5608
  596MPD2     C 8883   0.199   4.013  16.925 -1.0800 -0.6227 -0.4574
  596MPD2    C1 8884   0.201   4.126  16.844  0.4839  0.5551 -0.9890
  596MPD2    C2 8885   0.217   4.109  16.709 -0.4635  0.2908  0.0676
  596MPD2    C3 8886   0.233   3.986  16.643 -0.5330  0.3010 -0.1410
  596MPD2    C4 8887   0.227   3.875  16.729  0.3675 -0.1237  0.6950
  596MPD2    C5 8888   0.212   3.888  16.861  1.0643 -0.2963  0.5549
  596MPD2     H 8889   0.206   4.201  16.652 -1.8471 -1.1501 -2.0320
  596MPD2    H1 8890   0.244   3.777  16.686  3.6419  1.0521 -0.7114
  596MPD2    H2 8891   0.180   4.026  17.031 -1.4663  0.9010 -0.7197
  596MPD2    H3 8892   0.190   3.799  16.919 -1.1851 -0.8041 -1.0703
  596MPD2     N 8893   0.237   3.962  16.507  0.0397  0.2388 -0.0232
  596MPD2    H5 8894   0.236   3.865  16.476 -0.2702 -0.0935  1.0458
  596MPD2    N1 8895   0.186   4.260  16.888  0.1306 -0.0730  0.2311
  596MPD2    H7 8896   0.170   4.327  16.814 -1.8362  0.4503  1.1055
  597TMC3    C1 8897   0.136   4.441  17.023  0.6660  0.9683  1.0663
  597TMC3    C2 8898   0.191   4.518  16.919 -0.5709 -0.6002  0.1661
  597TMC3    C3 8899   0.138   4.644  16.921  0.4525 -0.5808  0.0554
  597TMC3    C4 8900   0.041   4.477  17.111  0.1499  0.0815  0.4964
  597TMC3    C5 8901   4.715   4.598  17.097 -1.1792  0.1297  0.7539
  597TMC3    C6 8902   0.034   4.682  17.009 -1.0616  0.3697 -0.1027
  597TMC3     C 8903   0.173   4.299  17.019 -0.3093  1.1459  0.4999
  597TMC3     O 8904   0.175   4.237  17.123 -0.4800 -0.7981  0.9860
  597TMC3     H 8905   0.259   4.481  16.843  0.4112 -1.0032  1.2330
  597TMC3    H1 8906   4.731   4.411  17.185 -0.6931  1.0545  0.8735
  597TMC3    H2 8907   4.732   0.052  16.997  1.0216  0.9880 -0.8138
  597TMC3    C7 8908   4.582   4.625  17.155  0.1089  0.2804  0.1151
  597TMC3    C8 8909   0.173   0.007  16.816 -0.7975  0.1242 -0.4451
  597TMC3    O1 8910   4.543   4.540  17.237 -0.6022  0.4044  0.1271
  597TMC3    O2 8911   0.105   0.108  16.808 -0.4649 -0.2712 -0.2246
  598TMC3    C1 8912   3.064   0.818  15.702 -0.3356 -0.1627  0.2221
  598TMC3    C2 8913   3.051   0.698  15.635 -1.0023 -0.3980 -0.1732
  598TMC3    C3 8914   3.049   0.704  15.500  0.0422  0.0375  0.1578
  598TMC3    C4 8915   3.075   0.947  15.644  0.4485 -0.0581 -0.0639
  598TMC3    C5 8916   3.065   0.945  15.504 -0.4707 -0.6774  0.1367
  598TMC3    C6 8917   3.060   0.823  15.437 -0.6072  0.7022  0.4394
  598TMC3     C 8918   3.045   0.813  15.844 -0.1172  0.4055 -0.0718
  598TMC3     O 8919   3.084   0.910  15.904  0.3854  0.3000 -0.0683
  598TMC3     H 8920   3.040   0.603  15.686  1.8849 -0.6985 -0.1608
  598TMC3    H1 8921   3.081   1.040  15.699  1.1691  0.3292 -0.8019
  598TMC3    H2 8922   3.069   0.830  15.329  2.1119  0.5860  0.6687
  598TMC3    C7 8923   3.060   1.073  15.429  0.3660 -0.1284  0.0362
  598TMC3    C8 8924   3.025   0.577  15.437  0.1454 -0.1775 -0.1979
  598TMC3    O1 8925   3.057   1.170  15.506  0.1079 -0.1376 -0.0818
  598TMC3    O2 8926   2.979   0.494  15.512 -0.2915  0.8713  0.2228
  599MPD2     C 8927   3.122   3.283  15.886 -0.1972 -0.1197 -0.0067
  599MPD2    C1 8928   3.068   3.156  15.882  0.1806 -0.5092 -0.0347
  599MPD2    C2 8929   2.938   3.130  15.929  0.6956 -0.1118  0.4398
  599MPD2    C3 8930   2.868   3.229  15.994 -0.1081  0.3423 -0.7018
  599MPD2    C4 8931   2.932   3.352  16.007 -0.7593  0.3474  0.5202
  599MPD2    C5 8932   3.047   3.385  15.939  0.2682  0.2751 -0.3482
  599MPD2     H 8933   2.896   3.030  15.935 -0.2541  0.3124  1.0331
  599MPD2    H1 8934   2.882   3.440  16.047 -1.2442  0.4490 -0.3170
  599MPD2    H2 8935   3.220   3.312  15.848  0.9202 -0.9186  2.2329
  599MPD2    H3 8936   3.094   3.482  15.950 -0.9924  0.7606  0.7093
  599MPD2     N 8937   2.751   3.207  16.072  0.6626  0.2141  0.5244
  599MPD2    H5 8938   2.721   3.276  16.141 -1.1845  0.2741 -0.3271
  599MPD2    N1 8939   3.158   3.059  15.833 -0.0334  0.1161 -0.1959
  599MPD2    H7 8940   3.252   3.096  15.819 -0.4143  1.6814  1.3806
  600TMC3    C1 8941   2.560   3.083  16.153 -0.4073 -0.0592 -0.2769
  600TMC3    C2 8942   2.449   3.011  16.123  0.3825 -0.2069  0.2649
  600TMC3    C3 8943   2.356   2.987  16.223 -0.0853  0.3045  0.3068
  600TMC3    C4 8944   2.577   3.145  16.276  0.0833  0.1217  0.1858
  600TMC3    C5 8945   2.474   3.129  16.365  0.2326  0.2877 -0.6891
  600TMC3    C6 8946   2.369   3.054  16.339 -0.3241 -0.6959 -0.6814
  600TMC3     C 8947   2.671   3.093  16.060 -0.0806  0.1886 -0.4929
  600TMC3     O 8948   2.682   2.998  15.984  0.7765 -0.4964  0.1011
  600TMC3     H 8949   2.463   2.961  16.028  0.3200  1.4328 -0.6028
  600TMC3    H1 8950   2.674   3.182  16.306 -0.8975  2.0951  0.9977
  600TMC3    H2 8951   2.288   3.062  16.410  0.0311  1.0518 -0.4723
  600TMC3    C7 8952   2.465   3.221  16.476 -0.8290 -0.1221  0.0143
  600TMC3    C8 8953   2.231   2.933  16.187 -0.0038 -0.1416  0.3433
  600TMC3    O1 8954   2.364   3.237  16.541  0.5506  0.4563  0.5114
  600TMC3    O2 8955   2.192   2.952  16.072 -0.3246 -0.1818 -0.0222
  601MPD2     C 8956   1.006   1.411  17.659 -0.5829 -1.0549  0.2925
  601MPD2    C1 8957   0.889   1.459  17.717  0.4204 -0.3461 -0.0169
  601MPD2    C2 8958   0.864   1.411   0.115  0.6597 -0.1138 -0.7905
  601MPD2    C3 8959   0.944   1.310   0.168  0.3820 -0.2610 -0.5849
  601MPD2    C4 8960   1.037   1.245   0.099 -0.1543  0.1361 -0.1217
  601MPD2    C5 8961   1.076   1.302  17.709  0.1407  0.3093 -0.0481
  601MPD2     H 8962   0.782   1.448   0.176 -0.2916 -2.0812 -0.8856
  601MPD2    H1 8963   1.099   1.166   0.141  0.8545  1.1697  0.3205
  601MPD2    H2 8964   1.036   1.443  17.560  3.8644 -2.6017  1.1118
  601MPD2    H3 8965   1.150   1.253  17.647  0.6315 -0.0251  0.8005
  601MPD2     N 8966   0.917   1.259   0.295  0.3364 -0.2854  0.3374
  601MPD2    H5 8967   0.938   1.161   0.309 -1.4722 -0.0840  4.6064
  601MPD2    N1 8968   0.800   1.557  17.664  0.0219 -0.6197  0.7617
  601MPD2    H7 8969   0.717   1.560  17.722 -0.0247  3.7586  0.4794
  602TMC3    C1 8970   0.705   1.720  17.516  0.2253  0.2765 -0.2192
  602TMC3    C2 8971   0.580   1.682  17.573  0.7925  0.5351  0.3760
  602TMC3    C3 8972   0.471   1.687  17.494 -0.3493 -0.3083 -0.3532
  602TMC3    C4 8973   0.705   1.764  17.388  0.4229 -0.1762 -0.8320
  602TMC3    C5 8974   0.590   1.750  17.310  0.4947 -0.1843 -0.4837
  602TMC3    C6 8975   0.472   1.711  17.359  0.6275  0.9590  0.1692
  602TMC3     C 8976   0.818   1.629  17.552  0.3684  0.2294 -0.2646
  602TMC3     O 8977   0.914   1.627  17.477 -0.7623 -0.2646 -0.1660
  602TMC3     H 8978   0.569   1.646  17.675 -0.5114 -1.1601 -0.3528
  602TMC3    H1 8979   0.794   1.796  17.336  0.1051  0.2755 -1.0901
  602TMC3    H2 8980   0.388   1.678  17.298  1.1877 -0.1370 -0.0245
  602TMC3    C7 8981   0.586   1.828  17.187 -0.3774 -0.0549 -0.1327
  602TMC3    C8 8982   0.343   1.662  17.555  0.0872 -0.1379 -0.0001
  602TMC3    O1 8983   0.672   1.805  17.099  0.2298  0.3036 -0.1294
  602TMC3    O2 8984   0.325   1.581  17.647 -0.8018 -0.1748  0.2897
  603TMC3    C1 8985   2.442   2.272  10.479 -0.8778 -0.0911  0.7624
  603TMC3    C2 8986   2.516   2.337  10.577  0.1344  0.0566 -0.1979
  603TMC3    C3 8987   2.611   2.417  10.540 -0.7887  0.7556 -0.4524
  603TMC3    C4 8988   2.459   2.310  10.343 -0.3858  0.1265 -0.2285
  603TMC3    C5 8989   2.561   2.403  10.310  0.0459  0.4589 -0.1166
  603TMC3    C6 8990   2.640   2.446  10.410 -0.5108 -0.3133 -0.2188
  603TMC3     C 8991   2.346   2.174  10.519  0.2311  0.1543  0.0592
  603TMC3     O 8992   2.311   2.176  10.637  0.3805  0.4447  0.5042
  603TMC3     H 8993   2.486   2.322  10.680  0.1572  0.0632 -0.1906
  603TMC3    H1 8994   2.387   2.286  10.265 -0.7279 -0.2738  0.2130
  603TMC3    H2 8995   2.704   2.528  10.379 -2.1611  1.0803  0.0471
  603TMC3    C7 8996   2.585   2.444  10.176  0.9922  0.7495  0.6922
  603TMC3    C8 8997   2.725   2.439  10.632 -0.6158  0.3779 -0.2190
  603TMC3    O1 8998   2.675   2.526  10.163 -0.3749 -0.0265  0.2822
  603TMC3    O2 8999   2.789   2.540  10.609 -0.1109  0.7513  0.1700
  604MPD2     C 9000   4.290   0.786  16.103  0.2067 -0.3276  0.1629
  604MPD2    C1 9001   4.181   0.703  16.080  0.1871  0.0030  1.1002
  604MPD2    C2 9002   4.168   0.641  15.959  0.0450  0.1577 -0.4318
  604MPD2    C3 9003   4.279   0.640  15.880  0.8692 -0.5390 -0.4410
  604MPD2    C4 9004   4.388   0.718  15.914 -0.1708 -0.4086 -0.8376
  604MPD2    C5 9005   4.387   0.801  16.017  0.1806  0.0769 -1.3163
  604MPD2     H 9006   4.080   0.582  15.936 -0.5842  0.1997  1.7841
  604MPD2    H1 9007   4.474   0.727  15.848 -0.1316  2.6571 -0.3909
  604MPD2    H2 9008   4.303   0.841  16.195 -0.3861 -0.7430  0.4900
  604MPD2    H3 9009   4.470   0.864  16.047 -1.0391  0.8118  0.5201
  604MPD2     N 9010   4.274   0.557  15.762 -0.0581 -1.1193 -0.1152
  604MPD2    H5 9011   4.182   0.523  15.737 -0.0336 -2.6710  1.8863
  604MPD2    N1 9012   4.090   0.707  16.189  0.2860  0.3566 -0.2519
  604MPD2    H7 9013   4.116   0.760  16.271 -1.0779 -1.4290  1.3259
  605TMC3    C1 9014   3.899   0.658  16.324 -0.2651 -0.1242  0.9512
  605TMC3    C2 9015   3.973   0.697  16.430  0.1531  0.1571 -0.4809
  605TMC3    C3 9016   3.921   0.749  16.546  0.3835 -0.1196  0.6800
  605TMC3    C4 9017   3.768   0.685  16.313  0.5112 -0.0618  0.5844
  605TMC3    C5 9018   3.709   0.740  16.425  0.2291  0.2824 -0.3934
  605TMC3    C6 9019   3.785   0.767  16.542  0.1822  0.4271  0.9167
  605TMC3     C 9020   3.970   0.644  16.196  0.1913 -0.2218  0.5818
  605TMC3     O 9021   3.914   0.586  16.107  0.2496 -0.2431  0.0087
  605TMC3     H 9022   4.077   0.668  16.438  0.2894  0.4772 -1.0117
  605TMC3    H1 9023   3.720   0.684  16.216  0.6186 -1.5102  0.5454
  605TMC3    H2 9024   3.736   0.822  16.621 -0.6657  0.6964  0.2021
  605TMC3    C7 9025   3.578   0.803  16.417 -0.4810  0.1282  0.8799
  605TMC3    C8 9026   4.015   0.817  16.635  1.2867  0.4623  0.2116
  605TMC3    O1 9027   3.550   0.853  16.307 -0.4282  0.3713 -0.2681
  605TMC3    O2 9028   4.119   0.843  16.574 -0.6964 -0.5242  0.2596
  606TMC3    C1 9029   0.430   4.144  17.702  0.6897 -0.2769 -0.1382
  606TMC3    C2 9030   0.558   4.119   0.017  0.1503  0.3782  0.7046
  606TMC3    C3 9031   0.620   4.015  17.683 -0.4501  0.2759  0.2081
  606TMC3    C4 9032   0.384   4.091  17.586 -0.4992  0.5280  0.5078
  606TMC3    C5 9033   0.455   3.985  17.533  0.5515  0.3309  0.2501
  606TMC3    C6 9034   0.570   3.948  17.582  0.5710 -0.4720 -0.7175
  606TMC3     C 9035   0.361   4.252   0.029  0.1135  0.4000 -0.9386
  606TMC3     O 9036   0.428   4.345   0.075  0.4306 -0.1519 -0.4927
  606TMC3     H 9037   0.600   4.177   0.098  0.7054  1.4630 -0.3542
  606TMC3    H1 9038   0.302   4.140  17.534  0.1725  1.3734  0.2466
  606TMC3    H2 9039   0.627   3.873  17.527  0.6950 -0.4695 -0.5919
  606TMC3    C7 9040   0.395   3.904  17.428 -0.2313 -0.6372 -0.1319
  606TMC3    C8 9041   0.757   3.973  17.726  0.6489 -0.3916 -0.0854
  606TMC3    O1 9042   0.462   3.873  17.332  0.0148 -0.0024 -0.2431
  606TMC3    O2 9043   0.791   3.858  17.693 -0.0253 -0.0381 -0.2557
  607MPD2     C 9044   2.389   2.779  11.753 -0.1916 -0.1585 -0.5163
  607MPD2    C1 9045   2.528   2.750  11.749  0.5251 -0.3816  0.1461
  607MPD2    C2 9046   2.594   2.696  11.855  0.3063 -0.0583 -0.9687
  607MPD2    C3 9047   2.528   2.648  11.960  0.5423  0.1305  0.4751
  607MPD2    C4 9048   2.387   2.657  11.963 -0.2249  0.1199  0.5872
  607MPD2    C5 9049   2.319   2.733  11.867  0.1529 -0.1438 -0.4683
  607MPD2     H 9050   2.700   2.675  11.860 -0.3536 -3.5497 -1.5910
  607MPD2    H1 9051   2.338   2.621  12.053 -1.9050 -1.9623 -1.1533
  607MPD2    H2 9052   2.334   2.831  11.675 -2.1622 -1.8229 -0.2293
  607MPD2    H3 9053   2.210   2.731  11.863  0.1849  0.2480 -1.4922
  607MPD2     N 9054   2.607   2.593  12.064 -0.0183  0.0615  0.2032
  607MPD2    H5 9055   2.704   2.620  12.055  0.1548 -0.4688  0.4789
  607MPD2    N1 9056   2.619   2.790  11.650  0.1175 -0.0321 -0.1140
  607MPD2    H7 9057   2.715   2.760  11.658 -0.2453  0.0953  4.9073
  608TMC3    C1 9058   2.714   2.893  11.458 -0.0941  0.0639  0.3568
  608TMC3    C2 9059   2.821   2.928  11.544 -0.9416  0.0584 -0.4164
  608TMC3    C3 9060   2.940   2.953  11.481  0.8069 -0.5411  0.0364
  608TMC3    C4 9061   2.726   2.892  11.328  0.1231 -0.0629  0.5464
  608TMC3    C5 9062   2.838   2.941  11.267 -0.2373  0.3877 -0.3595
  608TMC3    C6 9063   2.951   2.966  11.343  0.6031  0.1654  0.2377
  608TMC3     C 9064   2.589   2.855  11.533  0.1733 -0.2090  0.1312
  608TMC3     O 9065   2.481   2.879  11.481  0.1069  0.1383 -0.1400
  608TMC3     H 9066   2.811   2.932  11.651 -0.5448  2.9832 -0.5108
  608TMC3    H1 9067   2.640   2.863  11.267  1.7711 -0.6522 -1.4991
  608TMC3    H2 9068   3.051   2.983  11.306  0.5639 -2.3165 -1.0728
  608TMC3    C7 9069   2.818   2.993  11.134  0.5384 -0.3113  0.2744
  608TMC3    C8 9070   3.065   2.943  11.558  0.0880 -0.5654  0.0120
  608TMC3    O1 9071   2.722   2.951  11.074 -0.2428 -0.2459  0.0499
  608TMC3    O2 9072   3.163   3.004  11.524  0.1356  0.4586 -0.0952
  609TMC3    C1 9073   0.809   2.182   9.248 -0.7901  0.1158  0.1594
  609TMC3    C2 9074   0.854   2.296   9.194  0.4644 -0.2556  0.3374
  609TMC3    C3 9075   0.989   2.310   9.160  0.8881 -0.0515  0.1467
  609TMC3    C4 9076   0.891   2.070   9.249 -0.4956  0.2562 -0.8010
  609TMC3    C5 9077   1.020   2.083   9.215 -0.2923 -0.3385  0.8653
  609TMC3    C6 9078   1.074   2.201   9.174  0.1859  0.3612  0.2341
  609TMC3     C 9079   0.669   2.167   9.281 -0.1719 -0.4731 -0.3446
  609TMC3     O 9080   0.633   2.066   9.339  0.0169  0.2917  0.3960
  609TMC3     H 9081   0.799   2.389   9.193  0.4604 -0.2571  0.4197
  609TMC3    H1 9082   0.857   1.976   9.290  1.3847  0.2429  0.7238
  609TMC3    H2 9083   1.182   2.213   9.168  0.1817  0.1211 -0.3631
  609TMC3    C7 9084   1.100   1.959   9.219 -0.6281 -0.7261 -0.0691
  609TMC3    C8 9085   1.040   2.440   9.127 -0.8202 -0.0276 -0.2866
  609TMC3    O1 9086   1.050   1.856   9.270  0.3026  0.1939  0.0801
  609TMC3    O2 9087   0.967   2.538   9.143 -0.3953  0.3298  0.4790
  610TMC3    C1 9088   2.543   2.479  12.766 -0.1937  0.6665  0.7764
  610TMC3    C2 9089   2.632   2.548  12.691 -0.1512  0.2983 -0.4295
  610TMC3    C3 9090   2.749   2.488  12.669  0.2960  0.2016  0.0416
  610TMC3    C4 9091   2.566   2.356  12.824  0.5630  0.2496 -0.0111
  610TMC3    C5 9092   2.689   2.306  12.793  0.1245  0.1360  0.0840
  610TMC3    C6 9093   2.777   2.363  12.710  0.4454  0.0046 -0.2849
  610TMC3     C 9094   2.406   2.528  12.766  0.3196 -0.0765 -0.0724
  610TMC3     O 9095   2.381   2.640  12.732  0.3689  0.3432 -0.0941
  610TMC3     H 9096   2.607   2.648  12.658 -0.9756 -0.4273 -2.0231
  610TMC3    H1 9097   2.497   2.298  12.884 -1.9254  2.9844 -0.1992
  610TMC3    H2 9098   2.870   2.315  12.685 -0.1200 -0.4843 -1.4415
  610TMC3    C7 9099   2.742   2.210  12.888  0.3168  0.4715 -0.2076
  610TMC3    C8 9100   2.860   2.559  12.615 -0.7946 -0.5044  0.2687
  610TMC3    O1 9101   2.864   2.205  12.907  0.1832 -0.4142 -0.4960
  610TMC3    O2 9102   2.966   2.499  12.619 -0.4055 -0.1793 -0.5108
  611MPD2     C 9103   1.843   1.846  10.206 -0.4360 -0.2957 -0.2343
  611MPD2    C1 9104   1.760   1.817  10.100 -0.0035 -0.0988 -0.3059
  611MPD2    C2 9105   1.796   1.864   9.973 -0.8436  0.5578 -0.2095
  611MPD2    C3 9106   1.910   1.942   9.964 -0.0254 -0.1521 -0.3074
  611MPD2    C4 9107   1.979   1.985  10.071 -0.3009  0.7608  0.2053
  611MPD2    C5 9108   1.938   1.939  10.192 -0.2145 -0.0840 -0.5017
  611MPD2     H 9109   1.726   1.844   9.893  0.3497 -0.1969 -1.0759
  611MPD2    H1 9110   2.066   2.050  10.076  0.0713  0.2727  0.0031
  611MPD2    H2 9111   1.820   1.807  10.305  1.7594  1.2327  0.8631
  611MPD2    H3 9112   1.995   1.978  10.276  0.7928  0.8154 -1.6157
  611MPD2     N 9113   1.949   1.991   9.839 -0.1575  0.6961  0.6364
  611MPD2    H5 9114   2.038   2.039   9.841  0.5411 -0.5228 -1.4776
  611MPD2    N1 9115   1.642   1.746  10.126 -0.1483  0.1318 -0.1855
  611MPD2    H7 9116   1.628   1.724  10.224  0.1799 -2.1814 -0.6722
  612TMC3    C1 9117   1.983   2.001   9.600 -1.0115  0.0694 -0.2829
  612TMC3    C2 9118   2.061   2.114   9.617  0.2838 -0.1010 -0.3078
  612TMC3    C3 9119   2.158   2.127   9.525 -0.5462  0.3668  0.9695
  612TMC3    C4 9120   1.989   1.917   9.496  0.3197 -0.7525  0.3173
  612TMC3    C5 9121   2.082   1.943   9.400 -0.6990 -0.2972  0.0108
  612TMC3    C6 9122   2.168   2.046   9.414  0.2795  0.5137  0.3603
  612TMC3     C 9123   1.899   1.962   9.713  0.1965 -0.0970 -0.8017
  612TMC3     O 9124   1.814   1.883   9.678 -0.0060 -0.4402  0.4042
  612TMC3     H 9125   2.032   2.187   9.692 -0.5706  1.8069 -2.5008
  612TMC3    H1 9126   1.915   1.838   9.490  1.0204 -1.2862 -1.2711
  612TMC3    H2 9127   2.239   2.065   9.334  1.3424 -0.3024  1.1079
  612TMC3    C7 9128   2.102   1.850   9.290 -0.1636 -0.1320 -0.1059
  612TMC3    C8 9129   2.268   2.227   9.543 -0.0452  0.3713 -0.0707
  612TMC3    O1 9130   2.204   1.881   9.227  0.5720  0.3367  0.7569
  612TMC3    O2 9131   2.343   2.235   9.451  0.0649  0.2606  0.4255
  613MPD2     C 9132   1.411   3.526  16.866  1.0752  0.0774 -0.2838
  613MPD2    C1 9133   1.396   3.660  16.836 -0.3776 -0.6479  0.5784
  613MPD2    C2 9134   1.271   3.703  16.804  0.2611  0.1746 -0.6103
  613MPD2    C3 9135   1.164   3.614  16.815 -0.0888  0.3760 -0.5402
  613MPD2    C4 9136   1.182   3.486  16.858 -0.2025  0.7542  0.3986
  613MPD2    C5 9137   1.311   3.440  16.883 -0.5079  0.1184 -0.2384
  613MPD2     H 9138   1.245   3.805  16.780 -3.3681 -0.8797 -1.2640
  613MPD2    H1 9139   1.101   3.415  16.870  1.2490 -1.0663 -0.7202
  613MPD2    H2 9140   1.512   3.494  16.892  0.2832 -1.8252  0.4706
  613MPD2    H3 9141   1.343   3.346  16.926 -1.6698  0.8742  2.2456
  613MPD2     N 9142   1.035   3.640  16.760 -0.3867  0.0938 -0.3266
  613MPD2    H5 9143   0.977   3.558  16.744  0.3058 -0.5740  0.5675
  613MPD2    N1 9144   1.512   3.746  16.820 -0.0810 -0.4268 -0.4671
  613MPD2    H7 9145   1.604   3.703  16.827  0.7735  1.3614 -0.9844
  614TMC3    C1 9146   1.611   3.908  16.686  0.6951  0.5487 -0.3684
  614TMC3    C2 9147   1.607   3.806  16.595  0.5948  1.0110  0.0439
  614TMC3    C3 9148   1.586   3.840  16.461 -0.0931  0.4472 -0.2187
  614TMC3    C4 9149   1.577   4.032  16.651 -0.3690 -0.1008  0.0029
  614TMC3    C5 9150   1.559   4.067  16.515 -0.1694  0.1797 -0.6842
  614TMC3    C6 9151   1.572   3.969  16.418  0.0017  0.8249  0.4447
  614TMC3     C 9152   1.511   3.875  16.786 -0.1371  0.2213  0.0700
  614TMC3     O 9153   1.420   3.955  16.802 -0.3009  0.1881  0.3249
  614TMC3     H 9154   1.617   3.700  16.617  2.0360  1.2016  0.2796
  614TMC3    H1 9155   1.575   4.101  16.735 -0.7201 -0.3756  0.2190
  614TMC3    H2 9156   1.584   3.983  16.311 -0.3598  2.1684  0.5774
  614TMC3    C7 9157   1.501   4.199  16.478 -0.6855 -0.0244  0.6292
  614TMC3    C8 9158   1.500   3.749  16.382 -0.4774 -0.2271  0.8232
  614TMC3    O1 9159   1.507   4.283  16.562  0.5710 -0.4106  0.3601
  614TMC3    O2 9160   1.428   3.803  16.300  0.0845  0.0971  0.9052
  615MPD2     C 9161   0.342   0.864  16.488 -0.2584 -0.2217 -0.2384
  615MPD2    C1 9162   0.457   0.906  16.417 -0.1256 -0.1490  0.1211
  615MPD2    C2 9163   0.462   0.868  16.286 -0.7141 -0.2074  0.2692
  615MPD2    C3 9164   0.364   0.794  16.219  0.2485 -0.5983  0.2585
  615MPD2    C4 9165   0.254   0.756  16.287  0.0853  0.6197 -0.1066
  615MPD2    C5 9166   0.247   0.783  16.428  0.0567 -0.2360 -0.5125
  615MPD2     H 9167   0.548   0.902  16.230 -1.4537  0.1112 -0.6829
  615MPD2    H1 9168   0.163   0.720  16.241 -0.2684  0.6257  0.5962
  615MPD2    H2 9169   0.322   0.892  16.591 -0.8383  0.5744 -0.5636
  615MPD2    H3 9170   0.159   0.748  16.481  0.6316  0.4922  0.8856
  615MPD2     N 9171   0.371   0.777  16.078 -0.0849  0.0286 -0.4014
  615MPD2    H5 9172   0.285   0.753  16.030 -0.9031 -1.8023  1.9932
  615MPD2    N1 9173   0.552   0.990  16.477  0.1592  0.4131 -0.2948
  615MPD2    H7 9174   0.624   1.025  16.415  0.1860  0.0196 -0.4888
  616TMC3    C1 9175   0.648   1.137  16.625 -0.1592  0.7372  0.3724
  616TMC3    C2 9176   0.748   1.114  16.713  0.0156 -0.2757 -0.0280
  616TMC3    C3 9177   0.866   1.183  16.695  0.5769  0.3415 -0.1889
  616TMC3    C4 9178   0.652   1.223  16.526 -0.7226  0.3742  0.5606
  616TMC3    C5 9179   0.768   1.290  16.508  0.5436 -0.0325 -0.0878
  616TMC3    C6 9180   0.878   1.263  16.583  0.1792 -0.6532 -0.2819
  616TMC3     C 9181   0.553   1.027  16.610  0.1473  0.3538  0.2216
  616TMC3     O 9182   0.494   0.993  16.710  0.4349  0.0302 -0.4098
  616TMC3     H 9183   0.740   1.045  16.796  1.3019  1.3905  1.4900
  616TMC3    H1 9184   0.559   1.235  16.473 -0.6869  0.1092  0.4363
  616TMC3    H2 9185   0.960   1.330  16.561  0.5526 -1.5018 -1.4781
  616TMC3    C7 9186   0.783   1.315  16.372  0.5384 -0.2860  0.3397
  616TMC3    C8 9187   0.985   1.134  16.757 -0.0156 -0.2095 -0.0298
  616TMC3    O1 9188   0.677   1.324  16.312 -0.4157 -0.1841 -0.2471
  616TMC3    O2 9189   0.981   1.016  16.795  0.1180  0.5609  0.1754
  617MPD2     C 9190   3.711   3.833  14.117 -0.0365 -0.5133 -0.1049
  617MPD2    C1 9191   3.734   3.763  14.241  0.2294  0.5067 -0.3331
  617MPD2    C2 9192   3.651   3.783  14.352  0.6133  0.1887  0.6355
  617MPD2    C3 9193   3.539   3.861  14.339  0.0252  0.2184 -0.0357
  617MPD2    C4 9194   3.514   3.919  14.216 -0.7521 -0.3385 -0.5237
  617MPD2    C5 9195   3.593   3.892  14.113  0.2244  0.0009  0.5022
  617MPD2     H 9196   3.673   3.724  14.441  0.8801  0.1669  0.5568
  617MPD2    H1 9197   3.429   3.982  14.196  0.8508  1.6138 -1.2020
  617MPD2    H2 9198   3.763   3.832  14.022  2.9546  0.8360  1.5117
  617MPD2    H3 9199   3.557   3.931  14.018 -1.8550 -1.4329  0.7189
  617MPD2     N 9200   3.447   3.877  14.449 -0.0366 -0.1173 -0.3025
  617MPD2    H5 9201   3.355   3.909  14.420  0.6575  2.9130  0.8762
  617MPD2    N1 9202   3.850   3.682  14.242 -0.1085  0.1045  0.2129
  617MPD2    H7 9203   3.910   3.692  14.160  1.5669 -2.4613  1.1383
  618TMC3    C1 9204   3.994   3.497  14.289 -0.6550  0.7871  0.5902
  618TMC3    C2 9205   3.984   3.360  14.294 -0.2994 -0.0967  0.3498
  618TMC3    C3 9206   4.093   3.293  14.228 -0.0332 -0.8345 -0.0661
  618TMC3    C4 9207   4.104   3.562  14.244  0.1298  0.4401  0.0234
  618TMC3    C5 9208   4.204   3.490  14.184 -0.1706  0.7310 -0.8479
  618TMC3    C6 9209   4.198   3.357  14.174 -0.4856  0.9133 -0.2424
  618TMC3     C 9210   3.876   3.576  14.324  0.1150 -0.0667  0.4632
  618TMC3     O 9211   3.798   3.538  14.412  0.7376 -0.0449 -0.1231
  618TMC3     H 9212   3.890   3.307  14.309 -0.2400 -0.5026 -0.6963
  618TMC3    H1 9213   4.104   3.670  14.250  2.1046  0.4918 -0.9311
  618TMC3    H2 9214   4.287   3.310  14.134  0.4363  3.2362 -0.9119
  618TMC3    C7 9215   4.331   3.564  14.147 -0.0978 -0.5511  0.6516
  618TMC3    C8 9216   4.040   3.183  14.153  0.0934 -0.3641  0.3385
  618TMC3    O1 9217   4.365   3.643  14.232 -0.0100 -0.2019 -0.8277
  618TMC3    O2 9218   3.919   3.156  14.168 -0.0671  0.2077 -0.0440
  619MPD2     C 9219   0.356   0.513  13.556  0.2655 -0.3842  0.4374
  619MPD2    C1 9220   0.233   0.570  13.599  0.4672 -0.4051 -0.2175
  619MPD2    C2 9221   0.119   0.493  13.611  0.5121  0.6603 -0.3997
  619MPD2    C3 9222   0.127   0.357  13.579  0.4400 -0.3498 -0.9079
  619MPD2    C4 9223   0.251   0.301  13.552  0.2668  0.6799  0.4299
  619MPD2    C5 9224   0.366   0.378  13.536 -0.5324 -0.2415 -0.3565
  619MPD2     H 9225   0.024   0.541  13.633  0.6282  0.8114 -0.2252
  619MPD2    H1 9226   0.265   0.194  13.542  0.8790  0.5196  3.0721
  619MPD2    H2 9227   0.444   0.576  13.551  0.5812 -0.7942  0.8138
  619MPD2    H3 9228   0.458   0.341  13.493  0.7935  1.5675  0.9108
  619MPD2     N 9229   0.009   0.276  13.579 -0.2206 -0.0808 -0.5624
  619MPD2    H5 9230   0.020   0.175  13.573  1.2864  0.0077  0.4435
  619MPD2    N1 9231   0.204   0.709  13.614  0.3371 -0.6216 -0.7758
  619MPD2    H7 9232   0.114   0.732  13.656  0.9395  1.3847 -0.6242
  620TMC3    C1 9233   0.242   0.934  13.589  0.2341  0.5012  0.3238
  620TMC3    C2 9234   0.111   0.951  13.545 -0.1300  0.2185 -0.0431
  620TMC3    C3 9235   0.083   1.082  13.513  0.9177 -0.3488 -0.2556
  620TMC3    C4 9236   0.327   1.034  13.597 -0.8467  0.5351  0.0792
  620TMC3    C5 9237   0.289   1.165  13.578 -0.3258  0.7250 -0.7788
  620TMC3    C6 9238   0.161   1.188  13.544 -0.8045 -0.0751 -0.1288
  620TMC3     C 9239   0.297   0.808  13.618 -0.1788  0.3329 -0.6763
  620TMC3     O 9240   0.421   0.798  13.623  0.3738 -0.2385 -0.3922
  620TMC3     H 9241   0.043   0.867  13.532 -1.7364  1.5407 -0.1014
  620TMC3    H1 9242   0.425   1.015  13.641 -0.7257  0.6311 -0.1492
  620TMC3    H2 9243   0.146   1.294  13.523  4.8853  0.5058 -1.1998
  620TMC3    C7 9244   0.378   1.274  13.565 -0.7432 -0.0236  0.0048
  620TMC3    C8 9245   4.676   1.115  13.540 -0.1007  0.0150  0.2664
  620TMC3    O1 9246   0.462   1.290  13.657  0.3808  0.5733  0.0440
  620TMC3    O2 9247   4.655   1.207  13.623  0.0444 -0.1180  0.2825
  621MPD2     C 9248   0.657   0.440   9.271 -0.7411 -0.1377  0.2104
  621MPD2    C1 9249   0.577   0.450   9.384 -0.4924 -0.3958 -0.3953
  621MPD2    C2 9250   0.621   0.539   9.474  0.4010 -0.0715  1.1484
  621MPD2    C3 9251   0.717   0.631   9.453  0.0991 -1.0336 -0.6134
  621MPD2    C4 9252   0.804   0.620   9.344 -0.0515 -0.3208 -0.0658
  621MPD2    C5 9253   0.768   0.519   9.257 -0.2162 -0.0062 -0.2204
  621MPD2     H 9254   0.570   0.539   9.570  0.7173 -0.3071  1.3175
  621MPD2    H1 9255   0.881   0.691   9.318 -2.2538  1.8465 -0.7030
  621MPD2    H2 9256   0.628   0.376   9.188  0.3862 -1.1707  0.6077
  621MPD2    H3 9257   0.820   0.515   9.163  0.4593 -0.9536  0.1961
  621MPD2     N 9258   0.739   0.729   9.555  0.3953 -0.1370 -0.2997
  621MPD2    H5 9259   0.665   0.746   9.623  0.6805  1.7852 -0.4694
  621MPD2    N1 9260   0.453   0.385   9.409 -0.2716 -0.7067 -0.3388
  621MPD2    H7 9261   0.408   0.403   9.499  1.5704  0.6813  0.3009
  622TMC3    C1 9262   0.314   0.199   9.409  0.1398 -0.7891  0.3211
  622TMC3    C2 9263   0.336   0.174   9.542 -0.6632  0.3425 -0.4654
  622TMC3    C3 9264   0.283   0.057   9.596 -0.3310  0.4462  0.7257
  622TMC3    C4 9265   0.245   0.110   9.331  0.2507 -0.4571 -0.3460
  622TMC3    C5 9266   0.190   0.002   9.386  0.3959  0.2261 -0.4163
  622TMC3    C6 9267   0.221   4.702   9.518 -0.8333 -0.7160 -0.5726
  622TMC3     C 9268   0.414   0.276   9.339 -0.5888 -0.0833  0.0424
  622TMC3     O 9269   0.454   0.232   9.233 -0.5345 -0.0697 -0.2677
  622TMC3     H 9270   0.412   0.230   9.596  0.8075 -2.6801  0.5491
  622TMC3    H1 9271   0.246   0.121   9.223 -0.6181 -1.7802 -0.4839
  622TMC3    H2 9272   0.166   4.623   9.568 -2.9013  0.6871 -0.6404
  622TMC3    C7 9273   0.113   4.641   9.304 -0.5804 -0.5547 -0.3110
  622TMC3    C8 9274   0.244   0.053   9.738  0.1872 -0.0462 -0.0577
  622TMC3    O1 9275   0.109   4.522   9.357 -0.3103 -0.3257 -0.4175
  622TMC3    O2 9276   0.214   4.675   9.792 -0.8652 -0.2493 -0.6008
  623MPD2     C 9277   4.286   1.548  15.962 -0.3785 -0.1612  0.0956
  623MPD2    C1 9278   4.277   1.419  16.007  0.3677 -0.2109  0.4523
  623MPD2    C2 9279   4.339   1.391  16.132  0.3810 -0.2280  0.3442
  623MPD2    C3 9280   4.402   1.489  16.204 -0.6472  0.0807  0.5513
  623MPD2    C4 9281   4.413   1.616  16.150  0.1143  0.1220 -0.4474
  623MPD2    C5 9282   4.349   1.648  16.033  0.6261  0.1079 -0.2463
  623MPD2     H 9283   4.333   1.289  16.168 -0.5813  0.2279  1.4733
  623MPD2    H1 9284   4.462   1.694  16.207  0.2753  0.2351 -0.7394
  623MPD2    H2 9285   4.230   1.571  15.872  0.1562  2.7652  0.5075
  623MPD2    H3 9286   4.340   1.749  15.995  1.6856  0.9150  1.7115
  623MPD2     N 9287   4.456   1.455  16.334 -0.0158  0.7898 -0.0387
  623MPD2    H5 9288   4.428   1.360  16.356 -1.4417  1.0982 -0.5164
  623MPD2    N1 9289   4.198   1.319  15.933  0.2244  0.2492  0.1911
  623MPD2    H7 9290   4.132   1.365  15.871  0.4763  2.7667  1.7873
  624TMC3    C1 9291   4.644   1.375  16.740 -0.1941 -0.0849  0.0469
  624TMC3    C2 9292   4.533   1.322  16.787  0.0847 -0.1253  1.0556
  624TMC3    C3 9293   4.417   1.332  16.715 -0.5229 -0.1213  0.3404
  624TMC3    C4 9294   4.641   1.455  16.627  0.2173  0.8841 -0.1948
  624TMC3    C5 9295   4.526   1.466  16.557 -0.0689 -0.0687  0.4794
  624TMC3    C6 9296   4.412   1.400  16.599 -0.1853  0.3361  1.5134
  624TMC3     C 9297   0.038   1.357  16.816 -0.0560 -1.3744 -0.4588
  624TMC3     O 9298   0.025   1.313  16.930  0.2001 -0.8740  0.3662
  624TMC3     H 9299   4.531   1.280  16.886  0.7419  0.4536  1.3146
  624TMC3    H1 9300   4.719   1.523  16.596  0.4372  0.2809 -0.9682
  624TMC3    H2 9301   4.317   1.419  16.552  1.2469  0.4248 -1.3251
  624TMC3    C7 9302   4.527   1.532  16.430  0.8853  0.4784  0.4320
  624TMC3    C8 9303   4.338   1.214  16.731  0.5857 -0.5286 -0.2077
  624TMC3    O1 9304   4.580   1.644  16.423  0.2283  0.7558 -0.7196
  624TMC3    O2 9305   4.283   1.186  16.625 -0.0959 -0.1242  0.1585
  625MPD2     C 9306   0.266   3.074   0.559 -0.0489  0.1348  0.3705
  625MPD2    C1 9307   0.269   2.982   0.667  0.4569 -0.2032  0.2379
  625MPD2    C2 9308   0.386   2.951   0.732 -0.4315 -0.2378  0.2634
  625MPD2    C3 9309   0.503   3.012   0.689  0.1598 -0.9103 -0.0172
  625MPD2    C4 9310   0.502   3.100   0.580 -0.0762  0.5266  0.1931
  625MPD2    C5 9311   0.384   3.139   0.528  0.1834 -0.3083  0.7438
  625MPD2     H 9312   0.388   2.903   0.829  0.6498  2.1361  1.4123
  625MPD2    H1 9313   0.586   3.158   0.544 -0.4090 -0.2878 -1.9294
  625MPD2    H2 9314   0.180   3.102   0.499  0.0366 -1.2512 -0.4065
  625MPD2    H3 9315   0.388   3.224   0.461  1.7688 -0.0317  1.1841
  625MPD2     N 9316   0.613   3.010   0.779 -0.3685  0.4465 -0.6170
  625MPD2    H5 9317   0.585   2.989   0.875 -0.3798  3.0622 -0.0436
  625MPD2    N1 9318   0.154   2.909   0.712  0.3852  0.2484 -1.1080
  625MPD2    H7 9319   0.175   2.827   0.767  2.0104  1.1504 -0.3883
  626TMC3    C1 9320   4.665   2.838   0.747 -0.1784 -1.0903 -0.4349
  626TMC3    C2 9321   4.534   2.840   0.716 -0.4779 -0.1741  0.8342
  626TMC3    C3 9322   4.441   2.785   0.801 -0.8666 -0.1946 -0.6734
  626TMC3    C4 9323   4.707   2.796   0.874  0.4123  0.0492 -0.6534
  626TMC3    C5 9324   4.615   2.746   0.960  0.1113  0.0787  0.6713
  626TMC3    C6 9325   4.478   2.748   0.924 -0.2444 -0.3079 -0.4040
  626TMC3     C 9326   0.026   2.932   0.678  0.2375 -0.2513  0.0450
  626TMC3     O 9327   4.710   3.026   0.616 -0.5636  0.2708  0.7205
  626TMC3     H 9328   4.505   2.904   0.633  1.1829 -1.3849 -0.6756
  626TMC3    H1 9329   0.073   2.818   0.914 -0.0009  0.1706  0.2849
  626TMC3    H2 9330   4.406   2.704   0.993  1.3243 -0.5680  1.0841
  626TMC3    C7 9331   4.641   2.770   1.103  0.5929 -0.7609 -0.4360
  626TMC3    C8 9332   4.306   2.748   0.751  0.5968  0.5575  0.0782
  626TMC3    O1 9333   0.021   2.747   1.143  0.2075 -0.1872  0.5389
  626TMC3    O2 9334   4.227   2.703   0.835  0.1048 -0.3253 -0.1641
  627MPD2     C 9335   2.926   2.839  15.005 -0.4255 -0.5248 -0.2072
  627MPD2    C1 9336   3.016   2.744  15.042 -0.2482 -0.3102  0.4395
  627MPD2    C2 9337   2.981   2.611  15.012  0.4301  0.2217  0.1923
  627MPD2    C3 9338   2.864   2.579  14.954 -0.3573 -0.1009  0.7450
  627MPD2    C4 9339   2.780   2.677  14.907 -0.3118  0.1138  0.9871
  627MPD2    C5 9340   2.816   2.811  14.934  0.8556  0.1067  0.2521
  627MPD2     H 9341   3.047   2.530  15.040  1.1051  0.7137  0.0221
  627MPD2    H1 9342   2.697   2.654  14.841  1.4136 -0.7332 -0.8637
  627MPD2    H2 9343   2.947   2.944  15.024  2.6792 -0.7982 -2.1120
  627MPD2    H3 9344   2.749   2.889  14.900  0.1694 -0.2215  0.8403
  627MPD2     N 9345   2.829   2.440  14.937 -0.2994 -0.2480 -0.8221
  627MPD2    H5 9346   2.878   2.364  14.983  0.9233  1.0460 -0.0406
  627MPD2    N1 9347   3.143   2.758  15.101 -0.0499  0.0681 -0.2414
  627MPD2    H7 9348   3.194   2.672  15.118 -0.7257 -0.0673  1.0849
  628TMC3    C1 9349   3.332   2.873  15.187  0.0177  0.8051  0.2313
  628TMC3    C2 9350   3.400   2.757  15.191  0.5523  0.3012 -0.0699
  628TMC3    C3 9351   3.534   2.760  15.228 -0.2016 -0.2615 -0.2967
  628TMC3    C4 9352   3.380   2.995  15.215 -0.3321 -0.0983  0.5156
  628TMC3    C5 9353   3.516   2.990  15.224 -0.1377 -0.0914  0.6574
  628TMC3    C6 9354   3.595   2.882  15.249  0.4871  0.2386 -0.3132
  628TMC3     C 9355   3.198   2.876  15.128 -0.6171 -0.1976  0.2546
  628TMC3     O 9356   3.152   2.991  15.112  0.0395 -0.4358  0.0503
  628TMC3     H 9357   3.366   2.661  15.154  1.4652 -1.2452  3.0713
  628TMC3    H1 9358   3.322   3.087  15.212  1.0245  0.6164 -3.0752
  628TMC3    H2 9359   3.703   2.890  15.240  0.7565  0.4038  3.0138
  628TMC3    C7 9360   3.590   3.121  15.231  0.2567  0.0078 -0.0416
  628TMC3    C8 9361   3.617   2.644  15.211  0.1472  0.7092  0.0153
  628TMC3    O1 9362   3.709   3.113  15.269 -0.3170  0.2710 -0.3793
  628TMC3    O2 9363   3.563   2.539  15.172 -0.3709  0.3738  0.5195
  629MPD2     C 9364   1.487   1.135  16.850 -0.0433 -0.9115  0.2376
  629MPD2    C1 9365   1.451   1.265  16.831  0.4048  0.0336 -0.0195
  629MPD2    C2 9366   1.316   1.288  16.790 -0.1076  0.2563  0.1052
  629MPD2    C3 9367   1.231   1.184  16.779 -0.0182 -0.7066 -0.0883
  629MPD2    C4 9368   1.277   1.054  16.795 -0.5270 -0.4730  0.4481
  629MPD2    C5 9369   1.407   1.029  16.819 -0.3531  0.2629 -0.0221
  629MPD2     H 9370   1.289   1.389  16.761 -0.1923  0.5885  1.3238
  629MPD2    H1 9371   1.218   0.963  16.784 -1.7356  0.3923 -0.2048
  629MPD2    H2 9372   1.588   1.103  16.875 -0.4696 -0.3905  2.5899
  629MPD2    H3 9373   1.440   0.928  16.843  2.9567  1.5895  0.8547
  629MPD2     N 9374   1.094   1.217  16.742  0.0589  0.5005  0.0839
  629MPD2    H5 9375   1.069   1.315  16.729  0.3959  0.8422  2.0682
  629MPD2    N1 9376   1.537   1.369  16.872  0.4428  0.3102 -0.3127
  629MPD2    H7 9377   1.634   1.349  16.892  0.5265 -0.3984 -1.4371
  630TMC3    C1 9378   1.616   1.587  16.916  0.0183  0.9566  0.3961
  630TMC3    C2 9379   1.622   1.718  16.862  0.4388  0.3458 -0.1300
  630TMC3    C3 9380   1.739   1.792  16.897 -0.6995 -0.7156 -0.2562
  630TMC3    C4 9381   1.719   1.535  16.993 -0.4104  0.2489  0.1484
  630TMC3    C5 9382   1.809   1.624  17.036 -0.5274 -0.5756  0.0772
  630TMC3    C6 9383   1.821   1.756  16.998 -0.0757  0.2593  0.2262
  630TMC3     C 9384   1.506   1.506  16.872  0.5028  0.3047 -0.3336
  630TMC3     O 9385   1.405   1.573  16.844  0.1273  0.7798 -1.1482
  630TMC3     H 9386   1.551   1.748  16.786  1.3921 -0.0772 -1.1840
  630TMC3    H1 9387   1.692   1.445  17.045  0.8226 -1.0220 -1.3934
  630TMC3    H2 9388   1.897   1.822  17.038  2.3567 -1.0563 -2.1642
  630TMC3    C7 9389   1.868   1.587  17.164 -0.2554  1.2464 -0.0609
  630TMC3    C8 9390   1.795   1.888  16.797  0.4098 -0.1352  0.3348
  630TMC3    O1 9391   1.867   1.682  17.244  0.1018  0.1872 -0.0332
  630TMC3    O2 9392   1.911   1.921  16.814  0.0642  0.3579 -0.6547
  631MPD2     C 9393   4.494   1.140  15.707 -0.7630  0.7104 -0.5030
  631MPD2    C1 9394   4.592   1.190  15.618 -0.2617  0.7987  0.6130
  631MPD2    C2 9395   4.706   1.108  15.582  0.2285  0.1967  0.1251
  631MPD2    C3 9396   4.723   0.993  15.654 -0.5168 -0.2138 -0.0560
  631MPD2    C4 9397   4.624   0.950  15.741  0.1952  0.3654 -0.3559
  631MPD2    C5 9398   4.510   1.018  15.769 -0.5788  0.3348 -0.2118
  631MPD2     H 9399   0.050   1.139  15.511 -1.5600  1.3605 -1.3048
  631MPD2    H1 9400   4.628   0.857  15.797 -0.2557  0.0080 -0.9146
  631MPD2    H2 9401   4.407   1.202  15.727 -0.5948  1.2107 -1.3421
  631MPD2    H3 9402   4.433   0.977  15.833  0.9592 -2.0027  0.1423
  631MPD2     N 9403   0.107   0.917  15.632  0.3418  0.7607  0.3840
  631MPD2    H5 9404   0.181   0.960  15.578 -0.6800  0.6635 -1.0887
  631MPD2    N1 9405   4.563   1.323  15.562  0.1458 -0.4693 -0.1617
  631MPD2    H7 9406   4.477   1.368  15.593 -0.7668 -0.5934 -2.5431
  632TMC3    C1 9407   4.563   1.506  15.418 -0.4243 -0.4407  0.4494
  632TMC3    C2 9408   4.549   1.600  15.513  0.3126  0.2417 -0.0524
  632TMC3    C3 9409   4.470   1.705  15.478 -1.1669 -0.1904  0.3321
  632TMC3    C4 9410   4.522   1.528  15.285  0.2804 -0.3590  0.0612
  632TMC3    C5 9411   4.446   1.643  15.258 -0.8710 -0.1376 -0.3062
  632TMC3    C6 9412   4.424   1.732  15.354  0.5040  1.1680  0.4549
  632TMC3     C 9413   4.618   1.375  15.451 -0.2624 -0.2245 -0.1749
  632TMC3     O 9414   4.694   1.323  15.368  0.5833  0.3814 -0.4606
  632TMC3     H 9415   4.585   1.588  15.614  2.1389 -0.7774 -0.8102
  632TMC3    H1 9416   4.516   1.437  15.226  1.0140 -0.5816  0.3306
  632TMC3    H2 9417   4.382   1.829  15.329 -4.0565 -0.5786  1.3729
  632TMC3    C7 9418   4.381   1.635  15.128 -0.6325  0.8197 -0.0974
  632TMC3    C8 9419   4.428   1.803  15.578 -0.8071 -0.2747  0.4948
  632TMC3    O1 9420   4.453   1.585  15.044 -0.1629 -0.1689  0.9172
  632TMC3    O2 9421   4.309   1.832  15.568 -1.4222  0.5673  0.0066
  633MPD2     C 9422   4.233   4.214  17.514  0.3423  0.2152  0.0855
  633MPD2    C1 9423   4.239   4.130  17.401  0.4519 -0.2310  0.0162
  633MPD2    C2 9424   4.210   4.003  17.416 -0.3706  0.3467  0.1068
  633MPD2    C3 9425   4.172   3.948  17.540 -0.4844  0.1288  0.5576
  633MPD2    C4 9426   4.167   4.033  17.645  0.1600  0.1349 -0.0432
  633MPD2    C5 9427   4.203   4.168  17.635  0.0246 -0.3453 -0.0901
  633MPD2     H 9428   4.231   3.940  17.331  1.8608 -0.3386  1.1704
  633MPD2    H1 9429   4.149   3.986   0.012  0.9974 -0.3938 -0.1458
  633MPD2    H2 9430   4.274   4.315  17.505  0.5792  0.1248  0.1448
  633MPD2    H3 9431   4.200   4.229  17.724 -0.7898 -0.7977  0.1939
  633MPD2     N 9432   4.144   3.809  17.562 -0.0440  0.0350 -0.1269
  633MPD2    H5 9433   4.125   3.774  17.655  0.7923 -0.4059 -0.1213
  633MPD2    N1 9434   4.285   4.176  17.275 -0.7472  0.1327 -0.3743
  633MPD2    H7 9435   4.304   4.110  17.201  1.2433  0.7027 -0.3802
  634TMC3    C1 9436   4.333   4.336  17.101 -0.3289 -0.4075 -0.4654
  634TMC3    C2 9437   4.437   4.257  17.057 -0.0565 -0.1166  1.0968
  634TMC3    C3 9438   4.496   4.281  16.936  0.2200 -0.2481  0.5283
  634TMC3    C4 9439   4.273   4.431  17.024  0.5073 -0.1901  0.3503
  634TMC3    C5 9440   4.326   4.447  16.896 -0.2532  0.2731 -0.5978
  634TMC3    C6 9441   4.444   4.381  16.852 -0.1320  0.4843  0.1702
  634TMC3     C 9442   4.277   4.314  17.233  0.8124  0.5624 -0.0635
  634TMC3     O 9443   4.208   4.400  17.289 -0.1692  0.1599  0.2641
  634TMC3     H 9444   4.498   4.190  17.117  0.4529 -1.7187 -1.2114
  634TMC3    H1 9445   4.191   4.493  17.058  1.7083  1.8472 -0.4104
  634TMC3    H2 9446   4.499   4.409  16.763 -2.1661 -0.8171 -1.4986
  634TMC3    C7 9447   4.240   4.503  16.791  0.0940  0.7518  0.9496
  634TMC3    C8 9448   4.549   4.160  16.873 -0.6583  0.1818  0.4771
  634TMC3    O1 9449   4.286   4.486  16.677  0.4600  0.3706 -0.2548
  634TMC3    O2 9450   4.525   4.055  16.930 -0.0237  0.4791 -0.2459
  635TMC3    C1 9451   0.280   0.641   0.101 -0.1740 -0.3031  0.0909
  635TMC3    C2 9452   0.323   0.639  17.701 -0.2957  0.4797 -0.1383
  635TMC3    C3 9453   0.238   0.607  17.595  0.2058  0.0460 -0.6295
  635TMC3    C4 9454   0.148   0.624   0.127  0.3619 -0.6769  0.4736
  635TMC3    C5 9455   0.057   0.603   0.025  0.2129 -1.1209 -0.2456
  635TMC3    C6 9456   0.106   0.590  17.625 -0.0033  0.2262 -0.5549
  635TMC3     C 9457   0.360   0.700   0.208  0.0333 -0.4104 -0.0285
  635TMC3     O 9458   0.447   0.780   0.190 -0.0275  1.0310  0.2088
  635TMC3     H 9459   0.430   0.637  17.687 -0.2262  0.3449  0.4076
  635TMC3    H1 9460   0.122   0.656   0.227  1.3126  0.4479  0.3678
  635TMC3    H2 9461   0.051   0.557  17.538 -0.9508  0.1150  0.0873
  635TMC3    C7 9462   4.647   0.620   0.050  0.5585 -0.3810  0.6303
  635TMC3    C8 9463   0.291   0.574  17.460  0.8577  0.0643 -0.0819
  635TMC3    O1 9464   4.607   0.691   0.139 -0.0980 -0.5667  0.1559
  635TMC3    O2 9465   0.205   0.509  17.391  0.1443 -0.5637 -0.2497
  636MPD2     C 9466   0.989   4.285  16.009 -0.0433 -0.3319  0.7621
  636MPD2    C1 9467   0.966   4.314  16.137 -0.0677 -0.2061  0.0765
  636MPD2    C2 9468   0.958   4.211  16.224  0.1992  0.2054 -0.0741
  636MPD2    C3 9469   0.950   4.079  16.181  0.0480  0.7170 -0.4185
  636MPD2    C4 9470   0.967   4.048  16.051 -0.7387  0.2817  0.8544
  636MPD2    C5 9471   0.985   4.154  15.966  0.2348 -0.3598 -0.5162
  636MPD2     H 9472   0.938   4.247  16.324 -1.8651  0.3856 -0.5462
  636MPD2    H1 9473   0.958   3.952  16.002  1.4335  0.7475 -0.4452
  636MPD2    H2 9474   1.007   4.361  15.933 -1.1149  0.9209  1.7509
  636MPD2    H3 9475   0.991   4.128  15.861  1.9559 -1.6065 -0.1208
  636MPD2     N 9476   0.926   3.983  16.275 -0.2510  0.2329  0.4021
  636MPD2    H5 9477   0.912   4.014  16.371  2.0391  1.1270  0.4510
  636MPD2    N1 9478   0.974   4.445  16.183 -0.0758 -0.0541  0.4869
  636MPD2    H7 9479   0.986   4.451  16.283  2.2783 -0.3620  0.2178
  637TMC3    C1 9480   0.859   3.769  16.366 -0.3602 -0.5372 -0.0160
  637TMC3    C2 9481   0.893   3.817  16.494  0.1539  0.8017  0.5457
  637TMC3    C3 9482   0.895   3.729  16.601  0.4849  0.2072  0.7600
  637TMC3    C4 9483   0.849   3.632  16.356  0.5881  0.0022  0.1253
  637TMC3    C5 9484   0.835   3.549  16.461  0.8790 -0.1663 -0.3388
  637TMC3    C6 9485   0.842   3.603  16.591 -0.1759  0.5175 -0.1813
  637TMC3     C 9486   0.906   3.847  16.251  0.1446 -0.1661  0.7830
  637TMC3     O 9487   0.925   3.779  16.147  0.1294  0.2707 -0.5845
  637TMC3     H 9488   0.938   3.915  16.506 -0.4311  0.7036  3.4950
  637TMC3    H1 9489   0.815   3.604  16.257 -0.5366  0.5868  0.3500
  637TMC3    H2 9490   0.833   3.533  16.673  2.1325 -0.2995 -0.6196
  637TMC3    C7 9491   0.934   3.448  16.442 -0.0703  0.0379  0.0147
  637TMC3    C8 9492   0.992   3.755  16.701  0.1506 -0.3019 -0.0927
  637TMC3    O1 9493   0.922   3.338  16.487 -0.4005 -0.0248 -0.0936
  637TMC3    O2 9494   1.037   3.866  16.716 -0.2645 -0.4694  0.3524
  638MPD2     C 9495   0.680   3.223  15.178  0.0525  0.4754  0.3004
  638MPD2    C1 9496   0.599   3.138  15.110  0.4453  0.0262  0.5357
  638MPD2    C2 9497   0.566   3.027  15.179 -0.2451  0.2378  0.5225
  638MPD2    C3 9498   0.619   3.004  15.308  0.1435 -0.5101  0.2158
  638MPD2    C4 9499   0.696   3.091  15.371 -0.6600  0.3394 -0.0405
  638MPD2    C5 9500   0.723   3.206  15.307 -0.5330  0.1940 -0.5792
  638MPD2     H 9501   0.496   2.955  15.136  1.2886 -1.0036  0.0790
  638MPD2    H1 9502   0.731   3.073  15.472 -0.3610  2.1561  0.1795
  638MPD2    H2 9503   0.717   3.315  15.134 -2.4498  1.2147 -0.2579
  638MPD2    H3 9504   0.783   3.280  15.357  0.1406 -0.4862 -0.3862
  638MPD2     N 9505   0.576   2.875  15.358 -0.5807  0.1567  0.5135
  638MPD2    H5 9506   0.510   2.823  15.300 -0.5316  1.1959 -0.4737
  638MPD2    N1 9507   0.563   3.176  14.976 -0.4612 -0.6451  0.0259
  638MPD2    H7 9508   0.609   3.255  14.931  0.0274 -1.0576 -0.1992
  639TMC3    C1 9509   0.575   2.670  15.467  0.6092 -0.2711  0.0569
  639TMC3    C2 9510   0.442   2.648  15.431 -0.1752  0.5062 -0.6950
  639TMC3    C3 9511   0.416   2.518  15.393  0.3163  0.1454  0.6177
  639TMC3    C4 9512   0.672   2.578  15.499 -0.6470 -0.1282  0.2511
  639TMC3    C5 9513   0.622   2.448  15.484  0.3176  0.0752  0.0211
  639TMC3    C6 9514   0.500   2.413  15.429 -0.2281  0.4275 -0.1450
  639TMC3     C 9515   0.630   2.809  15.461 -0.2460  0.9965  0.1673
  639TMC3     O 9516   0.733   2.843  15.523 -0.1647  0.3652 -0.1346
  639TMC3     H 9517   0.374   2.727  15.401 -1.4289 -0.8909 -1.4939
  639TMC3    H1 9518   0.770   2.609  15.535 -0.8834  2.4004 -1.2925
  639TMC3    H2 9519   0.483   2.313  15.393  1.1978 -0.1625  0.8275
  639TMC3    C7 9520   0.727   2.347  15.472 -0.0178 -0.1383  0.5667
  639TMC3    C8 9521   0.315   2.476  15.295  0.2507  0.6786 -0.0479
  639TMC3    O1 9522   0.702   2.227  15.480  0.3624 -0.1471 -0.1857
  639TMC3    O2 9523   0.337   2.376  15.231 -0.2952 -0.6502  0.6554
  640MPD2     C 9524   0.365   1.441  10.464  0.1988  0.7570 -0.4092
  640MPD2    C1 9525   0.383   1.570  10.419 -0.0254 -0.7132 -0.2509
  640MPD2    C2 9526   0.379   1.672  10.512  0.9847  0.2776 -0.1124
  640MPD2    C3 9527   0.378   1.650  10.652  0.3783 -0.4414 -0.0347
  640MPD2    C4 9528   0.352   1.522  10.690  0.1792 -0.1112 -0.7298
  640MPD2    C5 9529   0.347   1.424  10.596 -0.5666 -0.1626  0.0127
  640MPD2     H 9530   0.383   1.774  10.476 -0.0085  0.5344  0.5190
  640MPD2    H1 9531   0.336   1.502  10.795 -0.4376  3.0189 -0.2116
  640MPD2    H2 9532   0.362   1.357  10.396 -2.5876 -0.9670  1.8611
  640MPD2    H3 9533   0.344   1.323  10.637 -3.6100  0.3623  1.1220
  640MPD2     N 9534   0.383   1.758  10.749  0.4536 -0.2495  0.7413
  640MPD2    H5 9535   0.363   1.730  10.845  1.5888 -1.4708  0.6256
  640MPD2    N1 9536   0.406   1.586  10.278 -0.1169  0.0083  0.4557
  640MPD2    H7 9537   0.440   1.504  10.229  0.5628 -0.3513  1.5340
  641TMC3    C1 9538   0.465   1.704  10.076 -0.2150  0.5210  0.0345
  641TMC3    C2 9539   0.554   1.609  10.044 -0.0033 -0.0563 -0.1755
  641TMC3    C3 9540   0.608   1.616   9.919 -0.3758  0.0053  0.1692
  641TMC3    C4 9541   0.403   1.800   9.996  0.0956 -0.0267  0.6297
  641TMC3    C5 9542   0.441   1.782   9.867 -0.0273  0.9873 -0.1147
  641TMC3    C6 9543   0.548   1.704   9.827  0.1161 -0.3917 -0.1457
  641TMC3     C 9544   0.399   1.707  10.209  0.2984  0.6012 -0.3090
  641TMC3     O 9545   0.340   1.809  10.241  0.1515 -0.4948  0.3176
  641TMC3     H 9546   0.601   1.558  10.127 -1.4167  1.2890  1.4444
  641TMC3    H1 9547   0.332   1.874  10.033  1.0563  1.1415  0.1350
  641TMC3    H2 9548   0.589   1.701   9.727 -0.9008 -2.3906 -0.4827
  641TMC3    C7 9549   0.375   1.865   9.766 -0.3491  0.0353  0.0399
  641TMC3    C8 9550   0.712   1.528   9.871  0.6752 -0.3574 -0.2635
  641TMC3    O1 9551   0.420   1.863   9.651 -0.1643 -0.5749 -0.3373
  641TMC3    O2 9552   0.737   1.534   9.752  0.2670  0.1129 -0.0798
  642TMC3    C1 9553   1.945   3.102  13.138  0.1611  0.3369 -0.9793
  642TMC3    C2 9554   2.058   3.095  13.216 -0.2160 -0.9849 -0.5165
  642TMC3    C3 9555   2.091   2.983  13.284  0.4353  0.1092 -0.3687
  642TMC3    C4 9556   1.866   2.987  13.130 -0.2770 -0.4794 -0.2676
  642TMC3    C5 9557   1.905   2.877  13.198  0.2183 -0.4811  0.2273
  642TMC3    C6 9558   2.007   2.875  13.287  0.0824 -0.8947  0.1498
  642TMC3     C 9559   1.946   3.200  13.032 -0.4627  0.7324 -0.3700
  642TMC3     O 9560   2.053   3.243  12.994 -0.2255  0.7823 -0.5417
  642TMC3     H 9561   2.133   3.174  13.227 -0.6766 -0.2259 -2.7447
  642TMC3    H1 9562   1.785   2.978  13.059 -0.9127  1.1003  0.2608
  642TMC3    H2 9563   2.048   2.792  13.344 -0.4222 -1.2289  0.0194
  642TMC3    C7 9564   1.889   2.754  13.129  0.3402 -1.0582 -0.0543
  642TMC3    C8 9565   2.212   2.973  13.362 -0.3774  0.0434 -0.2936
  642TMC3    O1 9566   1.775   2.735  13.090  0.7783  0.4963 -0.3824
  642TMC3    O2 9567   2.206   2.909  13.467 -0.1231  0.3748 -0.5480
  643TMC3    C1 9568   1.326   2.270   0.602  0.0557  0.2941 -0.3594
  643TMC3    C2 9569   1.199   2.308   0.576  0.2032  0.3694  0.2695
  643TMC3    C3 9570   1.170   2.358   0.452  0.5920  0.2591  0.1793
  643TMC3    C4 9571   1.419   2.268   0.501 -1.2263  0.8360  0.4693
  643TMC3    C5 9572   1.384   2.309   0.384 -0.4643  0.1078  0.8644
  643TMC3    C6 9573   1.263   2.354   0.353  0.2850 -0.3085 -0.4464
  643TMC3     C 9574   1.381   2.295   0.730  0.1447 -0.2770  0.4792
  643TMC3     O 9575   1.311   2.346   0.819  0.1656  0.4882 -0.1045
  643TMC3     H 9576   1.136   2.332   0.661  2.0452  0.8505  1.5072
  643TMC3    H1 9577   1.525   2.254   0.521 -0.7921  2.2932 -0.7633
  643TMC3    H2 9578   1.252   2.396   0.253  0.4196  0.3943 -0.1706
  643TMC3    C7 9579   1.486   2.313   0.280  0.1537  0.0764  0.5700
  643TMC3    C8 9580   1.046   2.422   0.436 -0.3686  0.1701  0.5906
  643TMC3    O1 9581   1.492   2.399   0.191  0.2168  0.2212 -0.6836
  643TMC3    O2 9582   0.962   2.396   0.524 -0.0617 -0.6501  0.1554
  644MPD2     C 9583   1.187   2.334   9.504 -0.2818 -0.3300  0.2441
  644MPD2    C1 9584   1.130   2.215   9.548  0.0371 -0.5003 -0.2440
  644MPD2    C2 9585   0.993   2.210   9.565 -0.6708 -0.2237  0.3486
  644MPD2    C3 9586   0.921   2.329   9.541 -0.0435 -0.2060 -0.3261
  644MPD2    C4 9587   0.984   2.447   9.510  0.3296 -0.0665  0.1700
  644MPD2    C5 9588   1.115   2.447   9.497 -0.0879 -0.1371 -0.5683
  644MPD2     H 9589   0.951   2.116   9.600  0.8761 -0.3998  1.7311
  644MPD2    H1 9590   0.930   2.541   9.500 -1.3336 -0.9776  0.5291
  644MPD2    H2 9591   1.294   2.352   9.504 -0.5160  1.0369  2.1929
  644MPD2    H3 9592   1.159   2.540   9.464 -2.2365  1.5231  1.2099
  644MPD2     N 9593   0.781   2.315   9.575 -0.1225 -0.4976  0.7405
  644MPD2    H5 9594   0.746   2.231   9.620  3.4726 -1.6369  1.3742
  644MPD2    N1 9595   1.216   2.100   9.558  0.3028  0.1739 -0.4262
  644MPD2    H7 9596   1.316   2.114   9.545  0.4320  1.0474  1.5533
  645TMC3    C1 9597   0.566   2.392   9.631  0.7394 -0.7338  0.2160
  645TMC3    C2 9598   0.468   2.477   9.603 -0.5748 -0.3914 -0.7384
  645TMC3    C3 9599   0.342   2.451   9.648  0.8254  0.8041  0.0856
  645TMC3    C4 9600   0.544   2.296   9.731  0.6761  0.7080  0.2134
  645TMC3    C5 9601   0.423   2.281   9.785  0.6167 -0.1075  0.3740
  645TMC3    C6 9602   0.317   2.363   9.750  0.1961 -0.4892 -0.4518
  645TMC3     C 9603   0.690   2.416   9.556 -0.4910  0.0828 -0.3640
  645TMC3     O 9604   0.702   2.511   9.481 -0.0559 -0.3774  0.3576
  645TMC3     H 9605   0.486   2.548   9.523  1.0584  0.4731  0.3978
  645TMC3    H1 9606   0.612   2.216   9.757 -1.2595 -0.3759  1.9126
  645TMC3    H2 9607   0.225   2.358   9.806  0.2076 -0.1490 -0.4063
  645TMC3    C7 9608   0.413   2.234   9.920 -0.0846  0.5957  0.4624
  645TMC3    C8 9609   0.245   2.562   9.630  0.4166  0.2057  0.0389
  645TMC3    O1 9610   0.298   2.211   9.952 -0.1250  0.0857  0.0006
  645TMC3    O2 9611   0.276   2.660   9.560 -0.7474 -0.0686 -0.1054
  646MPD2     C 9612   0.180   1.534  15.140  0.8455  0.1282 -0.0422
  646MPD2    C1 9613   0.277   1.620  15.097 -0.0963 -0.4752  1.0396
  646MPD2    C2 9614   0.244   1.726  15.016  0.0368  0.7420  0.0509
  646MPD2    C3 9615   0.117   1.737  14.960  0.9733  0.3067 -0.0427
  646MPD2    C4 9616   0.019   1.645  14.997 -1.0446  0.7260  0.3775
  646MPD2    C5 9617   0.058   1.550  15.087 -0.3828 -0.0167  0.2574
  646MPD2     H 9618   0.318   1.803  14.996  0.5050  0.0520 -0.8618
  646MPD2    H1 9619   4.646   1.654  14.971 -1.6704  1.4744  3.1328
  646MPD2    H2 9620   0.196   1.441  15.193 -0.6399  0.1213  0.3947
  646MPD2    H3 9621   4.711   1.486  15.125 -0.2741 -0.9728 -1.1576
  646MPD2     N 9622   0.083   1.849  14.878  0.3674 -1.0065  0.0848
  646MPD2    H5 9623   0.132   1.937  14.894 -0.9562  0.0367 -1.5996
  646MPD2    N1 9624   0.407   1.595  15.147  0.2999  0.6333 -0.2773
  646MPD2    H7 9625   0.415   1.537  15.231  0.7276 -0.8670 -1.3546
  647TMC3    C1 9626   0.640   1.567  15.142 -0.0837  0.7708 -0.0133
  647TMC3    C2 9627   0.624   1.427  15.144  0.5992  0.3125  0.2337
  647TMC3    C3 9628   0.735   1.352  15.129  0.0237  0.6099 -0.5011
  647TMC3    C4 9629   0.766   1.622  15.146 -0.2824  0.4049  0.0076
  647TMC3    C5 9630   0.878   1.537  15.133 -0.0409 -0.4578 -0.3928
  647TMC3    C6 9631   0.866   1.405  15.118  0.2927  0.3751  0.1019
  647TMC3     C 9632   0.528   1.651  15.102  0.1749  0.2731 -0.3479
  647TMC3     O 9633   0.545   1.745  15.020  0.1391  0.3116 -0.1065
  647TMC3     H 9634   0.525   1.386  15.159  0.8867  0.3063  2.0441
  647TMC3    H1 9635   0.788   1.728  15.141  0.9226  0.1884  0.7529
  647TMC3    H2 9636   0.953   1.345  15.095  1.2214  1.6597  0.2615
  647TMC3    C7 9637   1.000   1.567  15.194 -0.3799  0.7653 -0.4273
  647TMC3    C8 9638   0.731   1.216  15.182 -0.2171  0.1209  0.4206
  647TMC3    O1 9639   1.095   1.507  15.145  0.6130  0.0899 -0.0800
  647TMC3    O2 9640   0.646   1.189  15.267  0.0380 -0.2344 -0.4573
  648TMC3    C1 9641   0.246   4.024  16.276  0.4469  0.7615 -0.0192
  648TMC3    C2 9642   0.221   3.894  16.239 -0.4482 -0.1447  0.9052
  648TMC3    C3 9643   0.231   3.860  16.106 -0.1510 -0.0787  0.8993
  648TMC3    C4 9644   0.278   4.121  16.184  0.3300  0.5507 -0.3273
  648TMC3    C5 9645   0.285   4.077  16.052 -0.0910  0.0322 -0.1942
  648TMC3    C6 9646   0.272   3.946  16.009  0.0271 -0.4704  0.3165
  648TMC3     C 9647   0.245   4.064  16.413 -0.2095  1.1924  0.2124
  648TMC3     O 9648   0.259   4.184  16.435 -0.2882  0.3060 -0.3356
  648TMC3     H 9649   0.180   3.816  16.303  1.5813 -3.0888 -1.3921
  648TMC3    H1 9650   0.300   4.222  16.214 -2.9221  0.3853  2.6233
  648TMC3    H2 9651   0.275   3.923  15.903  1.3919  1.1229  0.0146
  648TMC3    C7 9652   0.250   4.179  15.954 -0.6631  0.2957 -0.5574
  648TMC3    C8 9653   0.230   3.719  16.084 -0.3266  0.8081 -0.3753
  648TMC3    O1 9654   0.287   4.164  15.835  0.0482 -0.3486  0.3618
  648TMC3    O2 9655   0.153   3.648  16.146  0.5267 -0.0247 -0.3600
  649TMC3    C1 9656   3.557   0.718  12.716  0.6945 -0.1662 -0.9339
  649TMC3    C2 9657   3.640   0.679  12.608 -0.6288 -0.5270 -0.0704
  649TMC3    C3 9658   3.739   0.592  12.655  0.5064  0.0230  0.1845
  649TMC3    C4 9659   3.571   0.671  12.843 -0.1886  0.3345 -0.2068
  649TMC3    C5 9660   3.663   0.581  12.874 -0.5884  0.3363  0.4531
  649TMC3    C6 9661   3.756   0.536  12.780  0.6442 -1.1508  0.1942
  649TMC3     C 9662   3.481   0.837  12.702 -0.4402 -0.3901 -0.5597
  649TMC3     O 9663   3.456   0.908  12.802  0.0117 -0.1435  0.1856
  649TMC3     H 9664   3.632   0.715  12.506 -1.5817 -1.7666 -0.4291
  649TMC3    H1 9665   3.504   0.706  12.921 -1.9194 -0.2593 -1.4459
  649TMC3    H2 9666   3.816   0.448  12.800  1.6547 -0.9114 -1.7526
  649TMC3    C7 9667   3.657   0.523  13.007  0.0392  0.2315  0.1618
  649TMC3    C8 9668   3.838   0.558  12.557  0.2537 -0.2338  0.5042
  649TMC3    O1 9669   3.544   0.526  13.056  0.1537 -0.6332 -0.4710
  649TMC3    O2 9670   3.804   0.542  12.440  0.4192 -0.4164 -0.0806
  650TMC3    C1 9671   1.281   1.953  12.622 -0.4455 -0.4204 -0.0170
  650TMC3    C2 9672   1.267   2.087  12.615 -0.3158 -0.2084 -0.7504
  650TMC3    C3 9673   1.249   2.145  12.487  0.5016 -0.4607  0.2644
  650TMC3    C4 9674   1.306   1.879  12.512  0.4096 -0.4337 -0.1921
  650TMC3    C5 9675   1.305   1.942  12.393 -0.3057 -0.5263 -0.1752
  650TMC3    C6 9676   1.274   2.069  12.372  0.1706  0.2571  0.2567
  650TMC3     C 9677   1.325   1.904  12.751  0.1555  0.2293  0.3052
  650TMC3     O 9678   1.317   1.985  12.843  0.2796 -0.3337  0.0756
  650TMC3     H 9679   1.246   2.146  12.704  1.1694  0.3721 -0.7808
  650TMC3    H1 9680   1.335   1.774  12.516 -0.1814 -0.5150  1.8869
  650TMC3    H2 9681   1.290   2.121  12.278  0.7525 -0.6739 -0.1592
  650TMC3    C7 9682   1.342   1.858  12.274 -0.7231  0.3453 -0.3296
  650TMC3    C8 9683   1.251   2.292  12.472  0.1831  0.5862  0.7463
  650TMC3    O1 9684   1.392   1.746  12.300  0.3703 -0.1453  0.4104
  650TMC3    O2 9685   1.308   2.353  12.559  0.3511 -0.2193 -0.4920
  651MPD2     C 9686   0.034   4.009  10.355 -0.2196  0.2643  0.0471
  651MPD2    C1 9687   0.049   4.102  10.457  0.6763 -0.3662  0.0617
  651MPD2    C2 9688   0.173   4.159  10.475  0.2928 -0.0136  0.2114
  651MPD2    C3 9689   0.277   4.127  10.390  0.4905 -0.8085  0.2423
  651MPD2    C4 9690   0.259   4.037  10.292  0.3975 -0.3988 -0.5662
  651MPD2    C5 9691   0.136   3.981  10.270  0.1730  0.3307  0.4036
  651MPD2     H 9692   0.191   4.225  10.560  0.5519  0.7564 -0.4475
  651MPD2    H1 9693   0.326   4.038  10.206 -2.1443 -0.7521 -2.5520
  651MPD2    H2 9694   4.666   3.970  10.342 -0.6970  1.7847 -0.7972
  651MPD2    H3 9695   0.125   3.916  10.184  2.1542 -0.1093  0.4915
  651MPD2     N 9696   0.401   4.186  10.421  0.7983 -0.0769  0.4608
  651MPD2    H5 9697   0.407   4.240  10.507 -0.6484  2.1858 -0.8712
  651MPD2    N1 9698   4.681   4.157  10.543 -0.1242 -0.1219 -0.3588
  651MPD2    H7 9699   4.717   4.231  10.602 -0.4341 -0.9933  0.9094
  652TMC3    C1 9700   0.865   4.245  10.447 -1.0629 -0.2208 -0.1746
  652TMC3    C2 9701   0.758   4.184  10.391 -0.0304  1.0366 -0.6281
  652TMC3    C3 9702   0.632   4.224  10.422  0.1098  0.1821  0.1167
  652TMC3    C4 9703   0.857   4.364  10.515  0.2020 -0.2185 -0.3491
  652TMC3    C5 9704   0.730   4.406  10.537 -0.2816 -0.4894 -0.2947
  652TMC3    C6 9705   0.615   4.345  10.493  0.4946  0.6025  0.6968
  652TMC3     C 9706   0.996   4.187  10.421 -0.0012 -0.6281  0.9632
  652TMC3     O 9707   0.998   4.097  10.334  0.0444 -0.6402  0.4492
  652TMC3     H 9708   0.768   4.098  10.327 -0.0098  0.3902  0.2432
  652TMC3    H1 9709   0.945   4.395  10.569 -0.8842  1.3549  0.5329
  652TMC3    H2 9710   0.518   4.374  10.531 -0.1281 -0.8929  0.2294
  652TMC3    C7 9711   0.712   4.533  10.599 -1.1532 -0.1262  0.0337
  652TMC3    C8 9712   0.521   4.154  10.357 -0.3446 -0.5850  0.5115
  652TMC3    O1 9713   0.599   4.558  10.645  0.0701  0.3178 -0.3580
  652TMC3    O2 9714   0.541   4.073  10.261  0.5325  0.3551  0.4183
  653MPD2     C 9715   3.836   4.041  17.699 -0.1961  0.0785 -0.7626
  653MPD2    C1 9716   3.844   4.093  17.576 -0.3248  0.1655 -0.2971
  653MPD2    C2 9717   3.821   4.007  17.477  0.3629  0.3145 -0.4138
  653MPD2    C3 9718   3.797   3.874  17.498 -0.1898  0.3514 -0.7482
  653MPD2    C4 9719   3.796   3.817  17.624  0.3288 -0.0953 -0.1495
  653MPD2    C5 9720   3.817   3.904   0.000 -0.0714  0.6621 -0.4341
  653MPD2     H 9721   3.817   4.047  17.376  1.4425  0.6761 -0.3186
  653MPD2    H1 9722   3.780   3.711  17.644  0.7649 -0.0026  0.6825
  653MPD2    H2 9723   3.852   4.102   0.058 -2.9561 -0.1117 -0.1351
  653MPD2    H3 9724   3.830   3.862   0.099  1.4055  1.3646 -0.3249
  653MPD2     N 9725   3.776   3.794  17.381  0.2782 -0.0207 -0.2498
  653MPD2    H5 9726   3.770   3.839  17.290  0.8002 -2.0288 -1.2781
  653MPD2    N1 9727   3.856   4.236  17.553  0.2915 -0.0185  0.0798
  653MPD2    H7 9728   3.842   4.261  17.456 -1.5735  1.6514  0.7734
  654TMC3    C1 9729   3.714   3.608  17.248 -0.7853 -0.2841  0.1927
  654TMC3    C2 9730   3.624   3.687  17.186 -0.6052 -0.7783  0.0886
  654TMC3    C3 9731   3.585   3.640  17.062  0.3568  0.2451  0.3241
  654TMC3    C4 9732   3.736   3.479  17.219  0.6444  0.1208  0.2311
  654TMC3    C5 9733   3.684   3.430  17.104  0.0420  0.6404 -0.2065
  654TMC3    C6 9734   3.608   3.511  17.023  0.7440 -0.0514 -0.2208
  654TMC3     C 9735   3.769   3.654  17.377  0.6235 -0.5677  0.5093
  654TMC3     O 9736   3.793   3.559  17.457  0.2313  0.0059 -0.5752
  654TMC3     H 9737   3.598   3.786  17.220  2.0058  0.1997 -0.7613
  654TMC3    H1 9738   3.811   3.423  17.273  0.5188  0.4908  0.7907
  654TMC3    H2 9739   3.575   3.485  16.923  1.5325 -0.0494 -0.4782
  654TMC3    C7 9740   3.718   3.301  17.052 -0.6661  0.5236  0.4020
  654TMC3    C8 9741   3.529   3.740  16.980 -0.0681  0.2392  0.6185
  654TMC3    O1 9742   3.665   3.274  16.943  0.3510  0.9128 -0.4070
  654TMC3    O2 9743   3.503   3.843  17.040 -1.0144 -0.0411  0.5041
  655MPD2     C 9744   0.659   4.216  15.874 -0.1720 -0.3282  0.5301
  655MPD2    C1 9745   0.672   4.353  15.844  0.0936  0.5630  0.4192
  655MPD2    C2 9746   0.749   4.383  15.734  0.4101 -0.0441 -1.0134
  655MPD2    C3 9747   0.793   4.289  15.643  0.0129 -0.4844  0.7009
  655MPD2    C4 9748   0.789   4.157  15.675  0.4690  0.5913  0.1073
  655MPD2    C5 9749   0.724   4.121  15.793 -0.1306  0.4532 -0.3688
  655MPD2     H 9750   0.768   4.489  15.726 -0.4013  0.0708 -1.4303
  655MPD2    H1 9751   0.842   4.084  15.615 -0.1258  0.6415 -0.4728
  655MPD2    H2 9752   0.601   4.176  15.956 -0.6297 -0.1450  0.2967
  655MPD2    H3 9753   0.735   4.020  15.829  2.9831  0.9947  0.1835
  655MPD2     N 9754   0.846   4.329  15.521  0.2460 -0.2916  0.1554
  655MPD2    H5 9755   0.896   4.260  15.467 -0.4477 -0.0560 -0.7905
  655MPD2    N1 9756   0.638   4.461  15.934 -0.2547 -0.2779 -0.6258
  655MPD2    H7 9757   0.642   4.557  15.900  0.2222 -1.0225 -2.6725
  656TMC3    C1 9758   0.517   4.561  16.098 -0.2931 -0.2813  0.0495
  656TMC3    C2 9759   0.410   4.532  16.172  0.6373 -0.4196  0.1912
  656TMC3    C3 9760   0.292   4.601  16.151 -0.2545 -0.6549 -0.3322
  656TMC3    C4 9761   0.511   4.664  16.004 -0.0136  0.2757  0.0848
  656TMC3    C5 9762   0.394   4.726  15.983  0.5148 -0.6611 -0.6922
  656TMC3    C6 9763   0.289   4.704  16.066 -0.4277  0.2679 -0.2199
  656TMC3     C 9764   0.588   4.441  16.060  0.4337 -0.2769  0.7222
  656TMC3     O 9765   0.582   4.336  16.123  0.2032  0.3998 -0.3429
  656TMC3     H 9766   0.400   4.444  16.234  1.1270 -0.0015  0.8663
  656TMC3    H1 9767   0.602   4.700  15.957 -1.4906  0.6456 -2.4927
  656TMC3    H2 9768   0.198   0.030  16.062 -1.2669 -1.1488 -2.0761
  656TMC3    C7 9769   0.372   0.008  15.839 -0.4025  0.5971  0.8834
  656TMC3    C8 9770   0.179   4.571  16.233  0.3168 -0.2426  0.3665
  656TMC3    O1 9771   0.445   4.677  15.763 -0.1327  0.1631  0.4801
  656TMC3    O2 9772   0.171   4.456  16.279  0.1345  0.0144  0.3284
  657TMC3    C1 9773   4.293   3.783  15.669  0.3540 -0.8420  0.0153
  657TMC3    C2 9774   4.342   3.690  15.753  0.3344  0.3668  0.0445
  657TMC3    C3 9775   4.273   3.651  15.863  0.3206  0.3935 -0.0276
  657TMC3    C4 9776   4.163   3.833  15.688  0.8912  0.3907 -0.0009
  657TMC3    C5 9777   4.090   3.783  15.785 -0.3662  0.2763  0.0703
  657TMC3    C6 9778   4.147   3.696  15.875  0.0347  0.0896  0.0717
  657TMC3     C 9779   4.365   3.818  15.546 -0.2973 -0.4021  0.4024
  657TMC3     O 9780   4.334   3.920  15.492 -0.3721 -0.2335  0.1198
  657TMC3     H 9781   4.449   3.671  15.757  0.5379  1.9880  2.2167
  657TMC3    H1 9782   4.133   3.913  15.622 -1.2506  0.6144  1.2484
  657TMC3    H2 9783   4.090   3.675  15.964 -0.1782  0.1605 -0.0469
  657TMC3    C7 9784   3.951   3.818  15.802  0.1576 -0.3688  0.2567
  657TMC3    C8 9785   4.318   3.551  15.957  0.2796 -0.6895 -0.4950
  657TMC3    O1 9786   3.904   3.804  15.917  0.4198 -0.5019  0.3918
  657TMC3    O2 9787   4.250   3.527  16.058 -0.0900 -0.1438  0.1518
  658MPD2     C 9788   1.304   4.141  15.073  0.4108  0.7215  0.5456
  658MPD2    C1 9789   1.206   4.219  15.008  0.3080 -0.2391 -0.4483
  658MPD2    C2 9790   1.237   4.251  14.882  0.0937 -0.6956 -0.0527
  658MPD2    C3 9791   1.349   4.209  14.810 -0.3932 -0.4336 -0.5617
  658MPD2    C4 9792   1.435   4.118  14.867 -0.2906  0.3971 -0.6287
  658MPD2    C5 9793   1.409   4.089  14.993 -0.2400 -0.1820  0.1454
  658MPD2     H 9794   1.163   4.304  14.822 -0.9677 -0.6716  1.2786
  658MPD2    H1 9795   1.527   4.094  14.814  1.4563  1.0424  2.0591
  658MPD2    H2 9796   1.287   4.097  15.170  2.1180 -0.3305  0.3673
  658MPD2    H3 9797   1.475   4.015  15.036 -0.8325 -1.0393 -0.4345
  658MPD2     N 9798   1.356   4.244  14.672  0.0363 -0.1322 -0.3015
  658MPD2    H5 9799   1.275   4.291  14.633 -0.5631 -0.7769  0.1516
  658MPD2    N1 9800   1.099   4.275  15.081 -0.3465 -0.1210 -0.0700
  658MPD2    H7 9801   1.088   4.264  15.182 -0.5637  0.7083 -0.0053
  659TMC3    C1 9802   0.885   4.378  15.119 -0.2217  0.4923  1.0026
  659TMC3    C2 9803   0.901   4.395  15.255 -0.2329  0.5458  0.2677
  659TMC3    C3 9804   0.802   4.464  15.318 -0.2569 -0.1991  0.6364
  659TMC3    C4 9805   0.770   4.435  15.049  0.7536 -0.4515  0.4381
  659TMC3    C5 9806   0.667   4.495  15.121  0.1962 -0.0974 -0.6406
  659TMC3    C6 9807   0.684   4.509  15.257  0.5340  0.4103  0.3664
  659TMC3     C 9808   0.994   4.348  15.024  0.6691 -0.0483  1.0738
  659TMC3     O 9809   0.970   4.367  14.905  0.2919  0.0575 -0.1309
  659TMC3     H 9810   0.985   4.357  15.312 -1.0138  0.5895  1.4481
  659TMC3    H1 9811   0.773   4.421  14.941  1.2272  2.3439  0.0934
  659TMC3    H2 9812   0.619   4.573  15.316  0.4826  1.7609 -1.1671
  659TMC3    C7 9813   0.534   4.465  15.068  0.0377 -0.0052  0.5905
  659TMC3    C8 9814   0.802   4.450  15.466 -0.2142 -0.2386 -0.2262
  659TMC3    O1 9815   0.524   4.470  14.943  0.3361 -0.3479 -0.2696
  659TMC3    O2 9816   0.732   4.539  15.511 -0.0386  0.3149 -0.0148
  660MPD2     C 9817   3.070   3.146  12.706  0.6553  0.6717 -0.2446
  660MPD2    C1 9818   2.948   3.202  12.722  0.1662  0.4715 -0.4601
  660MPD2    C2 9819   2.904   3.225  12.846 -0.1543 -0.2444  0.9383
  660MPD2    C3 9820   2.977   3.195  12.961 -0.5335  0.1220 -0.2170
  660MPD2    C4 9821   3.101   3.138  12.948  0.3978 -0.6637 -0.3175
  660MPD2    C5 9822   3.144   3.128  12.819 -0.9093 -0.4361 -1.4807
  660MPD2     H 9823   2.805   3.268  12.857 -1.0872 -2.0387 -0.5516
  660MPD2    H1 9824   3.166   3.122  13.033 -0.4425 -1.3086  0.1979
  660MPD2    H2 9825   3.117   3.119  12.612 -2.0934  1.7361 -1.9089
  660MPD2    H3 9826   3.247   3.100  12.799 -1.3265 -2.8107 -0.2514
  660MPD2     N 9827   2.930   3.217  13.091  0.1892 -0.3049  0.1391
  660MPD2    H5 9828   2.992   3.183  13.163 -2.1290 -1.1926  1.7097
  660MPD2    N1 9829   2.875   3.233  12.606  0.0986 -0.3825  0.4388
  660MPD2    H7 9830   2.925   3.222  12.518  0.5985  4.2699  0.1593
  661TMC3    C1 9831   2.714   3.376  12.486 -0.1912  0.0213  0.5288
  661TMC3    C2 9832   2.816   3.426  12.410 -0.2444  0.3160 -0.3108
  661TMC3    C3 9833   2.791   3.538  12.335  0.0848  0.0252  0.3321
  661TMC3    C4 9834   2.589   3.431  12.477  0.0898 -0.6477 -0.4962
  661TMC3    C5 9835   2.566   3.535  12.393 -0.0950  0.7313 -0.1556
  661TMC3    C6 9836   2.665   3.591  12.320  0.1478  0.0341  0.9828
  661TMC3     C 9837   2.744   3.278  12.594  0.0666 -0.4588  0.5710
  661TMC3     O 9838   2.650   3.248  12.669 -0.2530 -0.0332 -0.1098
  661TMC3     H 9839   2.917   3.390  12.422 -0.6181 -0.3190  0.9050
  661TMC3    H1 9840   2.510   3.392  12.541 -0.3875 -2.8181 -2.4088
  661TMC3    H2 9841   2.644   3.662  12.240  0.0441 -1.8997 -0.7179
  661TMC3    C7 9842   2.424   3.572  12.358 -0.0128  0.4002 -1.0966
  661TMC3    C8 9843   2.863   3.535  12.210 -0.4406 -0.6259 -0.3174
  661TMC3    O1 9844   2.415   3.695  12.359  0.1514 -0.2280  0.1626
  661TMC3    O2 9845   2.857   3.639  12.149 -0.3102 -0.1553 -0.5374
  662MPD2     C 9846   3.494   3.096  17.189  0.0598 -0.0054 -0.5502
  662MPD2    C1 9847   3.483   2.988  17.280 -0.1502  0.4580  0.6591
  662MPD2    C2 9848   3.427   2.999  17.407 -0.2934 -0.3292 -0.1348
  662MPD2    C3 9849   3.352   3.112  17.436  1.3164 -0.0497  0.8680
  662MPD2    C4 9850   3.354   3.217  17.347 -0.1780 -0.2385 -0.0644
  662MPD2    C5 9851   3.418   3.212  17.224  0.5701 -0.3237 -0.9045
  662MPD2     H 9852   3.441   2.917  17.477  1.2446  0.5172  0.5610
  662MPD2    H1 9853   3.292   3.303  17.369 -1.0113 -0.7888 -0.2590
  662MPD2    H2 9854   3.535   3.096  17.089 -0.1189 -0.0581 -0.6241
  662MPD2    H3 9855   3.423   3.303  17.166 -0.0959 -0.2428 -0.8384
  662MPD2     N 9856   3.290   3.125  17.558 -0.7102  0.2876  0.0580
  662MPD2    H5 9857   3.268   3.222  17.576  1.8244  0.9566 -0.4713
  662MPD2    N1 9858   3.531   2.859  17.251  0.2160 -0.2912 -0.2022
  662MPD2    H7 9859   3.542   2.784  17.318 -0.8678 -0.1825  0.0852
  663TMC3    C1 9860   3.623   2.685  17.107 -0.7234  0.1077 -0.0301
  663TMC3    C2 9861   3.686   2.624  17.214  0.0158  0.1276  0.4272
  663TMC3    C3 9862   3.737   2.503  17.193  0.0759 -0.0731  0.0510
  663TMC3    C4 9863   3.583   2.610  17.003  0.2606  0.3314 -0.9648
  663TMC3    C5 9864   3.611   2.475  17.012  0.0548  0.9025  0.5020
  663TMC3    C6 9865   3.678   2.418  17.106 -0.8920 -0.3642  0.9006
  663TMC3     C 9866   3.565   2.819  17.118  0.1903  0.5148 -0.8705
  663TMC3     O 9867   3.515   2.872  17.020  0.1138  0.4239  0.4895
  663TMC3     H 9868   3.734   2.683  17.291 -0.6984  4.2156 -2.2446
  663TMC3    H1 9869   3.519   2.651  16.926  0.1890  1.1851 -0.4431
  663TMC3    H2 9870   3.732   2.326  17.086 -1.7896 -0.7022  0.0264
  663TMC3    C7 9871   3.528   2.390  16.925 -0.2770  0.0102  0.5226
  663TMC3    C8 9872   3.752   2.434  17.318  0.4621  0.1361  0.7874
  663TMC3    O1 9873   3.447   2.445  16.859 -0.0973 -0.3024  0.6442
  663TMC3    O2 9874   3.853   2.370  17.330 -0.6623 -0.0560  0.1242
  664MPD2     C 9875   1.569   1.071   0.531  0.5768  0.6015 -0.1096
  664MPD2    C1 9876   1.644   1.179   0.562 -0.0100 -0.4021 -0.9030
  664MPD2    C2 9877   1.687   1.185   0.694  0.1172 -0.9937 -1.1665
  664MPD2    C3 9878   1.656   1.090   0.787 -0.0571 -1.1152 -0.0595
  664MPD2    C4 9879   1.578   0.979   0.749 -0.1204 -0.5863 -0.1040
  664MPD2    C5 9880   1.536   0.972   0.619 -0.4355 -0.9659  0.1027
  664MPD2     H 9881   1.746   1.268   0.731 -1.1358  0.2151 -1.8712
  664MPD2    H1 9882   1.545   0.888   0.797  0.9361 -0.3945  0.9788
  664MPD2    H2 9883   1.544   1.048   0.428  4.0976  3.3980 -1.6021
  664MPD2    H3 9884   1.472   0.890   0.591  0.6182 -1.6541 -0.3069
  664MPD2     N 9885   1.696   1.109   0.924  0.3228  0.3648 -0.0649
  664MPD2    H5 9886   1.762   1.185   0.941 -0.4670  0.7515  1.2938
  664MPD2    N1 9887   1.688   1.279   0.470  0.2858  0.0883  0.6042
  664MPD2    H7 9888   1.733   1.364   0.501  1.2909 -0.8359  1.6697
  665TMC3    C1 9889   1.695   1.100   1.156  0.8929  0.7574 -0.4893
  665TMC3    C2 9890   1.617   1.070   1.268  0.4770 -0.2476 -0.3650
  665TMC3    C3 9891   1.660   1.129   1.385 -0.1024 -0.1339 -0.1485
  665TMC3    C4 9892   1.812   1.165   1.160  0.2495  0.3426  0.1250
  665TMC3    C5 9893   1.838   1.236   1.277 -0.0693  1.0512  0.4131
  665TMC3    C6 9894   1.764   1.220   1.387  0.0542  0.0688  0.5887
  665TMC3     C 9895   1.643   1.040   1.032 -0.0691 -0.9326  0.0173
  665TMC3     O 9896   1.561   0.952   1.043  0.7791  0.3685  0.6701
  665TMC3     H 9897   1.528   1.008   1.273  0.1031  0.4034  1.1780
  665TMC3    H1 9898   1.884   1.169   1.078 -1.1657  0.6149 -1.1001
  665TMC3    H2 9899   1.785   1.277   1.478  1.3984  1.8476 -0.8347
  665TMC3    C7 9900   1.968   1.292   1.293  0.1866  0.3338 -0.0930
  665TMC3    C8 9901   1.589   1.088   1.504  0.4930  0.5987 -0.1190
  665TMC3    O1 9902   2.063   1.236   1.233  0.3626  0.1896 -0.1631
  665TMC3    O2 9903   1.473   1.051   1.489  0.1208  0.1289 -0.7181
  666TMC3    C1 9904   0.862   0.889   9.676 -0.3314  0.0554  0.1998
  666TMC3    C2 9905   0.968   0.853   9.756  0.0801 -0.4593 -0.1344
  666TMC3    C3 9906   0.950   0.868   9.890 -0.3976  0.0231  0.7909
  666TMC3    C4 9907   0.752   0.938   9.727  0.4747  0.8653 -0.5474
  666TMC3    C5 9908   0.742   0.968   9.860  0.6027 -0.3532 -0.7837
  666TMC3    C6 9909   0.845   0.941   9.950 -1.1289 -1.4262  0.6007
  666TMC3     C 9910   0.850   0.796   9.564 -0.0204 -0.1610  0.4861
  666TMC3     O 9911   0.948   0.805   9.496  0.0691  1.0237  0.2133
  666TMC3     H 9912   1.053   0.796   9.719  1.6209  3.1856 -2.1503
  666TMC3    H1 9913   0.666   0.952   9.661  0.8539 -0.8609 -1.4043
  666TMC3    H2 9914   0.841   0.941  10.059 -0.5748  1.8990  0.6332
  666TMC3    C7 9915   0.627   1.056   9.907 -0.7592  0.1862  0.3625
  666TMC3    C8 9916   1.050   0.828   9.987 -0.1686  0.3356  0.1864
  666TMC3    O1 9917   0.608   1.076  10.024  0.4079  0.6362  0.2065
  666TMC3    O2 9918   1.005   0.765  10.084  0.2936 -0.5288 -0.6055
  667MPD2     C 9919   2.596   0.798  14.739 -0.5221 -0.0599 -0.1250
  667MPD2    C1 9920   2.490   0.834  14.824 -0.3634 -0.0135 -0.4204
  667MPD2    C2 9921   2.396   0.735  14.839 -0.0285 -0.1395 -0.6849
  667MPD2    C3 9922   2.380   0.625  14.761  0.6263  0.2224 -0.0033
  667MPD2    C4 9923   2.475   0.597  14.665 -0.7915  0.3871 -0.7556
  667MPD2    C5 9924   2.580   0.682  14.662  0.0470 -0.2319  0.1708
  667MPD2     H 9925   2.321   0.752  14.915 -1.0890 -1.5430 -1.3914
  667MPD2    H1 9926   2.459   0.505  14.609 -2.1513 -0.4103  0.9489
  667MPD2    H2 9927   2.685   0.857  14.724  0.0485 -0.5441  1.3595
  667MPD2    H3 9928   2.664   0.651  14.601 -2.7354 -1.5895 -2.9655
  667MPD2     N 9929   2.287   0.524  14.780 -0.5081 -0.4858 -0.3200
  667MPD2    H5 9930   2.281   0.459  14.703 -2.2891 -0.2494 -0.3828
  667MPD2    N1 9931   2.485   0.959  14.893 -0.0231  0.3966  0.5005
  667MPD2    H7 9932   2.398   0.978  14.943  0.6625  1.3173  1.3410
  668TMC3    C1 9933   2.545   1.183  14.949 -0.5634  0.4661 -0.2578
  668TMC3    C2 9934   2.646   1.274  14.979  0.0876 -0.1748 -0.1086
  668TMC3    C3 9935   2.642   1.341  15.096  0.6363  0.1937  0.5961
  668TMC3    C4 9936   2.433   1.184  15.022  0.2853 -0.4280  0.4958
  668TMC3    C5 9937   2.427   1.267  15.136 -0.6021  0.9860  0.2202
  668TMC3    C6 9938   2.539   1.334  15.182 -0.3700  1.0215  0.2658
  668TMC3     C 9939   2.581   1.052  14.884  0.1438 -0.5025  0.3527
  668TMC3     O 9940   2.699   1.028  14.865 -0.1609  0.0515  0.1646
  668TMC3     H 9941   2.737   1.274  14.920 -0.9786  1.5589 -1.7336
  668TMC3    H1 9942   2.340   1.131  15.002 -0.1130  0.2162  0.6040
  668TMC3    H2 9943   2.534   1.382  15.278  2.9734  0.2690  0.8087
  668TMC3    C7 9944   2.316   1.242  15.230 -1.1071 -1.5394  0.5366
  668TMC3    C8 9945   2.714   1.465  15.116  0.6510 -0.0140  0.3299
  668TMC3    O1 9946   2.355   1.252  15.344  0.0782 -0.8248  0.5097
  668TMC3    O2 9947   2.731   1.501  15.231 -0.0862 -0.2482  0.0574
  669TMC3    C1 9948   0.654   0.751  14.525 -0.5005 -0.2283 -0.1987
  669TMC3    C2 9949   0.527   0.758  14.468  0.0131 -0.4180  0.1124
  669TMC3    C3 9950   0.503   0.846  14.366  0.0696 -0.3580 -0.1357
  669TMC3    C4 9951   0.752   0.836  14.486  0.0581 -1.0599 -0.1185
  669TMC3    C5 9952   0.721   0.921  14.389 -0.3914 -0.3356  0.0857
  669TMC3    C6 9953   0.601   0.937  14.333 -0.3310 -0.1110 -0.5372
  669TMC3     C 9954   0.671   0.669  14.642  0.1810  0.4100  0.2654
  669TMC3     O 9955   0.566   0.612  14.670  0.0232  0.0074  0.7960
  669TMC3     H 9956   0.444   0.704  14.511 -0.3554 -0.8314 -1.1562
  669TMC3    H1 9957   0.849   0.832  14.534  0.3480 -0.2705 -0.6393
  669TMC3    H2 9958   0.592   1.014  14.257 -0.2838 -0.3283 -0.7633
  669TMC3    C7 9959   0.821   1.018  14.355  0.1829  0.4297  0.0337
  669TMC3    C8 9960   0.369   0.872  14.322  0.5738 -0.3930 -0.4549
  669TMC3    O1 9961   0.883   1.064  14.447 -0.1843 -0.3564 -0.3308
  669TMC3    O2 9962   0.288   0.871  14.419 -0.6222  0.2059 -0.8032
  670MPD2     C 9963   3.282   3.593  14.097 -0.6776  0.4560 -0.0593
  670MPD2    C1 9964   3.403   3.531  14.111 -0.3124 -0.2854  0.1123
  670MPD2    C2 9965   3.458   3.508  14.234 -0.2505  0.6608 -0.6140
  670MPD2    C3 9966   3.387   3.537  14.344  0.4158 -0.7927  0.2281
  670MPD2    C4 9967   3.257   3.602  14.332  0.5431  0.5590 -0.2819
  670MPD2    C5 9968   3.206   3.621  14.207  0.1906 -0.2206 -0.1966
  670MPD2     H 9969   3.556   3.463  14.245 -0.4213  1.0218  2.2361
  670MPD2    H1 9970   3.198   3.625  14.421 -0.1629 -0.8092 -0.3900
  670MPD2    H2 9971   3.246   3.624  13.999  1.9968 -1.0446 -1.5326
  670MPD2    H3 9972   3.112   3.674  14.198  0.2330  0.1439  1.5505
  670MPD2     N 9973   3.449   3.499  14.458 -0.0953 -0.2724  0.4113
  670MPD2    H5 9974   3.550   3.495  14.451 -0.0416 -0.2343  1.1182
  670MPD2    N1 9975   3.481   3.491  14.001 -0.0438 -0.2603 -0.0237
  670MPD2    H7 9976   3.565   3.437  14.020 -0.5634 -1.3550 -0.8072
  671TMC3    C1 9977   3.465   3.456  14.699  0.3190 -0.2266 -0.6359
  671TMC3    C2 9978   3.587   3.411  14.664  0.3323 -0.2795  0.7044
  671TMC3    C3 9979   3.644   3.319  14.746 -0.2671 -0.0013 -0.3796
  671TMC3    C4 9980   3.379   3.381  14.790 -0.0596 -0.6729  0.5915
  671TMC3    C5 9981   3.433   3.269  14.841  0.2445  1.1277 -0.0759
  671TMC3    C6 9982   3.566   3.238  14.825 -0.2563 -0.4367 -0.8523
  671TMC3     C 9983   3.383   3.471  14.578  0.7477 -0.3302 -0.2783
  671TMC3     O 9984   3.264   3.451  14.596 -0.5353 -0.2597 -0.8119
  671TMC3     H 9985   3.660   3.488  14.639  1.4830 -2.0687 -1.4879
  671TMC3    H1 9986   3.276   3.409  14.808 -0.2964 -1.0798 -0.1307
  671TMC3    H2 9987   3.604   3.145  14.865  1.5975  0.8922  0.4714
  671TMC3    C7 9988   3.350   3.149  14.834 -0.7100  0.2963 -0.4248
  671TMC3    C8 9989   3.747   3.241  14.680  0.3922  0.4811  0.0142
  671TMC3    O1 9990   3.386   3.051  14.900  0.0254 -0.4475  0.0573
  671TMC3    O2 9991   3.730   3.232  14.562 -0.5423  0.0300  0.4039
  672MPD2     C 9992   3.992   3.468   0.593  0.3975  0.6303  0.2922
  672MPD2    C1 9993   3.972   3.577   0.676 -0.7391  0.1150 -0.0203
  672MPD2    C2 9994   4.061   3.683   0.672  0.1595 -0.0131  0.6696
  672MPD2    C3 9995   4.166   3.683   0.573 -0.1132 -0.4782 -0.1087
  672MPD2    C4 9996   4.170   3.587   0.485 -0.4326 -0.1218 -0.3024
  672MPD2    C5 9997   4.085   3.482   0.497  1.0533 -0.1273  0.0785
  672MPD2     H 9998   4.039   3.767   0.736  1.6868  1.9207 -1.3363
  672MPD2    H1 9999   4.240   3.597   0.403 -2.1428 -1.0257 -1.8847
  672MPD2    H210000   3.924   3.384   0.586 -1.3357  2.1787 -1.5641
  672MPD2    H310001   4.106   3.399   0.431 -0.4762 -0.7841  0.4129
  672MPD2     N10002   4.256   3.795   0.562  0.4449  0.5430  0.0505
  672MPD2    H510003   4.312   3.797   0.477 -1.6955  0.9997 -1.3310
  672MPD2    N110004   3.869   3.575   0.765 -0.2962 -0.4749 -0.2356
  672MPD2    H710005   3.862   3.659   0.823  1.6869 -0.1539 -0.4717
  673TMC3    C110006   3.695   3.495   0.901 -0.2716 -0.7946  0.2553
  673TMC3    C210007   3.678   3.406   1.003  0.4840  0.3087  0.0703
  673TMC3    C310008   3.598   3.443   1.104 -0.2174  0.3380 -0.4450
  673TMC3    C410009   3.641   3.620   0.893 -0.0153  0.4429  0.0264
  673TMC3    C510010   3.561   3.651   1.002  0.4532 -0.4088  0.9121
  673TMC3    C610011   3.540   3.567   1.104  0.7415  0.0118 -0.1505
  673TMC3     C10012   3.802   3.464   0.809  0.2499  0.2525 -0.0423
  673TMC3     O10013   3.853   3.351   0.804  0.1973  0.4028  0.7297
  673TMC3     H10014   3.734   3.313   1.007  0.5983  0.4749  2.2141
  673TMC3    H110015   3.649   3.692   0.813 -1.2468 -1.0060 -1.4114
  673TMC3    H210016   3.491   3.592   1.198  2.1324  3.2623 -0.2967
  673TMC3    C710017   3.603   3.779   1.062  0.0124  0.1865 -0.2677
  673TMC3    C810018   3.635   3.393   1.234 -0.0637 -0.6546 -0.9036
  673TMC3    O110019   3.620   3.773   1.182 -0.8005  0.5996  0.1183
  673TMC3    O210020   3.564   3.409   1.334  0.5234 -0.2227  0.2502
  674MPD2     C10021   3.625   3.042   0.017 -0.1916 -0.5731 -0.3902
  674MPD2    C110022   3.604   3.045   0.150  0.3050  0.6287  0.2175
  674MPD2    C210023   3.589   3.171   0.204 -0.0623 -0.0109  0.1486
  674MPD2    C310024   3.606   3.291   0.143 -0.4183 -0.2113 -0.2833
  674MPD2    C410025   3.624   3.287   0.005 -0.0636  0.3951  0.3007
  674MPD2    C510026   3.638   3.166  17.674 -0.0901  0.3090 -0.8092
  674MPD2     H10027   3.564   3.180   0.309 -0.7543 -0.3070  0.0106
  674MPD2    H110028   3.648   3.380  17.683  0.3362 -0.8964 -1.8272
  674MPD2    H210029   3.666   2.953  17.699  0.9008  0.0950 -0.7114
  674MPD2    H310030   3.685   3.162  17.577 -1.8868  0.7266 -1.6946
  674MPD2     N10031   3.615   3.412   0.219  0.8799  0.0649  0.4537
  674MPD2    H510032   3.597   3.398   0.318 -0.8257  1.4791  0.3536
  674MPD2    N110033   3.585   2.921   0.218  0.5440  1.0535  0.0948
  674MPD2    H710034   3.595   2.840   0.158  3.3952  1.7009 -0.3057
  675TMC3    C110035   3.596   2.983   0.457  0.2731  0.5340 -0.4150
  675TMC3    C210036   3.526   2.981   0.573  0.3572 -0.2597 -0.2787
  675TMC3    C310037   3.585   3.035   0.689 -0.3835  0.3728 -0.0457
  675TMC3    C410038   3.728   3.011   0.456  0.0850 -0.0117  0.4664
  675TMC3    C510039   3.782   3.068   0.565 -0.1537 -0.3678  0.0094
  675TMC3    C610040   3.708   3.091   0.680  0.9667  0.6758 -0.6871
  675TMC3     C10041   3.546   2.897   0.354 -0.0691  0.1721 -0.6067
  675TMC3     O10042   3.498   2.794   0.391  0.3708  0.0353  0.0795
  675TMC3     H10043   3.421   2.955   0.575  0.0254  0.9229 -3.2370
  675TMC3    H110044   3.785   3.009   0.364  0.8219 -0.8245  0.9356
  675TMC3    H210045   3.754   3.142   0.764 -1.3746 -1.4971  1.9208
  675TMC3    C710046   3.924   3.096   0.570 -0.3419 -0.3437 -0.1494
  675TMC3    C810047   3.510   3.038   0.812 -0.1410  0.6623  0.4710
  675TMC3    O110048   3.981   3.089   0.457  0.9417  0.5843  0.6036
  675TMC3    O210049   3.391   3.006   0.807 -0.0330  0.2443  0.8279
  676MPD2     C10050   1.552   1.806  11.217  0.0591  0.0278 -0.7358
  676MPD2    C110051   1.541   1.724  11.330 -0.5062 -0.2399  0.3724
  676MPD2    C210052   1.515   1.590  11.314 -0.5502 -0.6985  0.2530
  676MPD2    C310053   1.515   1.531  11.185  0.5335  0.4130 -0.4456
  676MPD2    C410054   1.537   1.613  11.076 -0.2155  0.0158  0.4865
  676MPD2    C510055   1.550   1.744  11.097  0.2596 -0.6320 -0.1673
  676MPD2     H10056   1.491   1.530  11.401  1.6007 -1.3500  0.3974
  676MPD2    H110057   1.543   1.572  10.976  3.6015  1.0793  0.2762
  676MPD2    H210058   1.582   1.910  11.217  2.8492 -0.7795 -1.6222
  676MPD2    H310059   1.563   1.796  11.003  0.2663 -2.4044 -1.1413
  676MPD2     N10060   1.497   1.391  11.163  0.3576 -0.6375 -0.3140
  676MPD2    H510061   1.532   1.357  11.074  0.1060 -1.1262 -0.2245
  676MPD2    N110062   1.577   1.771  11.458 -0.2037  0.3070  0.1749
  676MPD2    H710063   1.604   1.698  11.524 -0.9040  1.5391  1.8192
  677TMC3    C110064   1.668   1.928  11.588  0.1480  0.1172  0.0429
  677TMC3    C210065   1.695   1.840  11.689  0.4010  0.4681  0.3534
  677TMC3    C310066   1.767   1.880  11.797 -0.1251 -0.9694  0.1483
  677TMC3    C410067   1.732   2.046  11.579  0.1435 -0.0911  0.6753
  677TMC3    C510068   1.820   2.083  11.680 -0.6051 -0.1637  0.7042
  677TMC3    C610069   1.837   2.000  11.791 -0.3576  0.0666  0.3020
  677TMC3     C10070   1.574   1.905  11.492  0.2317  0.1617 -0.6983
  677TMC3     O10071   1.527   2.005  11.432 -0.2025  0.2168  0.2744
  677TMC3     H10072   1.654   1.739  11.685  1.8121 -0.1938  2.9758
  677TMC3    H110073   1.733   2.099  11.484  0.8502  1.1718  1.3772
  677TMC3    H210074   1.901   2.038  11.869 -0.7640  0.9020  0.2335
  677TMC3    C710075   1.906   2.199  11.673  0.4234  0.2426 -0.6809
  677TMC3    C810076   1.772   1.792  11.913 -0.7926 -0.7505 -0.6369
  677TMC3    O110077   1.989   2.233  11.761  0.0988  0.2719 -0.1990
  677TMC3    O210078   1.784   1.673  11.890 -0.6461 -0.2578 -0.2313
  678MPD2     C10079   3.333   2.200   1.448  0.1281 -0.3484 -0.4213
  678MPD2    C110080   3.251   2.130   1.364 -0.0803 -0.2177  0.3355
  678MPD2    C210081   3.119   2.163   1.366 -0.0826 -0.2429  1.3052
  678MPD2    C310082   3.066   2.268   1.440 -0.2675 -0.5979  0.0892
  678MPD2    C410083   3.152   2.342   1.522 -0.0731 -0.0179  0.0741
  678MPD2    C510084   3.285   2.308   1.517 -0.0318 -0.0937  0.7004
  678MPD2     H10085   3.050   2.107   1.305 -0.1148  2.5755 -1.2655
  678MPD2    H110086   3.119   2.435   1.567  0.9742  2.0506 -3.4924
  678MPD2    H210087   3.438   2.179   1.462  1.0643  1.4376 -4.7093
  678MPD2    H310088   3.353   2.372   1.572  1.6214 -1.8157  0.6402
  678MPD2     N10089   2.929   2.280   1.450  0.5355  0.1995  0.1518
  678MPD2    H510090   2.881   2.230   1.376  0.6768 -0.0546  0.2336
  678MPD2    N110091   3.292   2.020   1.283 -0.1939 -0.1987 -0.0662
  678MPD2    H710092   3.224   1.977   1.221 -0.8866 -1.2786  1.4434
  679TMC3    C110093   3.537   1.707   1.048 -0.6622 -0.1775 -0.2711
  679TMC3    C210094   3.531   1.796   1.153 -0.7258 -0.3359  0.1300
  679TMC3    C310095   3.433   1.895   1.147 -0.7976  0.1156 -0.0890
  679TMC3    C410096   3.453   1.723   0.935 -0.1739  0.2850  0.4450
  679TMC3    C510097   3.356   1.823   0.938  0.4353 -0.0141  0.6387
  679TMC3    C610098   3.349   1.910   1.042 -0.2203 -0.0377  0.1650
  679TMC3     C10099   3.631   1.598   1.044 -0.1206  0.0538 -1.0248
  679TMC3     O10100   3.630   1.532   0.941  0.1560  0.6544 -0.2759
  679TMC3     H10101   3.596   1.788   1.239  1.2712  2.7641 -1.0969
  679TMC3    H110102   3.464   1.652   0.854 -0.1489  0.2460  0.4827
  679TMC3    H210103   3.268   1.982   1.036 -2.2508 -2.1927  1.9109
  679TMC3    C710104   3.256   1.839   0.835 -0.3339  0.3747  0.1281
  679TMC3    C810105   3.419   1.984   1.265 -0.3821 -0.6186  0.0331
  679TMC3    O110106   3.185   1.939   0.840  0.3511  0.0519 -0.0283
  679TMC3    O210107   3.514   2.001   1.338 -0.2145 -0.1341  0.1436
  680MPD2     C10108   3.038   0.367  13.584 -0.1869  0.6332  0.2744
  680MPD2    C110109   3.162   0.354  13.639 -0.2021  0.1831 -0.2228
  680MPD2    C210110   3.202   0.455  13.726  0.1666 -0.1024 -0.6104
  680MPD2    C310111   3.126   0.559  13.762 -0.1240 -0.1999 -0.2156
  680MPD2    C410112   3.007   0.582  13.696  0.2157 -0.3552 -0.7679
  680MPD2    C510113   2.964   0.482  13.609 -0.1360  0.3898  0.4908
  680MPD2     H10114   3.303   0.437  13.760  0.3511  2.2727  0.0881
  680MPD2    H110115   2.940   0.663  13.721  3.6637  2.8990 -2.1358
  680MPD2    H210116   2.999   0.290  13.519 -1.8945 -1.1727  3.4578
  680MPD2    H310117   2.870   0.498  13.557 -1.6718 -0.5779  2.9998
  680MPD2     N10118   3.163   0.662  13.858 -0.3840  0.1268 -0.6353
  680MPD2    H510119   3.110   0.747  13.874  0.0435  0.7251 -2.3560
  680MPD2    N110120   3.250   0.249  13.605  0.5025 -0.5320 -0.0791
  680MPD2    H710121   3.346   0.264  13.633  1.1451  0.0005 -2.5542
  681TMC3    C110122   3.333   0.035  13.570 -0.2335 -0.2548 -0.2456
  681TMC3    C210123   3.335   4.722  13.698  0.5475 -0.1024  0.3678
  681TMC3    C310124   3.441   0.003  13.784 -0.1963 -0.0023 -0.5403
  681TMC3    C410125   3.444   0.090  13.519 -0.4991 -0.3587  0.3792
  681TMC3    C510126   3.547   0.110  13.604 -0.2674 -0.6157 -0.7895
  681TMC3    C610127   3.547   0.063  13.736  0.1477  0.2516  0.0732
  681TMC3     C10128   3.220   0.133  13.550 -0.2319  0.6434 -0.3798
  681TMC3     O10129   3.113   0.075  13.534  0.7862 -0.2911 -0.0181
  681TMC3     H10130   3.255   4.653  13.727 -1.1504  2.2909  1.3522
  681TMC3    H110131   3.451   0.131  13.419 -0.7586 -0.0998  0.4655
  681TMC3    H210132   3.621   0.098  13.806  1.0900 -1.8940  0.1662
  681TMC3    C710133   3.668   0.184  13.584 -0.1556 -0.3768 -0.9233
  681TMC3    C810134   3.406   0.062  13.911  0.1816 -0.4819 -0.4256
  681TMC3    O110135   3.765   0.168  13.659  0.1036 -0.7052  0.3172
  681TMC3    O210136   3.487   0.084  13.992  0.0115 -0.9918 -0.5861
  682MPD2     C10137   0.057   1.908  10.612 -0.1935 -0.1567 -0.2080
  682MPD2    C110138   0.012   1.777  10.638 -0.2740 -0.4483  0.3975
  682MPD2    C210139   4.731   1.743  10.778  0.7906 -0.5755  0.0089
  682MPD2    C310140   0.015   1.839  10.881  0.3387  0.2790 -0.1739
  682MPD2    C410141   0.049   1.972  10.846 -0.2317 -0.3716  0.0755
  682MPD2    C510142   0.074   1.995  10.717  0.5783  0.0996 -0.3312
  682MPD2     H10143   4.699   1.642  10.796  0.0726 -0.5227 -0.9489
  682MPD2    H110144   0.050   2.049  10.922  1.2084 -0.3041 -0.0128
  682MPD2    H210145   0.075   1.947  10.512 -2.9373  0.0316 -0.6202
  682MPD2    H310146   0.110   2.092  10.684  1.9626  0.3769  2.0406
  682MPD2     N10147   4.706   1.805  11.017 -0.2511  0.8241 -0.3023
  682MPD2    H510148   0.000   1.875  11.085 -1.4926 -1.5531  2.6248
  682MPD2    N110149   4.711   1.679  10.536 -0.1934  0.1677 -0.2056
  682MPD2    H710150   4.697   1.582  10.562  0.0412  0.6564  1.7533
  683TMC3    C110151   4.716   1.669  11.407 -0.1704 -0.5245 -0.0653
  683TMC3    C210152   4.603   1.602  11.454 -0.9690  0.7071 -0.0947
  683TMC3    C310153   4.512   1.563  11.360 -0.2835 -0.0877  0.0971
  683TMC3    C410154   4.731   1.704  11.277  0.1859 -0.0420  0.2380
  683TMC3    C510155   4.631   1.677  11.188  0.4640  0.3969 -0.0488
  683TMC3    C610156   4.526   1.597  11.227 -0.4019 -0.2381  0.0639
  683TMC3     C10157   0.037   1.762  11.501  0.2212 -0.4423 -0.2824
  683TMC3     O10158   4.696   1.782  11.599 -0.6654 -0.2734  0.3068
  683TMC3     H10159   4.577   1.594  11.560  0.7623 -0.2687  0.2525
  683TMC3    H110160   0.083   1.765  11.244 -0.9980  1.1218 -0.6217
  683TMC3    H210161   4.444   1.584  11.158 -1.5545 -0.9060  1.5711
  683TMC3    C710162   4.644   1.689  11.044  0.1808 -0.4507  0.0366
  683TMC3    C810163   4.416   1.463  11.396 -0.5976 -0.4877  0.4423
  683TMC3    O110164   4.591   1.602  10.977 -0.0800 -0.1688  0.0316
  683TMC3    O210165   4.393   1.458  11.514 -0.0790 -0.0239  0.1505
  684MPD2     C10166   3.858   1.177  16.532  0.1548 -0.0024  0.1947
  684MPD2    C110167   3.803   1.234  16.417  0.5794 -0.3525  0.1473
  684MPD2    C210168   3.747   1.358  16.430  0.4966 -0.0892  0.9978
  684MPD2    C310169   3.746   1.430  16.554 -0.0822  0.7067  0.2685
  684MPD2    C410170   3.814   1.373  16.657 -0.0530 -0.8704  0.1546
  684MPD2    C510171   3.864   1.244  16.651  0.3482 -0.3801  0.4298
  684MPD2     H10172   3.697   1.392  16.340  0.6630 -2.0537  0.1788
  684MPD2    H110173   3.821   1.431  16.749 -1.6527  0.9522 -0.8754
  684MPD2    H210174   3.900   1.077  16.542 -0.1617 -0.2275 -0.7658
  684MPD2    H310175   3.906   1.186  16.733 -1.8016  0.2162  1.9306
  684MPD2     N10176   3.682   1.558  16.578  0.2318  0.5445  0.1942
  684MPD2    H510177   3.706   1.597  16.669 -0.8356  0.5564  0.4728
  684MPD2    N110178   3.813   1.187  16.283 -0.6631 -0.4448  0.2855
  684MPD2    H710179   3.784   1.244  16.204  0.4552 -0.9787 -0.5152
  685TMC3    C110180   3.905   1.081  16.098  1.1133  0.4949  0.5973
  685TMC3    C210181   3.810   1.146  16.016  0.3864 -0.1777  0.0987
  685TMC3    C310182   3.853   1.184  15.899 -0.7770  0.6248  0.3131
  685TMC3    C410183   4.034   1.053  16.054  0.7049  0.1058  0.5506
  685TMC3    C510184   4.070   1.119  15.941  0.3560  0.3809 -0.3712
  685TMC3    C610185   3.984   1.191  15.870  0.0072 -0.3549  0.0538
  685TMC3     C10186   3.880   1.077  16.244  0.1628  0.3283 -0.7116
  685TMC3     O10187   3.950   0.993  16.309  0.0292  0.6212  0.2039
  685TMC3     H10188   3.706   1.156  16.046  0.6283 -1.4421  1.3677
  685TMC3    H110189   4.107   1.015  16.125  1.3050  0.0129 -0.1153
  685TMC3    H210190   4.003   1.218  15.767 -2.1866 -2.5754 -0.9372
  685TMC3    C710191   4.200   1.183  15.962 -0.5661 -0.4275 -0.6925
  685TMC3    C810192   3.751   1.209  15.790 -0.1298 -0.7343 -0.2189
  685TMC3    O110193   4.283   1.104  16.010  0.7435 -0.1396 -0.2039
  685TMC3    O210194   3.778   1.219  15.673 -0.3333  0.5077 -0.3932
  686MPD2     C10195   0.228   1.329  15.659  0.5083  0.2827  1.0934
  686MPD2    C110196   0.279   1.233  15.743 -0.0549  0.2839  0.0731
  686MPD2    C210197   0.375   1.143  15.695 -0.4567 -0.1546 -0.4860
  686MPD2    C310198   0.417   1.144  15.562 -0.5147 -0.3110  0.0803
  686MPD2    C410199   0.366   1.239  15.481 -0.9440 -0.7413  0.2544
  686MPD2    C510200   0.280   1.331  15.528 -0.5713 -0.7585 -0.6123
  686MPD2     H10201   0.415   1.073  15.768 -0.3409 -0.9450 -1.3055
  686MPD2    H110202   0.398   1.245  15.377  1.0946  0.1131  0.9255
  686MPD2    H210203   0.150   1.399  15.685 -1.7307 -1.8155 -0.0238
  686MPD2    H310204   0.235   1.403  15.460  0.0789 -0.6611 -0.9352
  686MPD2     N10205   0.516   1.055  15.500 -0.3055  0.1638 -0.4558
  686MPD2    H510206   0.547   1.089  15.410  0.3577 -0.2341 -0.3759
  686MPD2    N110207   0.229   1.247  15.875  0.0342 -0.3256  0.6538
  686MPD2    H710208   0.170   1.323  15.906 -0.8167 -0.7286 -0.0141
  687TMC3    C110209   0.495   0.871  15.651  0.4186  0.1027 -0.2783
  687TMC3    C210210   0.369   0.846  15.605  0.1023 -0.3779  0.5463
  687TMC3    C310211   0.292   0.773  15.691  0.3975 -0.7808 -0.7856
  687TMC3    C410212   0.547   0.834  15.770 -0.2962 -1.1543  1.0500
  687TMC3    C510213   0.458   0.776  15.855  0.3410  0.1121 -0.2974
  687TMC3    C610214   0.336   0.737  15.812  0.4330  0.1262 -0.5324
  687TMC3     C10215   0.577   0.945  15.562 -0.3098  0.4560  0.1728
  687TMC3     O10216   0.695   0.929  15.578 -0.7002  0.1803 -0.1766
  687TMC3     H10217   0.331   0.887  15.512  0.9213  0.2790  0.5079
  687TMC3    H110218   0.641   0.876  15.804 -0.4292 -2.2118  2.7408
  687TMC3    H210219   0.277   0.674  15.878  1.6447  0.4973  0.9026
  687TMC3    C710220   0.483   0.800  15.994 -0.0284  0.0096  0.4073
  687TMC3    C810221   0.145   0.802  15.697  0.1347  0.2045 -0.1330
  687TMC3    O110222   0.597   0.827  16.019 -0.2822 -0.5338  0.4490
  687TMC3    O210223   0.082   0.724  15.768  0.1667  0.1698 -0.4299
  688MPD2     C10224   4.098   0.091  17.133 -0.1238  0.3329  0.0730
  688MPD2    C110225   4.160   0.008  17.225  0.0094  0.1459  0.2088
  688MPD2    C210226   4.294   4.704  17.210 -0.1006 -0.0497 -0.6140
  688MPD2    C310227   4.367   0.019  17.103  0.3237  0.9099 -0.0370
  688MPD2    C410228   4.308   0.110  17.022  0.4385  0.4657 -0.0537
  688MPD2    C510229   4.178   0.149  17.037 -0.0804  0.2429  0.5872
  688MPD2     H10230   4.331   4.632  17.282  1.6895  1.1229 -0.3592
  688MPD2    H110231   4.366   0.164  16.948 -1.6892  1.2613 -1.1130
  688MPD2    H210232   3.994   0.118  17.144 -0.3437 -0.5847  0.2243
  688MPD2    H310233   4.140   0.227  16.972 -0.0662  0.2080  0.5374
  688MPD2     N10234   4.511   4.719  17.087 -0.6441 -0.4538 -0.3576
  688MPD2    H510235   4.551   0.044  17.014 -1.9003 -0.5313 -1.1128
  688MPD2    N110236   4.082   4.684  17.338 -0.0302  0.6037 -0.2071
  688MPD2    H710237   4.124   4.612  17.396  0.1050  0.8328 -0.0205
  689TMC3    C110238   3.923   4.657  17.497 -0.5926  0.5735 -0.4206
  689TMC3    C210239   3.892   0.006  17.602 -0.4733  0.4739  0.0561
  689TMC3    C310240   3.847   4.679  17.715  0.0885  0.1723  0.6625
  689TMC3    C410241   3.921   4.518  17.494  0.0798  0.1339 -0.4956
  689TMC3    C510242   3.872   4.463  17.615  0.7043 -0.0864  0.2418
  689TMC3    C610243   3.839   4.544  17.721 -0.9605 -0.2512  0.2744
  689TMC3     C10244   3.967   0.001  17.387 -0.5240  0.2096 -0.6230
  689TMC3     O10245   3.917   0.112  17.361  0.1436  0.0969  0.4373
  689TMC3     H10246   3.912   0.112  17.599 -0.6869  0.4840 -0.8008
  689TMC3    H110247   3.968   4.458  17.417 -1.2335 -1.8210  0.2148
  689TMC3    H210248   3.815   4.494   0.085 -1.3769 -0.6075 -0.0253
  689TMC3    C710249   3.890   4.325  17.653 -0.2786  0.9228 -0.7528
  689TMC3    C810250   3.847   0.019   0.112 -0.2667  0.2198 -0.2863
  689TMC3    O110251   3.923   4.305   0.038 -0.0700 -0.7642  0.5353
  689TMC3    O210252   3.889   4.698   0.216 -0.7228  0.0810  0.9239
  690MPD2     C10253   1.736   1.832  16.130 -1.2227  0.6659  0.1793
  690MPD2    C110254   1.713   1.815  15.998 -0.0116  0.1720  0.7550
  690MPD2    C210255   1.762   1.908  15.913 -0.3870 -0.1699  0.1189
  690MPD2    C310256   1.837   2.012  15.958 -0.7610 -0.1309  0.1351
  690MPD2    C410257   1.865   2.025  16.087 -0.4644  0.6191 -0.3147
  690MPD2    C510258   1.804   1.938  16.174  0.5953 -0.0230  0.4377
  690MPD2     H10259   1.742   1.900  15.807 -1.1126  0.9236  0.1714
  690MPD2    H110260   1.929   2.101  16.129 -2.7998  2.5664 -0.2613
  690MPD2    H210261   1.687   1.771  16.205 -0.4503  0.0837  0.2172
  690MPD2    H310262   1.811   1.935  16.282  0.7938  1.2605  0.4489
  690MPD2     N10263   1.881   2.105  15.870 -0.0629  0.2009  0.7995
  690MPD2    H510264   1.837   2.099  15.778  2.5610 -0.5518 -0.3977
  690MPD2    N110265   1.624   1.717  15.947  0.4066  0.4012  0.1710
  690MPD2    H710266   1.612   1.715  15.846 -0.4441  0.3373  0.2700
  691TMC3    C110267   1.516   1.512  15.930 -0.1986  0.3153  0.5651
  691TMC3    C210268   1.425   1.551  15.832 -0.1191 -0.3345  0.0356
  691TMC3    C310269   1.378   1.457  15.745 -0.5174  0.2776 -0.5757
  691TMC3    C410270   1.555   1.382  15.937 -0.2830  1.0739 -0.5324
  691TMC3    C510271   1.523   1.285  15.851  0.2610 -0.3867  0.5962
  691TMC3    C610272   1.430   1.322  15.754 -0.2997 -0.0962  0.0094
  691TMC3     C10273   1.578   1.607  16.018 -0.2913  0.3675  0.4440
  691TMC3     O10274   1.595   1.573  16.137  0.4539 -0.0303 -0.1448
  691TMC3     H10275   1.382   1.651  15.824  2.5808  0.9153  1.2133
  691TMC3    H110276   1.635   1.365  16.009  0.1710  2.9077 -0.6044
  691TMC3    H210277   1.389   1.250  15.683 -1.0216 -0.7196  1.0722
  691TMC3    C710278   1.505   1.157  15.923  0.4774 -0.5852  0.1193
  691TMC3    C810279   1.254   1.477  15.671 -0.0470  0.0321 -0.4292
  691TMC3    O110280   1.575   1.136  16.019 -0.8772  0.5751  0.3992
  691TMC3    O210281   1.225   1.386  15.594 -0.6036 -0.4433  0.0525
  692TMC3    C110282   3.215   2.827  15.806  0.1643 -0.0334  0.4504
  692TMC3    C210283   3.338   2.871  15.838 -0.2477 -0.7592 -1.1862
  692TMC3    C310284   3.433   2.774  15.886  0.0341  0.5537 -0.7959
  692TMC3    C410285   3.174   2.695  15.823 -0.2210  0.1973 -0.1362
  692TMC3    C510286   3.267   2.603  15.848  0.2067  1.6097 -0.1542
  692TMC3    C610287   3.392   2.639  15.889 -0.5476 -0.1646  0.1294
  692TMC3     C10288   3.114   2.930  15.799 -0.6099 -0.0320 -0.2579
  692TMC3     O10289   3.001   2.888  15.769  0.1576  0.0486 -0.0082
  692TMC3     H10290   3.376   2.956  15.783  0.4600 -0.5873 -0.4320
  692TMC3    H110291   3.072   2.674  15.793  0.4954  0.2005 -2.5375
  692TMC3    H210292   3.466   2.561  15.897 -0.1524 -0.1129 -2.7645
  692TMC3    C710293   3.206   2.471  15.876  0.6091  0.1283 -0.8976
  692TMC3    C810294   3.508   2.813  15.999 -0.3680  0.4879 -0.6569
  692TMC3    O110295   3.110   2.436  15.805 -0.7272  0.0696 -0.2538
  692TMC3    O210296   3.563   2.727  16.069 -0.4665 -0.2658  0.1072
  693MPD2     C10297   2.554   1.000  11.028  0.0993 -0.0619  0.5778
  693MPD2    C110298   2.529   0.877  10.978 -0.2491 -0.2556  0.6744
  693MPD2    C210299   2.635   0.798  10.938  0.0731 -0.0152  0.0180
  693MPD2    C310300   2.765   0.842  10.961  0.6962 -0.8451 -0.1796
  693MPD2    C410301   2.785   0.966  11.015  0.2081 -0.0251  0.1274
  693MPD2    C510302   2.680   1.042  11.056 -0.3338 -0.0280  0.5403
  693MPD2     H10303   2.610   0.697  10.908 -3.0672  1.2395 -1.6783
  693MPD2    H110304   2.883   1.003  11.043  0.5079  0.5810 -1.7230
  693MPD2    H210305   2.474   1.064  11.064  1.0408  1.0036  0.7409
  693MPD2    H310306   2.694   1.145  11.088  1.3603 -0.4070  1.0089
  693MPD2     N10307   2.879   0.757  10.943 -0.2166 -0.4409  0.6126
  693MPD2    H510308   2.964   0.767  10.998 -0.4398 -1.5022  1.1330
  693MPD2    N110309   2.390   0.848  10.967  0.3171  0.0740 -0.5259
  693MPD2    H710310   2.322   0.903  11.018 -0.5588 -0.6939 -0.8801
  694TMC3    C110311   2.220   0.690  10.944 -0.6449  0.4050  0.0008
  694TMC3    C210312   2.161   0.600  10.852  0.7601  0.2714  0.3676
  694TMC3    C310313   2.038   0.553  10.880  0.2426  0.1384  0.5592
  694TMC3    C410314   2.174   0.708  11.069  0.2961 -0.5362 -0.9939
  694TMC3    C510315   2.063   0.648  11.097 -0.1100 -0.2104  0.5365
  694TMC3    C610316   1.987   0.577  11.001  0.5929 -0.4804 -0.2079
  694TMC3     C10317   2.345   0.736  10.898  0.0423 -0.1426  0.6365
  694TMC3     O10318   2.393   0.685  10.798  0.5246  0.2811 -0.3810
  694TMC3     H10319   2.196   0.598  10.750  1.0214 -2.4089  0.5075
  694TMC3    H110320   2.239   0.755  11.142  0.1034 -1.3484 -0.2932
  694TMC3    H210321   1.888   0.551  11.036  0.9559  0.2338  1.3467
  694TMC3    C710322   2.033   0.640  11.237 -0.1290  0.2966  0.2833
  694TMC3    C810323   1.962   0.465  10.792 -0.4880 -0.0295  0.0655
  694TMC3    O110324   2.087   0.725  11.313 -0.6126  0.2828  0.2504
  694TMC3    O210325   1.866   0.414  10.842 -0.5368 -0.1054  0.0645
  695MPD2     C10326   3.609   2.837  13.752 -0.5631 -0.0133  0.9102
  695MPD2    C110327   3.598   2.859  13.880  0.2204 -0.1498 -0.1887
  695MPD2    C210328   3.497   2.936  13.933 -0.2637  0.5081 -0.0570
  695MPD2    C310329   3.395   2.985  13.859  0.7000 -0.0164  1.6389
  695MPD2    C410330   3.405   2.964  13.724 -0.0725  0.4644  0.1117
  695MPD2    C510331   3.515   2.897  13.676  0.2119  0.0344 -1.1264
  695MPD2     H10332   3.494   2.953  14.040 -0.3286 -2.1431  0.3564
  695MPD2    H110333   3.341   3.004  13.647  0.4248 -0.8103 -0.9611
  695MPD2    H210334   3.689   2.778  13.709 -1.6470 -2.0842  1.6906
  695MPD2    H310335   3.525   2.892  13.568  1.2758  0.6517 -1.0582
  695MPD2     N10336   3.277   3.036  13.922 -0.0655  0.3046  0.3870
  695MPD2    H510337   3.275   3.014  14.022 -2.4195  1.9942  0.7106
  695MPD2    N110338   3.695   2.804  13.974  0.0359  0.6260  0.2741
  695MPD2    H710339   3.682   2.824  14.072 -1.2296 -1.0422  0.4563
  696TMC3    C110340   3.062   3.120  13.962  0.7003  0.2966 -1.1393
  696TMC3    C210341   3.025   3.020  14.045 -0.5825 -0.1782  0.8937
  696TMC3    C310342   2.931   3.050  14.140 -0.2185 -0.7631 -0.0197
  696TMC3    C410343   3.002   3.243  13.966 -0.0569 -0.2016 -0.0553
  696TMC3    C510344   2.911   3.266  14.059 -0.5336 -0.3752  0.1600
  696TMC3    C610345   2.871   3.175  14.154 -0.5026  0.5971  0.1516
  696TMC3     C10346   3.171   3.104  13.870 -0.4962 -0.0387 -0.2188
  696TMC3     O10347   3.176   3.164  13.765  0.1073  0.5250  0.0505
  696TMC3     H10348   3.066   2.920  14.034 -0.0293  0.3001 -1.2920
  696TMC3    H110349   3.038   3.325  13.905  0.4835 -1.6142 -1.6365
  696TMC3    H210350   2.807   3.201  14.238 -0.7973  1.2342 -0.2726
  696TMC3    C710351   2.881   3.401  14.066 -0.4118  0.5355  0.0951
  696TMC3    C810352   2.952   2.974  14.259  0.0212 -0.2654  0.4401
  696TMC3    O110353   2.885   3.464  13.958  0.5261  0.1935  0.2162
  696TMC3    O210354   2.933   2.852  14.254 -0.4441 -0.4807  0.2436
  697MPD2     C10355   2.845   4.458  15.682 -0.1214  0.1361 -0.1679
  697MPD2    C110356   2.813   4.492  15.550 -0.0700  1.2039  0.5054
  697MPD2    C210357   2.889   4.587  15.487  0.0125 -0.0322 -0.4179
  697MPD2    C310358   3.001   4.644  15.536  0.4857  0.3053 -0.4860
  697MPD2    C410359   3.046   4.599  15.663  0.2267  0.0600  0.4353
  697MPD2    C510360   2.972   4.500  15.730  0.0404  0.4473  0.1967
  697MPD2     H10361   2.864   4.621  15.387 -0.1008 -0.4208 -0.5198
  697MPD2    H110362   3.140   4.630  15.706 -0.0588 -0.6058  1.5375
  697MPD2    H210363   2.803   4.381  15.745  0.7835 -1.1729 -1.1645
  697MPD2    H310364   2.997   4.491  15.836  1.2799  1.1765 -0.0398
  697MPD2     N10365   3.074   0.014  15.469 -0.8587 -0.0071  0.3998
  697MPD2    H510366   3.049   0.027  15.372 -0.1638 -1.3261  0.0523
  697MPD2    N110367   2.701   4.439  15.482 -0.0029 -0.0506  0.1651
  697MPD2    H710368   2.673   4.477  15.392  1.3318 -0.1869 -0.3107
  698TMC3    C110369   3.221   0.195  15.446 -0.0955  0.2656  0.3816
  698TMC3    C210370   3.265   0.315  15.494 -0.8706 -0.7635 -0.0925
  698TMC3    C310371   3.313   0.402  15.399  0.8799  0.2472 -0.3860
  698TMC3    C410372   3.233   0.155  15.315  0.0837  0.7094  0.4436
  698TMC3    C510373   3.283   0.245  15.225  0.2317  0.3477 -0.3059
  698TMC3    C610374   3.318   0.374  15.265 -0.3352 -0.1119  0.1008
  698TMC3     C10375   3.150   0.110  15.537  0.1090 -0.7127  0.0442
  698TMC3     O10376   3.176   0.135  15.654  0.0837 -0.0387 -0.3576
  698TMC3     H10377   3.247   0.350  15.595 -0.7445  0.0840 -0.3569
  698TMC3    H110378   3.206   0.055  15.282 -2.1067  1.3864  0.1705
  698TMC3    H210379   3.311   0.453  15.191 -3.1008 -1.1246 -0.7130
  698TMC3    C710380   3.289   0.204  15.083  0.7330 -0.3979 -0.1852
  698TMC3    C810381   3.347   0.531  15.452  0.1713  0.3763  0.7979
  698TMC3    O110382   3.228   0.103  15.050 -0.1777 -0.0994  0.2059
  698TMC3    O210383   3.305   0.555  15.562  0.7163 -0.1017 -0.2618
  699TMC3    C110384   2.790   3.277  13.270 -0.4203  0.1898  0.1477
  699TMC3    C210385   2.868   3.195  13.350 -0.1246  0.6807 -0.2346
  699TMC3    C310386   2.823   3.188  13.485 -0.7662  0.1128  0.1720
  699TMC3    C410387   2.669   3.326  13.310 -1.1055 -0.2926 -0.7601
  699TMC3    C510388   2.628   3.318  13.436 -0.6348 -0.5163  0.2313
  699TMC3    C610389   2.713   3.257  13.527 -0.6559  0.7816  0.0103
  699TMC3     C10390   2.812   3.275  13.126  0.4886 -0.3118 -0.2762
  699TMC3     O10391   2.722   3.322  13.061  0.6986 -0.4130  0.5287
  699TMC3     H10392   2.971   3.167  13.329 -0.4778 -1.4980  0.9217
  699TMC3    H110393   2.604   3.373  13.237  0.5646 -0.0042 -2.0579
  699TMC3    H210394   2.682   3.253  13.631  1.9906 -2.3057  0.6800
  699TMC3    C710395   2.488   3.317  13.476 -0.3692  0.1489 -0.3839
  699TMC3    C810396   2.895   3.113  13.584  0.7335 -0.3838  0.2171
  699TMC3    O110397   2.465   3.282  13.587 -0.2846  0.7079 -0.7150
  699TMC3    O210398   2.854   3.138  13.694 -0.7276  0.0810  0.6487
  700TMC3    C110399   2.271   0.318  17.147 -0.1402  0.5766  0.0398
  700TMC3    C210400   2.361   0.216  17.113  0.1528 -0.6326 -0.2969
  700TMC3    C310401   2.465   0.203  17.202 -0.2540 -0.1114  0.1094
  700TMC3    C410402   2.278   0.391  17.268 -0.3583 -0.0130  0.3757
  700TMC3    C510403   2.386   0.364  17.347 -0.0962 -0.0481 -0.3180
  700TMC3    C610404   2.489   0.289  17.306 -0.0394 -0.2036 -0.2513
  700TMC3     C10405   2.196   0.387  17.043  0.2004  1.0102  0.9065
  700TMC3     O10406   2.143   0.317  16.958  0.4385  0.3907  0.4622
  700TMC3     H10407   2.364   0.159  17.021  0.7062 -0.9827 -0.0605
  700TMC3    H110408   2.197   0.454  17.304  0.4124  1.8096 -1.0676
  700TMC3    H210409   2.571   0.273  17.375 -0.6642  3.2037  1.3107
  700TMC3    C710410   2.424   0.452  17.457  0.0490 -0.5697 -0.3257
  700TMC3    C810411   2.575   0.115  17.157 -0.7076 -0.1809 -0.3744
  700TMC3    O110412   2.542   0.460  17.486 -0.1544  0.1157 -0.3202
  700TMC3    O210413   2.565   0.079  17.041 -0.2717  0.1732  0.0851
  701TMC3    C110414   1.847   4.136  14.937  0.3651  0.2554  0.4090
  701TMC3    C210415   1.832   4.084  14.809 -0.2542  0.4646 -0.4194
  701TMC3    C310416   1.859   4.173  14.708  0.2662 -0.4134 -0.1377
  701TMC3    C410417   1.883   4.266  14.971 -0.1305 -0.0528 -0.3099
  701TMC3    C510418   1.887   4.352  14.865  0.5444 -0.0591  0.1235
  701TMC3    C610419   1.883   4.307  14.731  0.0373  0.5039  0.3269
  701TMC3     C10420   1.805   4.066  15.055 -0.1997 -0.2211 -0.9834
  701TMC3     O10421   1.757   4.131  15.145 -0.0510 -0.4615 -0.3287
  701TMC3     H10422   1.800   3.982  14.789 -0.6588  0.8534 -1.6950
  701TMC3    H110423   1.894   4.301  15.073  0.7033 -2.2152  0.3326
  701TMC3    H210424   1.899   4.383  14.655  1.4218 -2.2432 -2.1388
  701TMC3    C710425   1.976   4.470  14.886  0.2554 -0.2063 -0.5255
  701TMC3    C810426   1.899   4.134  14.578  0.3279  0.1795  0.1653
  701TMC3    O110427   2.043   4.518  14.794  0.4474 -0.4974 -0.2056
  701TMC3    O210428   1.913   4.220  14.495  0.9245 -0.4622 -0.4481
  702MPD2     C10429   1.490   0.952  10.582  0.9784  0.0586 -0.5056
  702MPD2    C110430   1.474   1.076  10.642 -0.3401  0.1225 -0.1062
  702MPD2    C210431   1.439   1.180  10.559  0.0749 -0.1962  0.3041
  702MPD2    C310432   1.407   1.158  10.422 -0.3818 -0.2575  0.3831
  702MPD2    C410433   1.421   1.036  10.368  0.0651 -0.5503 -0.5693
  702MPD2    C510434   1.475   0.934  10.445 -0.6717  0.3934 -0.4103
  702MPD2     H10435   1.426   1.278  10.602 -1.5608  0.4161 -1.5643
  702MPD2    H110436   1.434   1.030  10.260  3.7316  1.8347 -0.2551
  702MPD2    H210437   1.525   0.866  10.637  0.0791  0.2372  0.3392
  702MPD2    H310438   1.497   0.835  10.406 -0.1789  0.5167 -0.4427
  702MPD2     N10439   1.377   1.266  10.335  0.6436 -0.1148  0.0764
  702MPD2    H510440   1.354   1.244  10.238  0.3993  1.9289 -0.3500
  702MPD2    N110441   1.468   1.098  10.786  0.0362 -0.2727 -0.6513
  702MPD2    H710442   1.434   1.187  10.820 -1.4079 -1.5676  1.3126
  703TMC3    C110443   1.358   1.476  10.250 -0.1486  0.0546  0.6405
  703TMC3    C210444   1.233   1.479  10.193 -0.1085 -0.1613 -0.8657
  703TMC3    C310445   1.219   1.556  10.079 -0.4289  1.1244  0.5221
  703TMC3    C410446   1.465   1.541  10.192  0.1078 -0.2859 -0.3565
  703TMC3    C510447   1.445   1.620  10.082  0.1331 -0.8440  0.2638
  703TMC3    C610448   1.316   1.632  10.029  0.7784  0.2990  0.1839
  703TMC3     C10449   1.378   1.400  10.370 -0.4803 -0.7865  0.7298
  703TMC3     O10450   1.447   1.454  10.455 -0.0362 -0.7367 -0.2017
  703TMC3     H10451   1.152   1.419  10.231  1.4485 -0.0841  2.5565
  703TMC3    H110452   1.562   1.533  10.240  0.9234 -0.5581 -2.0458
  703TMC3    H210453   1.291   1.707   9.956 -1.9872  0.4027  1.2422
  703TMC3    C710454   1.545   1.714  10.036  0.5898  0.0834  0.2422
  703TMC3    C810455   1.090   1.621  10.056 -0.6485 -0.2214  0.3896
  703TMC3    O110456   1.540   1.736   9.914  0.2613 -0.4852 -0.6862
  703TMC3    O210457   1.065   1.694   9.963 -0.2566  0.0624  0.1695
  704TMC3    C110458   4.425   4.262  12.618  0.3208  0.1558 -0.4343
  704TMC3    C210459   4.501   4.297  12.518  0.1763  0.5354  0.0619
  704TMC3    C310460   4.606   4.208  12.488  0.0959 -0.0898  0.1561
  704TMC3    C410461   4.449   4.156  12.705 -0.5082  0.1144 -0.4463
  704TMC3    C510462   4.555   4.073  12.677 -0.1852 -0.2745  0.0073
  704TMC3    C610463   4.638   4.094  12.566 -0.4892 -0.2438 -0.3924
  704TMC3     C10464   4.293   4.327  12.637 -0.3060  0.2760 -0.0087
  704TMC3     O10465   4.247   4.310  12.750  0.2498 -0.0614  0.2916
  704TMC3     H10466   4.502   4.394  12.470  2.4935  1.3350  1.7085
  704TMC3    H110467   4.387   4.141  12.792  0.0812 -2.1476 -0.3992
  704TMC3    H210468   0.004   4.048  12.564 -1.0038 -1.2927 -2.5741
  704TMC3    C710469   4.554   3.938  12.731 -0.3370  0.4868  0.1123
  704TMC3    C810470   4.653   4.209  12.353  0.4538 -0.0887 -0.0689
  704TMC3    O110471   4.444   3.905  12.771  0.6178  0.6804 -0.1851
  704TMC3    O210472   0.030   4.157  12.328  0.3900 -0.0426  0.3644
  705MPD2     C10473   3.543   2.445  16.490 -0.0794  0.6161  0.5656
  705MPD2    C110474   3.555   2.573  16.530 -0.0212 -0.1377  0.2461
  705MPD2    C210475   3.445   2.656  16.562 -0.4162  0.3463  0.3480
  705MPD2    C310476   3.316   2.608  16.528 -0.4810  0.5341 -0.5646
  705MPD2    C410477   3.307   2.480  16.480 -0.2184 -0.2530  0.0374
  705MPD2    C510478   3.413   2.397  16.472 -0.0810  0.2523 -0.4300
  705MPD2     H10479   3.467   2.753  16.604 -1.4917  0.2124  1.2146
  705MPD2    H110480   3.213   2.436  16.450 -1.0185  1.0980  0.5899
  705MPD2    H210481   3.624   2.375  16.478 -0.0893  0.8234 -0.7846
  705MPD2    H310482   3.400   2.297  16.431 -0.9989 -0.7316  2.2462
  705MPD2     N10483   3.200   2.681  16.538  0.0055 -0.4250 -0.7766
  705MPD2    H510484   3.118   2.633  16.501 -0.5311 -0.1098  0.0065
  705MPD2    N110485   3.685   2.635  16.546  0.2363  0.0247  0.0276
  705MPD2    H710486   3.681   2.732  16.575  0.0617 -0.3436  1.2267
  706TMC3    C110487   4.146   2.693  16.549 -0.4976 -0.7703 -0.2203
  706TMC3    C210488   4.138   2.821  16.593  0.0907 -0.3724 -0.1029
  706TMC3    C310489   4.013   2.873  16.606 -0.1462 -0.0637 -0.2074
  706TMC3    C410490   4.041   2.612  16.524 -1.1087  0.2995 -0.5436
  706TMC3    C510491   3.919   2.671  16.537 -0.2373  0.4057 -0.4898
  706TMC3    C610492   3.900   2.796  16.587  0.5832 -0.1535 -0.6422
  706TMC3     C10493   4.276   2.658  16.498 -0.7628 -0.0957  0.4472
  706TMC3     O10494   4.370   2.708  16.559  0.2404 -0.0749  0.2335
  706TMC3     H10495   4.224   2.886  16.591 -0.3439  0.2332  0.8559
  706TMC3    H110496   4.044   2.507  16.497  0.8366  0.1471  0.3259
  706TMC3    H210497   3.808   2.855  16.584  1.5203  1.3381 -0.3558
  706TMC3    C710498   3.801   2.586  16.499  0.6447 -0.6211 -0.3105
  706TMC3    C810499   4.025   3.011  16.556  0.4251 -0.8361  0.4122
  706TMC3    O110500   3.823   2.472  16.458 -0.5415  0.0416  0.2689
  706TMC3    O210501   4.065   3.022  16.441  0.0218  0.4678  0.6385
  707TMC3    C110502   0.552   1.709   1.151  0.5861 -0.1482 -0.6469
  707TMC3    C210503   0.486   1.728   1.266 -0.4060 -0.1586  0.0581
  707TMC3    C310504   0.390   1.635   1.301  0.2206  0.3891  0.3044
  707TMC3    C410505   0.524   1.607   1.064 -0.2561 -0.2413  0.3162
  707TMC3    C510506   0.420   1.527   1.098 -0.2851 -0.2898 -0.3906
  707TMC3    C610507   0.346   1.545   1.209 -0.4152 -0.3491  0.5088
  707TMC3     C10508   0.675   1.785   1.140 -0.5708 -0.2969  0.1174
  707TMC3     O10509   0.702   1.875   1.219 -0.1516  0.3149  0.0290
  707TMC3     H10510   0.529   1.805   1.330  0.6293 -0.7622  0.0936
  707TMC3    H110511   0.589   1.580   0.982  2.1208  1.3973  1.6472
  707TMC3    H210512   0.267   1.478   1.242 -3.4511  2.9759 -0.0121
  707TMC3    C710513   0.384   1.415   1.006  0.2771 -0.3159 -1.0100
  707TMC3    C810514   0.348   1.628   1.433  0.2683  0.6033  0.6442
  707TMC3    O110515   0.475   1.364   0.939 -0.2616  0.5871 -1.1424
  707TMC3    O210516   0.229   1.598   1.446 -0.0304 -0.4486  0.0607
  708MPD2     C10517   2.010   1.313  13.904 -0.0063  0.1137 -0.0521
  708MPD2    C110518   1.920   1.249  13.988 -0.0262  0.3172  0.1374
  708MPD2    C210519   1.971   1.150  14.078  0.3120 -0.3157 -0.5505
  708MPD2    C310520   2.105   1.126  14.082 -0.3677  0.6509 -0.5265
  708MPD2    C410521   2.190   1.188  13.999 -0.1253  0.4848  0.4298
  708MPD2    C510522   2.147   1.284  13.915 -0.2031  0.0478 -0.5287
  708MPD2     H10523   1.904   1.103  14.149  1.5139  0.1762  0.8949
  708MPD2    H110524   2.293   1.156  13.987 -0.3459 -0.3506  0.7683
  708MPD2    H210525   1.978   1.400  13.847 -1.9010 -1.1556 -0.9437
  708MPD2    H310526   2.220   1.337  13.855 -0.2503 -1.4532 -1.8959
  708MPD2     N10527   2.162   1.036  14.170 -0.6676 -0.7689  0.5039
  708MPD2    H510528   2.261   1.029  14.152 -0.5614 -2.8282  1.9330
  708MPD2    N110529   1.790   1.299  13.990  0.3250 -0.0281  0.4360
  708MPD2    H710530   1.756   1.358  13.914 -2.3745 -0.9238  0.9318
  709TMC3    C110531   1.566   1.296  14.070  0.1148 -0.2328 -0.1178
  709TMC3    C210532   1.521   1.223  13.964 -0.9170 -0.4262  0.3220
  709TMC3    C310533   1.395   1.166  13.976 -0.3930 -0.1954 -0.2711
  709TMC3    C410534   1.492   1.305  14.186 -0.4125 -0.1063 -0.3819
  709TMC3    C510535   1.386   1.229  14.204  0.1376  0.2772  0.6947
  709TMC3    C610536   1.329   1.164  14.097 -0.0200 -0.1693  0.7130
  709TMC3     C10537   1.708   1.282  14.099 -0.6829  0.0082 -0.1249
  709TMC3     O10538   1.725   1.261  14.217  0.0008  0.0791  0.3386
  709TMC3     H10539   1.576   1.213  13.872 -0.9682  2.3726 -0.0246
  709TMC3    H110540   1.516   1.380  14.261  0.3090  0.7747 -1.4953
  709TMC3    H210541   1.239   1.104  14.108 -1.8737  2.3157 -0.8972
  709TMC3    C710542   1.395   1.139  14.317 -0.5060 -0.0499  0.0195
  709TMC3    C810543   1.367   1.050  13.892  0.1674  0.5191  0.4213
  709TMC3    O110544   1.296   1.077  14.358 -0.4258  0.3496 -0.0157
  709TMC3    O210545   1.280   0.974  13.938 -0.0288 -0.1700 -0.2008
  710TMC3    C110546   2.949   2.422   0.254  0.4282  0.7190  0.1804
  710TMC3    C210547   3.034   2.454   0.147  0.1568 -0.5068 -0.7120
  710TMC3    C310548   3.144   2.374   0.135 -0.0615 -0.4559  0.0116
  710TMC3    C410549   2.963   2.314   0.338 -0.3957  0.0304  0.1772
  710TMC3    C510550   3.075   2.244   0.315 -1.0872  0.1027  0.4988
  710TMC3    C610551   3.170   2.264   0.217  0.1351  0.3684  0.2456
  710TMC3     C10552   2.832   2.510   0.273 -0.2125 -0.0248 -0.0587
  710TMC3     O10553   2.789   2.568   0.176 -0.0000  0.3700 -0.8157
  710TMC3     H10554   3.032   2.553   0.102  0.2291  0.3069  1.0760
  710TMC3    H110555   2.891   2.274   0.408  0.2269 -0.2506  0.6525
  710TMC3    H210556   3.264   2.213   0.230  0.8668  2.0403  1.4705
  710TMC3    C710557   3.100   2.143   0.420  0.4766 -1.2343 -0.6925
  710TMC3    C810558   3.253   2.408   0.042 -0.2790  0.2168 -0.0507
  710TMC3    O110559   3.075   2.161   0.540 -0.0553 -0.1060 -0.1619
  710TMC3    O210560   3.218   2.484  17.680  0.9023 -0.4489 -0.1960
  711TMC3    C110561   2.840   3.146  15.273  0.4045 -0.0022  0.2290
  711TMC3    C210562   2.858   3.265  15.337 -0.0671 -0.2693 -0.0378
  711TMC3    C310563   2.949   3.265  15.442  0.0239 -0.0965 -0.0581
  711TMC3    C410564   2.906   3.036  15.322 -0.2574  0.1482  0.4216
  711TMC3    C510565   2.991   3.038  15.426  0.0607 -0.0547  0.4534
  711TMC3    C610566   3.024   3.156  15.480  0.3283 -0.1924  0.3706
  711TMC3     C10567   2.731   3.130  15.174 -0.3535 -0.0206  0.4738
  711TMC3     O10568   2.703   3.017  15.152 -0.4642 -0.1481  0.1561
  711TMC3     H10569   2.798   3.354  15.320 -1.1716 -1.2575 -1.2837
  711TMC3    H110570   2.892   2.941  15.271  1.5114  1.6005 -2.7875
  711TMC3    H210571   3.098   3.155  15.559  0.8496  0.8952 -0.1047
  711TMC3    C710572   3.093   2.931  15.445  0.4131 -0.4114 -0.6337
  711TMC3    C810573   2.965   3.391  15.506  0.0271 -0.0964 -0.2393
  711TMC3    O110574   3.207   2.956  15.479 -0.1880  0.3116 -0.1692
  711TMC3    O210575   2.890   3.483  15.481 -0.2384  0.2749 -0.1846
  712MPD2     C10576   4.700   4.246  13.957  0.4728  0.1527 -0.1937
  712MPD2    C110577   4.568   4.283  13.988  0.6353  0.9142  0.4104
  712MPD2    C210578   4.529   4.417  13.952  0.1222 -0.0608  0.1187
  712MPD2    C310579   4.620   4.504  13.899 -0.0764  0.5241  0.0785
  712MPD2    C410580   0.018   4.458  13.857 -0.1392 -0.2622  0.2046
  712MPD2    C510581   0.053   4.330  13.892  0.3122  0.3773  0.6915
  712MPD2     H10582   4.427   4.443  13.979 -0.3227 -0.9844 -0.6654
  712MPD2    H110583   0.080   4.527  13.802  2.0553 -1.0160  1.7745
  712MPD2    H210584   4.730   4.146  13.989 -0.0024  1.2070  3.5908
  712MPD2    H310585   0.154   4.298  13.868 -0.2643 -0.0763 -1.1440
  712MPD2     N10586   4.590   4.634  13.848 -0.4161 -0.3026  0.5205
  712MPD2    H510587   4.664   4.685  13.801 -0.0871  0.1998  1.5816
  712MPD2    N110588   4.470   4.196  14.026  0.6404 -0.0408  0.0906
  712MPD2    H710589   4.374   4.228  14.018  0.3610 -0.1853  2.8969
  713TMC3    C110590   4.441   0.079  13.781  0.7688  0.1194  0.4559
  713TMC3    C210591   4.540   0.134  13.702  0.5135  0.1595 -0.0507
  713TMC3    C310592   4.505   0.237  13.620  0.1636 -0.0773  0.3530
  713TMC3    C410593   4.313   0.128  13.787  0.2191 -0.5873 -0.1569
  713TMC3    C510594   4.287   0.234  13.703 -0.5575 -0.4646  0.2156
  713TMC3    C610595   4.381   0.280  13.608  0.9253  0.3133  0.6623
  713TMC3     C10596   4.466   4.687  13.856  0.0417 -0.4156  0.1512
  713TMC3     O10597   4.369   4.660  13.927 -1.0348  0.0966 -0.4521
  713TMC3     H10598   4.640   0.094  13.713  0.2123 -0.2753  1.1282
  713TMC3    H110599   4.231   0.071  13.830 -1.5379  1.4626 -0.7457
  713TMC3    H210600   4.355   0.369  13.551  0.3124 -0.4416 -0.2414
  713TMC3    C710601   4.173   0.315  13.712 -0.7077 -0.1110 -0.7667
  713TMC3    C810602   4.609   0.324  13.579 -0.1679 -0.2938 -0.5335
  713TMC3    O110603   4.139   0.376  13.610  0.1270  0.0144  0.1468
  713TMC3    O210604   4.575   0.435  13.551 -0.2390 -0.2345  0.1989
  714MPD2     C10605   1.692   3.117   1.823  0.1582  0.2569  0.2590
  714MPD2    C110606   1.734   3.069   1.697  0.0388  0.3194 -0.3538
  714MPD2    C210607   1.641   3.054   1.595  0.5647  0.8618 -0.3112
  714MPD2    C310608   1.510   3.087   1.612  0.0055  0.6490  0.4324
  714MPD2    C410609   1.466   3.126   1.740  0.3058 -0.1609  0.6208
  714MPD2    C510610   1.558   3.132   1.842  0.6719  0.2743 -0.4152
  714MPD2     H10611   1.672   3.027   1.495  2.1268 -1.9671  0.9483
  714MPD2    H110612   1.361   3.149   1.757 -0.3196 -1.9087 -0.8918
  714MPD2    H210613   1.759   3.122   1.908 -0.3981  0.1657  0.7043
  714MPD2    H310614   1.522   3.158   1.941  0.5537 -4.9042  0.9315
  714MPD2     N10615   1.431   3.105   1.498  0.7032 -0.2202 -0.3622
  714MPD2    H510616   1.476   3.092   1.408  0.1350  2.2261 -1.0067
  714MPD2    N110617   1.874   3.041   1.678  0.0681 -0.1053 -0.5335
  714MPD2    H710618   1.938   3.055   1.756 -0.6894 -0.7695  0.2164
  715TMC3    C110619   2.078   3.006   1.561  0.2164  0.0715  0.4081
  715TMC3    C210620   2.140   2.924   1.479 -0.7267  0.1025 -0.2922
  715TMC3    C310621   2.271   2.891   1.498  0.6961 -0.7395 -0.1820
  715TMC3    C410622   2.142   3.069   1.661 -0.1923 -0.3408 -0.1993
  715TMC3    C510623   2.278   3.040   1.676 -0.4274  0.0484 -0.2242
  715TMC3    C610624   2.347   2.942   1.597  1.0568  0.0277  0.3966
  715TMC3     C10625   1.931   3.007   1.557  0.1860 -0.4571 -0.7490
  715TMC3     O10626   1.878   2.998   1.447 -0.1494 -0.1996  0.4208
  715TMC3     H10627   2.081   2.880   1.400  0.1855 -0.1807 -0.8214
  715TMC3    H110628   2.101   3.157   1.710 -0.5163  0.3295 -1.6803
  715TMC3    H210629   2.452   2.922   1.615  0.4428 -1.7156  2.0353
  715TMC3    C710630   2.361   3.152   1.713 -0.1612 -0.0506  0.2476
  715TMC3    C810631   2.308   2.770   1.424 -0.0612 -0.9860 -0.0954
  715TMC3    O110632   2.469   3.161   1.663  0.1307  0.2623 -0.4370
  715TMC3    O210633   2.217   2.701   1.387  0.5223  0.5441 -0.3783
  716MPD2     C10634   0.898   1.285  10.067  0.7886  0.3573  0.4506
  716MPD2    C110635   0.858   1.354   9.957  0.5360  0.1497 -0.3040
  716MPD2    C210636   0.921   1.330   9.834 -0.1620  0.5325 -0.0078
  716MPD2    C310637   1.014   1.232   9.823 -0.6184 -0.0505 -0.4436
  716MPD2    C410638   1.066   1.183   9.939  0.1224 -0.1408 -0.5829
  716MPD2    C510639   1.012   1.215  10.058 -0.0614 -0.6846  0.1730
  716MPD2     H10640   0.901   1.394   9.749 -2.3485 -0.5316 -0.2902
  716MPD2    H110641   1.156   1.123   9.930 -0.5966 -1.1433 -1.1087
  716MPD2    H210642   0.856   1.305  10.166  0.0070  0.9142  0.0029
  716MPD2    H310643   1.054   1.171  10.147 -1.3262  2.0961  2.1248
  716MPD2     N10644   1.071   1.209   9.692 -0.3838 -0.0497  0.0714
  716MPD2    H510645   1.040   1.278   9.624 -0.7401 -0.3083 -0.0317
  716MPD2    N110646   0.763   1.451   9.971  0.1542 -0.2363  0.4511
  716MPD2    H710647   0.712   1.455  10.058 -0.1437  0.3716  0.2481
  717TMC3    C110648   1.262   1.164   9.557  0.2043 -0.0799  0.1268
  717TMC3    C210649   1.228   1.280   9.487 -0.9336  0.5333  0.6284
  717TMC3    C310650   1.331   1.341   9.415 -0.0485  0.1504 -0.1743
  717TMC3    C410651   1.393   1.109   9.552  0.5027  0.2658 -0.6576
  717TMC3    C510652   1.494   1.184   9.502 -0.1352  0.2332 -0.3304
  717TMC3    C610653   1.462   1.295   9.425 -0.3226  0.7180 -0.5335
  717TMC3     C10654   1.175   1.123   9.663 -0.0317  0.7790  0.6482
  717TMC3     O10655   1.203   1.016   9.719 -0.6390  0.4344 -0.1305
  717TMC3     H10656   1.131   1.328   9.482 -0.5239  1.4491  1.3986
  717TMC3    H110657   1.404   1.018   9.610  0.3264  1.6037  1.4829
  717TMC3    H210658   1.542   1.357   9.385  0.0134  1.4964  1.3400
  717TMC3    C710659   1.632   1.131   9.493 -0.2402 -0.3734  0.1983
  717TMC3    C810660   1.303   1.464   9.350 -0.5771 -0.3297 -0.0467
  717TMC3    O110661   1.717   1.201   9.441  0.0893  0.1220 -0.0125
  717TMC3    O210662   1.188   1.506   9.348  0.3135 -0.0322 -0.4969
  718MPD2     C10663   0.379   0.208  13.040  0.1971  0.6629  0.9298
  718MPD2    C110664   0.415   0.078  13.044  0.1810 -0.1417 -0.0227
  718MPD2    C210665   0.364   4.728  13.142 -0.9029 -0.9029  0.0871
  718MPD2    C310666   0.275   0.041  13.234 -0.0273 -0.2504 -0.4986
  718MPD2    C410667   0.232   0.171  13.230 -0.1554  0.0700 -0.6620
  718MPD2    C510668   0.289   0.249  13.130 -0.7837 -0.5062  0.8385
  718MPD2     H10669   0.405   4.628  13.148  2.7450  0.5782 -0.1835
  718MPD2    H110670   0.162   0.218  13.298  1.5935  2.3360 -0.4271
  718MPD2    H210671   0.422   0.279  12.970  1.7211 -0.4126  0.7663
  718MPD2    H310672   0.252   0.351  13.133 -1.3748 -0.5893 -2.8137
  718MPD2     N10673   0.229   4.676  13.327  0.1071 -0.4226  0.3373
  718MPD2    H510674   0.258   4.580  13.308 -1.3315 -0.4611 -1.7626
  718MPD2    N110675   0.509   0.030  12.950 -0.2633 -0.3781 -0.0368
  718MPD2    H710676   0.552   0.099  12.889  0.0820 -0.8458 -0.3252
  719TMC3    C110677   0.640   4.583  12.850 -0.5468 -0.4334  0.6408
  719TMC3    C210678   0.654   4.442  12.863 -0.0205 -0.0718  0.2766
  719TMC3    C310679   0.773   4.384  12.897  0.3482  0.4171 -0.2591
  719TMC3    C410680   0.749   4.666  12.858 -0.4505  0.5841 -0.2361
  719TMC3    C510681   0.860   4.600  12.892  0.0700  0.6948 -0.4225
  719TMC3    C610682   0.880   4.466  12.914 -0.6005 -0.5932 -0.5960
  719TMC3     C10683   0.516   4.626  12.916  0.4112 -0.2639  0.1813
  719TMC3     O10684   0.432   4.540  12.940  0.1727  0.3545  0.1146
  719TMC3     H10685   0.564   4.383  12.876 -0.2202  0.1161 -0.2210
  719TMC3    H110686   0.750   0.041  12.844  0.6309  0.7285  0.9226
  719TMC3    H210687   0.974   4.421  12.944 -0.2096  0.9004  0.4490
  719TMC3    C710688   0.975   4.675  12.850  0.3351 -0.5484 -0.1620
  719TMC3    C810689   0.751   4.330  13.028 -0.0199  0.3783  0.3526
  719TMC3    O110690   1.062   4.612  12.790  0.1137  0.5410 -0.1757
  719TMC3    O210691   0.794   4.382  13.130  0.4555 -0.2463 -0.0237
  720MPD2     C10692   3.889   1.439  13.717 -0.1099 -0.2573  0.0491
  720MPD2    C110693   3.903   1.571  13.743 -0.7709  0.3655  0.1505
  720MPD2    C210694   3.986   1.614  13.843 -0.2898 -0.5645  0.6900
  720MPD2    C310695   4.064   1.525  13.919  0.5426  0.2623  1.0909
  720MPD2    C410696   4.054   1.392  13.883 -0.3841 -0.0240  0.2819
  720MPD2    C510697   3.965   1.353  13.782  0.4368 -0.3129  0.5224
  720MPD2     H10698   3.999   1.718  13.871  1.3923 -0.7667  0.6326
  720MPD2    H110699   4.109   1.313  13.934  0.9788  0.4393 -0.4698
  720MPD2    H210700   3.820   1.401  13.643  1.4760 -1.6697 -0.6740
  720MPD2    H310701   3.967   1.249  13.750  1.9916 -1.3385  3.9122
  720MPD2     N10702   4.133   1.572  14.027 -0.1608 -0.0296 -0.1034
  720MPD2    H510703   4.122   1.673  14.034 -0.3977 -0.2777  3.0727
  720MPD2    N110704   3.858   1.675  13.655  0.2809  0.1660 -0.6421
  720MPD2    H710705   3.876   1.766  13.694  2.4692  0.1110 -1.5050
  721TMC3    C110706   4.288   1.593  14.200  0.0196  0.0578  0.4437
  721TMC3    C210707   4.201   1.628  14.294  0.1198  0.5654  0.0029
  721TMC3    C310708   4.260   1.680  14.406  0.3145  0.7653 -0.2049
  721TMC3    C410709   4.423   1.599  14.215 -0.5457 -0.4543  0.1012
  721TMC3    C510710   4.474   1.629  14.341  0.0707 -0.0204  0.6016
  721TMC3    C610711   4.397   1.680  14.436 -0.7131 -0.2608 -0.5292
  721TMC3     C10712   4.238   1.508  14.090 -0.9105  0.1835  0.6596
  721TMC3     O10713   4.281   1.394  14.084 -0.4953 -0.5792 -0.0070
  721TMC3     H10714   4.096   1.641  14.271  0.0913 -2.9594 -1.8031
  721TMC3    H110715   4.483   1.561  14.134  1.3548  1.6131  0.5241
  721TMC3    H210716   4.434   1.738  14.519  0.6398 -2.0200  0.0879
  721TMC3    C710717   4.609   1.654  14.346  0.3288  0.5876  0.4073
  721TMC3    C810718   4.161   1.691  14.514  0.1475  0.2755  0.2805
  721TMC3    O110719   4.658   1.686  14.238  0.4274 -0.2348  0.1083
  721TMC3    O210720   4.043   1.691  14.485  0.1591 -0.0520 -0.2660
  722MPD2     C10721   3.184   0.327  13.219 -0.3617 -0.2480 -0.1973
  722MPD2    C110722   3.142   0.445  13.275  0.0573 -0.0545  0.1777
  722MPD2    C210723   3.005   0.475  13.256 -0.4435 -0.5449  0.5901
  722MPD2    C310724   2.906   0.397  13.201  0.5671 -0.1705 -0.1660
  722MPD2    C410725   2.954   0.280  13.149  0.1887  0.4655 -0.1944
  722MPD2    C510726   3.087   0.248  13.155 -0.1450 -0.5133  0.2330
  722MPD2     H10727   2.974   0.565  13.308 -2.5207 -0.3662 -0.9363
  722MPD2    H110728   2.897   0.211  13.087 -1.0169  1.8226 -0.6005
  722MPD2    H210729   3.286   0.291  13.226  0.0470  0.8674 -0.5290
  722MPD2    H310730   3.122   0.154  13.115  1.3855 -0.0848  0.5342
  722MPD2     N10731   2.773   0.445  13.192 -0.3509 -0.5799  0.5137
  722MPD2    H510732   2.756   0.532  13.243 -0.3167 -1.5603  2.2030
  722MPD2    N110733   3.217   0.535  13.355  0.5215 -0.3339  0.3553
  722MPD2    H710734   3.164   0.615  13.385 -0.7106 -0.9245 -0.2513
  723TMC3    C110735   2.553   0.468  13.133  0.4507  0.1422 -0.3059
  723TMC3    C210736   2.438   0.404  13.114 -0.0325  0.1584  0.7679
  723TMC3    C310737   2.316   0.475  13.135 -0.7888 -0.3399  0.0592
  723TMC3    C410738   2.555   0.597  13.179 -0.3725 -0.7544  0.2622
  723TMC3    C510739   2.436   0.669  13.198  0.1141 -0.5096 -0.0246
  723TMC3    C610740   2.321   0.605  13.174  0.0637 -0.7812  0.8752
  723TMC3     C10741   2.673   0.390  13.122  0.3493  1.0456  0.3188
  723TMC3     O10742   2.665   0.282  13.059  0.0714  0.6338  0.0652
  723TMC3     H10743   2.444   0.307  13.066 -1.9801  1.6329 -2.4776
  723TMC3    H110744   2.647   0.650  13.202  0.3346 -2.0237  0.3538
  723TMC3    H210745   2.226   0.655  13.190  0.9561  1.0868  0.2857
  723TMC3    C710746   2.431   0.812  13.226 -0.0062 -0.3555  0.1058
  723TMC3    C810747   2.185   0.419  13.107 -0.4305  0.0486 -0.4064
  723TMC3    O110748   2.337   0.857  13.287 -0.3832  0.5977 -0.9518
  723TMC3    O210749   2.087   0.494  13.108  0.2131  0.2991  0.2861
  724TMC3    C110750   3.276   3.689  11.041 -0.0082  0.4242  0.2331
  724TMC3    C210751   3.344   3.609  10.959 -0.6519 -0.7055 -0.6872
  724TMC3    C310752   3.447   3.667  10.886 -0.2646  0.1299  0.7162
  724TMC3    C410753   3.315   3.820  11.065  0.0653 -0.2317  0.5173
  724TMC3    C510754   3.419   3.880  10.986  0.2339 -0.0713  0.4864
  724TMC3    C610755   3.488   3.796  10.901 -0.4180  1.3926  0.0789
  724TMC3     C10756   3.156   3.653  11.117 -0.8834  0.0261 -0.4290
  724TMC3     O10757   3.125   3.713  11.216 -0.3207  0.4669 -0.0521
  724TMC3     H10758   3.290   3.525  10.916 -1.1184  0.0106 -1.5085
  724TMC3    H110759   3.246   3.887  11.115 -1.8773 -0.1707 -2.2930
  724TMC3    H210760   3.575   3.834  10.848 -0.3044  0.3880 -0.4575
  724TMC3    C710761   3.430   4.023  10.954 -0.7411 -0.0418 -0.3629
  724TMC3    C810762   3.464   3.614  10.752  0.0814  0.7550 -0.2292
  724TMC3    O110763   3.480   4.057  10.848 -0.1107 -0.0479  0.1553
  724TMC3    O210764   3.462   3.495  10.733  0.5472 -0.2113 -0.1182
  725TMC3    C110765   0.055   1.700  12.024  0.2989 -0.3159 -0.7312
  725TMC3    C210766   4.661   1.753  12.003  0.2032  0.1470 -0.2231
  725TMC3    C310767   4.580   1.696  11.908  0.0601 -0.4339  0.2654
  725TMC3    C410768   0.106   1.595  11.958  0.3101 -0.0029  0.3506
  725TMC3    C510769   0.024   1.540  11.860  0.0173 -0.7398 -0.7900
  725TMC3    C610770   4.629   1.589  11.839 -0.6326  0.0766 -0.3050
  725TMC3     C10771   0.134   1.787  12.098 -0.0230  0.1113 -0.2024
  725TMC3     O10772   0.084   1.845  12.193  0.3523  0.1393  0.3329
  725TMC3     H10773   4.625   1.829  12.072  2.0156  0.6279  0.1718
  725TMC3    H110774   0.207   1.558  11.973 -0.3956 -2.0726 -0.0060
  725TMC3    H210775   4.569   1.541  11.762  0.9342  0.3957 -1.7198
  725TMC3    C710776   0.068   1.415  11.792  0.1143 -0.9223 -0.5182
  725TMC3    C810777   4.459   1.762  11.857 -0.6025  0.5665 -0.0786
  725TMC3    O110778   4.712   1.356  11.726 -0.1672  0.0809  0.5844
  725TMC3    O210779   4.386   1.685  11.794  0.0263  0.1127  0.3559
  726MPD2     C10780   2.309   4.015   9.676  0.1789  0.6086 -0.3207
  726MPD2    C110781   2.252   4.001   9.802  0.4584 -0.0390 -0.2715
  726MPD2    C210782   2.231   3.875   9.856  0.1311 -0.3223 -0.1738
  726MPD2    C310783   2.275   3.762   9.786 -0.6579 -0.6987 -0.4925
  726MPD2    C410784   2.316   3.778   9.651  0.1151  0.3502  0.3066
  726MPD2    C510785   2.332   3.902   9.599 -0.0060 -0.0249  0.0596
  726MPD2     H10786   2.189   3.864   9.955 -1.0941  0.1682 -0.6396
  726MPD2    H110787   2.344   3.692   9.591 -0.2295 -0.1313  0.8361
  726MPD2    H210788   2.331   4.114   9.636  1.1414  0.4565 -0.1672
  726MPD2    H310789   2.356   3.908   9.494  2.0161 -0.3914  0.5000
  726MPD2     N10790   2.255   3.630   9.834 -0.1366 -0.0280 -0.5577
  726MPD2    H510791   2.283   3.547   9.784  1.4914 -0.4374  1.0554
  726MPD2    N110792   2.215   4.116   9.879  0.1427  0.3550 -0.1744
  726MPD2    H710793   2.202   4.100   9.978  2.4573  0.1165  0.0942
  727TMC3    C110794   2.133   4.335   9.905 -0.0265  0.4676  0.5107
  727TMC3    C210795   2.217   4.368  10.006  0.3470 -0.1643  0.2339
  727TMC3    C310796   2.202   4.498  10.058  0.3566 -0.0891  0.4541
  727TMC3    C410797   2.036   4.424   9.855 -0.6591 -0.0889 -0.0350
  727TMC3    C510798   2.029   4.548   9.912  0.2195  0.5677 -0.4433
  727TMC3    C610799   2.115   4.592  10.009 -0.5625  0.2219 -1.0407
  727TMC3     C10800   2.172   4.232   9.816 -0.3186  0.0467 -0.6112
  727TMC3     O10801   2.125   4.232   9.702 -0.1967  0.8630 -0.2092
  727TMC3     H10802   2.298   4.297  10.024  0.1822 -0.0464  1.4764
  727TMC3    H110803   1.998   4.408   9.755  0.2348  0.2385 -0.4244
  727TMC3    H210804   2.092   4.676  10.074 -0.0995  0.5096 -1.2462
  727TMC3    C710805   1.968   4.652   9.835  0.4111  0.5583 -0.6297
  727TMC3    C810806   2.299   4.538  10.161  0.6337  0.8805 -0.1613
  727TMC3    O110807   2.026   0.028   9.839 -0.5808 -0.1023  0.3293
  727TMC3    O210808   2.349   4.439  10.219 -0.0365  0.0340 -0.2510
  728TMC3    C110809   2.024   2.247  15.753  0.6220 -0.1679  0.3440
  728TMC3    C210810   2.153   2.277  15.720 -0.5624  0.2414  0.7983
  728TMC3    C310811   2.189   2.309  15.596 -0.9732 -0.3908 -0.7850
  728TMC3    C410812   1.923   2.259  15.655 -0.3124  0.4533 -0.3723
  728TMC3    C510813   1.968   2.296  15.529  0.3036 -0.0801 -0.7180
  728TMC3    C610814   2.096   2.306  15.499  0.3953 -0.1100  0.5236
  728TMC3     C10815   1.997   2.181  15.873 -0.1864  0.2918  0.9527
  728TMC3     O10816   2.080   2.192  15.966  0.5371  0.1176  0.3110
  728TMC3     H10817   2.226   2.267  15.799 -0.4741 -0.9043  0.5716
  728TMC3    H110818   1.817   2.236  15.665 -0.3415  0.7691  0.0032
  728TMC3    H210819   2.127   2.313  15.395 -2.3846 -2.0079 -0.4515
  728TMC3    C710820   1.874   2.304  15.419  0.0557 -0.1527 -0.0066
  728TMC3    C810821   2.327   2.330  15.568  0.5139 -0.0657 -0.4543
  728TMC3    O110822   1.768   2.241  15.429 -0.3783 -0.4926  0.4724
  728TMC3    O210823   2.404   2.271  15.646 -0.6949  0.4387 -0.0788
  729MPD2     C10824   4.027   3.656  16.820  0.7161  0.1808 -0.1119
  729MPD2    C110825   4.089   3.542  16.840  0.2325  0.5592  0.4643
  729MPD2    C210826   4.096   3.484  16.967  0.1704  0.1128 -0.6274
  729MPD2    C310827   4.043   3.546  17.075 -0.4664 -0.1287 -0.2658
  729MPD2    C410828   3.980   3.671  17.055  0.2879  0.2952  0.3404
  729MPD2    C510829   3.966   3.716  16.929  0.8377 -0.2961 -0.8959
  729MPD2     H10830   4.158   3.396  16.983  1.0491  0.8521  0.0598
  729MPD2    H110831   3.942   3.728  17.139  2.3113 -0.6085  1.8788
  729MPD2    H210832   4.024   3.693  16.719 -0.3575  0.0728 -0.1258
  729MPD2    H310833   3.927   3.816  16.914  0.1101 -0.5552 -0.7053
  729MPD2     N10834   4.063   3.504  17.206  0.4197 -0.0459 -0.4817
  729MPD2    H510835   4.047   3.578  17.273  2.7435  0.1047 -0.0923
  729MPD2    N110836   4.170   3.495  16.733  0.3164  0.7113  0.1883
  729MPD2    H710837   4.181   3.564  16.659  2.3919 -2.8625 -2.9043
  730TMC3    C110838   4.165   3.386  17.381  0.2866  0.2359 -0.3379
  730TMC3    C210839   4.304   3.378  17.374 -0.2602  0.6500 -0.0903
  730TMC3    C310840   4.377   3.475  17.433 -0.5222 -0.3705  0.3928
  730TMC3    C410841   4.106   3.485  17.453 -0.4295 -0.3455 -0.4764
  730TMC3    C510842   4.186   3.585  17.495  0.4993  0.0492  0.2002
  730TMC3    C610843   4.319   3.587  17.490  0.7023  0.1265 -0.1381
  730TMC3     C10844   4.124   3.385  17.246  0.1913 -0.0500  0.2592
  730TMC3     O10845   4.163   3.293  17.179  0.8640 -0.4483 -0.2390
  730TMC3     H10846   4.354   3.300  17.318  2.2788  2.7600 -0.8072
  730TMC3    H110847   4.001   3.478  17.478 -0.5925  0.8255 -0.8160
  730TMC3    H210848   4.366   3.684  17.496 -1.1107  0.8626  2.1404
  730TMC3    C710849   4.139   3.718  17.458 -0.3860  0.3807 -0.5032
  730TMC3    C810850   4.508   3.501  17.367 -0.7173 -0.2096 -0.0155
  730TMC3    O110851   4.101   3.733  17.346  0.5652 -0.6053  0.0937
  730TMC3    O210852   4.515   3.456  17.253 -0.2596  0.2729 -0.5725
  731MPD2     C10853   3.695   1.035  12.397 -0.3058 -0.0720  0.6002
  731MPD2    C110854   3.796   0.962  12.345  0.8241 -0.0749 -0.3486
  731MPD2    C210855   3.923   0.987  12.396  0.4071 -1.1044 -0.3725
  731MPD2    C310856   3.946   1.080  12.493  0.5202  0.3618  0.3318
  731MPD2    C410857   3.841   1.149  12.546 -0.6235 -0.2296  0.0785
  731MPD2    C510858   3.719   1.135  12.489 -0.2677  0.2370 -0.6274
  731MPD2     H10859   4.000   0.939  12.338  0.7145 -0.9562 -0.0890
  731MPD2    H110860   3.851   1.222  12.625  2.0979 -2.2040  1.5695
  731MPD2    H210861   3.591   1.026  12.365  0.5635 -2.3473 -1.5774
  731MPD2    H310862   3.641   1.204  12.520 -1.6266 -1.3430 -0.5600
  731MPD2     N10863   4.083   1.103  12.534  0.3029 -0.3712 -1.1437
  731MPD2    H510864   4.144   1.037  12.486  1.4072  1.3774 -2.1699
  731MPD2    N110865   3.757   0.860  12.249 -0.0854 -0.0436 -0.4673
  731MPD2    H710866   3.658   0.859  12.228  0.1813  0.3777 -1.7771
  732TMC3    C110867   3.775   0.693  12.101  0.0421  0.1927 -0.3997
  732TMC3    C210868   3.640   0.686  12.118 -0.2960  0.0170 -0.1204
  732TMC3    C310869   3.559   0.683  12.010  0.1330  0.6058 -0.2429
  732TMC3    C410870   3.837   0.662  11.983 -0.8966  0.8126  0.4088
  732TMC3    C510871   3.753   0.645  11.876  0.0607 -0.3951  0.0503
  732TMC3    C610872   3.616   0.661  11.887  0.3494 -0.6634 -0.7367
  732TMC3     C10873   3.839   0.773  12.198 -0.3442  0.1366  0.3966
  732TMC3     O10874   3.957   0.779  12.188  0.1244  0.3174  0.0315
  732TMC3     H10875   3.586   0.694  12.211 -0.3391  1.7939 -0.3114
  732TMC3    H110876   3.944   0.673  11.964 -1.2785  2.7201 -0.6108
  732TMC3    H210877   3.556   0.654  11.796  0.7658  1.7605 -1.1806
  732TMC3    C710878   3.795   0.624  11.738  0.6311  0.7274 -0.1736
  732TMC3    C810879   3.494   0.812  12.001 -0.5326 -0.3874  0.4091
  732TMC3    O110880   3.727   0.661  11.643 -0.0084 -0.6200  0.4931
  732TMC3    O210881   3.504   0.883  12.097 -0.1573  0.2751 -0.4246
  733TMC3    C110882   4.636   4.404  13.463  0.2612 -0.2607  0.0518
  733TMC3    C210883   4.675   4.534  13.453  0.3492 -0.8731 -0.4243
  733TMC3    C310884   0.075   4.555  13.458 -0.1729 -1.1652 -0.4951
  733TMC3    C410885   4.723   4.294  13.453  0.1164  0.6434 -0.7821
  733TMC3    C510886   0.118   4.322  13.436 -0.7966 -0.0529 -1.4473
  733TMC3    C610887   0.168   4.450  13.452 -0.7273 -0.0910  0.7125
  733TMC3     C10888   4.496   4.376  13.449  1.1478 -0.1253  0.5286
  733TMC3     O10889   4.432   4.456  13.387 -0.1061 -0.3231  0.3382
  733TMC3     H10890   4.605   4.617  13.450 -0.4369 -1.4902  1.2065
  733TMC3    H110891   4.690   4.198  13.416  0.0857  0.6494 -0.7698
  733TMC3    H210892   0.272   4.455  13.480 -0.9973  0.5174  1.6129
  733TMC3    C710893   0.205   4.207  13.385 -0.3406  0.2984 -0.9527
  733TMC3    C810894   0.123   4.686  13.414 -0.6040 -0.3664  0.3918
  733TMC3    O110895   0.142   4.104  13.371 -0.2084 -0.3812 -0.0531
  733TMC3    O210896   0.056   0.051  13.451  0.2227  0.1576  0.6022
  734MPD2     C10897   3.280   2.784  11.998 -0.5340 -0.2266 -0.6253
  734MPD2    C110898   3.145   2.750  11.997 -0.7038 -0.7695 -0.0892
  734MPD2    C210899   3.085   2.762  11.874 -0.0659 -0.1573 -0.0618
  734MPD2    C310900   3.139   2.841  11.778 -0.0328 -0.5327  0.3275
  734MPD2    C410901   3.260   2.893  11.789 -0.7366  0.2030 -0.5750
  734MPD2    C510902   3.332   2.863  11.900  0.2760 -0.1468  0.8922
  734MPD2     H10903   2.985   2.724  11.855  0.2167 -1.2589  0.6458
  734MPD2    H110904   3.310   2.954  11.714  1.2157  0.3217  0.8155
  734MPD2    H210905   3.332   2.762  12.091 -2.3505 -0.6235  0.2912
  734MPD2    H310906   3.432   2.904  11.914 -0.0021  0.9922 -0.4201
  734MPD2     N10907   3.049   2.866  11.672 -0.2752  0.3447 -0.0292
  734MPD2    H510908   2.963   2.813  11.680  0.1201 -0.7699 -3.2858
  734MPD2    N110909   3.087   2.692  12.115 -0.3596 -0.9257 -0.0839
  734MPD2    H710910   3.153   2.674  12.191 -0.3320  0.0419  0.1189
  735TMC3    C110911   2.920   2.557  12.219  0.5976 -0.0557 -0.0145
  735TMC3    C210912   2.791   2.577  12.248  0.4425 -0.6484  0.6979
  735TMC3    C310913   2.696   2.478  12.237 -0.1392 -0.2211  0.3017
  735TMC3    C410914   2.980   2.431  12.190 -0.2547  0.2647  0.3407
  735TMC3    C510915   2.883   2.329  12.196 -0.3362 -0.0382  0.7298
  735TMC3    C610916   2.743   2.351  12.210  0.1723  0.3935 -0.1842
  735TMC3     C10917   2.956   2.663  12.127  0.6061  0.7365  0.3073
  735TMC3     O10918   2.861   2.711  12.064  0.2888 -0.5330  0.3609
  735TMC3     H10919   2.763   2.680  12.266 -1.9839 -0.7775 -2.4460
  735TMC3    H110920   3.081   2.407  12.159 -0.7768 -2.1262  0.4841
  735TMC3    H210921   2.674   2.288  12.155  0.9396 -0.0271 -0.6673
  735TMC3    C710922   2.923   2.215  12.111  0.4629  0.7673  0.3720
  735TMC3    C810923   2.575   2.515  12.168  0.0790 -0.4248 -0.6662
  735TMC3    O110924   3.001   2.242  12.021  0.1272 -0.1011  0.1925
  735TMC3    O210925   2.478   2.437  12.169  0.3722  0.0865 -0.2036
  736MPD2     C10926   2.826   1.866  12.140  0.4643  0.2506  0.2202
  736MPD2    C110927   2.862   1.979  12.072 -0.7326  0.1081  0.1228
  736MPD2    C210928   2.897   1.967  11.938 -0.0596 -0.5883 -0.0728
  736MPD2    C310929   2.906   1.841  11.876 -0.7011  0.6581 -0.7458
  736MPD2    C410930   2.873   1.731  11.951  1.0910 -0.1592  0.3514
  736MPD2    C510931   2.827   1.745  12.079  0.1036 -0.6368 -0.7441
  736MPD2     H10932   2.907   2.060  11.882  1.4555 -0.3123  0.6466
  736MPD2    H110933   2.862   1.634  11.905 -0.1045  0.8872 -1.5666
  736MPD2    H210934   2.810   1.872  12.247 -1.6042  0.2399 -0.0926
  736MPD2    H310935   2.793   1.664  12.142 -0.3180  0.7636  0.8415
  736MPD2     N10936   2.933   1.821  11.735 -0.6097 -0.5400 -0.5023
  736MPD2    H510937   2.911   1.733  11.690 -3.8683 -0.9429  1.8760
  736MPD2    N110938   2.857   2.098  12.146 -0.2431 -0.0495  0.5534
  736MPD2    H710939   2.798   2.109  12.227 -1.1080  0.8744 -0.1952
  737TMC3    C110940   2.953   1.910  11.511 -0.4580 -0.0978  1.3369
  737TMC3    C210941   2.992   2.011  11.435 -0.0591  0.0220 -0.0241
  737TMC3    C310942   2.964   1.999  11.303  0.4666 -0.1924 -0.0208
  737TMC3    C410943   2.924   1.786  11.458  0.5561 -0.4832 -0.8245
  737TMC3    C510944   2.912   1.772  11.315  0.5758 -0.2319 -0.0717
  737TMC3    C610945   2.937   1.884  11.237  0.2824 -0.2054  0.6803
  737TMC3     C10946   2.978   1.927  11.659 -0.2652 -0.3087  0.3787
  737TMC3     O10947   3.038   2.027  11.695  0.8790 -0.5316  0.0146
  737TMC3     H10948   3.032   2.108  11.462 -2.4942  1.1458 -0.5244
  737TMC3    H110949   2.900   1.703  11.523 -1.3951 -0.7576 -1.8965
  737TMC3    H210950   2.940   1.869  11.129  0.4660  1.3149  0.4863
  737TMC3    C710951   2.894   1.639  11.257 -0.3378  0.0706  0.5013
  737TMC3    C810952   3.016   2.101  11.215  0.5976 -0.0433 -0.2714
  737TMC3    O110953   2.829   1.556  11.318  0.5674  0.1941 -0.1354
  737TMC3    O210954   3.116   2.158  11.252 -0.0568 -0.3740 -0.1105
  738MPD2     C10955   3.425   0.806  15.509 -0.5016  0.3440  1.0044
  738MPD2    C110956   3.444   0.748  15.381  0.0335 -0.1866 -0.5418
  738MPD2    C210957   3.502   0.815  15.272  0.4855  1.0728 -0.1129
  738MPD2    C310958   3.548   0.943  15.291 -0.6159  0.0400 -0.3784
  738MPD2    C410959   3.518   1.000  15.416 -0.1599 -0.6593  0.7463
  738MPD2    C510960   3.448   0.946  15.512  0.3417 -0.6516 -0.0515
  738MPD2     H10961   3.514   0.764  15.177 -2.5421 -0.9301  0.5620
  738MPD2    H110962   3.554   1.101  15.430  3.3646 -1.6724 -1.0475
  738MPD2    H210963   3.403   0.759  15.604  0.4755 -0.0136  1.0497
  738MPD2    H310964   3.414   1.018  15.585  0.0459 -1.2518  0.4040
  738MPD2     N10965   3.618   1.013  15.192 -0.9335  0.3121 -0.1397
  738MPD2    H510966   3.645   1.107  15.220 -0.2585  0.8200 -2.4684
  738MPD2    N110967   3.415   0.615  15.362  0.3407 -0.4573 -0.0218
  738MPD2    H710968   3.449   0.569  15.278  0.5676 -0.4963  0.0929
  739TMC3    C110969   3.734   1.063  14.980  0.2170 -0.4765 -0.2679
  739TMC3    C210970   3.733   1.036  14.846  1.0281 -0.3143 -0.0884
  739TMC3    C310971   3.825   1.095  14.763 -0.5153 -0.0174 -0.1438
  739TMC3    C410972   3.826   1.146  15.035 -0.4826  0.4192 -0.7448
  739TMC3    C510973   3.924   1.196  14.950 -0.4820  0.1740  0.4505
  739TMC3    C610974   3.921   1.182  14.813  0.0027 -0.6420  0.0194
  739TMC3     C10975   3.654   0.967  15.065 -0.0244  0.2248 -0.5343
  739TMC3     O10976   3.607   0.869  15.008  0.2286  0.3114 -0.2775
  739TMC3     H10977   3.652   0.978  14.804  1.2246 -0.8644  0.2851
  739TMC3    H110978   3.832   1.166  15.142  0.3273  0.3254 -0.7717
  739TMC3    H210979   3.996   1.212  14.742 -0.4779 -2.8255 -1.4189
  739TMC3    C710980   4.056   1.183  15.006 -0.2945  0.1712 -0.1507
  739TMC3    C810981   3.800   1.075  14.616 -0.5802  0.2249  0.1988
  739TMC3    O110982   4.062   1.132  15.120 -0.9473 -0.4109  1.2462
  739TMC3    O210983   3.708   1.005  14.574  0.0912 -0.3350  0.2435
  740TMC3    C110984   3.902   2.091  14.325  0.3613 -0.5519  0.4061
  740TMC3    C210985   3.985   2.082  14.432  0.1730 -0.7089  0.2822
  740TMC3    C310986   4.115   2.047  14.403  0.9011 -0.3279  0.6622
  740TMC3    C410987   3.937   2.059  14.203 -0.5281 -0.1714 -0.0856
  740TMC3    C510988   4.070   2.017  14.183 -0.4272 -0.1213 -0.5339
  740TMC3    C610989   4.163   2.004  14.282  0.5976  0.2645  0.0373
  740TMC3     C10990   3.772   2.153  14.345 -0.6432 -0.2235 -0.1197
  740TMC3     O10991   3.716   2.214  14.254  0.6471  0.3465  0.2309
  740TMC3     H10992   3.949   2.099  14.533 -0.0183  1.5978 -0.1874
  740TMC3    H110993   3.863   2.061  14.124 -2.2242 -1.3777  1.4912
  740TMC3    H210994   4.263   1.965  14.266  0.0472 -1.0204 -0.2816
  740TMC3    C710995   4.104   1.951  14.058  0.0646 -0.0917 -0.2651
  740TMC3    C810996   4.211   2.054  14.516 -0.1557  0.1500  0.2317
  740TMC3    O110997   4.136   1.835  14.065  0.3938 -0.1296 -0.1533
  740TMC3    O210998   4.315   1.994  14.494  0.7844 -0.3412  0.0556
  741TMC3    C110999   3.470   1.670  13.912 -0.9129 -0.0797 -0.6533
  741TMC3    C211000   3.425   1.645  14.042 -0.2709  0.0273  1.0188
  741TMC3    C311001   3.453   1.520  14.095  0.3387  0.1007  0.4863
  741TMC3    C411002   3.530   1.577  13.833  0.0819 -0.3415 -0.1782
  741TMC3    C511003   3.558   1.459  13.896 -0.4558  0.3616 -0.2720
  741TMC3    C611004   3.515   1.427  14.023  0.3532  0.5192 -0.3005
  741TMC3     C11005   3.463   1.801  13.851  0.6806  0.0823  0.9854
  741TMC3     O11006   3.547   1.838  13.773 -0.6624  0.7546 -0.0440
  741TMC3     H11007   3.375   1.721  14.102 -0.9579  0.3969 -0.0308
  741TMC3    H111008   3.573   1.611  13.739  0.7101 -2.9462 -0.8382
  741TMC3    H211009   3.537   1.326  14.054 -0.9969  0.0834 -0.7855
  741TMC3    C711010   3.586   1.345  13.810  0.2276 -0.2615  0.6325
  741TMC3    C811011   3.380   1.463  14.207 -0.2222  0.7860  0.3165
  741TMC3    O111012   3.615   1.242  13.866 -0.1065 -0.3893 -0.0269
  741TMC3    O211013   3.277   1.520  14.216 -0.6430 -1.0614 -0.0278
  742TMC3    C111014   3.521   4.544  15.739 -1.0069 -0.4764  0.4782
  742TMC3    C211015   3.491   4.604  15.624 -0.3218  0.6518  0.3742
  742TMC3    C311016   3.586   4.598  15.527 -0.0551  0.1497  0.2987
  742TMC3    C411017   3.642   4.483  15.763 -0.0768 -0.0885  0.6014
  742TMC3    C511018   3.727   4.474  15.660 -0.0066 -0.2570 -0.2074
  742TMC3    C611019   3.702   4.526  15.538  0.0292 -0.0815 -0.2119
  742TMC3     C11020   3.420   4.527  15.835 -0.6985 -0.8261  0.1720
  742TMC3     O11021   3.413   4.416  15.885 -0.6058  0.6612  0.1517
  742TMC3     H11022   3.388   4.604  15.588 -0.4192  2.5860  0.6584
  742TMC3    H111023   3.663   4.461  15.867  0.1390 -1.4036  0.2776
  742TMC3    H211024   3.776   4.516  15.459  1.3152  0.4290  0.9172
  742TMC3    C711025   3.853   4.413  15.679  0.7270  0.0540  0.0608
  742TMC3    C811026   3.546   4.623  15.392 -0.7572  0.0916  0.0217
  742TMC3    O111027   3.930   4.431  15.585 -0.2076 -0.1189  0.1388
  742TMC3    O211028   3.428   4.608  15.360 -0.1864  0.5576  0.3503
  743MPD2     C11029   0.874   1.848   2.257  0.1619  0.1277  0.1942
  743MPD2    C111030   0.975   1.771   2.199 -0.0389 -0.7108 -0.2759
  743MPD2    C211031   1.090   1.845   2.173  0.0596  0.0331  0.1131
  743MPD2    C311032   1.103   1.982   2.195  0.4684  0.4777  0.4170
  743MPD2    C411033   0.996   2.051   2.255  0.4911 -0.4366  0.8324
  743MPD2    C511034   0.891   1.978   2.298 -0.4460 -0.8955 -1.0384
  743MPD2     H11035   1.172   1.792   2.125 -0.8347 -1.9216  0.7729
  743MPD2    H111036   1.004   2.154   2.287 -0.0124  0.1274 -0.8480
  743MPD2    H211037   0.790   1.783   2.278  0.8691 -1.1112 -0.7761
  743MPD2    H311038   0.811   2.031   2.348 -0.6012 -3.1310  1.0392
  743MPD2     N11039   1.220   2.043   2.152 -0.1201 -0.4229  0.0602
  743MPD2    H511040   1.289   1.978   2.116  2.3783  0.8131  2.6174
  743MPD2    N111041   0.963   1.634   2.159  0.4043  0.3526 -0.6487
  743MPD2    H711042   0.871   1.597   2.180  1.3397 -3.2060 -2.8187
  744TMC3    C111043   1.020   1.404   2.090  0.1205  0.4116 -0.7979
  744TMC3    C211044   0.896   1.388   2.034  0.2534 -0.4379 -0.2682
  744TMC3    C311045   0.872   1.300   1.933 -0.1967 -0.4716  0.8170
  744TMC3    C411046   1.120   1.326   2.050 -0.0762  0.2297  0.1068
  744TMC3    C511047   1.101   1.242   1.944 -0.4327 -0.4514  0.4434
  744TMC3    C611048   0.976   1.231   1.881 -0.0740 -0.4149 -0.0917
  744TMC3     C11049   1.064   1.544   2.120 -0.7272 -0.0279 -0.2175
  744TMC3     O11050   1.182   1.573   2.084 -0.6104 -0.2574 -0.2155
  744TMC3     H11051   0.826   1.467   2.059  1.3586  0.0905  1.1593
  744TMC3    H111052   1.217   1.358   2.089  1.6432 -1.4386 -2.8500
  744TMC3    H211053   0.971   1.181   1.785  0.9219  1.1061 -0.9257
  744TMC3    C711054   1.213   1.179   1.870  0.3412 -0.5964 -0.1262
  744TMC3    C811055   0.764   1.332   1.839  0.5243 -0.2672 -0.3017
  744TMC3    O111056   1.199   1.146   1.756 -0.4322  0.2317 -0.3750
  744TMC3    O211057   0.788   1.317   1.719 -0.1609  0.1414  0.5088
  745TMC3    C111058   4.357   4.013  14.081 -0.1057  0.3381 -0.4330
  745TMC3    C211059   4.292   4.064  14.197 -0.1207 -0.3644  0.8620
  745TMC3    C311060   4.185   4.003  14.253 -0.0454 -0.1342  0.3393
  745TMC3    C411061   4.303   3.910  14.018  0.0852 -0.3319 -0.2544
  745TMC3    C511062   4.184   3.864  14.068  0.1930  0.5002 -0.1627
  745TMC3    C611063   4.124   3.905  14.181 -0.0635 -0.6557  0.8886
  745TMC3     C11064   4.486   4.064  14.044 -0.6569 -0.0274  0.1862
  745TMC3     O11065   4.562   3.989  13.988  0.1660 -0.0296  0.1388
  745TMC3     H11066   4.345   4.135  14.259  0.1395  2.4896 -2.6219
  745TMC3    H111067   4.354   3.879  13.927 -0.9236 -1.6394 -0.3634
  745TMC3    H211068   4.020   3.879  14.197  0.0340 -2.5663 -1.6252
  745TMC3    C711069   4.102   3.802  13.969 -0.9630  0.6525 -0.0305
  745TMC3    C811070   4.097   4.094  14.320 -0.4273  0.3705 -0.3611
  745TMC3    O111071   4.000   3.742  14.007 -0.5831 -0.2399  0.0863
  745TMC3    O211072   3.991   4.051  14.370 -0.0906  0.1526 -0.0750
  746TMC3    C111073   1.414   1.178  11.190 -0.2726 -0.3105  0.2400
  746TMC3    C211074   1.471   1.152  11.069  0.4866  0.4984  0.2617
  746TMC3    C311075   1.439   1.033  11.015 -0.5983  0.0314 -0.7440
  746TMC3    C411076   1.330   1.084  11.249 -0.0731  0.1523 -0.1606
  746TMC3    C511077   1.313   0.960  11.196 -0.5182  0.1431 -0.2594
  746TMC3    C611078   1.381   0.926  11.076 -0.0239  0.6393 -0.3577
  746TMC3     C11079   1.414   1.313  11.237 -0.4594  0.0005 -0.5116
  746TMC3     O11080   1.324   1.344  11.316 -0.4260 -0.3673  0.1397
  746TMC3     H11081   1.523   1.224  11.007 -1.2174 -0.6529 -2.4844
  746TMC3    H111082   1.282   1.111  11.342  1.0121  3.5301 -0.5846
  746TMC3    H211083   1.356   0.833  11.026  1.5925  0.6645 -1.2140
  746TMC3    C711084   1.175   0.920  11.191  0.2005  0.0781 -0.5739
  746TMC3    C811085   1.484   0.997  10.883  0.7427  0.1394 -0.1799
  746TMC3    O111086   1.126   0.891  11.084 -0.2845  0.3552  0.8719
  746TMC3    O211087   1.511   0.880  10.859  0.5878  0.2736 -0.1462
  747TMC3    C111088   3.162   1.635  10.258  0.4711 -0.1301  0.7001
  747TMC3    C211089   3.091   1.551  10.338 -0.2392  0.5218  0.1712
  747TMC3    C311090   3.052   1.598  10.458 -0.0581  0.1166 -0.4370
  747TMC3    C411091   3.192   1.762  10.299  0.8763 -0.1921  0.1848
  747TMC3    C511092   3.146   1.812  10.418 -0.0519 -0.3711 -0.1864
  747TMC3    C611093   3.073   1.729  10.501 -0.1939  0.1233 -0.4382
  747TMC3     C11094   3.214   1.604  10.130 -0.0302  1.0760  0.1978
  747TMC3     O11095   3.244   1.698  10.052  0.0947 -0.3336 -0.5412
  747TMC3     H11096   3.080   1.447  10.307  0.7390  0.2003  0.9209
  747TMC3    H111097   3.242   1.832  10.233 -1.3832  0.0173 -1.3141
  747TMC3    H211098   3.022   1.765  10.590 -1.3199  0.9913 -1.4295
  747TMC3    C711099   3.209   1.927  10.476  0.0377  0.0706  0.0901
  747TMC3    C811100   2.985   1.496  10.539 -0.3856  0.6856 -0.5498
  747TMC3    O111101   3.238   2.025  10.407  0.1883 -0.6023  0.0308
  747TMC3    O211102   2.931   1.396  10.489  0.3976 -0.2471  0.2977
  748MPD2     C11103   0.793   2.226   1.359 -0.2332  0.9832  0.3130
  748MPD2    C111104   0.868   2.257   1.250  0.1556  0.5193  0.5134
  748MPD2    C211105   0.955   2.367   1.266 -0.6658 -0.5234 -0.3233
  748MPD2    C311106   0.967   2.435   1.387 -0.3639  0.9186  0.2606
  748MPD2    C411107   0.899   2.387   1.501 -0.2110 -0.9021  0.1280
  748MPD2    C511108   0.812   2.285   1.481 -0.2905 -1.5584  0.2524
  748MPD2     H11109   1.013   2.397   1.179 -2.7235  1.9003 -0.8700
  748MPD2    H111110   0.899   2.432   1.600  1.3642 -0.6202 -0.0022
  748MPD2    H211111   0.715   2.150   1.358  0.7483 -0.0352  1.8950
  748MPD2    H311112   0.754   2.245   1.564  1.3268  0.4707  2.3720
  748MPD2     N11113   1.065   2.542   1.392  0.5279 -0.2006 -0.2518
  748MPD2    H511114   1.115   2.555   1.305  0.6831  0.9460  0.0148
  748MPD2    N111115   0.856   2.185   1.128  0.1702 -0.3872  0.3388
  748MPD2    H711116   0.771   2.129   1.123 -0.1728  0.1103  0.6066
  749TMC3    C111117   1.203   2.701   1.484  0.7708 -0.0840 -0.7122
  749TMC3    C211118   1.267   2.720   1.607  0.7553 -0.5542  0.1939
  749TMC3    C311119   1.402   2.751   1.604 -0.2384 -0.0313 -0.1262
  749TMC3    C411120   1.270   2.724   1.365  0.5590 -0.9673  0.3665
  749TMC3    C511121   1.408   2.745   1.372 -1.1284  0.3088  0.1904
  749TMC3    C611122   1.472   2.756   1.488  0.4875  0.3690 -0.5626
  749TMC3     C11123   1.081   2.631   1.501 -0.1357  0.2803  0.1355
  749TMC3     O11124   1.011   2.642   1.601 -0.5243  0.4490 -0.0678
  749TMC3     H11125   1.227   2.691   1.703 -0.1218 -2.1642 -0.6561
  749TMC3    H111126   1.209   2.730   1.275  0.1277 -0.5551  0.6874
  749TMC3    H211127   1.579   2.775   1.490  0.3933  0.9740 -1.3173
  749TMC3    C711128   1.474   2.826   1.264  1.0498 -0.1523 -0.1238
  749TMC3    C811129   1.482   2.755   1.727  0.5430  0.3207  0.2705
  749TMC3    O111130   1.561   2.904   1.298  0.5073 -0.2171  0.9708
  749TMC3    O211131   1.436   2.794   1.833  0.4588  0.0711 -0.4412
  750MPD2     C11132   1.537   3.276  11.005  0.2921 -0.5886 -0.2000
  750MPD2    C111133   1.553   3.180  11.100  0.0507 -0.3738 -0.0869
  750MPD2    C211134   1.516   3.053  11.061 -0.0901  0.0655 -0.0790
  750MPD2    C311135   1.449   3.031  10.942  0.5632 -0.7662  0.4699
  750MPD2    C411136   1.432   3.136  10.847 -0.6349  0.2595  0.3633
  750MPD2    C511137   1.482   3.253  10.880  0.5211  0.2320  0.1893
  750MPD2     H11138   1.532   2.970  11.129  0.4996  0.3772  0.1555
  750MPD2    H111139   1.371   3.124  10.759  0.4520 -1.0064 -0.2306
  750MPD2    H211140   1.557   3.379  11.032  2.1432 -0.6839 -1.1669
  750MPD2    H311141   1.471   3.334  10.808 -5.5768 -1.9905 -1.3347
  750MPD2     N11142   1.412   2.904  10.894 -0.2096 -0.5802 -0.6507
  750MPD2    H511143   1.371   2.911  10.801 -4.2498  0.7770  1.2114
  750MPD2    N111144   1.580   3.219  11.236  1.0604  0.3026  0.9710
  750MPD2    H711145   1.590   3.317  11.261 -0.9785  0.7691 -0.0794
  751TMC3    C111146   1.343   2.681  10.888 -0.2338  0.4728 -0.2897
  751TMC3    C211147   1.257   2.597  10.951 -0.8556 -0.4076  0.1159
  751TMC3    C311148   1.198   2.502  10.869  0.2382  0.4542  0.4910
  751TMC3    C411149   1.376   2.667  10.759 -0.7455  0.2152  0.3397
  751TMC3    C511150   1.306   2.575  10.685  0.4536 -0.1957  0.1288
  751TMC3    C611151   1.205   2.497  10.735  0.4334 -0.1409 -0.6642
  751TMC3     C11152   1.399   2.789  10.966  0.0812  0.1055  0.3205
  751TMC3     O11153   1.429   2.771  11.083  0.3960  0.0745  0.1482
  751TMC3     H11154   1.253   2.605  11.059 -1.3140  0.8851  0.0045
  751TMC3    H111155   1.464   2.719  10.722 -1.1000  1.3109  1.0399
  751TMC3    H211156   1.149   2.423  10.679 -2.3506  2.6724 -1.5853
  751TMC3    C711157   1.377   2.538  10.571  0.1738 -1.0784  0.0885
  751TMC3    C811158   1.124   2.393  10.938 -0.2641 -0.2927 -0.6397
  751TMC3    O111159   1.488   2.579  10.551 -0.3245  0.6488 -0.3494
  751TMC3    O211160   1.115   2.300  10.865 -0.1345 -0.2610 -0.6311
  752TMC3    C111161   4.660   3.183  17.460 -0.8015 -0.4088 -0.7338
  752TMC3    C211162   4.548   3.138  17.533 -0.0128 -0.2823  0.5986
  752TMC3    C311163   4.522   3.183  17.664  0.3695  0.1838  0.2831
  752TMC3    C411164   0.024   3.260  17.518  0.3576 -0.4277  0.2823
  752TMC3    C511165   4.727   3.309  17.641  0.5729 -0.3967 -0.0188
  752TMC3    C611166   4.618   3.273  17.713 -0.1460 -0.0402 -0.1194
  752TMC3     C11167   4.658   3.156  17.318 -0.0467  0.6738  0.5283
  752TMC3     O11168   4.554   3.164  17.256  0.2146 -0.3180  0.3067
  752TMC3     H11169   4.472   3.079  17.482  0.4530 -0.1704 -0.2282
  752TMC3    H111170   0.096   3.314  17.459 -0.9307  0.9155 -0.0392
  752TMC3    H211171   4.607   3.307   0.087 -1.0040  0.4106 -0.3634
  752TMC3    C711172   0.051   3.431  17.695 -0.5096  0.7487  0.4332
  752TMC3    C811173   4.386   3.196  17.702 -0.1735  0.1623  0.2075
  752TMC3    O111174   4.716   3.489   0.051 -0.1996  0.3142 -0.0847
  752TMC3    O211175   4.316   3.111  17.647  0.5448  0.4799 -0.6610
  753TMC3    C111176   2.496   4.675  13.352 -0.6551 -0.0788  0.7941
  753TMC3    C211177   2.585   4.638  13.449  0.0267  0.2879 -0.7496
  753TMC3    C311178   2.606   4.502  13.465 -0.3758  0.1038  0.2855
  753TMC3    C411179   2.419   4.580  13.292 -0.6309  0.0606 -0.0786
  753TMC3    C511180   2.441   4.448  13.308 -0.5360 -0.5772 -0.3130
  753TMC3    C611181   2.535   4.404  13.396 -0.1442  0.0884 -0.4537
  753TMC3     C11182   2.445   0.078  13.370  0.6063  0.1294  0.4311
  753TMC3     O11183   2.328   0.081  13.336  0.1436 -0.0826  0.0030
  753TMC3     H11184   2.633   4.711  13.513 -0.7148  0.5755 -0.5266
  753TMC3    H111185   2.343   4.609  13.220  0.4675 -1.3057 -1.8121
  753TMC3    H211186   2.548   4.300  13.422  1.7883  0.6530  0.9023
  753TMC3    C711187   2.330   4.353  13.283  0.7225 -0.4376  0.3507
  753TMC3    C811188   2.726   4.462  13.534 -1.4723 -0.7121  0.4181
  753TMC3    O111189   2.360   4.233  13.287  0.3367 -0.3228  0.6395
  753TMC3    O211190   2.788   4.363  13.492 -0.1808 -0.2069 -0.4034
  754MPD2     C11191   1.029   2.199  12.865  0.0222  0.1730  0.4721
  754MPD2    C111192   0.942   2.099  12.910 -0.3921 -0.5863  0.1201
  754MPD2    C211193   0.813   2.105  12.866 -0.7099  1.0831 -0.3446
  754MPD2    C311194   0.773   2.220  12.800  0.0218 -0.5438  0.4631
  754MPD2    C411195   0.857   2.324  12.764  0.3058  0.0360  0.0667
  754MPD2    C511196   0.989   2.307  12.787  1.0814 -0.1754  0.3697
  754MPD2     H11197   0.746   2.020  12.877 -0.0715  0.5558 -0.4874
  754MPD2    H111198   0.836   2.416  12.710  2.3456  1.2189  1.2662
  754MPD2    H211199   1.134   2.181  12.886  0.3529 -0.9731 -2.1562
  754MPD2    H311200   1.066   2.376  12.755 -0.3297  1.5263  0.6652
  754MPD2     N11201   0.640   2.234  12.754 -0.5251 -0.1427 -0.0741
  754MPD2    H511202   0.621   2.321  12.705 -0.2904 -0.3949 -0.6175
  754MPD2    N111203   0.997   1.989  12.977  0.1354  0.7258 -0.9579
  754MPD2    H711204   1.095   2.007  12.998 -0.5844  2.4966  0.9563
  755MPD2     C11205   4.406   2.631  12.946 -0.0112 -0.3001  0.1880
  755MPD2    C111206   4.525   2.604  13.024 -0.9656 -0.0809  0.4179
  755MPD2    C211207   4.626   2.520  12.964  0.2416 -0.0681  0.1471
  755MPD2    C311208   4.602   2.453  12.843  0.4978 -0.1849 -0.3646
  755MPD2    C411209   4.477   2.471  12.780 -0.6050  0.4257 -0.1350
  755MPD2    C511210   4.390   2.560  12.833  0.4482 -0.9515  0.2873
  755MPD2     H11211   4.718   2.512  13.020  0.5205  0.2161 -0.2687
  755MPD2    H111212   4.446   2.429  12.685 -0.0467 -1.5549  0.5430
  755MPD2    H211213   4.329   2.696  12.986 -1.5525 -2.0207  0.0588
  755MPD2    H311214   4.301   2.572  12.773  1.3945  0.8274 -0.7599
  755MPD2     N11215   4.699   2.372  12.779  0.3081  0.8662 -0.1047
  755MPD2    H511216   4.667   2.335  12.690  1.8152 -3.1742  1.0360
  755MPD2    N111217   4.550   2.665  13.147  0.0340 -0.5526 -0.3914
  755MPD2    H711218   4.647   2.661  13.177 -0.5104  1.6359  1.6221
  756MPD2     C11219   0.574   3.734   9.680 -0.4684 -0.2145 -0.1196
  756MPD2    C111220   0.518   3.641   9.770 -0.7063 -0.2345 -0.2128
  756MPD2    C211221   0.379   3.613   9.769  0.0326  0.3658  0.0595
  756MPD2    C311222   0.303   3.659   9.665 -0.2967 -0.6794 -0.3538
  756MPD2    C411223   0.363   3.736   9.569 -0.1250  0.4084  0.0617
  756MPD2    C511224   0.494   3.784   9.582  0.1071  0.4965 -0.8563
  756MPD2     H11225   0.349   3.553   9.854  1.1408  0.8497  0.8096
  756MPD2    H111226   0.306   3.773   9.484  0.5060 -0.7224 -0.8584
  756MPD2    H211227   0.679   3.759   9.688 -0.7187  1.2020 -1.2331
  756MPD2    H311228   0.530   3.854   9.507  1.4432  2.0412  1.2003
  756MPD2     N11229   0.166   3.622   9.661 -0.3583  0.0051  0.6096
  756MPD2    H511230   0.137   3.564   9.739 -0.4475 -1.3808 -0.4444
  756MPD2    N111231   0.596   3.570   9.867 -0.5917 -0.5097 -0.3533
  756MPD2    H711232   0.541   3.512   9.929 -0.2333 -1.0210 -0.5093
  757MPD2     C11233   4.538   3.027  10.143 -0.1821  0.3157  0.2852
  757MPD2    C111234   4.658   3.091  10.117  0.4118 -0.7052 -0.4199
  757MPD2    C211235   4.670   3.175  10.006 -0.4227 -0.4776 -0.0469
  757MPD2    C311236   4.556   3.211   9.934  0.5342  0.3621  0.4766
  757MPD2    C411237   4.435   3.148   9.967 -0.9733  0.2658  0.6534
  757MPD2    C511238   4.431   3.047  10.064 -0.5622  0.2358 -0.1915
  757MPD2     H11239   0.032   3.225   9.987 -0.9612  0.6294  0.1610
  757MPD2    H111240   4.346   3.159   9.906 -0.5687 -0.7942 -0.1121
  757MPD2    H211241   4.531   2.951  10.220  3.4577  1.9917  2.2707
  757MPD2    H311242   4.334   3.000  10.082  0.6001 -1.5387  1.5853
  757MPD2     N11243   4.573   3.303   9.827  0.1831 -0.5327 -0.2218
  757MPD2    H511244   4.657   3.360   9.820  0.0807 -0.4934 -1.0950
  757MPD2    N111245   0.023   3.073  10.213 -0.4396 -0.6596 -0.1212
  757MPD2    H711246   0.010   3.005  10.287  1.6803  0.7752  1.5869
  758MPD2     C11247   1.233   2.408  15.990 -0.2003  0.4742 -0.1204
  758MPD2    C111248   1.145   2.326  16.058  0.0230 -0.5037 -0.0644
  758MPD2    C211249   1.081   2.380  16.169  1.0418 -0.3273  0.8536
  758MPD2    C311250   1.105   2.514  16.205  0.0827  0.2027 -0.1792
  758MPD2    C411251   1.194   2.586  16.139 -0.4692  0.3191 -0.1884
  758MPD2    C511252   1.262   2.531  16.036  0.1001  0.0366 -0.0940
  758MPD2     H11253   1.004   2.313  16.206 -0.4583  1.2483  0.5669
  758MPD2    H111254   1.223   2.682  16.178  1.4515  0.0132 -0.8727
  758MPD2    H211255   1.293   2.371  15.907  0.3583 -1.9992  1.4050
  758MPD2    H311256   1.343   2.589  15.994  1.6971 -1.2563  1.1765
  758MPD2     N11257   1.045   2.569  16.319 -0.1824 -0.2293  0.0518
  758MPD2    H511258   1.078   2.661  16.347 -1.7782  1.5932 -4.0670
  758MPD2    N111259   1.132   2.191  16.014  0.9066 -0.1610 -0.0485
  758MPD2    H711260   1.197   2.175  15.937  0.3302 -2.4674 -0.0555
  759MPD2     C11261   0.260   1.138   9.528 -0.2978  0.3484  1.0096
  759MPD2    C111262   0.179   1.189   9.622 -0.0295  0.2298  0.2843
  759MPD2    C211263   0.132   1.318   9.601 -0.1572 -0.0500 -0.5099
  759MPD2    C311264   0.154   1.391   9.489  0.0482  0.4290 -0.1173
  759MPD2    C411265   0.237   1.335   9.391 -0.0544  0.4697  0.5106
  759MPD2    C511266   0.292   1.210   9.417 -0.0001 -0.7170 -0.9176
  759MPD2     H11267   0.076   1.359   9.684  0.7270  0.1954 -0.0384
  759MPD2    H111268   0.258   1.382   9.296 -2.3906 -0.1747 -0.3295
  759MPD2    H211269   0.300   1.037   9.529  1.6754  1.1167 -2.8861
  759MPD2    H311270   0.346   1.153   9.342 -0.3436  0.0194 -1.7300
  759MPD2     N11271   0.085   1.519   9.477  0.3012  0.1006  0.3272
  759MPD2    H511272   0.029   1.549   9.556  0.0087 -0.7882  0.4531
  759MPD2    N111273   0.140   1.127   9.745 -0.4693  0.0130 -0.4906
  759MPD2    H711274   0.068   1.181   9.792  2.3416  1.6581  1.9006
  760MPD2     C11275   4.017   3.258  11.639 -0.1377 -0.2735  0.4468
  760MPD2    C111276   4.144   3.271  11.694  0.3669  0.1276  0.0831
  760MPD2    C211277   4.226   3.164  11.704 -0.2751  0.1483  0.9303
  760MPD2    C311278   4.193   3.037  11.643 -0.2842  0.3157  0.1709
  760MPD2    C411279   4.060   3.028  11.600 -0.5591 -0.0330 -0.2145
  760MPD2    C511280   3.978   3.137  11.600  0.0638 -0.9174 -0.1993
  760MPD2     H11281   4.321   3.181  11.753  0.0323 -0.7900  0.6665
  760MPD2    H111282   4.022   2.943  11.545 -0.1002 -0.5036  0.1981
  760MPD2    H211283   3.944   3.338  11.645 -0.5898 -0.5745 -1.1214
  760MPD2    H311284   3.876   3.129  11.565 -0.7704  0.6819  1.9059
  760MPD2     N11285   4.276   2.926  11.631 -0.0877 -0.3205  0.0274
  760MPD2    H511286   4.237   2.841  11.592 -2.1250  1.1434 -1.1165
  760MPD2    N111287   4.191   3.397  11.729 -0.0094  0.3386 -0.4599
  760MPD2    H711288   4.290   3.404  11.750 -0.3679  0.5849  1.1030
  761MPD2     C11289   0.778   2.172  11.255  0.0900 -0.3150  0.4469
  761MPD2    C111290   0.832   2.136  11.128 -0.6216  0.4813 -0.0914
  761MPD2    C211291   0.924   2.227  11.069 -0.0847  0.4820 -0.0524
  761MPD2    C311292   0.957   2.348  11.119  0.0396 -0.3137 -0.1595
  761MPD2    C411293   0.897   2.385  11.239 -0.6883 -0.7079 -0.7285
  761MPD2    C511294   0.814   2.295  11.302  0.1302 -0.0458  0.2718
  761MPD2     H11295   0.971   2.189  10.979  0.5551  1.3949 -0.1038
  761MPD2    H111296   0.902   2.491  11.261  1.8751 -0.6180 -1.7331
  761MPD2    H211297   0.709   2.115  11.316 -1.2149 -0.0552 -0.8028
  761MPD2    H311298   0.760   2.339  11.384 -1.1243 -0.7830 -0.1637
  761MPD2     N11299   1.049   2.432  11.055  0.6266 -0.5510  0.2273
  761MPD2    H511300   1.056   2.525  11.096 -1.5648  0.6963 -2.2086
  761MPD2    N111301   0.777   2.015  11.077  0.7557 -0.1271  0.1787
  761MPD2    H711302   0.706   1.978  11.138  0.6137 -1.0283 -0.5342
  762MPD2     C11303   0.699   1.837  10.308  0.3349  0.2179 -0.2493
  762MPD2    C111304   0.751   1.736  10.388 -0.5484 -0.6862  0.3579
  762MPD2    C211305   0.853   1.652  10.337  0.4100  1.3492  0.3678
  762MPD2    C311306   0.895   1.674  10.204 -0.0731 -0.2537 -0.6746
  762MPD2    C411307   0.841   1.773  10.127 -0.7478  0.1412 -0.1524
  762MPD2    C511308   0.741   1.855  10.181  0.4273 -0.6703  0.5334
  762MPD2     H11309   0.918   1.587  10.394 -0.9103 -0.9862 -0.8289
  762MPD2    H111310   0.877   1.790  10.026  0.0479  0.4699  0.1820
  762MPD2    H211311   0.619   1.902  10.341  0.7491  2.1621 -3.0447
  762MPD2    H311312   0.700   1.933  10.118 -3.0420 -1.9308  1.2310
  762MPD2     N11313   1.015   1.606  10.167 -0.7596  0.3218 -0.4761
  762MPD2    H511314   1.058   1.554  10.242 -0.6856  1.0682 -0.0017
  762MPD2    N111315   0.710   1.738  10.517 -0.0406 -0.0080 -0.4801
  762MPD2    H711316   0.644   1.811  10.546  1.7991  1.1046  0.9399
  763MPD2     C11317   3.150   2.776  16.159 -0.8859  0.2455  0.7517
  763MPD2    C111318   3.024   2.839  16.152  0.1362 -0.2743  0.2037
  763MPD2    C211319   3.012   2.969  16.207  0.3577  0.3283 -0.6026
  763MPD2    C311320   3.119   3.024  16.269  0.1026 -0.2332 -0.2737
  763MPD2    C411321   3.239   2.959  16.275 -0.2903 -0.1377  0.1670
  763MPD2    C511322   3.253   2.835  16.220 -0.2763 -0.2882  0.6142
  763MPD2     H11323   2.918   3.021  16.196  0.5337  1.3513  2.9180
  763MPD2    H111324   3.330   3.006  16.312  0.0308 -1.2946  0.8598
  763MPD2    H211325   3.166   2.676  16.121  0.0696  0.7234 -0.0812
  763MPD2    H311326   3.343   2.786  16.254 -0.7246 -1.7021 -0.2202
  763MPD2     N11327   3.123   3.155  16.324  0.4593  0.6203 -0.6272
  763MPD2    H511328   3.201   3.177  16.384 -0.5650 -1.6447  1.5162
  763MPD2    N111329   2.910   2.783  16.090 -0.0997  0.4458 -0.4301
  763MPD2    H711330   2.843   2.848  16.051  0.7062  0.2826 -2.1119
  764MPD2     C11331   0.727   3.360  17.468  0.2237  0.4137 -0.1498
  764MPD2    C111332   0.816   3.449  17.427 -0.8491 -0.3521  0.6047
  764MPD2    C211333   0.941   3.445  17.492 -0.2966  0.6085  0.2720
  764MPD2    C311334   0.973   3.354  17.587 -0.0836 -0.8920 -0.2681
  764MPD2    C411335   0.879   3.254  17.609  0.0203 -0.0516  0.0743
  764MPD2    C511336   0.761   3.265  17.560 -0.3452 -0.6467 -0.7544
  764MPD2     H11337   1.018   3.516  17.465 -1.0826  0.1182 -3.2795
  764MPD2    H111338   0.884   3.174  17.681 -0.3448  0.7345  0.9697
  764MPD2    H211339   0.628   3.360  17.426 -0.2211 -0.3806  0.9127
  764MPD2    H311340   0.691   3.193  17.602  1.0807 -0.6548  1.6273
  764MPD2     N11341   1.086   3.370  17.663 -0.1947 -0.2756  0.6050
  764MPD2    H511342   1.143   3.451  17.641  0.4581 -0.5519  1.2619
  764MPD2    N111343   0.803   3.544  17.319 -0.8239  0.3032  0.0335
  764MPD2    H711344   0.882   3.603  17.294  0.2122 -0.5286  1.3213
  765MPD2     C11345   0.786   1.693  15.612 -0.2553 -0.5184  0.6173
  765MPD2    C111346   0.857   1.770  15.704  0.3070  0.3149  0.2903
  765MPD2    C211347   0.991   1.728  15.732  0.4379  0.0129 -0.3849
  765MPD2    C311348   1.044   1.610  15.681 -0.3703  0.5214  0.1753
  765MPD2    C411349   0.974   1.541  15.586 -0.1513 -0.1774 -0.2571
  765MPD2    C511350   0.848   1.580  15.557  0.5251 -0.2629 -0.5610
  765MPD2     H11351   1.042   1.774  15.816  0.6459 -1.9135  0.5419
  765MPD2    H111352   1.004   1.444  15.550 -2.6622 -0.0028 -2.7775
  765MPD2    H211353   0.682   1.718  15.590  0.3111  1.4590  0.1331
  765MPD2    H311354   0.789   1.512  15.496  4.4719 -2.6474 -1.7722
  765MPD2     N11355   1.174   1.576  15.721  0.4863 -0.0689 -0.1280
  765MPD2    H511356   1.217   1.636  15.790 -0.5368 -0.9526  1.2826
  765MPD2    N111357   0.801   1.885  15.753 -0.4530  0.2067 -0.3939
  765MPD2    H711358   0.703   1.897  15.729 -0.8548 -0.2409  1.0116
  766MPD2     C11359   0.254   2.325  15.723  0.3174  0.4484 -0.2547
  766MPD2    C111360   0.348   2.232  15.690  0.7605  0.1284  0.1991
  766MPD2    C211361   0.336   2.155  15.577 -0.3528  0.2808 -0.0600
  766MPD2    C311362   0.232   2.183  15.489 -0.6877  0.3051  0.0173
  766MPD2    C411363   0.140   2.282  15.522 -0.8587 -0.3153 -0.4474
  766MPD2    C511364   0.150   2.346  15.637 -0.1002 -0.8764  0.5730
  766MPD2     H11365   0.403   2.073  15.552 -0.9415  1.3013 -4.9838
  766MPD2    H111366   0.054   2.300  15.460 -1.7094 -1.0764  0.5072
  766MPD2    H211367   0.251   2.388  15.811 -0.2284 -0.4736  0.3777
  766MPD2    H311368   0.077   2.421  15.664  2.1841  1.8076 -0.7050
  766MPD2     N11369   0.235   2.111  15.365  0.2751 -0.5331 -0.7817
  766MPD2    H511370   0.176   2.153  15.295  0.2350  3.2462  1.5281
  766MPD2    N111371   0.453   2.198  15.779  0.5319 -0.0167  0.0051
  766MPD2    H711372   0.519   2.134  15.738  0.3387  0.8234 -1.6044
  767MPD2     C11373   0.039   2.676  15.145 -0.4728 -0.2849 -0.1339
  767MPD2    C111374   0.131   2.572  15.163  0.1903 -0.0032  0.6517
  767MPD2    C211375   0.125   2.460  15.070 -0.3104 -0.1274  0.1857
  767MPD2    C311376   0.027   2.459  14.968  0.3338  0.5203  0.2429
  767MPD2    C411377   4.674   2.565  14.959  0.0054  0.1100 -0.9832
  767MPD2    C511378   4.686   2.672  15.045 -0.3451  0.2613 -0.2684
  767MPD2     H11379   0.181   2.368  15.079 -0.5093 -0.3680 -0.9540
  767MPD2    H111380   4.596   2.573  14.885 -2.0341 -1.2289  1.0367
  767MPD2    H211381   0.043   2.756  15.218  0.8757  0.7180 -1.3041
  767MPD2    H311382   4.616   2.754  15.033 -0.2215  0.2235 -1.2445
  767MPD2     N11383   0.016   2.343  14.884  0.1132 -0.1943  0.5230
  767MPD2    H511384   0.083   2.268  14.891 -0.3199 -0.6606 -0.2055
  767MPD2    N111385   0.220   2.574  15.270 -0.5595  0.0723 -0.9427
  767MPD2    H711386   0.212   2.651  15.335  0.0779  0.2698 -1.0900
  768MPD2     C11387   0.960   0.626  10.741 -0.0077  0.3497  0.1237
  768MPD2    C111388   0.904   0.562  10.850  0.3798  0.7224  1.2289
  768MPD2    C211389   0.984   0.528  10.952  0.3911 -0.2836 -0.4862
  768MPD2    C311390   1.125   0.554  10.943 -0.7056  0.8490 -0.7209
  768MPD2    C411391   1.179   0.614  10.824  0.2157  0.6333  1.0545
  768MPD2    C511392   1.096   0.650  10.724  0.0414 -0.3872 -0.5749
  768MPD2     H11393   0.932   0.491  11.040  1.3515  2.3762  1.2125
  768MPD2    H111394   1.285   0.639  10.821  0.4090 -0.0988  1.6180
  768MPD2    H211395   0.903   0.652  10.652 -0.4464  1.2862  0.6797
  768MPD2    H311396   1.130   0.703  10.636  2.3505 -2.8946 -1.1846
  768MPD2     N11397   1.218   0.515  11.043 -0.3714  0.1746 -0.5763
  768MPD2    H511398   1.316   0.522  11.016  0.0037  0.0691  0.7339
  768MPD2    N111399   0.764   0.549  10.871 -0.4896 -0.3322  0.0511
  768MPD2    H711400   0.736   0.517  10.963  1.0106  0.3940  0.7588
  769MPD2     C11401   1.920   3.752  14.235 -0.7670 -0.3887  0.1982
  769MPD2    C111402   1.921   3.697  14.360 -1.0175 -0.2063 -0.7525
  769MPD2    C211403   1.910   3.790  14.470  0.1818 -0.1127  0.5062
  769MPD2    C311404   1.916   3.926  14.456 -0.3481 -0.0479  0.5987
  769MPD2    C411405   1.923   3.976  14.325  0.6882  0.4476 -0.5703
  769MPD2    C511406   1.920   3.892  14.217 -0.0932  0.2293  0.8240
  769MPD2     H11407   1.897   3.755  14.572 -0.2447  1.3670  0.9657
  769MPD2    H111408   1.906   4.082  14.309  1.6137  0.7444  0.4508
  769MPD2    H211409   1.914   3.684  14.151  1.7545 -0.5631  0.1466
  769MPD2    H311410   1.920   3.938  14.119  0.1809  0.5776  0.9906
  769MPD2     N11411   1.898   4.000  14.570 -0.3485 -0.9865  0.3689
  769MPD2    H511412   1.893   3.949  14.658  0.3303  0.3685  1.1887
  769MPD2    N111413   1.914   3.558  14.369 -0.3094 -0.7894  0.1448
  769MPD2    H711414   1.906   3.498  14.288  0.5763  0.0373 -0.5525
  770MPD2     C11415   1.975   3.031  15.208 -0.0710 -0.1774  0.3611
  770MPD2    C111416   1.847   3.007  15.163 -0.9801 -0.7179 -0.2171
  770MPD2    C211417   1.792   3.070  15.050  0.1038 -0.2848 -0.7036
  770MPD2    C311418   1.876   3.151  14.976  0.1425  0.0169 -0.1150
  770MPD2    C411419   1.998   3.180  15.023 -0.2621  1.0932 -0.1142
  770MPD2    C511420   2.052   3.120  15.134 -0.0135  0.1193  0.4193
  770MPD2     H11421   1.698   3.044  15.004 -2.0856  0.9749  3.0278
  770MPD2    H111422   2.062   3.256  14.980  0.2218  1.0585  0.5323
  770MPD2    H211423   2.025   2.976  15.287 -0.1539 -0.7819  0.0022
  770MPD2    H311424   2.153   3.145  15.165 -0.5273  1.7202  0.8164
  770MPD2     N11425   1.842   3.208  14.849  0.6041 -0.5436  0.0288
  770MPD2    H511426   1.928   3.244  14.808 -0.0786  0.7923 -0.2043
  770MPD2    N111427   1.776   2.912  15.247 -0.1053 -0.3019  0.1634
  770MPD2    H711428   1.822   2.890  15.335  1.3343 -0.0983 -0.5355
  771MPD2     C11429   2.825   1.945  14.227  0.9876 -0.0593  0.8047
  771MPD2    C111430   2.738   2.010  14.142 -0.3539  0.5460 -0.1812
  771MPD2    C211431   2.674   1.944  14.041  0.6334  0.6010 -0.2636
  771MPD2    C311432   2.688   1.809  14.032  0.0246 -0.6733  0.0916
  771MPD2    C411433   2.779   1.742  14.122 -0.5500  0.1379  0.3522
  771MPD2    C511434   2.848   1.814  14.214 -0.2983 -0.4088  0.4869
  771MPD2     H11435   2.604   1.994  13.974 -1.7382  1.8463  3.1408
  771MPD2    H111436   2.789   1.635  14.108 -0.8317  0.0444  0.8736
  771MPD2    H211437   2.866   2.000  14.311  0.7248 -1.3104  1.7583
  771MPD2    H311438   2.904   1.768  14.296 -0.7009  1.5512  1.8585
  771MPD2     N11439   2.608   1.740  13.934  0.1849  0.1602  0.5633
  771MPD2    H511440   2.535   1.790  13.885 -0.1904 -1.3345 -0.4048
  771MPD2    N111441   2.717   2.146  14.132  0.0251 -0.3133 -0.8970
  771MPD2    H711442   2.652   2.174  14.059  0.6042 -0.5106 -1.4831
  772MPD2     C11443   2.190   2.518  13.869  0.6729 -0.2572  0.8438
  772MPD2    C111444   2.232   2.484  13.991  0.6685  0.2320 -0.0295
  772MPD2    C211445   2.141   2.419  14.070 -0.0278  0.6432 -0.1677
  772MPD2    C311446   2.008   2.408  14.034  0.5918 -0.1750  0.4367
  772MPD2    C411447   1.971   2.444  13.905  0.0074 -0.2633 -0.2682
  772MPD2    C511448   2.066   2.499  13.819  0.8491 -0.2347  0.1549
  772MPD2     H11449   2.172   2.386  14.169  0.8723 -1.2232 -1.0787
  772MPD2    H111450   1.872   2.427  13.865 -0.1697  1.0243 -0.3769
  772MPD2    H211451   2.260   2.567  13.803 -0.4788 -1.5154 -1.3455
  772MPD2    H311452   2.034   2.541  13.724 -0.7486 -1.3609  0.1919
  772MPD2     N11453   1.910   2.363  14.130  0.3147 -0.5456 -0.6092
  772MPD2    H511454   1.815   2.364  14.096  1.4068 -0.0318 -3.6418
  772MPD2    N111455   2.366   2.495  14.038 -0.4350 -0.1444  0.3883
  772MPD2    H711456   2.384   2.467  14.134  0.9803 -1.0019 -0.1110
  773MPD2     C11457   1.318   3.191  17.491  0.9424  0.6498 -0.3446
  773MPD2    C111458   1.271   3.078  17.550 -0.0622  0.3933  0.4425
  773MPD2    C211459   1.332   3.019  17.657  0.1026  0.2025  0.0538
  773MPD2    C311460   1.445   3.069  17.706 -0.6564  0.2750  0.2991
  773MPD2    C411461   1.501   3.186  17.651 -0.2126  0.0415 -0.1222
  773MPD2    C511462   1.440   3.238  17.543  0.4682  0.6235 -0.2190
  773MPD2     H11463   1.295   2.928  17.701 -0.4529  0.4012  0.0030
  773MPD2    H111464   1.593   3.229  17.691  0.9207 -0.2871 -2.3433
  773MPD2    H211465   1.269   3.233  17.404  1.6787  2.3145  0.0398
  773MPD2    H311466   1.479   3.324  17.490  0.0874  0.8548 -0.1345
  773MPD2     N11467   1.487   3.004   0.099 -0.2343 -0.1021  0.0063
  773MPD2    H511468   1.417   2.945   0.143 -1.1807  0.3634 -0.8718
  773MPD2    N111469   1.159   3.007  17.509 -0.2607 -0.5716  0.7417
  773MPD2    H711470   1.139   2.922  17.561  0.6770 -1.9355 -1.1482
  774MPD2     C11471   0.724   1.464  13.826 -0.0329 -0.2098  0.0816
  774MPD2    C111472   0.746   1.603  13.836 -0.0529 -0.8130 -0.0949
  774MPD2    C211473   0.813   1.674  13.734  0.0027  0.2968  0.8777
  774MPD2    C311474   0.865   1.603  13.630 -0.0773 -0.1876 -0.0238
  774MPD2    C411475   0.838   1.468  13.615  0.0518 -0.3224  0.8463
  774MPD2    C511476   0.768   1.400  13.707 -0.1345 -0.1033 -0.2366
  774MPD2     H11477   0.837   1.779  13.743  1.4936  0.0086  0.3208
  774MPD2    H111478   0.839   1.416  13.520  0.0377  0.9588  0.1582
  774MPD2    H211479   0.661   1.411  13.897 -0.2683 -1.1827 -0.8400
  774MPD2    H311480   0.745   1.296  13.686 -0.0285  0.2468 -2.1233
  774MPD2     N11481   0.922   1.676  13.523  0.1822 -0.4251 -0.3090
  774MPD2    H511482   0.941   1.775  13.535  2.9064 -0.9337 -0.2858
  774MPD2    N111483   0.699   1.662  13.953  0.1132  0.3107  0.2593
  774MPD2    H711484   0.688   1.599  14.032 -0.4839  3.1700  2.4546
  775MPD2     C11485   1.969   3.597  15.484  0.2094  0.3971  0.0981
  775MPD2    C111486   1.996   3.693  15.582 -0.1654 -0.3012 -0.5594
  775MPD2    C211487   2.098   3.787  15.557 -0.4949  0.6544  0.1189
  775MPD2    C311488   2.167   3.795  15.435  0.5295  0.3028 -0.3377
  775MPD2    C411489   2.126   3.710  15.343 -0.3137  0.3240 -0.3306
  775MPD2    C511490   2.031   3.612  15.365  0.0064  0.0545  1.0109
  775MPD2     H11491   2.126   3.851  15.639 -0.9727  0.2478  0.6015
  775MPD2    H111492   2.167   3.702  15.243  0.4311  2.3306 -0.1825
  775MPD2    H211493   1.890   3.526  15.502  0.4291  0.3727  0.9679
  775MPD2    H311494   2.008   3.545  15.283 -3.1014 -0.4869  2.3334
  775MPD2     N11495   2.269   3.888  15.401 -0.0855  0.0072 -0.0974
  775MPD2    H511496   2.308   3.890  15.307  0.1931  0.1453  0.0195
  775MPD2    N111497   1.932   3.676  15.704  0.1480 -0.5171  0.0685
  775MPD2    H711498   1.859   3.606  15.705 -1.7498  1.4800  1.7025
  776MPD2     C11499   1.176   3.506  11.880 -0.3983 -0.2031 -0.3378
  776MPD2    C111500   1.287   3.546  11.811 -0.1381  0.2562 -0.2080
  776MPD2    C211501   1.303   3.673  11.780  0.1473 -0.1398 -0.2102
  776MPD2    C311502   1.196   3.764  11.808 -0.5362 -1.0644  0.5432
  776MPD2    C411503   1.090   3.721  11.874  0.3530  0.7185  0.2699
  776MPD2    C511504   1.080   3.590  11.922 -0.4489  0.0603 -0.3629
  776MPD2     H11505   1.393   3.698  11.725 -0.1277  1.6231  0.1341
  776MPD2    H111506   1.010   3.790  11.899  1.1069  1.1489  1.4935
  776MPD2    H211507   1.158   3.404  11.912  0.6412 -1.0189 -2.3829
  776MPD2    H311508   0.997   3.558  11.984  0.8237 -1.3088  0.6256
  776MPD2     N11509   1.197   3.902  11.766  0.1251 -0.6480  0.2258
  776MPD2    H511510   1.116   3.958  11.789 -0.8014 -2.0173  0.3096
  776MPD2    N111511   1.375   3.447  11.756 -0.2471  0.0790 -0.1069
  776MPD2    H711512   1.347   3.354  11.785 -0.3855 -0.7179 -2.7367
  777MPD2     C11513   2.287   1.648   1.465 -0.0346 -0.5775 -0.1525
  777MPD2    C111514   2.161   1.688   1.489  0.1526 -0.4213  0.3419
  777MPD2    C211515   2.047   1.609   1.445  0.6901  0.3659 -0.9677
  777MPD2    C311516   2.077   1.502   1.374  0.6963  0.5716  0.6321
  777MPD2    C411517   2.211   1.464   1.339  0.6471 -0.5967  0.9087
  777MPD2    C511518   2.313   1.538   1.393 -0.0665  0.0452 -0.1922
  777MPD2     H11519   1.945   1.640   1.464  0.2307  0.0959 -2.9508
  777MPD2    H111520   2.238   1.372   1.288 -1.8986  0.0729 -1.6586
  777MPD2    H211521   2.366   1.718   1.486 -0.6579 -0.1772  0.8831
  777MPD2    H311522   2.414   1.504   1.376  0.0421 -0.8108  2.2864
  777MPD2     N11523   1.960   1.420   1.348 -0.3254  0.2916  0.6388
  777MPD2    H511524   1.866   1.456   1.363 -1.5296 -2.0379 -1.3671
  777MPD2    N111525   2.145   1.808   1.571 -0.0062 -0.1383 -0.2038
  777MPD2    H711526   2.232   1.858   1.591 -0.7571  1.4339 -0.8640
  778MPD2     C11527   2.826   1.741  15.100  0.0206 -0.4196  0.6275
  778MPD2    C111528   2.825   1.654  14.994 -0.7648 -0.7177 -0.2828
  778MPD2    C211529   2.884   1.687  14.876 -0.4388 -0.7701 -0.0628
  778MPD2    C311530   2.944   1.809  14.854  0.0268  0.8619 -0.4670
  778MPD2    C411531   2.943   1.895  14.962 -0.2260  0.2646 -0.1772
  778MPD2    C511532   2.889   1.861  15.085  0.2163 -0.2143  1.0398
  778MPD2     H11533   2.886   1.613  14.797 -1.5117 -2.4634  1.5318
  778MPD2    H111534   2.996   1.989  14.961 -1.2278  0.8330  0.7165
  778MPD2    H211535   2.771   1.731  15.193  0.6820  1.5272  1.2313
  778MPD2    H311536   2.894   1.935  15.163 -0.0574 -0.8511  1.6607
  778MPD2     N11537   3.007   1.842  14.736 -0.1301  0.1011 -0.3943
  778MPD2    H511538   3.001   1.774  14.661  0.9114  1.3143 -1.5766
  778MPD2    N111539   2.760   1.520  14.999  0.5162  0.2377 -0.0624
  778MPD2    H711540   2.753   1.469  14.912  0.8305  2.2011 -1.2489
  779MPD2     C11541   2.487   0.494  14.285 -0.6965 -0.4825  0.0272
  779MPD2    C111542   2.609   0.539  14.336 -0.2839 -0.3376  0.0201
  779MPD2    C211543   2.637   0.676  14.337  0.4883  0.2407  0.0795
  779MPD2    C311544   2.556   0.765  14.271 -0.2010 -0.2076  0.3512
  779MPD2    C411545   2.439   0.717  14.206 -0.1723 -0.1417 -0.1235
  779MPD2    C511546   2.410   0.581  14.218 -0.2621  0.4910  0.4286
  779MPD2     H11547   2.719   0.717  14.394 -0.3486 -1.0065  2.1637
  779MPD2    H111548   2.367   0.772  14.147 -1.7057 -0.6902  1.2278
  779MPD2    H211549   2.454   0.391  14.290 -0.2261 -0.5433  1.7008
  779MPD2    H311550   2.313   0.553  14.178 -0.8837  2.4082  0.5874
  779MPD2     N11551   2.587   0.907  14.283 -0.5846 -0.0648 -0.0817
  779MPD2    H511552   2.659   0.926  14.352  0.2086 -1.3432 -0.5727
  779MPD2    N111553   2.702   0.447  14.395  0.4508 -0.1847  0.1892
  779MPD2    H711554   2.794   0.490  14.399  0.1914  0.2747  1.2377
  780MPD2     C11555   3.434   0.794   1.084  0.0921 -0.2068 -0.4639
  780MPD2    C111556   3.310   0.820   1.136  0.0344 -0.2166 -0.3039
  780MPD2    C211557   3.208   0.799   1.050  0.5943 -0.5580 -0.3159
  780MPD2    C311558   3.222   0.741   0.923 -0.3118  0.6411 -0.1335
  780MPD2    C411559   3.354   0.724   0.877 -0.4808  0.0552  0.2763
  780MPD2    C511560   3.456   0.752   0.957 -0.4252  0.4054 -0.1457
  780MPD2     H11561   3.108   0.797   1.093  0.0085  3.8780 -1.4226
  780MPD2    H111562   3.370   0.681   0.778 -1.3367  0.2925  0.0325
  780MPD2    H211563   3.524   0.813   1.142  0.0889  0.5040 -0.6893
  780MPD2    H311564   3.554   0.729   0.916 -1.3791 -1.2479 -1.4878
  780MPD2     N11565   3.104   0.715   0.848 -0.3970 -0.1334  0.2775
  780MPD2    H511566   3.015   0.730   0.895 -1.5978 -0.3505 -1.9114
  780MPD2    N111567   3.298   0.857   1.276  0.5066 -0.4001  0.2058
  780MPD2    H711568   3.384   0.863   1.329 -1.1155 -3.1535  3.0989
  781MPD2     C11569   3.686   2.463  11.700 -0.1439 -0.1374  0.6268
  781MPD2    C111570   3.606   2.379  11.772 -0.3075  0.0780  0.9292
  781MPD2    C211571   3.541   2.275  11.713  0.5631  0.3882 -0.5564
  781MPD2    C311572   3.538   2.258  11.575 -0.3628 -0.2383 -0.2145
  781MPD2    C411573   3.602   2.352  11.503 -0.2791 -0.0438  1.2031
  781MPD2    C511574   3.672   2.451  11.565 -0.3543  0.0379  0.5325
  781MPD2     H11575   3.481   2.215  11.781 -0.6583  2.2278 -0.0280
  781MPD2    H111576   3.609   2.349  11.395  0.9592  0.2425  1.2738
  781MPD2    H211577   3.745   2.544  11.740 -0.3271  0.1412  0.3337
  781MPD2    H311578   3.733   2.520  11.508  0.0523 -0.9192 -0.1935
  781MPD2     N11579   3.481   2.151  11.505  0.3163 -0.6135  0.1167
  781MPD2    H511580   3.486   2.156  11.404 -2.3879 -1.0587 -0.0523
  781MPD2    N111581   3.609   2.385  11.915  0.0442 -0.2590 -0.1684
  781MPD2    H711582   3.545   2.319  11.959 -0.1499  2.3379  3.4328
  782MPD2     C11583   1.888   2.704   9.610 -0.2759 -0.5135 -0.2371
  782MPD2    C111584   1.960   2.689   9.721 -0.9676  0.7238  0.0227
  782MPD2    C211585   2.015   2.797   9.787 -0.7729  0.6241  0.4961
  782MPD2    C311586   1.989   2.926   9.746  0.2629 -0.4110 -1.0521
  782MPD2    C411587   1.908   2.942   9.630 -0.3424  0.1477 -0.0227
  782MPD2    C511588   1.862   2.834   9.570  0.1040  0.2583 -0.2380
  782MPD2     H11589   2.076   2.773   9.873 -0.5470 -1.1565 -0.1475
  782MPD2    H111590   1.874   3.039   9.594  0.4725 -0.4325 -2.3351
  782MPD2    H211591   1.837   2.631   9.548 -0.0298 -0.6954 -0.2270
  782MPD2    H311592   1.806   2.851   9.479  0.8310  0.4406 -0.6504
  782MPD2     N11593   2.037   3.035   9.828  0.3339 -0.5346 -0.5641
  782MPD2    H511594   2.088   3.013   9.913 -1.3047 -0.1191  0.5311
  782MPD2    N111595   1.973   2.562   9.790 -0.3044 -0.1826  0.5895
  782MPD2    H711596   2.003   2.558   9.887  0.4422 -0.7842  0.3375
  783MPD2     C11597   1.223   2.315  10.329 -0.5640  0.0349 -0.0758
  783MPD2    C111598   1.321   2.396  10.378  0.4659  0.8912 -0.0840
  783MPD2    C211599   1.453   2.383  10.328 -0.0972 -0.2107  0.2324
  783MPD2    C311600   1.476   2.292  10.225  0.0518 -0.5789  0.2661
  783MPD2    C411601   1.373   2.214  10.185  0.1439  0.4335  0.1340
  783MPD2    C511602   1.249   2.219  10.238  0.6453 -0.1290 -0.3270
  783MPD2     H11603   1.541   2.431  10.370 -0.9463  0.0877  1.6794
  783MPD2    H111604   1.377   2.141  10.104 -0.9313 -0.2340  0.6814
  783MPD2    H211605   1.119   2.326  10.356 -0.1497  3.2220  0.1785
  783MPD2    H311606   1.169   2.150  10.215  1.3283 -1.0915  0.2066
  783MPD2     N11607   1.605   2.284  10.167  0.3670 -0.1875  0.1990
  783MPD2    H511608   1.680   2.334  10.213 -0.2195  0.8756 -0.0203
  783MPD2    N111609   1.291   2.476  10.490 -0.6700 -0.0336 -0.9663
  783MPD2    H711610   1.197   2.461  10.523 -0.1305 -1.8381 -0.1977
  784MPD2     C11611   4.027   3.327   1.560 -0.7581 -0.0001  0.3511
  784MPD2    C111612   4.083   3.347   1.433 -0.9328 -0.0171 -0.9037
  784MPD2    C211613   3.992   3.344   1.330  0.7130  0.1983  0.9130
  784MPD2    C311614   3.858   3.340   1.348 -0.0131 -0.3587 -0.7638
  784MPD2    C411615   3.807   3.340   1.480 -1.6198  0.0170 -0.3874
  784MPD2    C511616   3.896   3.334   1.581 -0.5833  1.1758 -0.0830
  784MPD2     H11617   4.034   3.357   1.231 -0.2470  0.0584  0.4879
  784MPD2    H111618   3.704   3.316   1.506 -1.3366  0.3289  0.9991
  784MPD2    H211619   4.086   3.340   1.650  0.9372 -0.6312 -0.6496
  784MPD2    H311620   3.864   3.334   1.685 -2.1856  0.7591 -0.5733
  784MPD2     N11621   3.771   3.364   1.231 -0.0310 -0.1954  0.4819
  784MPD2    H511622   3.824   3.377   1.145  1.7033 -1.3034  1.3880
  784MPD2    N111623   4.226   3.348   1.408  0.1051 -0.3597 -0.0180
  784MPD2    H711624   4.255   3.363   1.311  3.3311 -0.8984  0.8463
  785MPD2     C11625   4.011   1.043  10.349  0.3866 -0.0350  0.1529
  785MPD2    C111626   3.921   1.135  10.404 -0.7637  0.0175  0.0440
  785MPD2    C211627   3.857   1.225  10.320 -0.1812 -0.2656 -0.2991
  785MPD2    C311628   3.878   1.228  10.183 -0.8340  0.7470  0.0702
  785MPD2    C411629   3.950   1.122  10.128  0.1955 -0.3989  0.2397
  785MPD2    C511630   4.017   1.038  10.213 -0.1573 -0.0468  0.2404
  785MPD2     H11631   3.799   1.298  10.375 -0.8868 -1.8466  1.0520
  785MPD2    H111632   3.961   1.113  10.021  1.4696  0.4371  0.2940
  785MPD2    H211633   4.067   0.969  10.405  1.2863 -0.9388 -1.9391
  785MPD2    H311634   4.077   0.960  10.168 -1.1073 -0.6684  0.0446
  785MPD2     N11635   3.815   1.329  10.108  0.1554  0.1960 -0.4610
  785MPD2    H511636   3.764   1.390  10.170 -1.2174 -2.2987  0.8557
  785MPD2    N111637   3.904   1.149  10.546 -0.2923 -0.0474 -0.5398
  785MPD2    H711638   3.839   1.221  10.577 -0.7630 -0.7836  0.1892
  786MPD2     C11639   3.673   0.043  14.911  0.0422  0.1748  0.0192
  786MPD2    C111640   3.564   4.707  14.954 -0.1735 -0.4578 -0.2279
  786MPD2    C211641   3.543   4.673  15.091 -0.1436  0.0689  0.4858
  786MPD2    C311642   3.639   4.711  15.181  0.2465  0.4939  0.9304
  786MPD2    C411643   3.745   0.060  15.130  0.1131 -0.0758 -0.0066
  786MPD2    C511644   3.762   0.091  14.999  0.4844 -0.3743 -0.0189
  786MPD2     H11645   3.459   4.612  15.121  0.2995 -0.8972 -0.2350
  786MPD2    H111646   3.820   0.093  15.200  0.6623 -1.1855 -0.0612
  786MPD2    H211647   3.696   0.060  14.806  0.9984  0.2472  0.2398
  786MPD2    H311648   3.850   0.139  14.957 -1.0391  2.1237 -0.3037
  786MPD2     N11649   3.647   4.675  15.317  0.1558  0.4641 -0.4507
  786MPD2    H511650   3.737   4.693  15.361 -0.0263  0.5966 -0.1393
  786MPD2    N111651   3.475   4.652  14.852  0.1308 -0.5810  0.1141
  786MPD2    H711652   3.401   4.589  14.881 -1.1592 -0.9841 -4.0052
  787MPD2     C11653   2.922   4.086  14.888 -0.0777  0.3320 -0.2821
  787MPD2    C111654   3.041   4.151  14.884 -0.3234  0.0417 -0.0384
  787MPD2    C211655   3.148   4.110  14.968  0.2153 -0.0577  0.0851
  787MPD2    C311656   3.131   4.006  15.058 -0.4694  0.6735  0.5643
  787MPD2    C411657   2.998   3.961  15.076  0.2831 -0.2118  0.3848
  787MPD2    C511658   2.905   3.990  14.984  0.5393 -0.1783  0.0543
  787MPD2     H11659   3.238   4.170  14.956  0.9701 -1.8580 -3.3678
  787MPD2    H111660   2.981   3.886  15.152  0.3944 -0.6104  0.0154
  787MPD2    H211661   2.839   4.115  14.824  0.4929  0.8657 -0.7744
  787MPD2    H311662   2.808   3.957  15.019  0.5266  0.3724  0.5431
  787MPD2     N11663   3.242   3.971  15.134  0.5494  0.5266 -0.3395
  787MPD2    H511664   3.332   4.011  15.109  0.3700  0.8431 -0.4724
  787MPD2    N111665   3.059   4.272  14.805  0.6225 -0.0182 -0.3104
  787MPD2    H711666   2.992   4.287  14.730  2.9514  1.6157 -2.0429
  788MPD2     C11667   0.275   3.076   1.131 -0.4942  0.2985 -0.5277
  788MPD2    C111668   0.356   3.163   1.064 -0.1858 -0.4420  0.9081
  788MPD2    C211669   0.304   3.233   0.960  0.3335  0.3987  0.3029
  788MPD2    C311670   0.169   3.227   0.935 -0.4840 -0.0958  1.0674
  788MPD2    C411671   0.094   3.149   1.014 -0.4556  0.4579 -0.3608
  788MPD2    C511672   0.141   3.073   1.115  0.2747 -0.0081 -0.0442
  788MPD2     H11673   0.364   3.302   0.902  0.1179  1.6341  1.5607
  788MPD2    H111674   4.719   3.162   1.022 -0.4672  1.4405 -2.0939
  788MPD2    H211675   0.319   3.005   1.201 -2.1491  0.7468  0.9713
  788MPD2    H311676   0.078   2.999   1.163  1.4147 -0.8938  0.0919
  788MPD2     N11677   0.111   3.295   0.833  0.6140 -0.2694 -0.0718
  788MPD2    H511678   0.010   3.292   0.829  0.5077  1.6327  1.1417
  788MPD2    N111679   0.490   3.173   1.090 -0.5451  0.0609  0.4694
  788MPD2    H711680   0.543   3.233   1.027  0.1684 -0.2879  0.7403
  789MPD2     C11681   1.027   1.951  17.140  0.5869  0.1242 -0.2459
  789MPD2    C111682   0.960   1.993  17.025 -0.2687  0.1258 -0.2409
  789MPD2    C211683   0.853   2.085  17.029  0.4241  0.2580 -0.1539
  789MPD2    C311684   0.810   2.135  17.153  0.6776  0.5552 -0.1262
  789MPD2    C411685   0.877   2.098  17.265 -0.7879 -0.3842 -0.4200
  789MPD2    C511686   0.985   2.012  17.260  0.5798 -0.0044 -0.4803
  789MPD2     H11687   0.800   2.111  16.938 -1.5802 -1.2241  0.5775
  789MPD2    H111688   0.828   2.132  17.356  0.1836 -0.3757  0.0954
  789MPD2    H211689   1.119   1.894  17.131 -0.2134 -0.8500 -2.2562
  789MPD2    H311690   1.022   1.965  17.350 -1.0455  0.5710  0.4940
  789MPD2     N11691   0.702   2.228  17.164  1.2795  0.0558 -0.4572
  789MPD2    H511692   0.682   2.270  17.255  3.0467  1.3820 -0.6878
  789MPD2    N111693   0.987   1.928  16.898 -0.0111 -0.4028 -0.0431
  789MPD2    H711694   0.929   1.956  16.819  0.4216  1.4651  0.2951
  790MPD2     C11695   1.232   4.390  13.282 -0.1069  0.9146 -0.0173
  790MPD2    C111696   1.349   4.326  13.306  0.3451  0.5569  0.0467
  790MPD2    C211697   1.369   4.206  13.241  0.4464  0.2511  0.3108
  790MPD2    C311698   1.280   4.157  13.152 -0.6547 -0.1251 -0.0030
  790MPD2    C411699   1.162   4.227  13.119 -0.3463  0.0353  0.2671
  790MPD2    C511700   1.143   4.344  13.187  0.1195  0.4201 -0.9465
  790MPD2     H11701   1.453   4.140  13.259  0.0045 -0.3317  0.2185
  790MPD2    H111702   1.088   4.189  13.049 -1.2180 -1.5471  2.0685
  790MPD2    H211703   1.202   4.481  13.333 -2.0510  0.6868 -0.7609
  790MPD2    H311704   1.060   4.407  13.156 -1.0764 -1.5296 -1.6992
  790MPD2     N11705   1.306   4.036  13.082 -0.2358  0.3656  0.2130
  790MPD2    H511706   1.398   3.994  13.094  0.2607  1.4285  0.1184
  790MPD2    N111707   1.437   4.383  13.403  0.5775 -0.1141 -1.0712
  790MPD2    H711708   1.406   4.467  13.450  1.2817  0.5591 -1.8298
  791MPD2     C11709   0.891   3.673  12.532  0.4625 -0.7259 -0.3850
  791MPD2    C111710   0.961   3.585  12.608  0.4829 -0.2518  0.2729
  791MPD2    C211711   0.924   3.447  12.610  0.5904  0.7127 -0.2982
  791MPD2    C311712   0.821   3.406  12.531  0.2912 -0.1318  0.2870
  791MPD2    C411713   0.747   3.501  12.459 -0.4079  0.1080  0.4500
  791MPD2    C511714   0.781   3.637  12.464 -0.3985  0.2414  0.5062
  791MPD2     H11715   0.981   3.373  12.665  1.8857  3.0400  1.4893
  791MPD2    H111716   0.659   3.471  12.402  0.3742  2.0015 -1.7482
  791MPD2    H211717   0.906   3.780  12.524 -1.2020 -0.4107  0.8127
  791MPD2    H311718   0.713   3.708  12.419 -1.5333 -1.3080 -0.2500
  791MPD2     N11719   0.797   3.265  12.523  0.3029 -1.1556  0.5510
  791MPD2    H511720   0.816   3.205  12.602  0.9656 -0.3048  1.0333
  791MPD2    N111721   1.067   3.637  12.686  0.1847  0.0554 -0.6208
  791MPD2    H711722   1.070   3.737  12.702  2.6253 -0.1464  0.1722
  792MPD2     C11723   1.657   4.456  11.194 -0.3965 -0.3642  0.2483
  792MPD2    C111724   1.606   4.445  11.064  0.1091  1.0039  0.5367
  792MPD2    C211725   1.505   4.357  11.040 -0.3698  1.3945  0.5761
  792MPD2    C311726   1.440   4.294  11.148  0.0216 -0.2893  0.0179
  792MPD2    C411727   1.471   4.325  11.283 -0.8342 -0.4606  0.0888
  792MPD2    C511728   1.587   4.401  11.300 -0.2718 -0.7220 -0.1423
  792MPD2     H11729   1.473   4.349  10.936 -0.2729  2.7278  0.4392
  792MPD2    H111730   1.427   4.279  11.370 -0.7652  1.5880  1.2130
  792MPD2    H211731   1.741   4.523  11.209  0.1140 -0.7753 -0.7659
  792MPD2    H311732   1.626   4.415  11.400  0.0410 -2.0762 -0.0735
  792MPD2     N11733   1.324   4.213  11.137 -0.3048 -0.4453  0.2953
  792MPD2    H511734   1.276   4.187  11.223 -0.6579 -0.5147  0.0754
  792MPD2    N111735   1.670   4.526  10.965  0.0860 -0.1122 -0.5820
  792MPD2    H711736   1.725   4.603  11.001 -0.2479  0.0461 -0.4122
  793MPD2     C11737   0.599   3.810  10.494 -0.4590 -0.3361  0.5843
  793MPD2    C111738   0.733   3.774  10.496 -0.3610  0.1155  0.5259
  793MPD2    C211739   0.815   3.847  10.586 -0.0658 -1.1347 -0.3358
  793MPD2    C311740   0.769   3.940  10.672 -0.3290  0.2941  0.5376
  793MPD2    C411741   0.636   3.963  10.674  0.5429 -0.3964 -0.4095
  793MPD2    C511742   0.550   3.910  10.583 -0.5986 -0.5809  0.0206
  793MPD2     H11743   0.920   3.818  10.585  0.8835  2.3296 -0.8703
  793MPD2    H111744   0.600   4.039  10.743  1.4445 -0.1771 -0.1780
  793MPD2    H211745   0.524   3.763  10.432 -0.4666  1.0215 -0.4380
  793MPD2    H311746   0.444   3.930  10.591 -0.0111  3.3321 -1.8828
  793MPD2     N11747   0.864   3.999  10.761  0.3740 -0.1797  0.2008
  793MPD2    H511748   0.956   3.958  10.770  0.7382  0.3471 -1.1285
  793MPD2    N111749   0.782   3.682  10.403  0.5468 -0.2724  0.5509
  793MPD2    H711750   0.883   3.673  10.395  0.7183  0.1861  2.0613
  794MPD2     C11751   0.500   3.276  17.100  0.1786 -0.7792 -0.3302
  794MPD2    C111752   0.583   3.181  17.042  0.4676  0.4652  0.1312
  794MPD2    C211753   0.592   3.167  16.905  0.0104 -0.1121  0.8381
  794MPD2    C311754   0.523   3.254  16.824 -0.1694  0.3985 -0.0061
  794MPD2    C411755   0.438   3.347  16.874 -0.3058 -0.4495  0.0164
  794MPD2    C511756   0.423   3.355  17.016 -0.4609  0.1098  0.2944
  794MPD2     H11757   0.641   3.083  16.857 -0.6465  1.2291 -2.2168
  794MPD2    H111758   0.377   3.414  16.815 -0.7143 -0.0554  0.8779
  794MPD2    H211759   0.477   3.281  17.206 -1.4961 -1.4850 -0.6595
  794MPD2    H311760   0.358   3.427  17.064 -2.5288 -1.8142  0.4101
  794MPD2     N11761   0.516   3.253  16.681  0.0493  0.4817 -0.1416
  794MPD2    H511762   0.447   3.315  16.640  0.1999 -0.6332 -2.0651
  794MPD2    N111763   0.664   3.094  17.124 -0.4153 -0.3114 -0.7172
  794MPD2    H711764   0.739   3.037  17.086 -1.3666 -2.1267  0.1253
  795MPD2     C11765   3.834   0.606  13.945 -0.2693 -0.2542 -0.4644
  795MPD2    C111766   3.831   0.546  13.819 -0.5019  0.3030  0.4706
  795MPD2    C211767   3.927   0.453  13.789 -0.3398  0.5314 -0.0533
  795MPD2    C311768   4.024   0.413  13.877  0.1785 -0.5866  0.1471
  795MPD2    C411769   4.013   0.459  14.010 -0.4372  0.9320  0.0842
  795MPD2    C511770   3.917   0.551  14.039 -0.2389  0.2715  0.5525
  795MPD2     H11771   3.931   0.410  13.690 -0.5637  0.1133  0.1137
  795MPD2    H111772   4.093   0.426  14.075 -0.6872 -1.7691 -0.9969
  795MPD2    H211773   3.758   0.671  13.986  0.4161 -1.4062  2.6847
  795MPD2    H311774   3.925   0.603  14.134  1.6019  1.1253 -0.0669
  795MPD2     N11775   4.131   0.334  13.831 -0.5963 -0.1796  0.0135
  795MPD2    H511776   4.195   0.300  13.903  0.1011  0.5429 -0.2573
  795MPD2    N111777   3.724   0.576  13.732 -0.1077 -0.2308 -0.2667
  795MPD2    H711778   3.709   0.518  13.650 -0.1490 -0.6874  0.0651
  796MPD2     C11779   3.185   2.020  16.113  0.6195  0.3280  0.1198
  796MPD2    C111780   3.300   2.086  16.163 -1.4585 -0.2412 -0.3110
  796MPD2    C211781   3.338   2.211  16.106  0.4525 -0.4291 -0.9338
  796MPD2    C311782   3.250   2.269  16.007  0.4725 -0.8040  0.5808
  796MPD2    C411783   3.138   2.194  15.961 -0.0147  0.5351  0.1930
  796MPD2    C511784   3.106   2.079  16.023  0.3290 -0.9344  0.3033
  796MPD2     H11785   3.421   2.270  16.142 -0.9135  0.2928  1.0622
  796MPD2    H111786   3.067   2.238  15.893 -0.5554 -0.1802  0.2894
  796MPD2    H211787   3.152   1.925  16.152 -0.4193 -0.1595 -1.9594
  796MPD2    H311788   3.016   2.035  15.981 -0.1478  0.8587 -0.5748
  796MPD2     N11789   3.274   2.401  15.969  0.3162 -0.3584  0.3422
  796MPD2    H511790   3.352   2.445  16.017  0.5015 -0.2710 -0.0360
  796MPD2    N111791   3.376   2.021  16.269 -0.6646 -0.5190 -0.1190
  796MPD2    H711792   3.331   1.935  16.300  0.4132 -0.6590  1.0466
  797MPD2     C11793   0.482   2.008  16.966 -0.2225  0.2904  0.2409
  797MPD2    C111794   0.419   1.988  17.086 -0.9626  0.0923  0.1316
  797MPD2    C211795   0.290   2.038  17.105 -0.2145 -0.0314 -0.1089
  797MPD2    C311796   0.227   2.096  16.995 -0.1215  0.2158 -0.1207
  797MPD2    C411797   0.291   2.117  16.873  0.3567  0.4570 -0.2053
  797MPD2    C511798   0.420   2.063  16.857 -0.3989 -0.1808 -0.5063
  797MPD2     H11799   0.239   2.032  17.201 -0.0796 -1.6095 -0.1334
  797MPD2    H111800   0.244   2.162  16.787 -0.3153 -2.3171 -1.2957
  797MPD2    H211801   0.585   1.979  16.948 -0.3209 -0.6414  1.1952
  797MPD2    H311802   0.471   2.084  16.763 -0.7533  1.0595 -0.4157
  797MPD2     N11803   0.084   2.117  16.995  0.1757  0.6651  0.3893
  797MPD2    H511804   0.044   2.158  16.911 -0.9285 -1.3689 -0.0562
  797MPD2    N111805   0.474   1.918  17.192 -0.2832 -0.0424 -0.0008
  797MPD2    H711806   0.428   1.915  17.282  1.9522 -1.4285  1.1251
  798MPD2     C11807   4.562   1.708  17.513  0.2015  0.5188  0.4724
  798MPD2    C111808   4.617   1.793  17.422 -0.5971  0.1870 -0.0617
  798MPD2    C211809   0.023   1.791  17.421 -0.5194 -0.0919 -0.0996
  798MPD2    C311810   0.101   1.702  17.492  0.2560 -0.2178  0.4001
  798MPD2    C411811   0.041   1.632  17.592 -0.3691 -0.3477 -0.5795
  798MPD2    C511812   4.637   1.632  17.598  0.2906 -1.3410  0.3327
  798MPD2     H11813   0.081   1.854  17.355 -0.5054 -0.3526 -0.3391
  798MPD2    H111814   0.099   1.579  17.667  0.5637  0.8720 -0.4264
  798MPD2    H211815   4.456   1.699  17.532  0.0071  1.9698  0.0633
  798MPD2    H311816   4.582   1.590  17.681  0.9831 -0.6407  1.1460
  798MPD2     N11817   0.242   1.721  17.480 -0.4546 -0.2046  0.3604
  798MPD2    H511818   0.265   1.795  17.415  0.2040 -1.3674 -0.7124
  798MPD2    N111819   4.555   1.880  17.332 -0.2086  0.3355  0.1933
  798MPD2    H711820   4.619   1.943  17.287  0.5817  0.0369  0.9013
  799MPD2     C11821   3.672   3.399  15.208  0.1624 -0.2714  0.1760
  799MPD2    C111822   3.550   3.357  15.167  0.2996 -0.6396 -0.0987
  799MPD2    C211823   3.465   3.449  15.103  0.2870  0.3249  0.5546
  799MPD2    C311824   3.506   3.581  15.066  0.1016  0.2493 -0.0760
  799MPD2    C411825   3.636   3.608  15.099  0.3718  0.4222 -0.0714
  799MPD2    C511826   3.717   3.527  15.172 -0.2379 -0.4536 -0.3347
  799MPD2     H11827   3.371   3.405  15.070  1.0733 -1.1500  0.2746
  799MPD2    H111828   3.677   3.705  15.072  1.3971  0.3265  1.1863
  799MPD2    H211829   3.748   3.336  15.253  0.4945 -0.8462 -1.2108
  799MPD2    H311830   3.814   3.568  15.195 -1.8690  2.6187  1.1089
  799MPD2     N11831   3.437   3.683  14.998 -0.3593 -0.1442  0.7711
  799MPD2    H511832   3.501   3.751  14.958  0.8858 -2.1277 -0.5595
  799MPD2    N111833   3.516   3.219  15.169  0.0572 -0.2771 -0.5638
  799MPD2    H711834   3.429   3.193  15.124 -1.3553  2.9618  0.2906
  800MPD2     C11835   3.985   4.572  14.411 -0.1393 -0.4806 -0.3799
  800MPD2    C111836   4.111   4.568  14.364 -0.3637  0.3439 -0.5728
  800MPD2    C211837   4.166   4.443  14.332 -0.2613 -0.0833 -0.2857
  800MPD2    C311838   4.083   4.335  14.346 -0.7895  0.1894  0.4586
  800MPD2    C411839   3.953   4.344  14.396  0.1102 -0.4381 -0.2437
  800MPD2    C511840   3.899   4.462  14.431  0.2599 -0.0541 -0.1970
  800MPD2     H11841   4.263   4.436  14.283  0.1252 -0.1549  0.4855
  800MPD2    H111842   3.878   4.266  14.393 -0.6407  0.3108 -0.9185
  800MPD2    H211843   3.934   4.667  14.419  2.7836  0.9288  1.6038
  800MPD2    H311844   3.792   4.461  14.449  0.5795  0.2006  1.8077
  800MPD2     N11845   4.140   4.224  14.298 -0.0921  0.1485  0.8583
  800MPD2    H511846   4.232   4.234  14.257  0.1743  0.6199  1.5667
  800MPD2    N111847   4.182   4.690  14.349 -0.0287 -0.2706 -0.0542
  800MPD2    H711848   4.132   0.046  14.350 -0.5255 -0.5521 -0.0729
  801MPD2     C11849   4.222   0.689  14.461  0.1486  0.5962 -0.5732
  801MPD2    C111850   4.164   0.568  14.456 -0.2523 -0.4568  0.0129
  801MPD2    C211851   4.025   0.568  14.431 -0.2184  0.1445 -0.4514
  801MPD2    C311852   3.955   0.680  14.434 -0.4197 -0.3061  0.5462
  801MPD2    C411853   4.014   0.806  14.426  0.1465  0.1078 -0.3890
  801MPD2    C511854   4.152   0.809  14.436 -0.6721  0.0232 -0.2708
  801MPD2     H11855   3.971   0.474  14.426 -0.3360  0.3202 -2.2936
  801MPD2    H111856   3.956   0.896  14.411 -1.1106 -0.7012 -0.3948
  801MPD2    H211857   4.329   0.702  14.470  0.1550  0.5010 -0.5157
  801MPD2    H311858   4.196   0.908  14.446 -0.6207  0.0186 -0.4503
  801MPD2     N11859   3.810   0.690  14.432  0.3418 -0.6238  0.0390
  801MPD2    H511860   3.776   0.785  14.440  0.8911 -0.1989 -2.5506
  801MPD2    N111861   4.232   0.440  14.460  0.6172  0.1170 -0.1765
  801MPD2    H711862   4.176   0.355  14.460 -1.5508  1.5764 -3.0151
  802MPD2     C11863   3.123   1.675  17.636  0.2878  0.4879 -0.3345
  802MPD2    C111864   3.123   1.586   0.012  0.2574 -0.6739 -0.8524
  802MPD2    C211865   3.209   1.482   0.001 -0.2437 -0.4989  0.3185
  802MPD2    C311866   3.270   1.457  17.611  0.2168 -0.2479  0.3179
  802MPD2    C411867   3.246   1.534  17.494  0.3305 -0.0239  0.8784
  802MPD2    C511868   3.178   1.651  17.517  0.1648  0.2159  0.2446
  802MPD2     H11869   3.211   1.409   0.082  1.2879 -1.0317 -0.2017
  802MPD2    H111870   3.288   1.508  17.397  1.2399 -0.9048  1.5145
  802MPD2    H211871   3.059   1.762  17.639 -0.1658  0.1958 -1.5609
  802MPD2    H311872   3.163   1.733  17.447  0.5849 -0.6885 -0.8943
  802MPD2     N11873   3.347   1.338  17.607 -0.2787  0.5498 -0.0790
  802MPD2    H511874   3.359   1.299  17.700  3.5062  1.8387 -0.0218
  802MPD2    N111875   3.039   1.597   0.127 -0.1921 -0.7243 -0.0948
  802MPD2    H711876   3.065   1.523   0.191  0.1816 -2.5326 -2.3515
  803MPD2     C11877   3.844   3.530  11.949  0.4273  0.5415 -0.6423
  803MPD2    C111878   3.937   3.611  12.006 -0.4296 -0.8646 -0.0124
  803MPD2    C211879   4.031   3.553  12.089  0.1711  0.3442  0.1630
  803MPD2    C311880   4.012   3.427  12.132 -0.3292 -0.1754  0.0899
  803MPD2    C411881   3.913   3.347  12.081  0.3353  0.0110  0.4429
  803MPD2    C511882   3.828   3.402  11.991  0.3089 -0.1930  0.1023
  803MPD2     H11883   4.114   3.611  12.128  1.4738 -1.3789 -0.0309
  803MPD2    H111884   3.883   3.252  12.124 -0.1146 -1.5684 -3.4196
  803MPD2    H211885   3.779   3.555  11.866  0.2790  2.2371 -0.0034
  803MPD2    H311886   3.739   3.349  11.962 -0.9048  1.0067  1.6577
  803MPD2     N11887   4.107   3.377  12.220  0.2957 -1.2382  0.1089
  803MPD2    H511888   4.196   3.426  12.225 -0.2316 -0.2373 -0.2925
  803MPD2    N111889   3.965   3.747  11.955  0.1489 -0.1462 -0.6588
  803MPD2    H711890   4.050   3.800  11.974 -0.5287  0.1223  1.6392
  804MPD2     C11891   3.790   0.311  16.984 -0.1349 -0.7843 -0.5571
  804MPD2    C111892   3.787   0.297  17.124  0.8197  0.0082 -0.2451
  804MPD2    C211893   3.874   0.374  17.204  0.5496  0.3806 -0.8583
  804MPD2    C311894   3.966   0.463  17.152 -0.4999  0.2638 -0.4074
  804MPD2    C411895   3.966   0.477  17.014 -0.6344 -0.0589 -0.2419
  804MPD2    C511896   3.882   0.400  16.931  0.7194 -1.1959 -0.2892
  804MPD2     H11897   3.879   0.354  17.310  2.1642  1.1594 -0.7880
  804MPD2    H111898   4.035   0.546  16.967  0.3644 -0.6823  0.3239
  804MPD2    H211899   3.731   0.249  16.917  0.2871 -0.7713 -0.9423
  804MPD2    H311900   3.903   0.405  16.824 -2.0051  1.6497 -0.6711
  804MPD2     N11901   4.049   0.534  17.243  0.3842 -0.3377  0.2716
  804MPD2    H511902   4.022   0.554  17.339 -0.2753  0.1655 -0.0154
  804MPD2    N111903   3.711   0.199  17.185 -0.2172 -0.7669  0.9028
  804MPD2    H711904   3.731   0.187  17.284  2.7701 -0.6236  0.3023
  805MPD2     C11905   3.077   3.617  15.671  0.4474  0.2573  1.0163
  805MPD2    C111906   3.148   3.507  15.635 -0.2937 -0.3057 -0.6159
  805MPD2    C211907   3.281   3.498  15.677  0.0583 -0.0619  0.3542
  805MPD2    C311908   3.333   3.595  15.761 -0.2175 -0.9646 -0.3080
  805MPD2    C411909   3.263   3.716  15.780  0.1005 -0.7744  0.0401
  805MPD2    C511910   3.135   3.722  15.730  0.6330  0.4859  0.5248
  805MPD2     H11911   3.344   3.413  15.654 -1.2976 -0.6786 -1.0830
  805MPD2    H111912   3.291   3.802  15.838 -1.0591  1.1369 -2.2283
  805MPD2    H211913   2.973   3.624  15.642  0.7273 -0.4353 -0.1809
  805MPD2    H311914   3.068   3.805  15.749  0.4002  0.3009  0.5131
  805MPD2     N11915   3.454   3.570  15.822 -0.3695  0.2127  0.0033
  805MPD2    H511916   3.498   3.481  15.800  0.7310  0.3778  1.5505
  805MPD2    N111917   3.095   3.399  15.561 -0.4931 -0.4115 -0.4353
  805MPD2    H711918   3.153   3.317  15.548  1.3253  0.5553  1.4191
  806MPD2     C11919   3.453   3.090   1.302  0.0506 -0.3785  0.2626
  806MPD2    C111920   3.585   3.066   1.286  0.5602  0.3319 -0.8100
  806MPD2    C211921   3.628   3.059   1.158  0.5305 -0.1333  0.1613
  806MPD2    C311922   3.542   3.077   1.052 -0.2625 -0.0527 -0.3743
  806MPD2    C411923   3.412   3.119   1.069  0.2235 -0.0618 -0.0936
  806MPD2    C511924   3.368   3.126   1.201  0.6992  0.6589  0.3614
  806MPD2     H11925   3.732   3.037   1.138  0.6977  0.7998  0.0396
  806MPD2    H111926   3.338   3.138   0.992  2.4869  1.0052 -1.9943
  806MPD2    H211927   3.403   3.087   1.398 -2.0902  0.3721 -0.8131
  806MPD2    H311928   3.267   3.159   1.220 -0.8566 -3.5435 -0.6134
  806MPD2     N11929   3.594   3.057   0.923  0.4581  0.0089 -0.3442
  806MPD2    H511930   3.692   3.035   0.911  0.6067  1.9261 -2.5449
  806MPD2    N111931   3.662   3.043   1.404 -0.4837  0.4110  0.1845
  806MPD2    H711932   3.620   3.047   1.496  0.0343  0.7635  0.4087
  807MPD2     C11933   3.794   2.384   1.544  0.0461  0.2334 -0.2594
  807MPD2    C111934   3.718   2.498   1.527  0.4790  0.6448 -0.0490
  807MPD2    C211935   3.635   2.492   1.415  0.3111  0.6037  0.1809
  807MPD2    C311936   3.628   2.387   1.329 -0.1635 -0.0599 -0.4384
  807MPD2    C411937   3.697   2.268   1.361  0.4067  0.3038  0.2936
  807MPD2    C511938   3.783   2.284   1.462  0.5457 -0.4623  0.4052
  807MPD2     H11939   3.574   2.579   1.394 -2.4899 -1.0457  1.4283
  807MPD2    H111940   3.687   2.181   1.297  2.6527 -0.8988  1.5765
  807MPD2    H211941   3.859   2.375   1.630  0.0763 -1.8092 -0.4954
  807MPD2    H311942   3.843   2.197   1.485 -1.1186 -1.8133 -0.2981
  807MPD2     N11943   3.534   2.403   1.225  0.2296 -1.1178  0.3666
  807MPD2    H511944   3.484   2.491   1.219  1.3331 -0.6653 -2.1746
  807MPD2    N111945   3.730   2.622   1.589 -0.6338  0.1303  0.2971
  807MPD2    H711946   3.673   2.696   1.550  0.1680 -0.4320 -1.9313
  808MPD2     C11947   3.751   4.406   9.642 -0.2845  0.3648 -1.0123
  808MPD2    C111948   3.759   4.489   9.756  0.7962  0.2641  0.0008
  808MPD2    C211949   3.802   4.618   9.746  1.0453  0.5384  0.1124
  808MPD2    C311950   3.823   4.668   9.620 -0.0914 -0.2747  0.6865
  808MPD2    C411951   3.807   4.590   9.505 -0.0273 -0.3588  0.1068
  808MPD2    C511952   3.777   4.458   9.517 -0.6280  0.6407 -0.3965
  808MPD2     H11953   3.834   4.675   9.832 -0.0173  2.0558 -0.5037
  808MPD2    H111954   3.828   4.633   9.408 -1.6404 -3.2908 -1.5326
  808MPD2    H211955   3.712   4.306   9.655 -0.9965  0.8570  0.5929
  808MPD2    H311956   3.777   4.385   9.437  1.1530 -0.5390  0.6824
  808MPD2     N11957   3.871   0.065   9.597  0.2374 -0.0678 -0.3470
  808MPD2    H511958   3.877   0.090   9.499 -0.2254 -0.4498 -0.4696
  808MPD2    N111959   3.736   4.439   9.882  0.8011 -0.4059  0.2228
  808MPD2    H711960   3.746   4.500   9.963 -1.3306 -0.3420  0.4429
  809MPD2     C11961   3.909   0.562   8.828 -0.2931 -0.8554  0.1013
  809MPD2    C111962   3.995   0.470   8.879 -0.8375 -0.1446  0.0853
  809MPD2    C211963   4.008   0.472   9.013  0.0945  0.4935  0.2302
  809MPD2    C311964   3.943   0.556   9.100 -0.0856  0.1304 -0.3548
  809MPD2    C411965   3.861   0.656   9.042 -0.2503 -0.2908  0.0945
  809MPD2    C511966   3.840   0.652   8.910  0.6393  0.2809  0.3687
  809MPD2     H11967   4.084   0.402   9.048 -0.7713 -0.5894 -0.0555
  809MPD2    H111968   3.789   0.718   9.093  1.6251  0.6006  1.6583
  809MPD2    H211969   3.895   0.568   8.720 -1.9411  0.0453  0.3636
  809MPD2    H311970   3.793   0.731   8.852 -0.6640  0.4487  1.6581
  809MPD2     N11971   3.955   0.546   9.244  0.3860  0.4538 -0.2124
  809MPD2    H511972   3.897   0.608   9.299  0.3337  0.2030  0.0183
  809MPD2    N111973   4.078   0.375   8.816 -0.0420 -0.7142 -0.4500
  809MPD2    H711974   4.132   0.321   8.882  2.2867 -0.3609 -2.0807
  810MPD2     C11975   3.194   3.940  10.631 -0.8021 -0.3826  0.0935
  810MPD2    C111976   3.174   4.034  10.533 -0.1313  0.0323 -0.0714
  810MPD2    C211977   3.128   4.162  10.568 -0.5057  0.4317  0.2862
  810MPD2    C311978   3.116   4.182  10.706 -0.1678  0.0019 -0.1161
  810MPD2    C411979   3.121   4.084  10.801  0.1159  0.5348 -0.4080
  810MPD2    C511980   3.168   3.967  10.762 -0.0445  0.1642  0.6566
  810MPD2     H11981   3.094   4.232  10.492 -1.2366 -3.5556 -3.1129
  810MPD2    H111982   3.093   4.094  10.905  0.3247  0.8219 -0.3777
  810MPD2    H211983   3.225   3.841  10.600  0.9447 -0.2950  1.6010
  810MPD2    H311984   3.161   3.886  10.834  1.4822  1.4569  2.2337
  810MPD2     N11985   3.064   4.302  10.756 -0.9305  0.4430 -0.0135
  810MPD2    H511986   3.064   4.303  10.858  1.0640 -0.3694 -0.0091
  810MPD2    N111987   3.186   3.988  10.400  0.3380  0.0689  0.1304
  810MPD2    H711988   3.194   3.889  10.378  0.4349 -0.0226  0.5745
  811MPD2     C11989   2.841   4.088   9.548 -0.2483  0.0296 -0.6118
  811MPD2    C111990   2.901   4.144   9.655 -0.2673  0.3103 -0.6986
  811MPD2    C211991   2.904   4.282   9.663  0.0081 -0.6894 -0.6393
  811MPD2    C311992   2.834   4.359   9.563 -0.3436 -0.5212 -0.4721
  811MPD2    C411993   2.768   4.300   9.455 -0.2470  0.6876  0.2340
  811MPD2    C511994   2.775   4.161   9.448 -0.2768 -0.2514 -0.1856
  811MPD2     H11995   2.962   4.336   9.736  2.4769 -1.3796 -2.1038
  811MPD2    H111996   2.712   4.353   9.379 -1.4726  1.9471  2.0049
  811MPD2    H211997   2.858   3.982   9.533  0.3724  0.1244 -0.5673
  811MPD2    H311998   2.724   4.109   9.368 -1.8811  0.9601  0.0510
  811MPD2     N11999   2.831   4.503   9.580  0.4072 -0.0605  0.4904
  811MPD2    H512000   2.880   4.538   9.662 -2.4073 -1.5180  2.7676
  811MPD2    N112001   2.972   4.062   9.747 -0.1095 -0.5690 -0.4916
  811MPD2    H712002   2.971   3.961   9.741  0.8108 -0.6164  0.2032
  812MPD2     C12003   1.899   3.872  12.587  0.7552 -0.0118  0.0112
  812MPD2    C112004   2.005   3.957  12.558 -0.2062  0.3407 -0.0319
  812MPD2    C212005   2.131   3.906  12.583  0.3088  0.8524 -0.1713
  812MPD2    C312006   2.150   3.780  12.639  0.6913  0.2108 -0.6314
  812MPD2    C412007   2.041   3.704  12.667 -0.2107  0.6852  0.6969
  812MPD2    C512008   1.915   3.743  12.635  0.0028  0.9213 -1.0593
  812MPD2     H12009   2.212   3.976  12.565 -0.1335  1.4282  0.0767
  812MPD2    H112010   2.048   3.605  12.711 -1.5906  0.3595  0.1526
  812MPD2    H212011   1.796   3.900  12.565 -0.4189 -3.7323  0.7657
  812MPD2    H312012   1.836   3.674  12.663  0.6296  0.4291 -0.5179
  812MPD2     N12013   2.283   3.738  12.660 -0.5751  0.9876  0.3564
  812MPD2    H512014   2.355   3.809  12.652 -0.0419  0.3502 -0.4666
  812MPD2    N112015   1.990   4.095  12.522 -0.2431 -0.6095 -0.2298
  812MPD2    H712016   2.069   4.142  12.479 -1.4422 -0.8645 -2.7101
  813MPD2     C12017   1.122   0.743  12.927  0.2057 -0.0164  0.5519
  813MPD2    C112018   1.162   0.867  12.964 -0.4926 -0.3914  0.5094
  813MPD2    C212019   1.105   0.927  13.073 -0.1845 -0.5935 -0.1325
  813MPD2    C312020   1.000   0.865  13.143  0.1512  0.8597  0.6401
  813MPD2    C412021   0.963   0.739  13.107  0.4745 -0.6394  0.5287
  813MPD2    C512022   1.027   0.678  12.998  0.5365  0.5057  0.4069
  813MPD2     H12023   1.139   1.023  13.110 -0.2677 -0.5964 -0.0487
  813MPD2    H112024   0.888   0.679  13.158 -0.8592  0.5047 -0.0700
  813MPD2    H212025   1.180   0.688  12.854  1.8874 -0.7137  2.4314
  813MPD2    H312026   1.001   0.576  12.971 -0.5990  0.7198  0.7172
  813MPD2     N12027   0.966   0.918  13.270  0.4152  0.0680  0.3972
  813MPD2    H512028   0.985   1.017  13.283  0.3526  0.0546  0.6006
  813MPD2    N112029   1.277   0.943  12.916  0.7556 -0.0770  0.4480
  813MPD2    H712030   1.313   1.020  12.972 -0.8559 -0.3036  1.8009
  814MPD2     C12031   2.051   2.253  13.074 -0.0333 -0.0127  0.3406
  814MPD2    C112032   1.925   2.312  13.052  0.3006 -0.6683  0.6987
  814MPD2    C212033   1.911   2.451  13.076  0.1155 -0.3290 -0.0237
  814MPD2    C312034   2.017   2.538  13.107  0.2763 -0.3033 -0.0712
  814MPD2    C412035   2.143   2.475  13.127 -0.6036  0.3293 -0.7273
  814MPD2    C512036   2.152   2.343  13.103 -0.3631  0.2011  0.8558
  814MPD2     H12037   1.822   2.500  13.039  0.2429 -0.2823 -0.2680
  814MPD2    H112038   2.231   2.532  13.155 -0.3716  0.0113 -0.8118
  814MPD2    H212039   2.078   2.149  13.058 -0.6429  0.3847 -3.2477
  814MPD2    H312040   2.250   2.298  13.108 -1.4964 -2.1004  2.3335
  814MPD2     N12041   2.003   2.677  13.135 -0.5562  0.1955 -0.1603
  814MPD2    H512042   2.086   2.725  13.168  0.4567 -1.3556 -0.4082
  814MPD2    N112043   1.807   2.242  13.008 -0.2090  0.1993 -0.4112
  814MPD2    H712044   1.723   2.299  12.999 -1.5588 -1.8068 -0.3656
  815MPD2     C12045   2.055   0.562  11.976  0.3342 -0.1906  0.3614
  815MPD2    C112046   2.060   0.422  11.981 -0.1453 -0.0806 -0.3313
  815MPD2    C212047   1.993   0.353  12.083 -0.5297  0.1239  0.2911
  815MPD2    C312048   1.919   0.424  12.168  0.4883 -0.1729  0.2473
  815MPD2    C412049   1.923   0.559  12.167 -0.8116  0.9589  0.7414
  815MPD2    C512050   1.988   0.628  12.076 -0.5102  0.2705 -0.5799
  815MPD2     H12051   2.002   0.245  12.084  0.7009  0.2145 -1.0770
  815MPD2    H112052   1.865   0.617  12.238 -2.1251 -1.3180  1.5193
  815MPD2    H212053   2.108   0.621  11.902 -0.3824 -0.6417 -0.5147
  815MPD2    H312054   1.978   0.734  12.097  0.9296  0.6580 -1.9004
  815MPD2     N12055   1.830   0.375  12.271 -0.4313  0.0384 -0.2957
  815MPD2    H512056   1.768   0.433  12.325 -2.3957 -2.6315  0.3284
  815MPD2    N112057   2.137   0.353  11.881  0.0350 -0.0162  0.1028
  815MPD2    H712058   2.177   0.409  11.806 -1.4352 -0.5709 -1.0853
  816MPD2     C12059   2.776   4.624  17.372 -0.6689 -0.5025  0.1234
  816MPD2    C112060   2.733   4.687  17.254  0.0261 -0.4434 -0.0971
  816MPD2    C212061   2.776   4.637  17.134 -0.4238 -0.2490 -0.1423
  816MPD2    C312062   2.850   4.514  17.133 -0.2098  0.3169  0.1195
  816MPD2    C412063   2.875   4.445  17.253  0.1066  0.0527  0.0956
  816MPD2    C512064   2.838   4.506  17.368 -0.6326  0.7758  0.4784
  816MPD2     H12065   2.758   4.684  17.038 -1.9811 -1.0680 -0.2426
  816MPD2    H112066   2.931   4.352  17.251 -0.1783 -0.1333  0.9633
  816MPD2    H212067   2.747   4.662  17.469 -2.0648 -0.0551 -0.4628
  816MPD2    H312068   2.864   4.464  17.465 -0.4147  0.0589  0.1074
  816MPD2     N12069   2.876   4.458  17.010  0.3225  0.2290  0.0103
  816MPD2    H512070   2.849   4.517  16.932 -0.4594  0.2870  0.3218
  816MPD2    N112071   2.635   0.054  17.265 -0.0250 -0.1030 -0.3785
  816MPD2    H712072   2.596   0.081  17.354 -0.1088 -0.8741 -0.1822
  817MPD2     C12073   1.567   1.138   9.948 -0.5501  0.1521  0.6033
  817MPD2    C112074   1.666   1.205   9.881  0.3678 -0.1560  0.3464
  817MPD2    C212075   1.631   1.310   9.800 -0.8862 -0.2260 -0.0309
  817MPD2    C312076   1.501   1.360   9.803 -0.1947 -0.4220  0.4147
  817MPD2    C412077   1.399   1.294   9.858  0.3309 -1.3848  0.5388
  817MPD2    C512078   1.434   1.177   9.927 -1.2744 -0.5526 -0.8822
  817MPD2     H12079   1.705   1.362   9.741 -2.1746  2.4612  0.7105
  817MPD2    H112080   1.296   1.327   9.855  0.6534 -0.3019  0.9693
  817MPD2    H212081   1.592   1.047  10.003 -1.7174 -0.7802 -0.4000
  817MPD2    H312082   1.354   1.121   9.974 -0.9748 -1.2526 -1.2073
  817MPD2     N12083   1.487   1.481   9.731  0.2895  0.0206  0.1045
  817MPD2    H512084   1.570   1.537   9.715  0.3683 -0.1360 -0.0449
  817MPD2    N112085   1.802   1.168   9.881 -1.0045 -0.4194  0.3286
  817MPD2    H712086   1.854   1.213   9.807 -0.3972  2.1481  2.3215
  818MPD2     C12087   0.333   1.462   9.805 -0.1264  0.7543  1.0323
  818MPD2    C112088   0.329   1.381   9.910  0.2905  0.0071  0.0486
  818MPD2    C212089   0.417   1.276   9.907  0.8582 -0.3673 -0.2496
  818MPD2    C312090   0.505   1.246   9.804  0.1792 -0.5400  0.3153
  818MPD2    C412091   0.489   1.330   9.695 -0.1094  0.2691 -0.1784
  818MPD2    C512092   0.407   1.435   9.699  0.3334 -0.1483  0.2801
  818MPD2     H12093   0.399   1.201   9.983 -2.1868 -0.3899 -1.0265
  818MPD2    H112094   0.553   1.321   9.608  0.8240 -1.4106  0.6873
  818MPD2    H212095   0.279   1.556   9.804  0.4253  1.0251 -3.6739
  818MPD2    H312096   0.407   1.519   9.629  1.1344 -0.4636 -0.0986
  818MPD2     N12097   0.598   1.138   9.799  0.2140  0.1502 -0.3603
  818MPD2    H512098   0.637   1.109   9.710 -0.3491 -0.4882 -0.4022
  818MPD2    N112099   0.248   1.403  10.026 -0.0313 -0.2604 -0.4162
  818MPD2    H712100   0.269   1.340  10.103 -2.1626  1.2040  1.3566
  819MPD2     C12101   3.916   2.909  15.982 -0.9823 -0.5559 -0.0426
  819MPD2    C112102   3.980   2.816  15.908  0.0980  1.0191  0.0769
  819MPD2    C212103   4.114   2.799  15.925  0.1404 -0.1406  0.1089
  819MPD2    C312104   4.183   2.865  16.029 -0.0095 -0.1857 -0.4314
  819MPD2    C412105   4.118   2.959  16.102 -0.1425 -0.2270  0.2547
  819MPD2    C512106   3.982   2.980  16.078  0.5145 -0.1050 -0.6771
  819MPD2     H12107   4.156   2.726  15.857  1.6614 -1.9662  2.9995
  819MPD2    H112108   4.169   3.016  16.179  0.1914  1.3617 -1.1524
  819MPD2    H212109   3.808   2.916  15.984 -1.0071 -1.2805  1.1095
  819MPD2    H312110   3.931   3.059  16.133 -1.8724 -3.0354  1.3184
  819MPD2     N12111   4.317   2.824  16.048  0.2280 -0.3544  0.3340
  819MPD2    H512112   4.350   2.738  16.006  4.2503  0.3377  2.0225
  819MPD2    N112113   3.902   2.738  15.821 -0.2058  0.1668  0.4717
  819MPD2    H712114   3.819   2.786  15.788  0.5064  0.1089 -1.4344
  820MPD2     C12115   3.018   2.576  15.395 -0.3604  0.3466  0.2594
  820MPD2    C112116   3.100   2.682  15.441  0.5437 -0.5920 -0.3832
  820MPD2    C212117   3.228   2.657  15.475 -0.2332  0.0332 -0.1994
  820MPD2    C312118   3.279   2.531  15.472  0.1362  0.0876  0.2146
  820MPD2    C412119   3.200   2.423  15.437  0.0351  0.3772 -0.1283
  820MPD2    C512120   3.071   2.450  15.406  0.2345  0.5766  0.1087
  820MPD2     H12121   3.289   2.742  15.502 -1.9293  1.4244 -0.7691
  820MPD2    H112122   3.235   2.321  15.428  0.0523  0.1619  2.3876
  820MPD2    H212123   2.920   2.596  15.353  0.0973  1.3531 -0.3361
  820MPD2    H312124   2.996   2.374  15.388 -1.0515  2.0432 -0.7687
  820MPD2     N12125   3.404   2.501  15.528  0.0395 -0.0790 -0.4222
  820MPD2    H512126   3.417   2.401  15.526  0.9237  0.0366 -0.3480
  820MPD2    N112127   3.037   2.811  15.430  0.7554 -0.5218  0.2733
  820MPD2    H712128   2.937   2.810  15.410  0.8571  1.1973 -0.3312
  821MPD2     C12129   3.931   3.758  13.731 -0.2425  0.4532  0.5711
  821MPD2    C112130   4.060   3.788  13.722 -0.6174 -0.8446  0.1715
  821MPD2    C212131   4.113   3.807  13.599 -0.1989 -0.2138  0.2994
  821MPD2    C312132   4.035   3.814  13.488  0.4005 -0.6717  0.3343
  821MPD2    C412133   3.907   3.777  13.497  0.9183  0.4101 -0.2804
  821MPD2    C512134   3.858   3.741  13.618 -0.7035  0.2118 -0.2153
  821MPD2     H12135   4.215   3.842  13.597  0.1160 -1.2562 -2.0109
  821MPD2    H112136   3.838   3.775  13.413 -0.6892 -0.3455  1.0723
  821MPD2    H212137   3.884   3.730  13.824  1.0458  0.6313  1.2760
  821MPD2    H312138   3.757   3.709  13.637 -0.8658  0.7884 -0.0930
  821MPD2     N12139   4.083   3.855  13.360  0.2419  0.1141 -0.2594
  821MPD2    H512140   4.020   3.865  13.281 -0.3365  1.8711  0.4248
  821MPD2    N112141   4.146   3.815  13.838 -0.0338 -0.1418 -0.6797
  821MPD2    H712142   4.232   3.865  13.821  0.7695 -0.5749  2.0654
  822MPD2     C12143   0.108   4.408  15.817  0.3745 -0.0354  0.2798
  822MPD2    C112144   0.084   4.365  15.949 -0.4221  0.8906  0.4427
  822MPD2    C212145   4.713   4.428  16.022  1.1495  0.1143  0.2467
  822MPD2    C312146   4.648   4.541  15.979 -0.0445  0.6546  0.2841
  822MPD2    C412147   4.674   4.587  15.843 -0.2793  0.1518 -0.5430
  822MPD2    C512148   0.040   4.513  15.769  0.5484  0.8204  0.1797
  822MPD2     H12149   4.689   4.401  16.124 -1.5343 -0.6107 -0.5820
  822MPD2    H112150   4.617   4.668  15.799 -1.5390  0.1518  1.1150
  822MPD2    H212151   0.154   4.346  15.741 -3.1599 -2.2197 -0.0638
  822MPD2    H312152   0.049   4.538  15.664 -0.0867  0.0402 -0.0614
  822MPD2     N12153   4.547   4.606  16.061  0.0642 -0.4840 -0.3008
  822MPD2    H512154   4.496   4.548  16.127  0.6937  0.6016  1.1406
  822MPD2    N112155   0.156   4.263  16.014 -0.1795 -0.4146  0.0604
  822MPD2    H712156   0.122   4.233  16.104 -1.0269 -0.1970 -0.1849
  823MPD2     C12157   3.909   0.093  16.587  0.1089 -0.0536 -0.5641
  823MPD2    C112158   4.011   0.027  16.530  0.1844  0.1160  0.1143
  823MPD2    C212159   4.084   4.669  16.607 -0.4449  0.2434  0.0070
  823MPD2    C312160   4.055   4.651  16.740  0.1639  0.4978  0.9214
  823MPD2    C412161   3.952   4.714  16.798 -0.2842  0.3415 -0.0581
  823MPD2    C512162   3.875   0.068  16.720  0.2468  0.6778  0.6859
  823MPD2     H12163   4.163   4.619  16.552  1.4497  1.1517  1.9312
  823MPD2    H112164   3.933   4.686  16.901 -1.1126  0.0771 -0.2778
  823MPD2    H212165   3.852   0.161  16.525 -1.2113 -1.2520 -0.6571
  823MPD2    H312166   3.790   0.117  16.766 -2.5952 -0.6450 -3.0917
  823MPD2     N12167   4.134   4.573  16.828  0.4601  0.4848 -0.2885
  823MPD2    H512168   4.107   4.568  16.926 -0.1116  4.2224 -0.2744
  823MPD2    N112169   4.029   0.057  16.394  0.1664  0.5355 -0.0011
  823MPD2    H712170   3.970   0.125  16.347  1.1494  0.1735 -1.7771
  824MPD2     C12171   0.270   3.448  15.957  0.7147 -0.3707 -0.4946
  824MPD2    C112172   0.365   3.551  15.952 -0.1236  0.1486 -0.4624
  824MPD2    C212173   0.488   3.527  15.895 -0.0577 -0.8884 -0.1508
  824MPD2    C312174   0.523   3.399  15.849  0.1293  0.7367 -0.7566
  824MPD2    C412175   0.431   3.299  15.853  0.3770  0.2557 -0.0011
  824MPD2    C512176   0.306   3.327  15.908 -0.0976  0.2485 -0.0742
  824MPD2     H12177   0.563   3.605  15.900 -0.5029 -0.4027 -0.9276
  824MPD2    H112178   0.445   3.201  15.808 -0.4431  0.3168 -0.3786
  824MPD2    H212179   0.168   3.463  15.993  0.6940 -1.6752 -0.0049
  824MPD2    H312180   0.228   3.252  15.909  0.9874 -0.8871 -0.0492
  824MPD2     N12181   0.655   3.378  15.802 -0.1205 -0.0942  0.3390
  824MPD2    H512182   0.717   3.458  15.808  0.0118 -0.0059 -2.5250
  824MPD2    N112183   0.328   3.682  15.990 -0.2641  0.5165  0.0627
  824MPD2    H712184   0.391   3.754  15.956  0.2644  0.2420  0.4678
  825MPD2     C12185   1.288   3.612  15.292  0.7709  0.2545  0.1256
  825MPD2    C112186   1.236   3.632  15.416 -0.0231 -0.0334 -0.6381
  825MPD2    C212187   1.246   3.757  15.475  0.0769  0.2245 -0.0214
  825MPD2    C312188   1.311   3.860  15.408 -0.1119 -0.4185 -0.4236
  825MPD2    C412189   1.365   3.837  15.284  0.3857 -0.0530 -0.0395
  825MPD2    C512190   1.350   3.713  15.227  0.8422 -0.3394  0.2892
  825MPD2     H12191   1.204   3.775  15.573  0.3692  1.2979 -0.0877
  825MPD2    H112192   1.411   3.916  15.226  0.8646 -0.7070 -0.5541
  825MPD2    H212193   1.271   3.528  15.225 -2.6912 -0.0255  1.3574
  825MPD2    H312194   1.393   3.692  15.129 -1.8377 -1.5839 -0.6355
  825MPD2     N12195   1.320   3.990  15.460 -0.3186  0.3702  0.3949
  825MPD2    H512196   1.364   4.061  15.402  2.3480 -2.0625 -0.5649
  825MPD2    N112197   1.169   3.519  15.481  0.6390  0.4952 -0.1139
  825MPD2    H712198   1.164   3.430  15.433 -0.3353 -0.2308  1.3282
  826MPD2     C12199   0.802   3.038  13.275  0.4344 -0.3427  0.4215
  826MPD2    C112200   0.935   3.072  13.275  0.1249 -1.1815 -0.2363
  826MPD2    C212201   0.981   3.173  13.353  0.4004 -0.6822 -0.1967
  826MPD2    C312202   0.889   3.251  13.417  0.8959 -0.2964 -0.2314
  826MPD2    C412203   0.758   3.216  13.414  0.1351 -0.3300 -0.0198
  826MPD2    C512204   0.716   3.107  13.350 -0.0624  0.6549  0.8211
  826MPD2     H12205   1.078   3.220  13.344 -1.0514  2.1416 -0.9687
  826MPD2    H112206   0.687   3.277  13.470  0.5369  0.6708 -0.5892
  826MPD2    H212207   0.770   2.958  13.209 -1.5540  0.1315  0.8322
  826MPD2    H312208   0.608   3.093  13.353 -0.1190  1.1348  1.0932
  826MPD2     N12209   0.919   3.375  13.478 -0.3324 -0.0857 -0.5444
  826MPD2    H512210   0.839   3.428  13.509 -0.9865 -2.3632  1.6111
  826MPD2    N112211   1.016   3.000  13.186 -0.2932 -0.5408 -0.0095
  826MPD2    H712212   0.972   2.932  13.125 -3.2380  1.1566  0.2696
  827MPD2     C12213   1.220   0.365  10.098  0.5834 -0.4643 -0.1750
  827MPD2    C112214   1.192   0.230  10.115 -0.0959  0.2204 -0.4048
  827MPD2    C212215   1.100   0.170  10.023  0.2225  0.1542 -0.1183
  827MPD2    C312216   1.038   0.248   9.931  0.3213  0.2565 -0.4117
  827MPD2    C412217   1.076   0.381   9.909 -0.9021  0.8668  0.0375
  827MPD2    C512218   1.175   0.434   9.988  0.8644  0.3772 -0.6930
  827MPD2     H12219   1.062   0.070  10.036 -0.9200  0.6274  0.1217
  827MPD2    H112220   1.030   0.446   9.835  2.2217  2.6391 -0.3536
  827MPD2    H212221   1.290   0.418  10.162 -0.8466 -1.0748  1.9115
  827MPD2    H312222   1.202   0.538   9.969 -1.0380  1.3899  2.0449
  827MPD2     N12223   0.931   0.190   9.863 -0.5011  0.3431 -0.5213
  827MPD2    H512224   0.900   0.099   9.894  0.8651 -0.0940 -0.4279
  827MPD2    N112225   1.261   0.149  10.208 -0.5081 -0.4931 -0.1238
  827MPD2    H712226   1.346   0.181  10.254 -0.4215 -0.7565 -0.0954
  828MPD2     C12227   4.679   4.552  12.627 -0.6184  0.2602 -0.0367
  828MPD2    C112228   4.645   4.629  12.522  0.4771  0.0954  0.4059
  828MPD2    C212229   4.711   4.627  12.401 -0.1166 -0.2284 -0.2374
  828MPD2    C312230   0.083   4.542  12.376 -0.6723 -0.1804 -0.6944
  828MPD2    C412231   0.134   4.477  12.484  0.3541 -0.4589 -0.3530
  828MPD2    C512232   0.059   4.476  12.600  0.5614 -0.3163  0.2190
  828MPD2     H12233   4.678   4.710  12.340  0.3071  0.2546  0.1875
  828MPD2    H112234   0.224   4.417  12.481 -0.2935 -1.5039  0.9568
  828MPD2    H212235   4.625   4.553  12.721 -0.3953 -2.6605  0.1171
  828MPD2    H312236   0.111   4.421  12.677 -1.4227 -0.0834  1.7258
  828MPD2     N12237   0.134   4.510  12.248  0.0344 -0.1205 -0.1880
  828MPD2    H512238   0.219   4.455  12.238  0.0532 -0.0014 -0.6943
  828MPD2    N112239   4.526   4.706  12.516 -0.0336  0.2669 -0.0882
  828MPD2    H712240   4.508   0.021  12.428  1.1557 -1.5202 -1.3063
  829MPD2     C12241   4.460   0.091  11.803 -0.7582 -0.1866 -0.6191
  829MPD2    C112242   4.331   0.139  11.813  0.9120  0.7937  0.2709
  829MPD2    C212243   4.271   0.156  11.942  0.0591  0.1587  0.2358
  829MPD2    C312244   4.345   0.144  12.053 -0.6988 -0.3518  0.0634
  829MPD2    C412245   4.479   0.121  12.041 -0.5873  0.3510 -0.4123
  829MPD2    C512246   4.534   0.083  11.921 -0.2323  1.0009  0.2559
  829MPD2     H12247   4.167   0.181  11.959  0.1062 -0.0595  0.8137
  829MPD2    H112248   4.549   0.135  12.123  2.7371 -2.4052 -2.7592
  829MPD2    H212249   4.506   0.063  11.709 -2.0666  0.5145 -1.4668
  829MPD2    H312250   4.642   0.067  11.920  0.1658  3.7301 -1.0920
  829MPD2     N12251   4.300   0.152  12.188 -0.4916 -0.3394 -0.1105
  829MPD2    H512252   4.374   0.151  12.258 -0.7657 -2.7557  0.1602
  829MPD2    N112253   4.266   0.159  11.692 -1.0373  0.2698  0.0293
  829MPD2    H712254   4.310   0.143  11.602  1.8106  3.7055  0.8202
  830MPD2     C12255   0.405   2.667  15.900 -0.0693 -0.4498  0.4711
  830MPD2    C112256   0.289   2.739  15.889 -0.0212 -0.2934  0.3382
  830MPD2    C212257   0.289   2.843  15.798 -0.6078 -1.0026  0.3590
  830MPD2    C312258   0.405   2.891  15.729  0.3945  0.4684 -0.2310
  830MPD2    C412259   0.518   2.819  15.755  0.4723  0.3206 -0.1938
  830MPD2    C512260   0.520   2.710  15.832 -0.1208  0.2029 -0.0640
  830MPD2     H12261   0.197   2.900  15.791 -0.5152 -0.8319  0.5569
  830MPD2    H112262   0.615   2.849  15.718  0.4594 -0.6916 -1.0629
  830MPD2    H212263   0.402   2.593  15.979  1.0954  0.9414  1.8239
  830MPD2    H312264   0.617   2.666  15.849  0.1986  1.0333  0.2218
  830MPD2     N12265   0.405   3.010  15.648  0.7030 -0.3309  0.5339
  830MPD2    H512266   0.500   3.037  15.626  0.5516  0.0045  0.2977
  830MPD2    N112267   0.188   2.700  15.971  0.4251  0.1012  0.5583
  830MPD2    H712268   0.217   2.627  16.036 -2.7690  0.1006  1.9790
  831MPD2     C12269   4.712   0.060  16.437  0.2492 -1.2956 -0.2313
  831MPD2    C112270   0.002   4.678  16.363 -0.5940 -0.0844  0.2735
  831MPD2    C212271   4.642   4.576  16.361  0.3023  0.6685 -0.8917
  831MPD2    C312272   4.525   4.583  16.436 -0.2390 -0.2151 -1.2703
  831MPD2    C412273   4.512   4.689  16.518  0.9018 -0.0259  0.6118
  831MPD2    C512274   4.605   0.059  16.519 -0.4970  0.0567  0.9973
  831MPD2     H12275   4.655   4.496  16.289 -3.1862 -0.1789 -0.5771
  831MPD2    H112276   4.418   4.693  16.572  0.6168 -0.4508  0.1495
  831MPD2    H212277   0.053   0.139  16.444 -0.2577 -0.9195  0.8401
  831MPD2    H312278   4.581   0.149  16.574 -0.9285  0.7692 -0.3516
  831MPD2     N12279   4.425   4.483  16.431  0.3268 -0.1538 -0.0074
  831MPD2    H512280   4.362   4.478  16.511 -1.5660 -1.5156 -1.5880
  831MPD2    N112281   0.117   4.676  16.283  0.2345 -0.4048 -0.9074
  831MPD2    H712282   0.158   0.034  16.264 -2.4410  1.3188  1.5331
  832MPD2     C12283   3.114   1.166  17.272 -0.0163 -0.4624 -0.3428
  832MPD2    C112284   3.115   1.256  17.163 -0.1666  0.4699 -0.7017
  832MPD2    C212285   2.993   1.269  17.094 -0.1095  0.3075 -0.1843
  832MPD2    C312286   2.875   1.209  17.134  0.7983 -0.6695  0.1682
  832MPD2    C412287   2.881   1.122  17.246 -0.5022 -0.8206  0.8040
  832MPD2    C512288   3.002   1.092  17.305  0.4295 -0.1823  0.1169
  832MPD2     H12289   2.997   1.325  17.001  1.3749  2.4635  1.1766
  832MPD2    H112290   2.789   1.084  17.288 -0.3225 -2.1162  0.0346
  832MPD2    H212291   3.201   1.156  17.335 -0.1966  2.7040  0.4331
  832MPD2    H312292   3.013   1.019  17.384 -1.4054 -0.9187 -0.3215
  832MPD2     N12293   2.746   1.232  17.079 -0.5310  0.3624  0.0635
  832MPD2    H512294   2.676   1.162  17.103  0.7825 -0.9000  0.1890
  832MPD2    N112295   3.237   1.309  17.131  0.5134 -0.0776 -0.2983
  832MPD2    H712296   3.316   1.298  17.194 -1.2906  0.1828  1.9694
  833MPD2     C12297   4.109   2.265  12.021 -0.9023 -0.0580  0.3550
  833MPD2    C112298   4.183   2.381  12.020  0.1852 -0.8261 -0.1759
  833MPD2    C212299   4.313   2.380  12.067  0.2709  0.0049 -0.7735
  833MPD2    C312300   4.380   2.258  12.088 -0.0517 -0.5964 -0.2714
  833MPD2    C412301   4.308   2.136  12.073 -0.0357 -0.5416 -0.8773
  833MPD2    C512302   4.171   2.146  12.042  0.4069 -0.5137  0.5754
  833MPD2     H12303   4.362   2.473  12.089  0.0433  0.5438 -2.5318
  833MPD2    H112304   4.349   2.037  12.086  0.0008 -0.4264 -0.1051
  833MPD2    H212305   4.002   2.264  12.007 -1.0658  2.2420  1.3963
  833MPD2    H312306   4.108   2.058  12.046 -0.1065 -0.0926  1.7442
  833MPD2     N12307   4.513   2.268  12.132 -0.1208 -0.1996 -0.4934
  833MPD2    H512308   4.543   2.364  12.139  1.0509 -0.5533 -0.6846
  833MPD2    N112309   4.114   2.500  11.998  0.6169  0.1217 -0.0787
  833MPD2    H712310   4.016   2.501  11.969  0.0755  0.8220  1.7706
  834MPD2     C12311   0.346   1.963  11.482  1.0776  0.2401  0.6811
  834MPD2    C112312   0.234   1.908  11.542  0.4689  0.1473  0.5980
  834MPD2    C212313   0.205   1.958  11.672  0.5450  0.3886  0.9026
  834MPD2    C312314   0.272   2.065  11.730  0.0763 -0.1019  0.1206
  834MPD2    C412315   0.381   2.111  11.661 -0.3164  0.4859 -0.4769
  834MPD2    C512316   0.424   2.058  11.545  0.0592  0.2523 -0.1677
  834MPD2     H12317   0.121   1.913  11.723  0.7905  0.2083  1.1471
  834MPD2    H112318   0.440   2.190  11.706  1.5250 -2.0688  1.6350
  834MPD2    H212319   0.377   1.929  11.384 -0.6699 -0.9793  0.5540
  834MPD2    H312320   0.515   2.091  11.496 -0.1524  2.0639  0.6250
  834MPD2     N12321   0.213   2.125  11.844  0.2603 -0.5504 -0.5517
  834MPD2    H512322   0.126   2.086  11.877  0.9177 -0.6037  1.1482
  834MPD2    N112323   0.157   1.814  11.468 -0.1136 -0.2635 -0.2666
  834MPD2    H712324   0.193   1.771  11.383  1.5759 -1.6107  1.1292
  835MPD2     C12325   0.867   0.208  11.277 -0.6844 -0.1712 -0.4617
  835MPD2    C112326   0.747   0.176  11.341 -0.4687 -0.9122 -0.6819
  835MPD2    C212327   0.749   0.102  11.456  0.3736  0.4841  0.3186
  835MPD2    C312328   0.866   0.072  11.519 -0.4263 -0.2469 -0.5347
  835MPD2    C412329   0.987   0.104  11.453 -0.4143  0.4283 -0.0261
  835MPD2    C512330   0.987   0.170  11.333 -0.5633  0.3170  0.5891
  835MPD2     H12331   0.651   0.080  11.497 -0.7207  1.1368 -1.8860
  835MPD2    H112332   1.083   0.093  11.503  0.3139  1.4685 -1.1822
  835MPD2    H212333   0.879   0.259  11.182 -1.3344  0.9489  0.0523
  835MPD2    H312334   1.078   0.195  11.280 -0.3791 -0.5260  0.5105
  835MPD2     N12335   0.872   0.036  11.651 -1.0617 -0.0961  0.0277
  835MPD2    H512336   0.963   4.731  11.679 -0.8149  0.0935 -0.5334
  835MPD2    N112337   0.621   0.215  11.284  0.1357 -0.1633  0.1394
  835MPD2    H712338   0.539   0.184  11.337  1.5408  2.2659  3.7310
  836MPD2     C12339   0.277   0.061  12.084  0.4964 -0.4889 -0.9874
  836MPD2    C112340   0.372   0.026  12.167  0.3000  0.4816  0.1019
  836MPD2    C212341   0.356   0.046  12.302 -0.2218 -1.0608 -0.1009
  836MPD2    C312342   0.243   0.122  12.348  0.0949  0.1511 -0.3621
  836MPD2    C412343   0.146   0.156  12.255  0.1857  0.0672 -0.1995
  836MPD2    C512344   0.161   0.124  12.124  0.3625 -0.7904  0.2565
  836MPD2     H12345   0.423   0.013  12.380 -0.1915  2.8975  1.5727
  836MPD2    H112346   0.051   0.197  12.286  1.1966  1.2932  1.2831
  836MPD2    H212347   0.283   0.018  11.985 -1.1144 -1.1772 -0.7933
  836MPD2    H312348   0.081   0.132  12.052 -0.2356  1.2290  1.1600
  836MPD2     N12349   0.222   0.148  12.485 -0.2986  0.3006  1.0898
  836MPD2    H512350   0.144   0.210  12.501  0.5640  1.6937 -0.0959
  836MPD2    N112351   0.487   4.704  12.101  0.3230  0.0528  0.0724
  836MPD2    H712352   0.485   4.711  12.000  0.4207  0.9943  0.1400
  837MPD2     C12353   2.940   0.336  10.076  0.3073  0.0848 -0.2057
  837MPD2    C112354   2.880   0.383   9.957  0.1231 -0.4961  0.3497
  837MPD2    C212355   2.886   0.513   9.928  0.2505  0.0572  0.5214
  837MPD2    C312356   2.950   0.602  10.012  0.2847  0.2962 -0.1406
  837MPD2    C412357   3.004   0.561  10.132  0.2557 -0.0642 -0.2265
  837MPD2    C512358   3.000   0.426  10.163  0.2659  0.7655  0.0604
  837MPD2     H12359   2.842   0.553   9.837  0.6099 -3.2642 -1.1115
  837MPD2    H112360   3.057   0.634  10.192 -1.1012 -0.3041  1.2529
  837MPD2    H212361   2.928   0.235  10.115  3.9114 -0.5862 -0.8691
  837MPD2    H312362   3.044   0.387  10.254  0.9669 -0.3823 -0.7657
  837MPD2     N12363   2.965   0.737   9.962  0.2026 -0.4540  0.2400
  837MPD2    H512364   2.928   0.757   9.870  1.8969  2.0512  0.1111
  837MPD2    N112365   2.830   0.296   9.858  0.8915 -0.4140 -0.7316
  837MPD2    H712366   2.787   0.345   9.780  0.8136 -0.0537 -0.4649
  838MPD2     C12367   1.573   2.313  10.779 -0.3833  0.1733  0.8284
  838MPD2    C112368   1.590   2.404  10.880 -0.3820  0.0853 -0.0161
  838MPD2    C212369   1.518   2.400  10.996 -0.3451 -0.5979  0.0446
  838MPD2    C312370   1.435   2.292  11.025 -0.0863  0.6143  0.3629
  838MPD2    C412371   1.421   2.195  10.928  0.6786 -0.5935 -0.3266
  838MPD2    C512372   1.481   2.211  10.804 -0.1641 -0.0211 -0.4558
  838MPD2     H12373   1.541   2.471  11.075  0.3034  0.7684 -1.3767
  838MPD2    H112374   1.356   2.110  10.944  1.1079 -0.4471  2.2121
  838MPD2    H212375   1.619   2.330  10.682 -2.2500  0.1532 -0.0525
  838MPD2    H312376   1.449   2.141  10.727 -0.8042  0.1845 -0.3752
  838MPD2     N12377   1.373   2.290  11.154  0.0991 -0.1219  0.3049
  838MPD2    H512378   1.379   2.375  11.210 -0.0367  1.5882 -2.2486
  838MPD2    N112379   1.688   2.505  10.876 -0.0696  0.0774 -0.3492
  838MPD2    H712380   1.687   2.576  10.948 -0.3681 -0.3455  0.0577
  839MPD2     C12381   2.058   2.453  11.598  0.8420  0.7949  0.4686
  839MPD2    C112382   1.977   2.380  11.512 -0.2186  0.6718  0.1802
  839MPD2    C212383   1.961   2.423  11.382  0.4205 -0.3887  0.0758
  839MPD2    C312384   2.037   2.530  11.337  0.0493  0.2878  0.8605
  839MPD2    C412385   2.124   2.591  11.424 -0.3061 -0.4161 -0.2620
  839MPD2    C512386   2.141   2.552  11.551 -0.0105 -0.3265  0.0156
  839MPD2     H12387   1.890   2.373  11.317  1.1074 -1.7044  0.3397
  839MPD2    H112388   2.195   2.671  11.403 -0.0970 -0.7601 -0.8515
  839MPD2    H212389   2.094   2.418  11.694  2.8168 -1.5708 -1.1233
  839MPD2    H312390   2.223   2.596  11.607 -0.8357  0.6392  0.4590
  839MPD2     N12391   2.010   2.568  11.203  0.6590 -0.3009 -0.0419
  839MPD2    H512392   1.962   2.499  11.146  0.7643 -0.3736 -0.0431
  839MPD2    N112393   1.907   2.264  11.552 -0.5222  0.1671 -0.3012
  839MPD2    H712394   1.842   2.226  11.484 -1.1287  1.5659 -0.4987
  840MPD2     C12395   1.899   0.205  10.353  0.3830 -0.8442  0.1333
  840MPD2    C112396   1.810   0.217  10.461  0.0977  0.7208 -0.7732
  840MPD2    C212397   1.850   0.286  10.572  0.3115  1.1125  0.1772
  840MPD2    C312398   1.974   0.350  10.573 -0.2603  0.3806 -0.9197
  840MPD2    C412399   2.063   0.332  10.467 -0.5088  0.0443 -0.8209
  840MPD2    C512400   2.023   0.263  10.355 -0.4542 -0.1631 -0.1580
  840MPD2     H12401   1.785   0.307  10.656 -0.4390 -1.6847  0.2863
  840MPD2    H112402   2.163   0.373  10.465  0.1504 -1.5121 -0.0224
  840MPD2    H212403   1.872   0.172  10.253 -0.2326  0.8728 -0.2692
  840MPD2    H312404   2.086   0.245  10.268 -1.2819  0.4913 -0.8938
  840MPD2     N12405   2.022   0.437  10.670  0.2262 -0.1300 -0.4566
  840MPD2    H512406   2.117   0.466  10.648  0.2222  0.0159 -0.2796
  840MPD2    N112407   1.684   0.147  10.447 -0.7045  0.1920 -0.8430
  840MPD2    H712408   1.672   0.106  10.355  1.5045  2.5908 -2.2226
  841MPD2     C12409   1.394   0.487  14.334 -0.4675 -0.5766 -0.5189
  841MPD2    C112410   1.418   0.353  14.362  0.4052  0.4437  0.1931
  841MPD2    C212411   1.516   0.326  14.461 -0.2911 -0.8715 -0.5369
  841MPD2    C312412   1.595   0.427  14.516 -0.5753  0.1164 -0.9997
  841MPD2    C412413   1.573   0.558  14.469  0.0892  0.3648  0.2699
  841MPD2    C512414   1.466   0.585  14.381 -0.6536  0.1730  0.5992
  841MPD2     H12415   1.525   0.225  14.499 -0.3252 -0.6078  0.1822
  841MPD2    H112416   1.624   0.643  14.514 -0.0602  1.2383 -1.2058
  841MPD2    H212417   1.315   0.518  14.266 -2.4784  0.5047  2.2846
  841MPD2    H312418   1.462   0.691  14.358 -2.0448  0.3660  1.7027
  841MPD2     N12419   1.680   0.383  14.617  0.8050 -0.3115  0.1070
  841MPD2    H512420   1.673   0.290  14.657 -2.4823  0.4119  1.1931
  841MPD2    N112421   1.351   0.247  14.292  0.5305  0.5244  0.1901
  841MPD2    H712422   1.391   0.155  14.311 -1.0150 -0.6723 -2.3696
  842MPD2     C12423   2.032   1.285  17.274 -0.4652  0.2438 -0.7583
  842MPD2    C112424   1.973   1.406  17.285  0.0962 -0.7167  0.7049
  842MPD2    C212425   1.945   1.452  17.414  0.0480  0.5053  0.1562
  842MPD2    C312426   1.958   1.365  17.529 -0.4791 -0.4408 -0.2564
  842MPD2    C412427   2.014   1.240  17.509 -0.6288  0.0628  0.2759
  842MPD2    C512428   2.060   1.206  17.384  0.1345 -0.1131 -0.3483
  842MPD2     H12429   1.888   1.544  17.422  1.2477  1.3588 -1.1501
  842MPD2    H112430   2.030   1.156  17.576  0.2263  0.6143  0.7741
  842MPD2    H212431   2.061   1.248  17.176  1.2158  1.7884 -0.8277
  842MPD2    H312432   2.095   1.103  17.378 -0.7607 -0.4137 -0.5207
  842MPD2     N12433   1.908   1.400  17.656  0.3277 -0.5148 -0.0422
  842MPD2    H512434   1.922   1.340   0.007  1.3622 -0.0693  0.1127
  842MPD2    N112435   1.916   1.469  17.169 -0.4559 -0.0428 -0.2613
  842MPD2    H712436   1.932   1.427  17.078  0.4570  0.4560 -0.3329
  843MPD2     C12437   4.478   1.771   0.182  0.1976 -0.3918  0.6608
  843MPD2    C112438   4.611   1.796   0.187  0.5350  0.3773 -0.0625
  843MPD2    C212439   4.653   1.926   0.160 -0.0696 -0.3358  0.0506
  843MPD2    C312440   4.563   2.022   0.129  0.2055  0.1209  0.9241
  843MPD2    C412441   4.429   1.988   0.107 -0.7011 -0.2778  0.4536
  843MPD2    C512442   4.392   1.861   0.128  0.0232 -0.4010  0.2710
  843MPD2     H12443   0.026   1.947   0.174 -0.2453 -0.1724  1.0595
  843MPD2    H112444   4.352   2.057   0.076  0.1607 -1.1604 -3.6202
  843MPD2    H212445   4.443   1.669   0.194 -1.5538  0.3211  1.5519
  843MPD2    H312446   4.287   1.838   0.111 -0.8764  0.7089  4.2366
  843MPD2     N12447   4.591   2.162   0.133  0.0559  0.4347 -0.0103
  843MPD2    H512448   4.516   2.229   0.140  0.0756  0.6435 -1.9546
  843MPD2    N112449   4.696   1.687   0.204  0.4204  0.4998  0.2460
  843MPD2    H712450   4.662   1.592   0.219 -0.3958  0.5705 -1.1478
  844MPD2     C12451   2.443   0.581  16.595  0.2656 -0.6694 -0.2811
  844MPD2    C112452   2.522   0.628  16.493 -0.7551 -0.1396 -0.2933
  844MPD2    C212453   2.597   0.747  16.509  0.2360  0.9083 -0.0838
  844MPD2    C312454   2.591   0.816  16.630 -0.2033  0.0962 -0.5336
  844MPD2    C412455   2.500   0.772  16.730 -0.3007  0.6110 -0.6505
  844MPD2    C512456   2.444   0.649  16.712  0.6596 -0.3271 -0.0830
  844MPD2     H12457   2.663   0.773  16.428  0.6679  0.2125  0.0443
  844MPD2    H112458   2.504   0.827  16.823  0.2627  2.2885 -1.6571
  844MPD2    H212459   2.378   0.495  16.584  0.5480 -0.8290 -0.7017
  844MPD2    H312460   2.387   0.618  16.799 -0.8059 -0.1526 -0.9830
  844MPD2     N12461   2.681   0.919  16.652  0.2661  0.2202 -0.5228
  844MPD2    H512462   2.742   0.940  16.574 -0.0393  0.2761 -0.7458
  844MPD2    N112463   2.510   0.568  16.368 -0.8294  0.1366 -0.2798
  844MPD2    H712464   2.551   0.615  16.288 -1.3238  0.3075 -0.4369
  845MPD2     C12465   2.950   1.875  16.675 -0.4384  0.0991  0.2065
  845MPD2    C112466   3.008   1.808  16.777  0.6134 -0.0575 -0.0933
  845MPD2    C212467   3.009   1.674  16.792  0.4262  0.4802 -0.1655
  845MPD2    C312468   2.963   1.600  16.688 -0.0092  0.1965 -0.4262
  845MPD2    C412469   2.907   1.666  16.582  0.2502  0.5816 -0.0066
  845MPD2    C512470   2.903   1.803  16.570  0.2647  0.7473  0.7715
  845MPD2     H12471   3.060   1.620  16.871  1.0627  0.2379 -0.7401
  845MPD2    H112472   2.862   1.616  16.497 -1.1762  0.1640  0.9975
  845MPD2    H212473   2.930   1.981  16.662 -0.7735  0.0069 -0.0502
  845MPD2    H312474   2.850   1.846  16.486  1.1576  0.6554  0.1571
  845MPD2     N12475   2.986   1.458  16.702  0.4147 -0.3707  0.1281
  845MPD2    H512476   3.035   1.424  16.785  0.7441 -0.1488  0.0210
  845MPD2    N112477   3.068   1.890  16.881  0.9375  0.4234  0.3135
  845MPD2    H712478   3.075   1.990  16.865  0.4764  0.4028 -0.0145
  846MPD2     C12479   4.164   1.920  13.550  0.0288  0.7977  0.5033
  846MPD2    C112480   4.105   2.039  13.578 -0.7245  0.8216  0.3777
  846MPD2    C212481   4.067   2.064  13.707 -0.2426 -0.1232 -0.1971
  846MPD2    C312482   4.105   1.985  13.814  0.4855 -0.0049  0.3701
  846MPD2    C412483   4.192   1.876  13.786 -0.0670 -0.0959 -0.0983
  846MPD2    C512484   4.205   1.838  13.654  0.3697 -0.2494 -0.4001
  846MPD2     H12485   4.030   2.162  13.736  1.6570  1.2227 -2.3085
  846MPD2    H112486   4.238   1.815  13.863  1.4704  2.1435  0.7363
  846MPD2    H212487   4.186   1.888  13.449 -0.8418  0.4577  0.4202
  846MPD2    H312488   4.261   1.749  13.626 -0.9603 -1.6215  1.3388
  846MPD2     N12489   4.081   2.031  13.947  0.2928  0.2084  0.5249
  846MPD2    H512490   4.037   2.122  13.949 -0.7485 -0.3038  1.2716
  846MPD2    N112491   4.087   2.139  13.483 -0.0647 -0.1084 -0.3054
  846MPD2    H712492   4.065   2.235  13.509  0.7132  0.1362 -0.5804
  847MPD2     C12493   4.268   3.443  14.520  0.1924 -0.1547  0.0923
  847MPD2    C112494   4.364   3.529  14.543 -0.1590 -0.2372 -0.4081
  847MPD2    C212495   4.490   3.481  14.578 -0.1173 -0.0696 -0.0031
  847MPD2    C312496   4.510   3.343  14.590 -0.2729  0.1071 -0.0525
  847MPD2    C412497   4.412   3.258  14.563  0.3470 -0.1762 -0.6347
  847MPD2    C512498   4.292   3.307  14.524  0.2296 -0.1958 -0.5922
  847MPD2     H12499   4.573   3.551  14.578 -0.7127  0.6226  1.8004
  847MPD2    H112500   4.432   3.151  14.564 -1.1116 -0.4453 -0.6698
  847MPD2    H212501   4.167   3.465  14.487 -0.7092 -0.2471  2.7792
  847MPD2    H312502   4.212   3.240  14.493  1.2414 -2.4322  1.5373
  847MPD2     N12503   4.629   3.290  14.643 -0.7850 -0.5461  0.4445
  847MPD2    H512504   4.631   3.191  14.664  0.5926 -0.6643 -0.2584
  847MPD2    N112505   4.351   3.665  14.556 -0.1521 -0.1555  0.3656
  847MPD2    H712506   4.436   3.711  14.586  0.6674 -1.3141 -0.1490
  848MPD2     C12507   2.485   1.455  16.341 -0.1553  0.4921 -0.1632
  848MPD2    C112508   2.484   1.527  16.454  1.1295 -0.1658 -0.5763
  848MPD2    C212509   2.472   1.664  16.449 -0.4085  0.3647 -0.2494
  848MPD2    C312510   2.466   1.735  16.333  0.7786  0.3086 -1.0221
  848MPD2    C412511   2.470   1.659  16.218  0.7896  0.3989  0.3136
  848MPD2    C512512   2.466   1.520  16.220  0.3234  0.2390  0.5720
  848MPD2     H12513   2.477   1.712  16.546  0.6275 -0.6101  0.1875
  848MPD2    H112514   2.461   1.710  16.123 -0.4293 -0.6244 -0.1172
  848MPD2    H212515   2.487   1.347  16.342 -2.8012  0.4620  1.8660
  848MPD2    H312516   2.462   1.472  16.123 -0.4471 -0.9480  1.1962
  848MPD2     N12517   2.446   1.877  16.327 -0.0385 -0.4732 -0.3967
  848MPD2    H512518   2.439   1.916  16.234  2.1574  1.3824  0.2382
  848MPD2    N112519   2.483   1.467  16.584 -0.0354 -0.3170  0.3084
  848MPD2    H712520   2.481   1.529  16.664 -0.6446  0.2945 -0.1799
  849MPD2     C12521   1.495   0.955  14.541  0.6450  0.8237 -0.6772
  849MPD2    C112522   1.575   1.016  14.446 -0.6820  0.0536  0.1395
  849MPD2    C212523   1.705   0.984  14.449 -0.1327  0.8768 -0.6249
  849MPD2    C312524   1.760   0.903  14.554  0.7434  0.1753  0.2086
  849MPD2    C412525   1.680   0.854  14.652 -0.4388  0.2725  0.0667
  849MPD2    C512526   1.547   0.881  14.648 -0.9503  0.0875  0.3423
  849MPD2     H12527   1.776   1.032  14.383  2.3044  0.9677  2.0860
  849MPD2    H112528   1.716   0.781  14.724  0.3834  0.0025 -0.6087
  849MPD2    H212529   1.391   0.982  14.546  0.4263 -0.2000  0.2017
  849MPD2    H312530   1.474   0.839  14.716 -2.5808 -1.6377 -2.4561
  849MPD2     N12531   1.896   0.884  14.541 -0.6946 -0.7414  0.6694
  849MPD2    H512532   1.938   0.929  14.461 -1.9300 -0.0142  0.4372
  849MPD2    N112533   1.525   1.106  14.349  0.1736  0.4797  0.2378
  849MPD2    H712534   1.600   1.145  14.293 -0.4590  1.3042 -0.0305
  850MPD2     C12535   0.044   4.353  15.148 -0.0096  0.5354 -0.5973
  850MPD2    C112536   0.113   4.361  15.269  0.4357 -0.1319  0.0037
  850MPD2    C212537   0.248   4.387  15.273 -0.0450  0.5300  0.1733
  850MPD2    C312538   0.320   4.404  15.160 -1.1833 -0.1141 -0.3650
  850MPD2    C412539   0.253   4.394  15.038  0.1618 -0.3317  0.1802
  850MPD2    C512540   0.117   4.372  15.032 -0.3440 -0.1137  0.1132
  850MPD2     H12541   0.299   4.413  15.365  0.3710  2.0976 -0.5015
  850MPD2    H112542   0.302   4.392  14.941 -0.6294  0.3319 -0.2331
  850MPD2    H212543   4.669   4.335  15.143  0.2594 -0.9392 -0.9996
  850MPD2    H312544   0.080   4.361  14.931  0.1037 -0.1360 -0.0477
  850MPD2     N12545   0.454   4.421  15.171  0.5253  0.0550 -0.7093
  850MPD2    H512546   0.495   4.405  15.263 -1.6238 -0.5293  0.1628
  850MPD2    N112547   0.047   4.322  15.391 -0.0261 -0.2590 -0.7559
  850MPD2    H712548   0.112   4.318  15.469  0.4051 -1.5410 -1.1778
  851MPD2     C12549   0.479   3.945  15.615 -0.6541  0.1845 -0.4202
  851MPD2    C112550   0.357   3.888  15.623  0.2016 -0.4669 -0.3324
  851MPD2    C212551   0.341   3.752  15.618  0.4033 -0.4838  0.2375
  851MPD2    C312552   0.454   3.670  15.591  0.2941 -0.0933 -0.0677
  851MPD2    C412553   0.576   3.721  15.596  0.1752  0.1812 -0.2492
  851MPD2    C512554   0.586   3.859  15.608 -0.0825  0.7467  0.1048
  851MPD2     H12555   0.249   3.698  15.601  0.5719 -1.4227  2.3417
  851MPD2    H112556   0.667   3.662  15.586  0.2817  0.3459 -0.2613
  851MPD2    H212557   0.501   4.051  15.613  0.6411 -0.0702  0.7888
  851MPD2    H312558   0.681   3.908  15.594 -0.8097  1.5006 -2.2926
  851MPD2     N12559   0.426   3.535  15.554  0.0489  0.0642  0.1808
  851MPD2    H512560   0.329   3.505  15.557 -0.3574  1.1826 -1.8081
  851MPD2    N112561   0.240   3.968  15.623 -0.2824 -0.3602  0.2379
  851MPD2    H712562   0.257   4.068  15.630  1.2740 -0.7281  1.6418
  852MPD2     C12563   4.264   1.923   9.936 -0.1977 -0.0302  0.4248
  852MPD2    C112564   4.181   1.881  10.035  0.4263 -0.2515 -0.0389
  852MPD2    C212565   4.234   1.898  10.163 -0.3806 -0.4632 -0.1119
  852MPD2    C312566   4.357   1.952  10.186 -0.3498 -0.0473  0.1995
  852MPD2    C412567   4.434   1.988  10.088  0.0298  0.3505 -0.2000
  852MPD2    C512568   4.388   1.977   9.962 -0.5400 -0.2333 -0.2871
  852MPD2     H12569   4.193   1.853  10.253 -1.3600 -0.4146 -0.5335
  852MPD2    H112570   4.536   2.021  10.101 -0.9286  2.9405  0.7121
  852MPD2    H212571   4.226   1.914   9.835  3.3431 -0.6865 -0.8467
  852MPD2    H312572   4.448   2.007   9.878 -0.2236 -1.8792 -0.6557
  852MPD2     N12573   4.384   1.982  10.320 -0.5673  0.5790 -0.3345
  852MPD2    H512574   4.327   1.943  10.394 -0.1057  2.1312  0.8294
  852MPD2    N112575   4.057   1.826  10.013  0.5037  0.3101 -0.4097
  852MPD2    H712576   4.029   1.821   9.915  0.1492  2.9475 -0.4419
  853MPD2     C12577   1.404   0.992  12.424  0.4354 -0.2685  0.4765
  853MPD2    C112578   1.309   1.091  12.399  1.0706  0.2009  0.3056
  853MPD2    C212579   1.262   1.118  12.273  0.9212  0.7140  0.0046
  853MPD2    C312580   1.321   1.063  12.166 -0.0395  0.2478  0.1000
  853MPD2    C412581   1.416   0.965  12.182 -0.3305 -0.0985  0.6106
  853MPD2    C512582   1.457   0.934  12.313 -0.7564 -0.2051  0.2961
  853MPD2     H12583   1.185   1.193  12.262  0.8872  0.7864  0.7509
  853MPD2    H112584   1.474   0.913  12.107  0.6593  0.9827  0.6338
  853MPD2    H212585   1.450   0.970  12.519  1.3535  1.2941  0.3950
  853MPD2    H312586   1.538   0.863  12.326 -0.2384  0.4263  0.5805
  853MPD2     N12587   1.301   1.117  12.030  0.1876 -0.4981  0.1575
  853MPD2    H512588   1.358   1.081  11.953  0.4499 -0.0046  0.1197
  853MPD2    N112589   1.266   1.161  12.511 -0.4318 -0.7839 -0.4820
  853MPD2    H712590   1.322   1.150  12.595 -0.1356  1.6638 -0.3781
  854MPD2     C12591   2.542   1.989  13.104  0.2710 -0.1279  0.1042
  854MPD2    C112592   2.656   2.043  13.050 -0.1986 -0.2859 -0.6018
  854MPD2    C212593   2.776   1.986  13.098 -0.4735  0.9446  0.6365
  854MPD2    C312594   2.775   1.884  13.192  0.0398  0.3146  0.5102
  854MPD2    C412595   2.661   1.839  13.246  0.1875  0.1029 -0.8852
  854MPD2    C512596   2.546   1.899  13.211  0.3116 -0.2435  0.1595
  854MPD2     H12597   2.870   2.020  13.057 -0.0871 -1.4649 -0.4913
  854MPD2    H112598   2.658   1.756  13.316  0.5956 -0.5619 -1.6577
  854MPD2    H212599   2.446   2.030  13.072  0.0158 -1.5655 -0.9610
  854MPD2    H312600   2.453   1.870  13.259 -0.3636  1.8608  0.1279
  854MPD2     N12601   2.892   1.812  13.232  0.3908 -0.3250  0.0210
  854MPD2    H512602   2.885   1.737  13.299  0.2058  0.5272  0.9502
  854MPD2    N112603   2.644   2.135  12.950 -0.4513 -0.1356 -0.3192
  854MPD2    H712604   2.552   2.148  12.909 -0.2139  1.0708 -0.4877
  855MPD2     C12605   3.066   1.388  13.976  0.8563  0.7149 -0.2237
  855MPD2    C112606   3.179   1.357  13.899 -0.4931 -0.7327  0.9469
  855MPD2    C212607   3.209   1.435  13.787  0.0212  0.9157  0.0719
  855MPD2    C312608   3.123   1.543  13.756 -0.5859 -0.8443  0.0721
  855MPD2    C412609   3.017   1.562  13.829 -0.2717  0.3936 -0.2444
  855MPD2    C512610   2.991   1.489  13.941 -0.3773  0.1591  0.7024
  855MPD2     H12611   3.291   1.412  13.721  1.2829  1.1041  1.5733
  855MPD2    H112612   2.943   1.635  13.800 -1.4169 -0.9630 -0.7405
  855MPD2    H212613   3.030   1.330  14.060  0.8375  2.2191  0.8143
  855MPD2    H312614   2.899   1.500  13.999 -0.5283 -1.5605  0.7888
  855MPD2     N12615   3.137   1.614  13.631  0.0556  0.1914  0.1928
  855MPD2    H512616   3.054   1.662  13.599  1.8168  2.3120 -1.2529
  855MPD2    N112617   3.252   1.239  13.918 -0.3668 -0.0867  0.0334
  855MPD2    H712618   3.343   1.235  13.873  0.0571 -0.1200  0.8775
  856MPD2     C12619   0.452   1.987  14.652  0.2244  0.5478  0.4416
  856MPD2    C112620   0.492   2.077  14.556  0.0625  0.3599 -0.4367
  856MPD2    C212621   0.408   2.105  14.446  0.3855 -0.5211  0.0789
  856MPD2    C312622   0.289   2.044  14.429 -0.0366  0.3706 -0.2924
  856MPD2    C412623   0.244   1.970  14.531  1.3014 -0.5583  0.3248
  856MPD2    C512624   0.324   1.935  14.637  0.1974 -0.5428 -0.0359
  856MPD2     H12625   0.446   2.156  14.358  0.5705  1.7817  1.5088
  856MPD2    H112626   0.151   1.920  14.509 -0.0111  1.8690  0.2938
  856MPD2    H212627   0.512   1.957  14.737 -0.3499 -1.4584  0.1370
  856MPD2    H312628   0.285   1.859  14.703  0.7012 -0.9622 -0.2230
  856MPD2     N12629   0.206   2.068  14.319  0.2559  0.1369 -0.2993
  856MPD2    H512630   0.112   2.032  14.327 -0.9627  3.3320 -0.4882
  856MPD2    N112631   0.611   2.156  14.567 -0.0122 -0.3655  0.5571
  856MPD2    H712632   0.640   2.213  14.489  0.9488 -1.2615  0.2650
  857MPD2     C12633   1.902   4.721  13.018 -0.6422  0.4145  0.4373
  857MPD2    C112634   2.039   4.705  12.999 -0.0548 -0.3180  0.4587
  857MPD2    C212635   2.137   0.065  13.027 -0.5029 -0.1668  0.3770
  857MPD2    C312636   2.098   0.191  13.068 -0.2133  1.0311 -0.8430
  857MPD2    C412637   1.968   0.214  13.084  0.6426  0.0423 -0.6302
  857MPD2    C512638   1.874   0.119  13.053  0.2926  0.2041 -0.2901
  857MPD2     H12639   2.244   0.048  13.020 -0.5703 -1.1173  1.7062
  857MPD2    H112640   1.926   0.304  13.129 -2.0890 -1.0301 -1.0054
  857MPD2    H212641   1.819   4.664  12.982  1.4392 -0.7459 -2.4797
  857MPD2    H312642   1.772   0.150  13.074  0.2936 -0.5189  0.8133
  857MPD2     N12643   2.198   0.288  13.090 -0.3769  0.0255 -0.4490
  857MPD2    H512644   2.292   0.250  13.095 -0.0596  0.9085  0.2613
  857MPD2    N112645   2.071   4.573  12.951 -0.4692 -0.0637  0.1574
  857MPD2    H712646   1.992   4.516  12.924 -0.9753  0.9949 -0.6341
  858MPD2     C12647   3.006   3.809  16.741  0.7708 -0.1091  0.1773
  858MPD2    C112648   3.088   3.695  16.757 -0.5533  0.0638  0.6867
  858MPD2    C212649   3.142   3.669  16.878  0.6400  0.4034 -0.1911
  858MPD2    C312650   3.103   3.756  16.987 -0.4110  0.0210  0.9454
  858MPD2    C412651   3.024   3.872  16.961  0.5679 -0.7578  0.2854
  858MPD2    C512652   2.966   3.886  16.846 -0.4265  0.2711 -0.0295
  858MPD2     H12653   3.207   3.583  16.895 -1.7342 -1.5448 -0.9611
  858MPD2    H112654   2.997   3.940  17.041 -0.3045 -0.9274  0.1404
  858MPD2    H212655   2.960   3.832  16.646  1.2216  1.8797  0.4334
  858MPD2    H312656   2.895   3.968  16.835 -0.1706  0.1213 -2.9037
  858MPD2     N12657   3.150   3.743  17.120 -0.5079 -0.5905 -0.2714
  858MPD2    H512658   3.118   3.803  17.194  2.5031  0.8283 -0.1094
  858MPD2    N112659   3.128   3.630  16.639 -0.4410  0.2297 -0.1235
  858MPD2    H712660   3.087   3.667  16.553  1.5517  0.4699 -0.9739
  859MPD2     C12661   1.344   1.073  15.420 -0.7676 -0.3784  0.0417
  859MPD2    C112662   1.458   1.071  15.502 -0.1304  0.0055 -0.2746
  859MPD2    C212663   1.485   0.952  15.572  0.2524  0.2870  0.3785
  859MPD2    C312664   1.395   0.846  15.570 -0.1846 -0.5955  0.0740
  859MPD2    C412665   1.282   0.853  15.495  0.0686 -0.3484  0.3886
  859MPD2    C512666   1.259   0.964  15.413  0.1840 -0.0612  0.4910
  859MPD2     H12667   1.571   0.947  15.637  1.7824 -2.0777 -1.8462
  859MPD2    H112668   1.212   0.770  15.502  1.2460 -1.4557 -0.8599
  859MPD2    H212669   1.322   1.169  15.373 -0.9458 -0.7271 -0.5772
  859MPD2    H312670   1.178   0.970  15.341  0.7532  0.3594 -0.1069
  859MPD2     N12671   1.413   0.728  15.650  0.1909 -0.3501  0.0571
  859MPD2    H512672   1.348   0.652  15.637 -1.6176  1.1149  0.5426
  859MPD2    N112673   1.549   1.179  15.484  0.6821 -0.2518  0.2515
  859MPD2    H712674   1.529   1.237  15.403  0.7633 -1.4455 -0.6324
  860MPD2     C12675   3.294   0.930  11.720 -0.1690  0.5579  0.5487
  860MPD2    C112676   3.358   0.942  11.844 -0.0141 -0.6256 -0.1934
  860MPD2    C212677   3.351   1.058  11.921  0.1119  0.0777 -0.0093
  860MPD2    C312678   3.274   1.163  11.874  0.1775  0.0128 -0.2769
  860MPD2    C412679   3.211   1.155  11.752  0.0487 -0.1460  0.5741
  860MPD2    C512680   3.219   1.040  11.676  0.4714 -0.6207  0.6253
  860MPD2     H12681   3.408   1.069  12.013  0.4187  2.7147 -0.5237
  860MPD2    H112682   3.147   1.230  11.706  0.2398 -1.4044 -1.7638
  860MPD2    H212683   3.294   0.840  11.661 -0.0746  0.4502  0.7138
  860MPD2    H312684   3.169   1.036  11.580  0.8698 -0.1978  0.4020
  860MPD2     N12685   3.273   1.270  11.966  0.2939  0.3564 -0.4292
  860MPD2    H512686   3.337   1.270  12.045  1.4143  3.1725 -1.3305
  860MPD2    N112687   3.427   0.829  11.883  0.2290  0.1310  0.5585
  860MPD2    H712688   3.405   0.743  11.833  1.9274 -1.2895  2.2491
  861MPD2     C12689   2.767   4.008  10.803 -0.2994  0.1159 -0.4997
  861MPD2    C112690   2.657   4.046  10.881  0.5886 -0.1407  0.2957
  861MPD2    C212691   2.578   4.148  10.831  0.0430  0.0987  0.1806
  861MPD2    C312692   2.599   4.209  10.715  0.8450  0.0152  0.3498
  861MPD2    C412693   2.692   4.153  10.631  0.4972  0.0859  0.2847
  861MPD2    C512694   2.778   4.061  10.680  0.3628  0.1479 -0.2473
  861MPD2     H12695   2.496   4.177  10.896  1.0356  2.0522  0.5427
  861MPD2    H112696   2.711   4.187  10.530  0.7813  0.0487  0.3243
  861MPD2    H212697   2.840   3.931  10.823  0.4544  0.7360 -0.8664
  861MPD2    H312698   2.851   4.026  10.608  0.2908 -1.8755  0.6450
  861MPD2     N12699   2.513   4.314  10.662  0.3984  0.8620 -0.1307
  861MPD2    H512700   2.515   4.336  10.563  0.0674  0.5990 -0.1969
  861MPD2    N112701   2.629   3.982  11.005  0.0045 -0.4072 -0.3804
  861MPD2    H712702   2.531   3.982  11.034  0.0922  2.5127 -0.0339
  862MPD2     C12703   1.909   4.306  10.248  0.7337  0.0294 -0.2216
  862MPD2    C112704   1.986   4.239  10.337 -0.4558  0.7423  0.4722
  862MPD2    C212705   1.998   4.101  10.345 -0.2177  0.3673  0.4175
  862MPD2    C312706   1.922   4.017  10.266 -0.8994 -0.5535  0.1147
  862MPD2    C412707   1.835   4.088  10.178 -0.4466 -0.7205  0.1534
  862MPD2    C512708   1.828   4.225  10.172  0.6718  0.2565  0.0202
  862MPD2     H12709   2.067   4.051  10.411  0.3066  0.4196 -0.0914
  862MPD2    H112710   1.765   4.034  10.116  1.9884 -0.6428 -2.6611
  862MPD2    H212711   1.916   4.413  10.232 -1.2649 -0.1366 -2.1583
  862MPD2    H312712   1.769   4.263  10.089 -2.5984 -0.5670  1.9814
  862MPD2     N12713   1.911   3.880  10.261  0.1369  0.2835 -0.1151
  862MPD2    H512714   1.848   3.843  10.190  0.2452  0.7008 -0.4270
  862MPD2    N112715   2.073   4.308  10.427 -0.2010 -0.0130  0.1061
  862MPD2    H712716   2.139   4.262  10.489 -1.3257 -0.0424  1.2802
  863MPD2     C12717   1.557   2.463  16.617 -0.4494 -0.1145  0.2356
  863MPD2    C112718   1.469   2.479  16.722 -0.3701  0.2543  0.6592
  863MPD2    C212719   1.516   2.487  16.847  0.6464 -0.4444 -0.5006
  863MPD2    C312720   1.651   2.473  16.872  0.1774  0.2047  0.1622
  863MPD2    C412721   1.738   2.454  16.773 -0.7550 -0.5277  0.1084
  863MPD2    C512722   1.696   2.449  16.644  0.8271  0.2212  0.4348
  863MPD2     H12723   1.451   2.509  16.931 -0.1169  0.1762 -1.2522
  863MPD2    H112724   1.846   2.455  16.779 -0.8438  2.0031  1.2415
  863MPD2    H212725   1.527   2.466  16.513  1.3386 -0.1494 -0.2754
  863MPD2    H312726   1.763   2.458  16.559  1.7608 -1.5547  0.9942
  863MPD2     N12727   1.698   2.486  17.004 -0.0857  0.0247 -0.1317
  863MPD2    H512728   1.797   2.490  17.024 -0.2406 -0.2615  0.7271
  863MPD2    N112729   1.334   2.502  16.686  0.1210  0.1330 -0.4550
  863MPD2    H712730   1.318   2.503  16.586  0.8505 -1.0116 -0.5928
  864MPD2     C12731   1.857   3.311  17.270  0.5179  0.7711 -0.0676
  864MPD2    C112732   1.903   3.295  17.144  0.3968 -0.0734 -0.0315
  864MPD2    C212733   1.984   3.393  17.081 -0.1459 -0.3522 -0.1006
  864MPD2    C312734   2.011   3.512  17.147 -0.2071  0.1590  0.1571
  864MPD2    C412735   1.960   3.525  17.280  0.1480 -0.0955  0.6246
  864MPD2    C512736   1.888   3.424  17.337 -0.2433  0.6755  0.4672
  864MPD2     H12737   2.009   3.390  16.975 -1.8248  1.0879 -0.5327
  864MPD2    H112738   1.991   3.612  17.337 -0.0851  1.0471 -0.9767
  864MPD2    H212739   1.793   3.231  17.304  2.1426 -1.0221 -1.2124
  864MPD2    H312740   1.848   3.449  17.435 -3.3153  2.9914 -1.3897
  864MPD2     N12741   2.080   3.614  17.071 -0.6784 -0.3821  0.2508
  864MPD2    H512742   2.091   3.601  16.971 -0.6418  0.9112  0.0870
  864MPD2    N112743   1.879   3.171  17.080 -0.0844 -0.0582  0.7916
  864MPD2    H712744   1.803   3.114  17.116 -1.8929  2.7189  1.3893
  865MPD2     C12745   1.969   4.210  16.279 -0.2498  0.6239  0.1091
  865MPD2    C112746   1.937   4.097  16.335 -0.4243 -0.0208 -0.2202
  865MPD2    C212747   1.982   4.072  16.467 -0.2198 -0.3336  0.3499
  865MPD2    C312748   2.054   4.164  16.542  0.1294  0.0368  0.7230
  865MPD2    C412749   2.071   4.287  16.487  0.4190  0.1562  0.0134
  865MPD2    C512750   2.033   4.310  16.355 -0.4726 -0.4761 -0.5724
  865MPD2     H12751   1.965   3.974  16.511 -2.0050 -1.2550 -2.4228
  865MPD2    H112752   2.127   4.359  16.545 -0.9788  1.5236 -0.3305
  865MPD2    H212753   1.930   4.232  16.181 -2.2065 -0.0426  0.7405
  865MPD2    H312754   2.041   4.410  16.315  0.4775  0.2911  1.5492
  865MPD2     N12755   2.110   4.127  16.667 -0.1454 -0.1507 -0.0827
  865MPD2    H512756   2.176   4.194  16.703 -0.1049 -0.1765 -0.1080
  865MPD2    N112757   1.873   3.996  16.258 -0.8441  0.2085  0.1671
  865MPD2    H712758   1.851   4.022  16.162  0.8893  2.3596  0.3686
  866MPD2     C12759   3.063   4.422  11.613 -0.7326  0.0420  0.2949
  866MPD2    C112760   3.137   4.508  11.539  0.3044 -0.5617 -0.0240
  866MPD2    C212761   3.073   4.624  11.505  0.5957  0.1790 -0.4322
  866MPD2    C312762   2.941   4.636  11.527 -1.3713  0.2239  0.3671
  866MPD2    C412763   2.863   4.543  11.596 -0.1783 -0.4735 -0.0914
  866MPD2    C512764   2.929   4.439  11.646 -0.2258 -0.1466 -0.0835
  866MPD2     H12765   3.124   4.703  11.452  0.0768 -0.4819 -1.9039
  866MPD2    H112766   2.760   4.562  11.623 -0.0367 -0.8705  0.7345
  866MPD2    H212767   3.103   4.340  11.672 -2.9303 -0.7629  0.6585
  866MPD2    H312768   2.889   4.360  11.708  1.7234  0.2685  1.7094
  866MPD2     N12769   2.872   0.015  11.476  0.2133  0.0311  0.1727
  866MPD2    H512770   2.770   0.017  11.484  0.1223 -0.8633 -0.8140
  866MPD2    N112771   3.273   4.482  11.504  0.0620  0.3009 -0.2150
  866MPD2    H712772   3.316   4.394  11.531 -0.3211 -0.0346 -0.7007
  867MPD2     C12773   0.505   3.768  16.315 -0.0759 -0.1364  0.0182
  867MPD2    C112774   0.467   3.677  16.409  0.4316  0.3693 -0.1548
  867MPD2    C212775   0.492   3.701  16.542  0.7887  0.1099  0.4463
  867MPD2    C312776   0.549   3.827  16.581 -0.5371 -0.4314  0.2442
  867MPD2    C412777   0.581   3.923  16.482  0.6829 -0.8605  0.2293
  867MPD2    C512778   0.549   3.890  16.355  0.0871 -0.0748 -0.4891
  867MPD2     H12779   0.459   3.627  16.614 -0.0928 -2.0634 -2.2095
  867MPD2    H112780   0.617   4.020  16.512 -0.9116 -0.7026  1.6332
  867MPD2    H212781   0.493   3.755  16.208  1.4855  1.0384 -0.3002
  867MPD2    H312782   0.564   3.971  16.284  1.4244 -1.0893 -1.3689
  867MPD2     N12783   0.581   3.857  16.720  0.0336  0.6335  0.2454
  867MPD2    H512784   0.634   3.940  16.744 -0.1880  0.3043  1.8609
  867MPD2    N112785   0.414   3.560  16.355 -0.1132 -0.1665 -0.5104
  867MPD2    H712786   0.415   3.560  16.253 -0.8552  3.6070 -0.5154
  868MPD2     C12787   2.183   3.448  13.336  0.4101  0.2299 -0.1818
  868MPD2    C112788   2.262   3.366  13.408 -0.3519  0.4100 -0.9847
  868MPD2    C212789   2.198   3.284  13.502  0.5231  0.1039  0.0433
  868MPD2    C312790   2.055   3.280  13.518  0.2764  0.1994  0.3646
  868MPD2    C412791   1.974   3.365  13.445 -0.5084  0.3160 -0.1988
  868MPD2    C512792   2.042   3.444  13.355 -0.3928  0.0353 -0.2221
  868MPD2     H12793   2.251   3.206  13.556  0.0627 -0.4194 -0.2524
  868MPD2    H112794   1.866   3.371  13.436 -0.5219 -1.4171 -1.1778
  868MPD2    H212795   2.232   3.517  13.269 -0.6289 -0.4919 -1.7023
  868MPD2    H312796   1.980   3.504  13.289  1.9064  3.0236  0.3101
  868MPD2     N12797   2.005   3.177  13.593 -0.3232  0.0847 -0.4193
  868MPD2    H512798   2.069   3.112  13.636 -2.6842 -1.6607  0.4671
  868MPD2    N112799   2.398   3.371  13.385 -0.1342  0.0484 -0.1467
  868MPD2    H712800   2.442   3.433  13.318  1.1517 -0.2628  0.4008
  869MPD2     C12801   3.819   0.787   0.217 -0.5589 -0.4720  0.6375
  869MPD2    C112802   3.758   0.823   0.336 -0.4750  0.1544  0.1819
  869MPD2    C212803   3.838   0.846   0.447 -0.9446  0.8641  0.3599
  869MPD2    C312804   3.974   0.811   0.451 -0.3766 -0.6492  0.5364
  869MPD2    C412805   4.031   0.781   0.333  0.6303 -0.4277 -1.4346
  869MPD2    C512806   3.954   0.764   0.215 -0.3225  0.3813  0.1552
  869MPD2     H12807   3.796   0.850   0.547  0.1068 -4.7780  1.0036
  869MPD2    H112808   4.137   0.764   0.316  0.8386 -2.3177  1.8684
  869MPD2    H212809   3.770   0.755   0.126 -1.9363  0.4187  1.0752
  869MPD2    H312810   4.006   0.733   0.125 -1.2719  1.0793 -0.6311
  869MPD2     N12811   4.050   0.832   0.566  0.0354 -0.5022 -0.3538
  869MPD2    H512812   4.150   0.825   0.550  0.1305 -0.4435  0.2069
  869MPD2    N112813   3.625   0.857   0.332 -0.4025 -0.0453  0.3886
  869MPD2    H712814   3.592   0.875   0.237  0.4662 -0.1424  0.0675
  870MPD2     C12815   4.333   0.209   1.761  0.1696  0.3412 -0.3115
  870MPD2    C112816   4.251   0.149   1.668 -0.0493  0.5979 -0.0169
  870MPD2    C212817   4.157   0.221   1.598  0.2844  0.4238  0.0187
  870MPD2    C312818   4.155   0.359   1.610 -0.0724 -0.5841  0.3274
  870MPD2    C412819   4.243   0.413   1.696  0.8534 -0.2601 -0.1335
  870MPD2    C512820   4.333   0.341   1.774  0.6788 -0.3711 -0.0580
  870MPD2     H12821   4.099   0.178   1.517  0.1228 -0.1374  0.4275
  870MPD2    H112822   4.235   0.519   1.715  1.6687 -0.2554  0.1719
  870MPD2    H212823   4.409   0.153   1.814 -1.1877 -0.5828  0.6593
  870MPD2    H312824   4.400   0.397   1.838  0.5255  2.1109 -2.0452
  870MPD2     N12825   4.061   0.432   1.530  0.6682 -0.0521  0.1251
  870MPD2    H512826   4.001   0.380   1.468 -0.6238  0.5410  0.8593
  870MPD2    N112827   4.263   0.010   1.667  0.3055 -0.0489  0.0803
  870MPD2    H712828   4.343   4.700   1.714 -0.1505 -1.5019 -0.4478
  871MPD2     C12829   4.617   4.135  16.520  0.0138 -0.1487  0.5853
  871MPD2    C112830   4.606   4.082  16.644  1.2597  0.3175  0.4924
  871MPD2    C212831   4.589   3.944  16.656 -0.1073  0.0450 -0.4398
  871MPD2    C312832   4.582   3.868  16.542  0.7728  0.5197  0.7290
  871MPD2    C412833   4.617   3.915  16.419 -0.9166  0.2400 -0.2421
  871MPD2    C512834   4.630   4.051  16.414  0.5489 -0.3135 -0.2667
  871MPD2     H12835   4.579   3.897  16.753 -1.3504  0.8651 -0.1610
  871MPD2    H112836   4.605   3.856  16.329  0.5838  0.0835 -0.3295
  871MPD2    H212837   4.628   4.242  16.511  0.6108 -0.3911 -1.8500
  871MPD2    H312838   4.653   4.096  16.318 -3.2062  0.7658 -0.6363
  871MPD2     N12839   4.538   3.732  16.561  0.3119 -0.2911 -0.8119
  871MPD2    H512840   4.521   3.694  16.654  2.4549 -0.9840 -0.7117
  871MPD2    N112841   4.588   4.178  16.746 -0.7311 -0.0356 -0.3218
  871MPD2    H712842   4.609   4.274  16.721 -2.6803  0.3153 -0.6258
  872MPD2     C12843   0.335   1.575  14.579 -0.2312 -0.6072  0.8653
  872MPD2    C112844   0.311   1.631  14.453 -0.0760 -0.3398 -0.4052
  872MPD2    C212845   0.175   1.644  14.409  0.0628  0.0106  0.0750
  872MPD2    C312846   0.069   1.596  14.484 -0.3452  0.3290 -0.3186
  872MPD2    C412847   0.098   1.538  14.599 -0.9100  0.5999  0.2762
  872MPD2    C512848   0.225   1.531  14.646 -0.0656  0.4376  0.2641
  872MPD2     H12849   0.150   1.687  14.313 -1.8214 -0.1122  0.5033
  872MPD2    H112850   0.016   1.504  14.662  0.6704 -0.5721  1.6922
  872MPD2    H212851   0.431   1.554  14.624 -0.4141 -1.6579  0.7708
  872MPD2    H312852   0.237   1.480  14.741  1.8863  1.5457  0.6069
  872MPD2     N12853   4.660   1.609  14.464 -0.3397  0.4612 -0.5407
  872MPD2    H512854   4.598   1.570  14.535  0.9972 -0.9314 -0.1317
  872MPD2    N112855   0.419   1.692  14.380  0.0876  0.8273  0.6338
  872MPD2    H712856   0.397   1.741  14.294 -3.0151 -1.3601  0.1956
  873MPD2     C12857   2.684   1.667   1.427 -0.6917  0.5973 -0.9815
  873MPD2    C112858   2.623   1.756   1.513  0.5879  0.0764 -1.0467
  873MPD2    C212859   2.569   1.712   1.634 -0.5346 -0.1510  0.2420
  873MPD2    C312860   2.559   1.575   1.659 -0.4846 -0.1550 -0.0686
  873MPD2    C412861   2.629   1.495   1.574  0.3252  0.7335  0.0901
  873MPD2    C512862   2.689   1.534   1.453 -0.0686 -0.5916  0.1894
  873MPD2     H12863   2.517   1.781   1.699  2.7049  1.5875  0.9689
  873MPD2    H112864   2.619   1.387   1.581  0.4692  0.6916 -0.3606
  873MPD2    H212865   2.724   1.702   1.332 -1.9016  3.0152 -0.6001
  873MPD2    H312866   2.741   1.461   1.392  0.3317 -0.6885  0.6403
  873MPD2     N12867   2.491   1.525   1.771 -0.1288  0.0111  0.2753
  873MPD2    H512868   2.493   1.424   1.771  0.0660  0.0269  2.2990
  873MPD2    N112869   2.615   1.893   1.473  0.9071  0.4837  0.0659
  873MPD2    H712870   2.683   1.927   1.406  0.1122  0.9156 -0.5330
  874MPD2     C12871   1.642   2.096  16.548  0.6289 -0.4886 -0.0707
  874MPD2    C112872   1.744   2.031  16.610  0.4234 -0.3966 -0.0450
  874MPD2    C212873   1.870   2.045  16.563  0.3558 -0.3375  0.8304
  874MPD2    C312874   1.903   2.137  16.460 -0.8515 -0.2166  0.1841
  874MPD2    C412875   1.798   2.223  16.413  0.0811 -0.1537  0.3762
  874MPD2    C512876   1.672   2.191  16.453  0.4047  0.2761 -0.3083
  874MPD2     H12877   1.954   1.993  16.608  0.3991 -1.2238 -0.2792
  874MPD2    H112878   1.815   2.301  16.340  1.8396 -1.3114 -0.4557
  874MPD2    H212879   1.538   2.069  16.565  0.0999  0.4860 -1.6827
  874MPD2    H312880   1.594   2.246  16.402 -1.2134 -0.2265  1.6580
  874MPD2     N12881   2.040   2.148  16.430 -0.6316  0.4602 -0.0650
  874MPD2    H512882   2.106   2.086  16.476  0.0311  1.5138  0.4091
  874MPD2    N112883   1.705   1.940  16.708  0.4568  0.2448  0.4842
  874MPD2    H712884   1.610   1.919  16.737  0.2144  0.0120 -0.4933
  875MPD2     C12885   3.370   0.282  14.592 -0.7063  0.3100 -0.8697
  875MPD2    C112886   3.253   0.250  14.654  0.4512 -0.4471 -0.0651
  875MPD2    C212887   3.237   0.260  14.794  0.1431  0.5362 -0.1522
  875MPD2    C312888   3.351   0.295  14.867 -0.6269  0.3146 -0.7538
  875MPD2    C412889   3.458   0.344  14.800 -0.6267 -0.0391  0.1995
  875MPD2    C512890   3.470   0.337  14.666 -0.5258 -0.4348  0.0119
  875MPD2     H12891   3.144   0.233  14.843 -0.7903  0.3037 -2.0728
  875MPD2    H112892   3.548   0.355  14.858 -0.0563 -0.8455 -0.5303
  875MPD2    H212893   3.404   0.284  14.489 -0.9103  0.8854 -0.9311
  875MPD2    H312894   3.562   0.365  14.617 -1.5069  0.6504 -1.1900
  875MPD2     N12895   3.361   0.290  15.005 -0.4312  0.2537  0.5076
  875MPD2    H512896   3.417   0.362  15.050  1.7222 -2.2177  1.8341
  875MPD2    N112897   3.141   0.227  14.575  0.3129 -0.2620 -0.0212
  875MPD2    H712898   3.050   0.200  14.611 -0.1305  2.0974  0.5901
  876MPD2     C12899   2.036   1.671  15.761 -1.0179  0.2612 -0.2490
  876MPD2    C112900   2.158   1.617  15.792  0.3923  0.4992 -0.0715
  876MPD2    C212901   2.174   1.480  15.815 -0.1052 -0.3444  0.7039
  876MPD2    C312902   2.064   1.401  15.828 -0.7843  0.1351 -0.1753
  876MPD2    C412903   1.939   1.455  15.815  0.1140 -0.3453 -0.2284
  876MPD2    C512904   1.931   1.587  15.781 -0.3448 -0.3697  0.5950
  876MPD2     H12905   2.274   1.441  15.827  0.0190 -0.5798 -1.1470
  876MPD2    H112906   1.849   1.394  15.820  0.1124 -0.1920  1.4124
  876MPD2    H212907   2.021   1.775  15.732  0.3302  0.3624 -0.5825
  876MPD2    H312908   1.834   1.634  15.769 -0.2476  0.0364  1.3328
  876MPD2     N12909   2.082   1.258  15.839 -0.3326  0.0418 -0.2313
  876MPD2    H512910   2.174   1.219  15.823 -0.8756 -0.9572 -0.9301
  876MPD2    N112911   2.265   1.707  15.780 -0.1427 -0.3792 -0.1302
  876MPD2    H712912   2.227   1.791  15.737  0.4952  0.7601  1.5103
  877MPD2     C12913   2.031   1.965  15.388  0.3231  0.2821  0.6156
  877MPD2    C112914   2.155   1.976  15.337 -0.5375 -0.1696 -0.0722
  877MPD2    C212915   2.177   1.976  15.198  0.2052 -0.0025 -0.6291
  877MPD2    C312916   2.073   1.945  15.114 -0.2117 -0.6753 -0.0312
  877MPD2    C412917   1.947   1.926  15.170  1.0201 -0.6778 -0.2419
  877MPD2    C512918   1.925   1.941  15.306 -0.6958  0.1286  0.4616
  877MPD2     H12919   2.279   1.985  15.163  0.9177 -3.9153  0.4616
  877MPD2    H112920   1.862   1.892  15.112  2.0431 -0.9512 -1.5697
  877MPD2    H212921   1.994   1.991  15.487  1.3686  1.4590  0.7036
  877MPD2    H312922   1.832   1.912  15.354 -1.1623 -0.1506 -0.6099
  877MPD2     N12923   2.089   1.922  14.973  0.8489 -0.0771  0.0552
  877MPD2    H512924   2.007   1.883  14.929  0.2571  0.4747  0.6652
  877MPD2    N112925   2.273   1.993  15.422  0.7046 -0.0397 -0.0731
  877MPD2    H712926   2.363   1.997  15.374  0.5401  1.9799 -0.2139
  878MPD2     C12927   1.357   0.797  13.452  0.0639 -0.0792  0.3700
  878MPD2    C112928   1.421   0.919  13.429 -0.2497  0.9810  0.2882
  878MPD2    C212929   1.440   1.004  13.535 -0.7602 -0.1852  0.2892
  878MPD2    C312930   1.400   0.968  13.665  0.0128 -1.0508  0.0567
  878MPD2    C412931   1.354   0.842  13.692  0.3547 -0.8250  0.0515
  878MPD2    C512932   1.328   0.764  13.582  0.3707 -0.1067  1.0107
  878MPD2     H12933   1.469   1.109  13.527 -0.6948 -0.2431 -0.2423
  878MPD2    H112934   1.321   0.815  13.792 -1.7762 -1.9706 -0.9579
  878MPD2    H212935   1.330   0.721  13.380  1.5615  0.1127 -0.4070
  878MPD2    H312936   1.288   0.666  13.603 -0.3782 -0.1900 -0.8365
  878MPD2     N12937   1.418   1.062  13.765  0.1233  0.0155  0.3551
  878MPD2    H512938   1.468   1.147  13.742 -2.9643  0.6942 -3.7459
  878MPD2    N112939   1.464   0.943  13.292  0.2031  0.4852 -0.3347
  878MPD2    H712940   1.478   0.861  13.235  2.0588 -0.9572  2.1861
  879MPD2     C12941   2.261   2.319  16.989  0.1778  0.4212  0.3958
  879MPD2    C112942   2.195   2.318  17.113 -0.3469  0.3041  0.1315
  879MPD2    C212943   2.068   2.263  17.129 -0.7125  0.3556  0.2661
  879MPD2    C312944   2.016   2.200  17.018  0.2033  0.0868  0.5939
  879MPD2    C412945   2.074   2.209  16.893 -0.6787 -0.2218 -0.3878
  879MPD2    C512946   2.200   2.259  16.879 -0.2962  0.4441 -0.4403
  879MPD2     H12947   2.018   2.272  17.225 -1.2076 -1.9493  0.2298
  879MPD2    H112948   2.026   2.177  16.801 -1.4763 -0.7594  0.2125
  879MPD2    H212949   2.354   2.366  16.961  0.6305 -0.0365  1.1173
  879MPD2    H312950   2.244   2.278  16.782  0.1462  2.8020  0.2299
  879MPD2     N12951   1.886   2.149  17.027  0.5773  0.9807 -0.4864
  879MPD2    H512952   1.858   2.121  16.933  1.4694 -0.1687 -0.4177
  879MPD2    N112953   2.257   2.390  17.220  0.3702  0.7941  0.3653
  879MPD2    H712954   2.338   2.446  17.193  0.1505  0.4706 -0.9684
  880MPD2     C12955   3.738   4.285   1.097 -0.2213 -0.1290 -0.1949
  880MPD2    C112956   3.708   4.254   0.968 -0.3182 -0.9670 -0.1708
  880MPD2    C212957   3.662   4.127   0.932  0.3113 -0.8334  1.0352
  880MPD2    C312958   3.652   4.025   1.020 -0.6086  0.7719  0.6532
  880MPD2    C412959   3.692   4.059   1.147  0.0951  0.4771 -0.6046
  880MPD2    C512960   3.731   4.185   1.186  0.1262  0.0683  0.5300
  880MPD2     H12961   3.628   4.112   0.830  2.5621  0.6393  0.0702
  880MPD2    H112962   3.685   3.978   1.218  1.6689  0.2115 -0.7715
  880MPD2    H212963   3.772   4.382   1.131  0.9551 -0.3915 -0.6035
  880MPD2    H312964   3.760   4.199   1.290 -2.0262 -3.0040  1.5279
  880MPD2     N12965   3.615   3.892   0.979 -0.1672 -0.7338  0.1809
  880MPD2    H512966   3.599   3.882   0.879 -2.3666 -3.0695  0.7680
  880MPD2    N112967   3.714   4.364   0.875  0.0576 -0.3410 -0.5295
  880MPD2    H712968   3.727   4.458   0.912  0.5370 -0.5855 -0.0819
  881MPD2     C12969   3.430   0.226   0.007 -0.5003 -0.0857 -0.0330
  881MPD2    C112970   3.451   0.091  17.720  0.4322 -0.6147  0.1724
  881MPD2    C212971   3.493   0.024   0.108 -0.4407  0.4941 -0.7667
  881MPD2    C312972   3.467   0.085   0.234  0.2371 -0.7123 -0.3442
  881MPD2    C412973   3.420   0.210   0.241  0.2779 -0.1353 -0.6722
  881MPD2    C512974   3.402   0.285   0.127 -0.5009 -0.8864 -0.7180
  881MPD2     H12975   3.533   4.656   0.103 -2.9643 -0.4320 -2.3842
  881MPD2    H112976   3.407   0.259   0.336  1.1751 -4.0279  1.4516
  881MPD2    H212977   3.415   0.280  17.643  0.7234 -0.3598 -0.3971
  881MPD2    H312978   3.371   0.387   0.148 -0.9521 -1.1266 -0.2143
  881MPD2     N12979   3.499   0.021   0.359  0.0866  0.0969 -0.4718
  881MPD2    H512980   3.475   0.083   0.435  3.0713  1.1784 -0.4287
  881MPD2    N112981   3.466   0.053  17.586 -0.7291 -0.4544 -0.1065
  881MPD2    H712982   3.443   0.115  17.510 -1.5593  0.3432  0.7982
  882MPD2     C12983   1.889   1.969  14.134  0.7077 -0.2130  0.1328
  882MPD2    C112984   1.857   1.950  14.265 -0.1270 -0.2012  0.3444
  882MPD2    C212985   1.726   1.932  14.308 -0.6861 -0.0556 -0.7444
  882MPD2    C312986   1.629   1.943  14.214  0.5757  0.1527  0.1798
  882MPD2    C412987   1.660   1.973  14.085 -0.0910 -0.5306 -0.2828
  882MPD2    C512988   1.790   1.979  14.044  0.2793 -0.7215  0.3425
  882MPD2     H12989   1.708   1.910  14.413  0.9042  0.1656 -0.4180
  882MPD2    H112990   1.577   1.994  14.019  0.1879  1.0740 -0.1275
  882MPD2    H212991   1.990   1.964  14.097  0.6059  2.1237 -0.4529
  882MPD2    H312992   1.822   1.991  13.941 -1.0452  0.0807  0.0191
  882MPD2     N12993   1.490   1.932  14.243  0.3282 -0.3805  0.3527
  882MPD2    H512994   1.429   1.924  14.162  1.8902 -0.1667 -0.8603
  882MPD2    N112995   1.963   1.931  14.354 -0.6116 -0.4501  0.2937
  882MPD2    H712996   2.057   1.919  14.315 -0.7573 -0.4294 -0.0665
  883MPD2     C12997   4.025   1.665  16.529  0.0647 -0.4387 -0.2654
  883MPD2    C112998   4.100   1.779  16.503 -0.0629 -0.0782 -0.4379
  883MPD2    C212999   4.217   1.810  16.567 -0.0753 -0.4753 -0.2661
  883MPD2    C313000   4.262   1.735  16.671  0.0717  0.4087 -0.2172
  883MPD2    C413001   4.192   1.618  16.696  0.1052 -0.0201 -0.2053
  883MPD2    C513002   4.077   1.584  16.623 -0.7668  0.6438 -0.1860
  883MPD2     H13003   4.267   1.904  16.546 -0.2302 -0.0613  1.1857
  883MPD2    H113004   4.235   1.550  16.769  0.5160  1.0298  0.5415
  883MPD2    H213005   3.935   1.640  16.475 -0.4055  0.6153  0.0292
  883MPD2    H313006   4.019   1.494  16.636 -0.7777  0.8230  1.0168
  883MPD2     N13007   4.388   1.762  16.726 -0.0003 -0.0515 -0.2233
  883MPD2    H513008   4.437   1.847  16.701 -1.7398  0.3642 -2.1849
  883MPD2    N113009   4.055   1.873  16.404  0.1683 -0.3645  0.6130
  883MPD2    H713010   4.107   1.958  16.383  2.9365 -1.4639  2.9729
  884MPD2     C13011   1.207   2.248  15.311 -0.5992  1.0341 -0.3344
  884MPD2    C113012   1.194   2.385  15.323  0.3699  0.0665  0.2633
  884MPD2    C213013   1.072   2.434  15.356  0.0610 -0.3139 -1.1104
  884MPD2    C313014   0.966   2.352  15.397 -0.4095  0.0905  0.0647
  884MPD2    C413015   0.997   2.219  15.416  0.0833  0.7832  0.1115
  884MPD2    C513016   1.106   2.171  15.362  0.2016 -0.1724 -0.6353
  884MPD2     H13017   1.048   2.539  15.366  1.6906 -0.2216  1.8782
  884MPD2    H113018   0.936   2.141  15.459  1.3832 -0.8875 -1.0903
  884MPD2    H213019   1.294   2.199  15.269 -1.1838 -1.4054  1.2212
  884MPD2    H313020   1.113   2.063  15.350  3.5202 -0.3079  2.4979
  884MPD2     N13021   0.840   2.409  15.428  0.5528  0.2797 -0.0608
  884MPD2    H513022   0.826   2.509  15.422  0.9677  0.4237  1.4782
  884MPD2    N113023   1.302   2.475  15.288  0.3388 -0.5275 -0.2794
  884MPD2    H713024   1.278   2.573  15.288  1.1511 -0.3320  1.3344
  885MPD2     C13025   4.051   2.728   0.590 -0.3189 -0.0498  0.5880
  885MPD2    C113026   4.180   2.716   0.535 -0.6053  0.4670  0.4728
  885MPD2    C213027   4.201   2.694   0.404 -0.5533 -0.5344  0.1009
  885MPD2    C313028   4.096   2.672   0.319  0.1207 -0.0137 -0.1873
  885MPD2    C413029   3.969   2.704   0.369  0.1001 -0.2848  0.1710
  885MPD2    C513030   3.950   2.731   0.504  0.1350 -0.3720  0.2273
  885MPD2     H13031   4.304   2.687   0.368 -0.2125 -2.0136  1.3559
  885MPD2    H113032   3.880   2.719   0.309 -1.1152 -0.3232  1.9552
  885MPD2    H213033   4.040   2.737   0.697  0.8739  1.7775  0.5567
  885MPD2    H313034   3.852   2.757   0.542 -0.3688 -0.4910 -1.0123
  885MPD2     N13035   4.120   2.621   0.189  0.3231 -0.3470  0.4856
  885MPD2    H513036   4.216   2.622   0.158 -1.0286  0.2465 -3.6963
  885MPD2    N113037   4.296   2.737   0.611  0.3200 -0.4330  0.3874
  885MPD2    H713038   4.380   2.764   0.562 -0.0772 -1.4447 -0.8367
  886MPD2     C13039   0.949   0.747  15.165  0.4849  0.2848  0.2994
  886MPD2    C113040   0.884   0.803  15.269  0.0291 -0.1597  0.3320
  886MPD2    C213041   0.840   0.942  15.258 -0.5492 -1.4860  0.2017
  886MPD2    C313042   0.859   1.008  15.139 -0.9847  0.1623  0.1157
  886MPD2    C413043   0.948   0.958  15.044 -0.2447  0.0063 -0.2675
  886MPD2    C513044   0.995   0.830  15.060  0.0450  0.1381 -0.3780
  886MPD2     H13045   0.793   0.987  15.344 -0.9444 -3.4107  1.0070
  886MPD2    H113046   0.980   1.019  14.961 -0.0152  1.1586  0.6788
  886MPD2    H213047   1.006   0.656  15.177  0.1080 -0.0451 -0.4172
  886MPD2    H313048   1.058   0.791  14.980  0.7327 -2.9858  1.6695
  886MPD2     N13049   0.816   1.135  15.108  0.0882  0.2972  0.0013
  886MPD2    H513050   0.866   1.182  15.033 -0.9268  0.2384 -0.7034
  886MPD2    N113051   0.858   0.742  15.395 -0.0059  0.6196  0.2370
  886MPD2    H713052   0.807   0.795  15.465  2.3290 -0.6917  2.9119
  887MPD2     C13053   1.182   0.779  16.042 -0.1115  0.1488 -0.0058
  887MPD2    C113054   1.135   0.834  15.921  0.1427 -0.0715 -0.1167
  887MPD2    C213055   1.218   0.931  15.871 -0.5095 -0.5779 -0.2951
  887MPD2    C313056   1.332   0.979  15.930 -0.2829  0.0776 -0.4262
  887MPD2    C413057   1.376   0.924  16.051 -0.0796  0.0653  0.5489
  887MPD2    C513058   1.294   0.825  16.095  0.4455  0.3918 -0.2044
  887MPD2     H13059   1.195   0.979  15.776 -0.9917 -2.5991 -1.2030
  887MPD2    H113060   1.466   0.946  16.107  0.7154  0.3544 -0.8362
  887MPD2    H213061   1.128   0.703  16.097  0.5136  1.0649  1.8697
  887MPD2    H313062   1.330   0.766  16.177 -1.5102 -1.1228 -0.4501
  887MPD2     N13063   1.395   1.091  15.872 -0.1238 -0.3876  0.3660
  887MPD2    H513064   1.355   1.129  15.786  2.6065 -0.0394 -0.7577
  887MPD2    N113065   1.024   0.792  15.841  0.3210 -0.0886  0.2027
  887MPD2    H713066   1.015   0.834  15.749 -1.7541 -0.4170  0.2451
  888MPD2     C13067   2.988   1.145  15.081 -0.3530  0.3245  0.8734
  888MPD2    C113068   3.041   1.172  15.204 -0.5275 -0.2303  0.1944
  888MPD2    C213069   3.096   1.300  15.235  0.0899 -0.1931  0.2195
  888MPD2    C313070   3.094   1.393  15.135 -0.0184  0.7710 -0.5153
  888MPD2    C413071   3.038   1.365  15.014 -0.6786  0.2521 -0.3323
  888MPD2    C513072   2.991   1.238  14.981 -1.2478 -0.4593 -0.2252
  888MPD2     H13073   3.153   1.325  15.324  1.9668  0.0132 -1.0362
  888MPD2    H113074   3.038   1.438  14.934 -0.5672  1.7181  1.0013
  888MPD2    H213075   2.952   1.045  15.057  0.8301 -0.4596  2.3277
  888MPD2    H313076   2.961   1.210  14.881  1.6566 -0.1649 -1.1782
  888MPD2     N13077   3.162   1.514  15.161 -0.4533 -0.1818  0.4245
  888MPD2    H513078   3.178   1.542  15.258 -0.1472 -0.3749  0.4281
  888MPD2    N113079   3.044   1.062  15.293 -0.6769  0.0027  0.7489
  888MPD2    H713080   3.007   0.978  15.249 -1.6409  0.9028 -0.1650
  889MPD2     C13081   2.698   1.051  13.115 -0.7106 -0.1139 -0.7021
  889MPD2    C113082   2.578   1.011  13.182 -0.0177 -0.9244 -0.0037
  889MPD2    C213083   2.532   1.080  13.291 -0.2683 -0.1544 -0.4309
  889MPD2    C313084   2.597   1.197  13.329  0.8702 -0.3725 -0.3024
  889MPD2    C413085   2.703   1.236  13.254  0.2599  0.6319  0.7482
  889MPD2    C513086   2.755   1.170  13.153 -0.6269  0.3524 -0.2986
  889MPD2     H13087   2.453   1.042  13.355 -1.3415  0.7329 -1.2258
  889MPD2    H113088   2.760   1.323  13.282  1.7949 -0.0506 -0.2801
  889MPD2    H213089   2.745   0.997  13.034 -0.0006  1.4653 -1.3549
  889MPD2    H313090   2.843   1.211  13.104  0.3713 -1.2503  0.1624
  889MPD2     N13091   2.556   1.281  13.436 -0.5484 -0.1451  0.2208
  889MPD2    H513092   2.464   1.259  13.474  0.0651 -3.1343 -0.0330
  889MPD2    N113093   2.539   0.877  13.165  0.1398  0.2425 -0.4200
  889MPD2    H713094   2.602   0.814  13.116 -0.9888  0.0012 -1.5762
  890MPD2     C13095   1.777   2.437  14.946 -0.3744 -0.4798 -0.4627
  890MPD2    C113096   1.856   2.535  14.999  1.1460 -0.7134  1.1226
  890MPD2    C213097   1.902   2.524  15.124  0.6309 -0.2506  0.3315
  890MPD2    C313098   1.864   2.414  15.204 -0.5972 -0.2934  0.3834
  890MPD2    C413099   1.779   2.322  15.145  0.0650 -0.5121  1.1405
  890MPD2    C513100   1.740   2.331  15.014  0.1682 -0.3587  0.1210
  890MPD2     H13101   1.959   2.597  15.181 -1.6443  0.9933  1.0064
  890MPD2    H113102   1.753   2.227  15.191  0.4126 -1.4064 -0.4760
  890MPD2    H213103   1.750   2.446  14.841 -0.0689 -0.2527 -0.5201
  890MPD2    H313104   1.661   2.267  14.976  0.8408 -1.7943  1.1711
  890MPD2     N13105   1.921   2.386  15.323 -0.2330  0.1448  0.0932
  890MPD2    H513106   1.996   2.447  15.354 -0.7923  0.0257  1.6719
  890MPD2    N113107   1.885   2.641  14.909  0.0498  0.1971  0.5127
  890MPD2    H713108   1.838   2.652  14.820 -0.8218  0.9559  1.0620
  891MPD2     C13109   0.369   1.439  16.712  0.5949 -0.4655  1.0206
  891MPD2    C113110   0.275   1.393  16.797  0.3273 -0.1955 -0.2605
  891MPD2    C213111   0.315   1.331  16.915 -0.3206 -0.2754 -1.3008
  891MPD2    C313112   0.450   1.307  16.934  0.3170 -0.1566  0.0924
  891MPD2    C413113   0.542   1.370  16.857  0.2448  0.9268  0.0076
  891MPD2    C513114   0.499   1.436  16.745 -0.3941  0.8027  0.9198
  891MPD2     H13115   0.241   1.284  16.979  0.8706 -0.1603  0.1568
  891MPD2    H113116   0.649   1.365  16.870  0.1682 -0.8030 -0.0222
  891MPD2    H213117   0.338   1.497  16.626  0.1742 -2.6109 -0.2552
  891MPD2    H313118   0.568   1.495  16.685 -1.1709 -0.8493 -1.5862
  891MPD2     N13119   0.484   1.213  17.035  0.1004  0.4556 -0.3217
  891MPD2    H513120   0.411   1.172  17.092  0.1255 -2.1564 -2.1555
  891MPD2    N113121   0.146   1.402  16.750  0.2230  0.0708  0.6756
  891MPD2    H713122   0.132   1.428  16.653  0.5336 -1.5616  0.1893
  892MPD2     C13123   1.000   1.971  15.109  0.2892  0.3490  0.0156
  892MPD2    C113124   0.900   1.947  15.014 -0.4900 -0.6838  0.4561
  892MPD2    C213125   0.943   1.910  14.888 -0.1770  0.1537 -1.0131
  892MPD2    C313126   1.071   1.886  14.850  0.2786  0.0764 -0.1261
  892MPD2    C413127   1.167   1.896  14.949  1.0318 -0.3380 -0.8535
  892MPD2    C513128   1.134   1.941  15.071  0.3557 -0.5159 -0.6633
  892MPD2     H13129   0.868   1.905  14.810  0.4066 -0.7306 -1.5154
  892MPD2    H113130   1.270   1.877  14.921  1.0737 -1.2449 -0.0830
  892MPD2    H213131   0.976   2.019  15.203 -1.6011 -0.0210 -0.2788
  892MPD2    H313132   1.215   1.959  15.141 -0.1036  0.3578 -0.3607
  892MPD2     N13133   1.113   1.847  14.719  0.9737  0.4674  0.1097
  892MPD2    H513134   1.213   1.847  14.702  1.1458  0.5029  1.1553
  892MPD2    N113135   0.766   1.976  15.045  0.2581 -0.3095  0.1039
  892MPD2    H713136   0.697   1.979  14.970 -0.6056  0.6052  0.9352
  893MPD2     C13137   3.462   0.970   1.889 -0.0304  0.9283  0.1889
  893MPD2    C113138   3.388   1.044   1.797 -0.5237 -0.4633 -0.0705
  893MPD2    C213139   3.255   1.078   1.821  0.2575 -0.5217  0.6404
  893MPD2    C313140   3.196   1.024   1.935 -0.0328 -0.2554 -0.4198
  893MPD2    C413141   3.272   0.949   2.030 -0.6102  0.1102  0.0017
  893MPD2    C513142   3.406   0.925   2.003  0.4425  0.4866  0.4391
  893MPD2     H13143   3.183   1.106   1.745  2.4304  0.9255 -0.8566
  893MPD2    H113144   3.232   0.905   2.120  0.7718 -2.4103 -0.6132
  893MPD2    H213145   3.564   0.940   1.865 -0.6539 -1.3862  0.3912
  893MPD2    H313146   3.454   0.874   2.085  1.0463 -0.2118 -0.3511
  893MPD2     N13147   3.060   1.030   1.969 -0.7204 -1.1176  0.3995
  893MPD2    H513148   3.038   0.987   2.058  1.4053  2.1773  2.5308
  893MPD2    N113149   3.452   1.083   1.682 -0.1561 -0.2487  0.3970
  893MPD2    H713150   3.546   1.045   1.670  0.7856  2.6720 -1.4870
  894MPD2     C13151   0.749   2.560   1.139  0.6676 -0.5336 -0.6435
  894MPD2    C113152   0.729   2.640   1.250 -0.1730  0.5468 -0.9711
  894MPD2    C213153   0.817   2.745   1.271  0.0881  0.6810  0.8845
  894MPD2    C313154   0.910   2.786   1.175  0.6542 -0.4476  0.2623
  894MPD2    C413155   0.914   2.719   1.063 -0.1085 -0.6593 -0.1400
  894MPD2    C513156   0.842   2.603   1.048  0.4581 -0.1779  0.1576
  894MPD2     H13157   0.795   2.802   1.360 -1.9712 -0.2791  0.9726
  894MPD2    H113158   0.990   2.744   0.989 -0.5302  0.8142 -0.0834
  894MPD2    H213159   0.696   2.466   1.132  2.3716 -1.6342  0.9958
  894MPD2    H313160   0.856   2.531   0.967  0.5723 -1.1935  1.0762
  894MPD2     N13161   0.983   2.911   1.202 -0.4889 -0.4213  0.2407
  894MPD2    H513162   0.957   2.963   1.285 -2.5965 -1.0761 -0.0114
  894MPD2    N113163   0.647   2.591   1.356 -0.3169 -0.7077 -0.2802
  894MPD2    H713164   0.661   2.632   1.448  0.1545 -0.4464 -0.4694
  895MPD2     C13165   0.556   1.647  13.251  0.2257 -1.1891  0.2141
  895MPD2    C113166   0.486   1.553  13.176  0.6684  0.1302 -0.2417
  895MPD2    C213167   0.434   1.442  13.241  0.0013  0.2817 -0.6937
  895MPD2    C313168   0.447   1.427  13.381  0.2720 -0.3438  0.0728
  895MPD2    C413169   0.518   1.521  13.454 -0.1144  0.0294 -0.0383
  895MPD2    C513170   0.563   1.633  13.383  0.1831  0.0048  0.4638
  895MPD2     H13171   0.369   1.372  13.190  1.3154 -0.5344 -1.2551
  895MPD2    H113172   0.531   1.512  13.561 -1.0695 -2.1427 -0.0970
  895MPD2    H213173   0.603   1.728  13.195  0.6671 -0.3572  1.8042
  895MPD2    H313174   0.627   1.707  13.430  0.2955  0.7006 -0.7882
  895MPD2     N13175   0.375   1.323  13.442 -0.0008  0.6944 -0.0033
  895MPD2    H513176   0.331   1.259  13.376 -0.3039  1.4426 -0.5302
  895MPD2    N113177   0.446   1.573  13.041  0.8425 -0.3536  0.7126
  895MPD2    H713178   0.398   1.494  12.999 -0.0356  1.2367 -1.3059
  896MPD2     C13179   2.876   3.690   1.197  0.2631 -0.0520 -0.1956
  896MPD2    C113180   2.893   3.781   1.299 -0.1253  0.5255  0.4066
  896MPD2    C213181   2.801   3.776   1.400  0.2150  0.1611  0.2543
  896MPD2    C313182   2.703   3.683   1.411  0.2469 -0.1426 -0.9518
  896MPD2    C413183   2.698   3.578   1.319  0.5040  0.8404 -0.2393
  896MPD2    C513184   2.788   3.584   1.213  0.7809 -0.1989  0.4526
  896MPD2     H13185   2.801   3.849   1.480  1.6671  0.7930 -0.3228
  896MPD2    H113186   2.631   3.492   1.321  0.5899  0.8198  1.6149
  896MPD2    H213187   2.937   3.694   1.107 -0.7593 -0.9371 -0.9318
  896MPD2    H313188   2.786   3.502   1.142 -1.7441 -0.7805  1.1884
  896MPD2     N13189   2.617   3.686   1.527  0.1586 -0.1661  0.2531
  896MPD2    H513190   2.625   3.773   1.580  1.7084  0.9311 -1.7949
  896MPD2    N113191   3.002   3.871   1.289  0.0481  0.1995  0.4578
  896MPD2    H713192   3.069   3.852   1.216 -1.3297 -0.2849 -0.6830
  897MPD2     C13193   3.375   0.269  10.243  0.7681  0.3833  0.0788
  897MPD2    C113194   3.348   0.411  10.236 -0.4609  0.9925  0.2979
  897MPD2    C213195   3.294   0.470  10.350 -0.6940 -0.3292 -0.3482
  897MPD2    C313196   3.280   0.391  10.466  0.3177 -0.3153 -0.0942
  897MPD2    C413197   3.315   0.257  10.468  0.2060 -0.5306  0.2279
  897MPD2    C513198   3.356   0.193  10.360  0.5424 -0.9028  0.4459
  897MPD2     H13199   3.247   0.568  10.350 -0.0785 -0.0191  1.1930
  897MPD2    H113200   3.303   0.190  10.553  1.4562 -2.3620 -1.0450
  897MPD2    H213201   3.403   0.222  10.149  0.9196  0.2287  0.2027
  897MPD2    H313202   3.380   0.088  10.368 -1.5694 -1.4787 -0.9461
  897MPD2     N13203   3.219   0.443  10.579  0.3205 -0.2686 -0.4847
  897MPD2    H513204   3.168   0.530  10.571 -1.9117 -1.4891  0.6045
  897MPD2    N113205   3.353   0.475  10.112 -0.5282 -0.0450  0.2098
  897MPD2    H713206   3.390   0.429  10.030 -0.8123  2.5410 -1.3564
  898MPD2     C13207   1.551   1.429   0.927  0.3160  0.2567  0.2223
  898MPD2    C113208   1.618   1.513   0.842  0.5217  0.2325  0.0275
  898MPD2    C213209   1.558   1.566   0.728  0.0631  1.0059  0.6512
  898MPD2    C313210   1.432   1.540   0.703 -0.3326 -0.0558 -0.1804
  898MPD2    C413211   1.356   1.463   0.791 -0.7067 -0.6701 -0.7719
  898MPD2    C513212   1.420   1.403   0.899 -0.0917  0.1386 -1.0305
  898MPD2     H13213   1.608   1.637   0.661  2.1197  0.8051  1.9718
  898MPD2    H113214   1.257   1.425   0.770 -0.7888 -0.1198 -1.4020
  898MPD2    H213215   1.604   1.374   1.004 -2.0697 -1.5941  0.5072
  898MPD2    H313216   1.366   1.332   0.960  0.7082  0.4610  0.0440
  898MPD2     N13217   1.376   1.582   0.578 -0.0496  0.5070 -0.5998
  898MPD2    H513218   1.446   1.626   0.519  0.2088 -0.6230 -1.1295
  898MPD2    N113219   1.741   1.556   0.867  0.6513  1.3358  0.2491
  898MPD2    H713220   1.773   1.639   0.817  1.0328  1.2590  0.3692
  899MPD2     C13221   1.902   2.092   0.063 -0.3920  0.1021 -0.2609
  899MPD2    C113222   1.813   2.174   0.008  0.3146 -0.4247  0.6267
  899MPD2    C213223   1.698   2.207   0.084 -0.1346 -0.2230 -0.5364
  899MPD2    C313224   1.684   2.169   0.221  0.0894 -0.0442  0.7254
  899MPD2    C413225   1.783   2.078   0.270  0.5274 -0.0940  0.8844
  899MPD2    C513226   1.881   2.038   0.191  0.0657  0.4773 -0.1252
  899MPD2     H13227   1.620   2.268   0.041 -0.6309 -0.0136  0.6453
  899MPD2    H113228   1.793   2.034   0.368  1.3322 -0.1952  0.7590
  899MPD2    H213229   1.987   2.058   0.005 -0.8168  1.1309 -1.4897
  899MPD2    H313230   1.945   1.959   0.229  1.9279  1.2326 -1.6990
  899MPD2     N13231   1.583   2.216   0.302 -0.5137  0.6649 -0.1143
  899MPD2    H513232   1.583   2.168   0.391  0.4217  1.2541  0.2022
  899MPD2    N113233   1.836   2.233  17.613 -0.1021 -0.3153  0.5627
  899MPD2    H713234   1.926   2.224  17.568 -0.0087  2.0469  0.2535
  900MPD2     C13235   1.237   3.744  12.338 -0.5721 -0.0204  0.5211
  900MPD2    C113236   1.153   3.643  12.281  0.2172 -0.6376 -0.7387
  900MPD2    C213237   1.029   3.679  12.237  0.3059  0.4621 -0.4988
  900MPD2    C313238   0.983   3.817  12.249 -0.0576 -0.3036  0.2125
  900MPD2    C413239   1.072   3.911  12.288  0.0251 -0.6377 -0.0154
  900MPD2    C513240   1.194   3.874  12.334  0.7813 -0.6458  0.3049
  900MPD2     H13241   0.966   3.600  12.197  1.2794 -0.5590 -0.0150
  900MPD2    H113242   1.050   4.017  12.280 -0.6296 -0.8325 -0.7876
  900MPD2    H213243   1.340   3.727  12.368 -0.3973 -1.3398 -0.8292
  900MPD2    H313244   1.267   3.941  12.377 -0.3657  0.7109  0.1236
  900MPD2     N13245   0.847   3.842  12.221  0.4449  0.0536 -0.4568
  900MPD2    H513246   0.802   3.760  12.181  1.0201  0.6486 -2.3431
  900MPD2    N113247   1.198   3.511  12.291  0.0493 -0.0525  0.4206
  900MPD2    H713248   1.288   3.494  12.334  1.7693  2.2185 -2.3001
  901MPD2     C13249   1.117   2.462  12.179 -0.6596  0.3127 -1.4882
  901MPD2    C113250   1.156   2.460  12.311  0.4565  0.2939 -0.5993
  901MPD2    C213251   1.170   2.580  12.381  0.0878  0.5320  0.3055
  901MPD2    C313252   1.147   2.699  12.312 -0.2258  0.1751  0.0638
  901MPD2    C413253   1.122   2.695  12.174 -0.0848  0.3443 -0.1609
  901MPD2    C513254   1.103   2.574  12.112 -0.0875 -0.0097  0.6745
  901MPD2     H13255   1.191   2.577  12.488  1.0025  1.5766  0.1674
  901MPD2    H113256   1.098   2.779  12.109 -0.4605  1.4780  1.4414
  901MPD2    H213257   1.107   2.366  12.129 -1.6572 -2.1796  3.4841
  901MPD2    H313258   1.070   2.572  12.008 -0.3054  0.6352  0.7306
  901MPD2     N13259   1.157   2.824  12.375 -0.7379  0.1971 -0.2432
  901MPD2    H513260   1.204   2.828  12.465 -3.2956  0.2239  1.0772
  901MPD2    N113261   1.190   2.330  12.356  0.0894 -0.1704 -0.6337
  901MPD2    H713262   1.180   2.254  12.289  0.2308  0.0479 -0.9071
  902MPD2     C13263   0.417   1.297  11.769 -0.4495  0.4492  0.4422
  902MPD2    C113264   0.276   1.293  11.778  0.5734 -0.2424 -0.0016
  902MPD2    C213265   0.210   1.170  11.771  0.0106  0.4866 -0.1428
  902MPD2    C313266   0.285   1.053  11.749 -0.7670 -0.2752 -0.3381
  902MPD2    C413267   0.420   1.056  11.740 -0.3503  0.6130 -0.2252
  902MPD2    C513268   0.482   1.175  11.754 -1.5591  0.6576 -0.2203
  902MPD2     H13269   0.102   1.165  11.778 -0.0652  1.1101 -0.8643
  902MPD2    H113270   0.480   0.967  11.726  2.9104  2.4720  2.0797
  902MPD2    H213271   0.480   1.385  11.766 -3.8383  2.8938  0.3032
  902MPD2    H313272   0.591   1.182  11.753 -1.5248 -0.0036 -0.8563
  902MPD2     N13273   0.234   0.928  11.734  0.3542 -0.1788  0.6929
  902MPD2    H513274   0.291   0.862  11.682 -0.5094 -1.8623  1.8880
  902MPD2    N113275   0.205   1.411  11.797  0.6363  0.1689  0.3167
  902MPD2    H713276   0.257   1.491  11.831  1.2262  0.3526 -0.9878
  903MPD2     C13277   4.193   0.615  11.411  0.1519 -0.0136  0.2903
  903MPD2    C113278   4.242   0.608  11.536 -0.0167  0.5301 -1.0730
  903MPD2    C213279   4.152   0.591  11.645 -0.6262  0.4879 -0.3080
  903MPD2    C313280   4.014   0.595  11.628  0.7508  0.0295  0.3756
  903MPD2    C413281   3.963   0.585  11.501  0.7377 -0.7281 -0.0418
  903MPD2    C513282   4.055   0.590  11.394 -0.0400 -0.2724  0.0423
  903MPD2     H13283   4.184   0.608  11.747 -0.8269 -0.3383 -0.1131
  903MPD2    H113284   3.859   0.564  11.478  0.5858 -1.6062  1.4089
  903MPD2    H213285   4.260   0.628  11.326 -0.1260 -0.0312  0.0696
  903MPD2    H313286   4.012   0.579  11.295  1.9012 -1.0284 -0.7053
  903MPD2     N13287   3.931   0.587  11.739  0.0593  1.1090  0.1108
  903MPD2    H513288   3.979   0.575  11.827  1.3008  1.3863 -0.5260
  903MPD2    N113289   4.380   0.638  11.549 -0.3962 -0.1954  0.2224
  903MPD2    H713290   4.430   0.666  11.465 -1.1176 -0.7571 -0.3922
  904MPD2     C13291   4.594   0.550  13.988  0.3431  0.4099 -0.4687
  904MPD2    C113292   4.591   0.583  14.124 -0.2089  0.1274 -0.0792
  904MPD2    C213293   4.708   0.552  14.201 -0.0111 -0.2527 -0.6305
  904MPD2    C313294   0.088   0.499  14.148  0.1785 -0.0518  0.1348
  904MPD2    C413295   0.088   0.472  14.013 -0.0531  0.2962  0.6435
  904MPD2    C513296   4.706   0.490  13.939  0.8335 -0.6094  0.8363
  904MPD2     H13297   4.697   0.583  14.304  0.0887  2.3758 -1.4157
  904MPD2    H113298   0.175   0.429  13.964  0.0496 -0.2915  1.3447
  904MPD2    H213299   4.514   0.578  13.921  0.1641  1.7913  0.3180
  904MPD2    H313300   4.695   0.456  13.837  3.2741 -1.1735  0.7495
  904MPD2     N13301   0.201   0.470  14.233  0.7089  0.0874  0.6754
  904MPD2    H513302   0.193   0.487  14.333  1.0802  0.6718  0.6005
  904MPD2    N113303   4.496   0.663  14.182 -0.6252  0.8129  0.1053
  904MPD2    H713304   4.529   0.704  14.269 -0.6008  1.1744 -0.0737
  905MPD2     C13305   4.195   0.981  13.605 -0.2273  0.4221  0.5098
  905MPD2    C113306   4.291   1.021  13.694  0.1566 -0.2701 -0.1455
  905MPD2    C213307   4.416   1.051  13.645  0.2552  0.5947  0.2865
  905MPD2    C313308   4.452   1.016  13.518 -0.5171  0.3403 -0.6230
  905MPD2    C413309   4.357   0.980  13.427  0.3597  0.7895  0.1253
  905MPD2    C513310   4.231   0.957  13.472  0.4810  0.4570 -0.0172
  905MPD2     H13311   4.496   1.091  13.707  0.2061  1.2194 -0.0586
  905MPD2    H113312   4.390   0.969  13.324 -1.1221 -1.7332 -0.0663
  905MPD2    H213313   4.095   0.956  13.636 -0.7837  1.5123 -0.4099
  905MPD2    H313314   4.159   0.923  13.399 -0.6198 -1.3727  1.9238
  905MPD2     N13315   4.582   1.040  13.471  0.7359 -0.0218 -0.5639
  905MPD2    H513316   4.617   0.996  13.386 -1.7655  0.0083 -1.6165
  905MPD2    N113317   4.267   1.042  13.831  1.0316  0.1630  0.2608
  905MPD2    H713318   4.341   1.087  13.883  0.6197  0.2462  0.7756
  906MPD2     C13319   1.916   0.593  11.512 -0.3877 -1.2374 -0.5425
  906MPD2    C113320   1.914   0.504  11.407 -0.2719 -0.6172  0.2430
  906MPD2    C213321   1.834   0.394  11.425 -0.2911  0.0692 -0.3540
  906MPD2    C313322   1.774   0.366  11.551  0.2464 -0.3655  0.1347
  906MPD2    C413323   1.789   0.461  11.655  0.0377  0.6906  0.0888
  906MPD2    C513324   1.852   0.578  11.632  0.0193  0.0098  0.5118
  906MPD2     H13325   1.835   0.331  11.337 -2.8414 -1.7997  0.9309
  906MPD2    H113326   1.758   0.442  11.756  1.2289  0.2338  0.3729
  906MPD2    H213327   1.957   0.691  11.487 -1.3852 -0.1820  1.9278
  906MPD2    H313328   1.865   0.654  11.709  2.3948 -0.3762  0.4826
  906MPD2     N13329   1.689   0.255  11.574  1.0965  0.7697 -0.6282
  906MPD2    H513330   1.631   0.253  11.657  0.7066  0.9868 -0.8963
  906MPD2    N113331   1.953   0.532  11.270 -0.1768 -0.2371  0.1652
  906MPD2    H713332   1.940   0.459  11.200 -0.8337  0.1160 -0.0812
  907MPD2     C13333   1.337   4.531  16.113 -0.5631 -0.0124 -0.5692
  907MPD2    C113334   1.341   4.404  16.064 -0.2362  0.1387 -0.3995
  907MPD2    C213335   1.376   4.301  16.143  0.3315  0.0065  0.2069
  907MPD2    C313336   1.405   4.322  16.277 -0.0491  0.0254  0.3438
  907MPD2    C413337   1.404   4.448  16.333  0.4252 -0.7197 -0.0780
  907MPD2    C513338   1.375   4.552  16.247 -0.3458  0.2344  0.4837
  907MPD2     H13339   1.393   4.201  16.104  1.5979  0.3224 -0.0583
  907MPD2    H113340   1.413   4.468  16.439 -0.9876 -0.1063 -0.0727
  907MPD2    H213341   1.308   4.612  16.047 -1.9324  1.8009  2.2605
  907MPD2    H313342   1.367   4.649  16.294  0.4932  1.5800 -2.1491
  907MPD2     N13343   1.444   4.204  16.352  0.0611  0.0499 -0.4858
  907MPD2    H513344   1.447   4.120  16.295 -0.2222 -1.5376  1.8667
  907MPD2    N113345   1.315   4.371  15.931 -0.2399 -0.2467 -0.1939
  907MPD2    H713346   1.320   4.271  15.915  2.0280 -0.0375 -0.8031
  908MPD2     C13347   3.562   0.175   9.353  0.2173 -0.0578  0.0902
  908MPD2    C113348   3.514   0.126   9.473  0.5715 -0.1063  0.4546
  908MPD2    C213349   3.518   0.206   9.582 -0.6140 -0.5689 -0.3924
  908MPD2    C313350   3.578   0.328   9.574 -0.2051  0.1001  0.2678
  908MPD2    C413351   3.617   0.374   9.451  0.3059 -0.1895 -0.6623
  908MPD2    C513352   3.619   0.296   9.351  0.4234 -0.5128 -0.0362
  908MPD2     H13353   3.476   0.179   9.679  0.4148 -1.3539 -0.1711
  908MPD2    H113354   3.672   0.465   9.432 -2.1606  1.7224  1.3866
  908MPD2    H213355   3.567   0.119   9.260 -2.4894  0.3314 -0.2837
  908MPD2    H313356   3.653   0.341   9.258 -1.4188  0.9080 -0.0189
  908MPD2     N13357   3.567   0.419   9.684  0.2646  0.6762  0.4748
  908MPD2    H513358   3.518   0.389   9.767 -0.1052 -0.9455 -0.3115
  908MPD2    N113359   3.478   4.722   9.476  0.5110  0.2682 -0.4905
  908MPD2    H713360   3.498   4.667   9.393  2.2492  0.6394 -0.3344
  909MPD2     C13361   3.489   3.297  11.745 -0.8017  0.1502  0.2631
  909MPD2    C113362   3.515   3.433  11.733 -0.0271 -0.4836 -0.4874
  909MPD2    C213363   3.469   3.514  11.833 -0.0759  0.5017 -0.0127
  909MPD2    C313364   3.402   3.466  11.941  0.4722  0.0147  0.3575
  909MPD2    C413365   3.374   3.328  11.955 -0.3894  0.5720  0.4274
  909MPD2    C513366   3.417   3.247  11.854 -0.4533 -0.4825  0.5887
  909MPD2     H13367   3.475   3.622  11.828  1.1779  0.4267 -0.3008
  909MPD2    H113368   3.327   3.276  12.037 -1.4634  1.1643  0.1832
  909MPD2    H213369   3.526   3.229  11.669  0.6256 -1.4766  2.3984
  909MPD2    H313370   3.393   3.141  11.863  1.8722 -1.0240  0.4934
  909MPD2     N13371   3.345   3.563  12.037 -0.5153  0.5706  0.9210
  909MPD2    H513372   3.362   3.659  12.009  0.0613 -0.3834 -1.9710
  909MPD2    N113373   3.592   3.501  11.639  0.9017  0.4554  0.1566
  909MPD2    H713374   3.616   3.597  11.663  0.4506  0.2641  1.3595
  910MPD2     C13375   0.508   0.353  16.115 -0.3860  0.0426  0.4124
  910MPD2    C113376   0.594   0.306  16.019 -0.3143  0.0615  0.4193
  910MPD2    C213377   0.562   0.293  15.890  0.1104  0.2894 -0.5431
  910MPD2    C313378   0.445   0.346  15.839  0.1413  0.3887  0.3043
  910MPD2    C413379   0.354   0.385  15.935 -0.0585 -0.4278 -0.3585
  910MPD2    C513380   0.390   0.404  16.065  0.6425  0.6147  0.0181
  910MPD2     H13381   0.635   0.259  15.818  1.4252  0.9740  0.4624
  910MPD2    H113382   0.253   0.408  15.903  0.9715  0.6584 -2.8741
  910MPD2    H213383   0.524   0.369  16.221  1.2398  1.0782  0.0065
  910MPD2    H313384   0.317   0.456  16.126  0.5698  0.2335  0.2547
  910MPD2     N13385   0.411   0.345  15.702 -0.2866 -0.3564  0.3756
  910MPD2    H513386   0.320   0.383  15.680 -0.1307 -0.4501 -0.4385
  910MPD2    N113387   0.712   0.245  16.060 -0.1105  0.0983 -0.4951
  910MPD2    H713388   0.771   0.200  15.990 -1.8555 -1.1890 -1.1350
  911MPD2     C13389   3.305   0.732  16.643 -0.1116 -0.3057  0.2222
  911MPD2    C113390   3.373   0.798  16.543  0.5874  0.2327  0.0549
  911MPD2    C213391   3.308   0.888  16.461  0.1699 -1.5122  0.5563
  911MPD2    C313392   3.173   0.914  16.486  0.3990 -0.1277 -0.1348
  911MPD2    C413393   3.107   0.858  16.597  0.5623 -0.7029 -0.0784
  911MPD2    C513394   3.175   0.759  16.669  0.6956 -0.3365  0.3405
  911MPD2     H13395   3.350   0.925  16.368 -0.0959 -1.3682  0.4941
  911MPD2    H113396   3.003   0.877  16.621  0.8801 -0.1508  0.8760
  911MPD2    H213397   3.365   0.671  16.710 -0.3236  0.2409  0.9106
  911MPD2    H313398   3.133   0.707  16.754  3.0403 -1.6134  0.7442
  911MPD2     N13399   3.108   0.988  16.387 -0.1816 -0.1871 -0.3172
  911MPD2    H513400   3.163   1.017  16.308  1.2228 -1.2615  0.2737
  911MPD2    N113401   3.509   0.775  16.532 -0.7166  0.2647  0.4165
  911MPD2    H713402   3.555   0.733  16.612  1.1556 -0.3027 -0.9494
  912MPD2     C13403   2.717   0.951  15.682  0.2745 -0.3437  0.3656
  912MPD2    C113404   2.690   0.964  15.822  0.2071 -0.6632  0.1292
  912MPD2    C213405   2.628   0.861  15.888 -0.0194  0.3300 -0.1399
  912MPD2    C313406   2.597   0.746  15.822 -0.0031 -0.2719  0.1896
  912MPD2    C413407   2.625   0.734  15.689 -0.1113 -0.8922 -0.6484
  912MPD2    C513408   2.686   0.836  15.619  0.0836 -0.7485 -1.0501
  912MPD2     H13409   2.627   0.862  15.997  2.1112 -1.4064 -0.1054
  912MPD2    H113410   2.585   0.652  15.630  0.1121 -3.0514  2.2268
  912MPD2    H213411   2.771   1.033  15.636 -1.0517  0.0463 -0.5248
  912MPD2    H313412   2.700   0.821  15.512  4.1104 -0.3834 -0.5602
  912MPD2     N13413   2.543   0.641  15.897 -0.5951 -0.5354  0.4608
  912MPD2    H513414   2.538   0.655  15.997  0.5358 -0.4189  0.4944
  912MPD2    N113415   2.763   1.063  15.899 -0.3784 -0.0765 -0.1845
  912MPD2    H713416   2.832   1.117  15.849 -0.1238 -0.0393  0.2096
  913MPD2     C13417   2.718   2.832  10.004 -0.1017 -0.3456  0.4249
  913MPD2    C113418   2.826   2.864  10.085  0.2806 -0.0047 -0.3545
  913MPD2    C213419   2.886   2.990  10.073  0.1134  0.3916  0.5305
  913MPD2    C313420   2.853   3.085   9.975  0.2728 -0.3826 -0.8447
  913MPD2    C413421   2.743   3.055   9.902  0.5919  0.2547  0.0064
  913MPD2    C513422   2.678   2.934   9.915  0.2542 -0.8572  0.9065
  913MPD2     H13423   2.980   3.015  10.121 -0.0663 -1.8920  2.0935
  913MPD2    H113424   2.694   3.123   9.834 -1.0817 -2.3013 -1.3049
  913MPD2    H213425   2.675   2.733   9.996 -2.1336  0.4960  1.0689
  913MPD2    H313426   2.610   2.897   9.838  0.6965 -1.3180  0.7346
  913MPD2     N13427   2.910   3.213   9.957  0.8751  0.1416  0.0868
  913MPD2    H513428   2.868   3.265   9.880  0.1780 -0.7311 -0.1237
  913MPD2    N113429   2.871   2.764  10.174  0.4808  0.2858  0.5974
  913MPD2    H713430   2.813   2.680  10.172  0.7301  0.1493 -0.9943
  914MPD2     C13431   1.352   1.757  11.769 -0.0194  0.9005 -0.6538
  914MPD2    C113432   1.297   1.880  11.783 -0.6564  0.4269 -0.5358
  914MPD2    C213433   1.284   1.927  11.913 -0.2599  0.3955  0.3082
  914MPD2    C313434   1.320   1.852  12.024  0.5918 -0.0222 -0.2602
  914MPD2    C413435   1.371   1.725  12.009  0.0546 -0.1105  0.1999
  914MPD2    C513436   1.390   1.685  11.877 -0.3386 -0.5693 -0.0812
  914MPD2     H13437   1.241   2.023  11.937  0.6349  1.2205 -1.4055
  914MPD2    H113438   1.404   1.663  12.091  1.8680  0.8937  0.2183
  914MPD2    H213439   1.353   1.714  11.670  1.6507  0.6430 -0.5193
  914MPD2    H313440   1.437   1.587  11.873 -0.5020 -0.6264 -0.5713
  914MPD2     N13441   1.303   1.906  12.153  0.3337  0.0210 -0.0936
  914MPD2    H513442   1.247   1.990  12.153  1.9461  1.0971  3.4527
  914MPD2    N113443   1.256   1.959  11.664  0.1768 -0.0759 -0.1686
  914MPD2    H713444   1.248   1.916  11.572  0.7987 -0.2532 -0.1361
  915MPD2     C13445   4.566   2.360  16.204  0.6316  1.4186  0.3919
  915MPD2    C113446   4.464   2.409  16.124  0.8002 -0.2840 -0.1813
  915MPD2    C213447   4.370   2.494  16.187  0.4548 -0.5697  0.1186
  915MPD2    C313448   4.376   2.518  16.318  0.2509  0.0348  0.4589
  915MPD2    C413449   4.485   2.479  16.396  0.6820 -0.1830 -0.4199
  915MPD2    C513450   4.575   2.397  16.334  0.3582  0.3582 -0.4675
  915MPD2     H13451   4.284   2.531  16.132 -0.5159 -1.5851  0.9525
  915MPD2    H113452   4.499   2.509  16.499 -0.0024 -0.8375 -0.1389
  915MPD2    H213453   4.651   2.307  16.162 -0.7432  0.0209 -0.6107
  915MPD2    H313454   4.663   2.360  16.385  0.1609 -0.6072 -0.8454
  915MPD2     N13455   4.268   2.595  16.374 -0.0830 -0.3083 -0.1537
  915MPD2    H513456   4.178   2.590  16.328 -0.2499 -2.6967  0.4202
  915MPD2    N113457   4.461   2.396  15.987 -0.4243  0.1676  0.2405
  915MPD2    H713458   4.534   2.333  15.957 -1.7444 -0.7198 -1.0809
  916MPD2     C13459   2.556   1.061  15.426 -0.5407 -0.1553 -0.7429
  916MPD2    C113460   2.447   0.978  15.457 -0.0295 -0.6555  0.0905
  916MPD2    C213461   2.439   0.856  15.381 -0.2640 -0.4372 -0.1836
  916MPD2    C313462   2.538   0.826  15.283 -0.2322  0.0761 -0.0315
  916MPD2    C413463   2.636   0.922  15.250  0.4589  0.0078 -0.4702
  916MPD2    C513464   2.637   1.039  15.325 -0.1925  0.4750  0.0413
  916MPD2     H13465   2.358   0.786  15.400 -0.4404 -0.3854 -0.7333
  916MPD2    H113466   2.700   0.917  15.163  0.0071  1.7403 -0.9052
  916MPD2    H213467   2.561   1.154  15.481  1.7336 -0.5701 -0.2562
  916MPD2    H313468   2.718   1.110  15.314  1.1300 -0.9652  0.4595
  916MPD2     N13469   2.531   0.697  15.220  0.4311  0.4874  0.4118
  916MPD2    H513470   2.457   0.638  15.257  1.3835  0.0278  1.5941
  916MPD2    N113471   2.356   1.001  15.565  0.1549 -0.4951 -0.6844
  916MPD2    H713472   2.346   1.095  15.602  2.4800 -0.1353 -0.9278
  917MPD2     C13473   1.750   2.667  11.725 -0.3687  0.9792 -0.4700
  917MPD2    C113474   1.832   2.759  11.777  0.8570 -0.4051  0.8513
  917MPD2    C213475   1.908   2.836  11.692  0.3865  0.1954 -0.3507
  917MPD2    C313476   1.900   2.830  11.556 -0.5400  0.1396 -0.4053
  917MPD2    C413477   1.810   2.734  11.506 -0.2487  0.1047  0.6870
  917MPD2    C513478   1.747   2.644  11.592 -1.0484  1.3703 -0.0228
  917MPD2     H13479   1.985   2.897  11.738 -1.3630  2.0501  0.1482
  917MPD2    H113480   1.806   2.712  11.400 -1.1567 -0.1788  0.7830
  917MPD2    H213481   1.683   2.606  11.785  0.2557  1.0047  0.2488
  917MPD2    H313482   1.679   2.571  11.550 -0.9284  0.4925  1.3227
  917MPD2     N13483   1.981   2.912  11.470  0.4430  0.0673  0.2087
  917MPD2    H513484   1.973   2.898  11.370  3.2985  1.5795 -0.2311
  917MPD2    N113485   1.820   2.782  11.915 -0.4064  0.3604  0.3341
  917MPD2    H713486   1.753   2.732  11.973 -2.4776 -0.3394 -2.6483
  918MPD2     C13487   2.131   3.599  12.357  0.4868 -0.0213  0.1953
  918MPD2    C113488   2.194   3.485  12.329 -0.5796  0.5760  0.4204
  918MPD2    C213489   2.108   3.374  12.311  0.5454  0.0737  0.6905
  918MPD2    C313490   1.973   3.383  12.299  0.2345 -0.0646 -0.1516
  918MPD2    C413491   1.920   3.505  12.308 -0.2749  0.3972 -0.2514
  918MPD2    C513492   1.998   3.613  12.342 -0.3954  0.1755  0.0240
  918MPD2     H13493   2.158   3.278  12.303 -1.0475 -0.5750 -1.3325
  918MPD2    H113494   1.815   3.521  12.286 -0.8860 -0.6681  1.8819
  918MPD2    H213495   2.182   3.691  12.383  0.2749  0.1425  0.0226
  918MPD2    H313496   1.957   3.713  12.352 -3.1452 -1.0270  0.6797
  918MPD2     N13497   1.904   3.270  12.266 -0.4413  0.3030  0.1095
  918MPD2    H513498   1.968   3.197  12.235 -1.7687 -1.1424  0.7619
  918MPD2    N113499   2.331   3.467  12.351 -0.6554 -0.3554 -0.5673
  918MPD2    H713500   2.364   3.371  12.356  0.5794  0.0940 -0.0613
  919MPD2     C13501   3.065   2.287  10.987  0.1104  0.5524  0.3155
  919MPD2    C113502   2.947   2.216  11.006 -0.0612  0.0599  0.2598
  919MPD2    C213503   2.839   2.243  10.920 -0.3971 -0.4720  0.3006
  919MPD2    C313504   2.854   2.330  10.817 -0.1042 -0.7245  0.3339
  919MPD2    C413505   2.967   2.409  10.812  0.2037  0.1424  0.1258
  919MPD2    C513506   3.064   2.391  10.900  0.4854 -0.3706  0.1789
  919MPD2     H13507   2.753   2.179  10.934 -1.6343  1.0890 -0.1010
  919MPD2    H113508   2.976   2.491  10.741 -0.0089  0.4200  0.4262
  919MPD2    H213509   3.160   2.275  11.039  0.3320 -2.2208 -0.7215
  919MPD2    H313510   3.154   2.449  10.883 -0.0839  0.8390  1.2890
  919MPD2     N13511   2.744   2.336  10.726 -0.1908  0.4613  0.9172
  919MPD2    H513512   2.682   2.258  10.743  1.0710 -0.1559  2.7353
  919MPD2    N113513   2.936   2.114  11.101 -0.6848 -0.8325  0.1980
  919MPD2    H713514   2.851   2.058  11.097 -0.9940 -0.3681  0.2742
  920MPD2     C13515   2.486   2.403   9.665 -0.3492  0.0901  0.3678
  920MPD2    C113516   2.388   2.342   9.733 -0.0133 -0.8030 -0.4917
  920MPD2    C213517   2.400   2.342   9.867 -0.3525  0.7010  0.4032
  920MPD2    C313518   2.505   2.399   9.936  0.1533 -0.6278  0.5999
  920MPD2    C413519   2.606   2.462   9.865  0.2009  0.0633 -0.0889
  920MPD2    C513520   2.594   2.463   9.730  0.4766 -0.0653 -0.4172
  920MPD2     H13521   2.321   2.293   9.923  0.6331  0.0920  1.2577
  920MPD2    H113522   2.693   2.505   9.912  0.9380 -0.2880 -1.1224
  920MPD2    H213523   2.487   2.397   9.557  2.8346  0.5152  0.3681
  920MPD2    H313524   2.670   2.510   9.669  0.4222  1.9056  1.0224
  920MPD2     N13525   2.501   2.386  10.079  0.0432  0.7906 -0.0603
  920MPD2    H513526   2.431   2.326  10.120  1.1717 -0.8112 -0.4842
  920MPD2    N113527   2.278   2.275   9.672 -0.5286  0.2913  0.3960
  920MPD2    H713528   2.222   2.223   9.739  0.0589 -2.5766 -1.3600
  921MPD2     C13529   4.168   1.083  17.042  0.4216 -0.3171  0.0382
  921MPD2    C113530   4.202   1.095  16.909 -0.0704  1.0415 -0.2906
  921MPD2    C213531   4.137   1.015  16.818 -0.4938  0.0701 -0.5591
  921MPD2    C313532   4.031   0.935  16.857 -0.1802  0.4107  0.6938
  921MPD2    C413533   3.997   0.923  16.990 -0.3248 -0.0300  0.3174
  921MPD2    C513534   4.063   1.002  17.082 -0.3331 -0.2771 -0.1772
  921MPD2     H13535   4.165   1.018  16.713 -1.8327  0.6550 -0.9020
  921MPD2    H113536   3.911   0.866  17.023 -0.9454  1.4301  1.2587
  921MPD2    H213537   4.222   1.145  17.113 -2.9539  1.9658  0.6359
  921MPD2    H313538   4.042   0.987  17.187 -0.7807 -1.2541 -0.4122
  921MPD2     N13539   3.967   0.843  16.765  0.3325 -0.1149 -0.5077
  921MPD2    H513540   3.884   0.796  16.799  1.0705  0.0749  1.5618
  921MPD2    N113541   4.308   1.174  16.862  0.3233  0.6452  0.2133
  921MPD2    H713542   4.351   1.227  16.937  0.5432 -0.7355  1.0430
  922MPD2     C13543   0.215   3.743  17.257  0.1726 -0.1662 -0.0488
  922MPD2    C113544   0.187   3.780  17.386  0.1594 -0.9261 -0.4132
  922MPD2    C213545   0.071   3.725  17.442  0.1679  0.3015 -0.2642
  922MPD2    C313546   4.718   3.639  17.373 -0.4067  0.0849 -0.8815
  922MPD2    C413547   0.036   3.588  17.254  0.3899 -0.3257 -1.2011
  922MPD2    C513548   0.145   3.647  17.191 -0.9813 -0.8731 -1.0752
  922MPD2     H13549   0.038   3.762  17.539  0.0490 -2.8628  0.9047
  922MPD2    H113550   4.717   3.514  17.194 -1.4653 -0.9475  1.1597
  922MPD2    H213551   0.299   3.776  17.197 -0.4043  1.2294 -0.0942
  922MPD2    H313552   0.174   3.614  17.093 -0.4974 -1.1757 -0.8289
  922MPD2     N13553   4.596   3.593  17.424  0.2844 -0.2962 -0.5662
  922MPD2    H513554   4.568   3.628  17.515  0.3013 -1.2089 -0.2072
  922MPD2    N113555   0.264   3.872  17.461  0.4383  0.0962 -0.1670
  922MPD2    H713556   0.237   3.889  17.558 -0.0903  0.6605 -0.4102
  923MPD2     C13557   1.434   1.901   9.104 -0.1226  0.0507 -0.0633
  923MPD2    C113558   1.319   1.866   9.165 -0.7047  0.3155 -0.0296
  923MPD2    C213559   1.316   1.741   9.232 -0.2208  0.0844  0.1915
  923MPD2    C313560   1.417   1.649   9.223  0.1065  0.3096  0.5856
  923MPD2    C413561   1.520   1.687   9.146 -0.0228  0.0798 -0.1186
  923MPD2    C513562   1.528   1.805   9.081  0.5199  0.9288  0.4760
  923MPD2     H13563   1.230   1.712   9.290 -0.6636  2.1910  0.5866
  923MPD2    H113564   1.600   1.617   9.125  1.2758  1.7758 -0.7806
  923MPD2    H213565   1.439   1.997   9.053  1.9832 -0.3859 -0.6714
  923MPD2    H313566   1.616   1.818   9.018 -0.9283  0.5585 -1.6330
  923MPD2     N13567   1.411   1.519   9.280  0.3125  0.2405 -0.2669
  923MPD2    H513568   1.492   1.460   9.262  1.1610  1.8856 -1.8090
  923MPD2    N113569   1.222   1.966   9.158 -0.2754  0.2956  0.0195
  923MPD2    H713570   1.246   2.050   9.105 -0.6685  0.7022  0.4892
  924MPD2     C13571   1.205   3.335  16.456  0.0458 -0.3689 -0.7914
  924MPD2    C113572   1.176   3.463  16.409  0.3950  0.0759 -0.1060
  924MPD2    C213573   1.280   3.547  16.373 -0.7092  1.1312  0.4047
  924MPD2    C313574   1.411   3.520  16.423  0.1153 -0.1254  0.2450
  924MPD2    C413575   1.429   3.399  16.487 -0.1007  0.1929  0.1349
  924MPD2    C513576   1.335   3.306  16.504 -0.6841  0.0181 -0.3815
  924MPD2     H13577   1.268   3.642  16.324 -0.1362  0.9984  0.0125
  924MPD2    H113578   1.527   3.372  16.526 -0.9564 -2.1752  0.6577
  924MPD2    H213579   1.127   3.262  16.467  0.1724 -0.3413  0.3341
  924MPD2    H313580   1.348   3.210  16.552 -2.6441 -0.7038 -1.2983
  924MPD2     N13581   1.512   3.615  16.421 -0.1309 -0.1728  0.4294
  924MPD2    H513582   1.591   3.583  16.475  0.1188 -1.1212 -0.4989
  924MPD2    N113583   1.042   3.511  16.399  0.0900 -0.2837  0.4486
  924MPD2    H713584   1.034   3.607  16.367 -2.3353 -1.0506 -1.2164
  925MPD2     C13585   4.040   1.771  14.767 -0.3134 -0.0120  0.1738
  925MPD2    C113586   4.167   1.715  14.759  0.5723  0.5662 -0.2438
  925MPD2    C213587   4.241   1.683  14.873 -0.1077  0.2160  0.1084
  925MPD2    C313588   4.195   1.730  14.993  0.6479 -0.6793  0.2376
  925MPD2    C413589   4.083   1.802  15.004  0.1303  0.1323  0.0188
  925MPD2    C513590   4.004   1.817  14.889  0.2653 -0.6606 -0.2773
  925MPD2     H13591   4.322   1.613  14.859  0.0608  0.3120  0.5838
  925MPD2    H113592   4.046   1.843  15.098  1.6057 -2.3563  1.7009
  925MPD2    H213593   3.980   1.800  14.681 -0.3195  1.2508  0.6054
  925MPD2    H313594   3.906   1.862  14.898  0.8470  0.4203  0.7472
  925MPD2     N13595   4.267   1.709  15.117  0.2737 -0.4327 -0.0856
  925MPD2    H513596   4.226   1.743  15.203  0.1156  0.8146 -0.6555
  925MPD2    N113597   4.223   1.682  14.639  0.1292  0.3326  0.1757
  925MPD2    H713598   4.320   1.652  14.638 -0.2277 -0.7621 -1.3546
  926MPD2     C13599   3.895   0.328  13.428 -0.7167 -0.0513  0.2307
  926MPD2    C113600   3.761   0.327  13.388  0.7061  0.4816 -0.0284
  926MPD2    C213601   3.723   0.388  13.268  0.3758 -0.4092  0.2281
  926MPD2    C313602   3.810   0.439  13.174  0.2885 -1.2412  0.3573
  926MPD2    C413603   3.947   0.438  13.207  0.6269  0.1053  0.0855
  926MPD2    C513604   3.979   0.388  13.332 -0.0368  0.4432 -0.4734
  926MPD2     H13605   3.617   0.383  13.244  0.5277  1.7760 -0.8743
  926MPD2    H113606   4.019   0.477  13.137  0.4061  0.3885  0.0171
  926MPD2    H213607   3.940   0.284  13.516 -0.2634 -1.2781 -0.6123
  926MPD2    H313608   4.085   0.403  13.349 -0.3009 -0.7137  2.1711
  926MPD2     N13609   3.782   0.492  13.047  0.0387  0.6831 -0.3432
  926MPD2    H513610   3.859   0.508  12.983  0.1056  0.1813 -0.3902
  926MPD2    N113611   3.659   0.261  13.463 -0.3112 -0.1385 -0.4477
  926MPD2    H713612   3.564   0.274  13.429  0.3555 -2.0561 -3.0795
  927MPD2     C13613   3.615   2.323   0.065 -0.0076 -0.3001  0.0832
  927MPD2    C113614   3.498   2.366   0.002  0.3954  0.0021 -0.4593
  927MPD2    C213615   3.510   2.403  17.597 -0.0878 -0.2463 -0.1739
  927MPD2    C313616   3.640   2.399  17.536 -0.1726 -0.1489 -0.4426
  927MPD2    C413617   3.754   2.369  17.607  0.1765 -0.3370 -0.3675
  927MPD2    C513618   3.741   2.320   0.006 -0.4067 -0.1466  0.1547
  927MPD2     H13619   3.422   2.441  17.547 -0.9126  1.0284  2.2272
  927MPD2    H113620   3.849   2.382  17.557  1.0004 -1.3761  0.9144
  927MPD2    H213621   3.610   2.275   0.162 -0.1780 -2.4706 -1.0011
  927MPD2    H313622   3.830   2.301   0.065  0.7752  1.9254 -0.9594
  927MPD2     N13623   3.646   2.443  17.405  0.9805  0.2278 -0.0141
  927MPD2    H513624   3.560   2.488  17.373  1.5580  1.5300  0.2696
  927MPD2    N113625   3.377   2.359   0.077 -0.0286 -0.7012  0.0246
  927MPD2    H713626   3.376   2.315   0.168 -3.1773 -1.7213 -0.5237
  928MPD2     C13627   1.550   1.164   2.020  0.3650  0.4916 -0.1372
  928MPD2    C113628   1.453   1.149   1.920 -0.0298  0.3110  0.8257
  928MPD2    C213629   1.492   1.132   1.786  0.7116 -0.6614 -0.8474
  928MPD2    C313630   1.621   1.117   1.746  0.1050 -0.2059 -0.5152
  928MPD2    C413631   1.717   1.120   1.849  0.0822 -0.1049  0.1033
  928MPD2    C513632   1.682   1.144   1.979  0.1922  0.2929 -0.2903
  928MPD2     H13633   1.415   1.137   1.709 -0.9145 -1.9313  0.7019
  928MPD2    H113634   1.822   1.105   1.827 -0.1171 -0.5116 -0.6032
  928MPD2    H213635   1.522   1.207   2.115  2.4394  0.6513  0.3999
  928MPD2    H313636   1.759   1.160   2.054 -0.1315 -1.2928  0.3648
  928MPD2     N13637   1.667   1.102   1.615  0.0392  0.7627 -0.0276
  928MPD2    H513638   1.766   1.108   1.596 -0.1728  0.3936 -1.2299
  928MPD2    N113639   1.319   1.179   1.955  0.1297  0.1583 -0.1260
  928MPD2    H713640   1.304   1.185   2.055 -1.0437 -1.3490 -0.2073
  929MPD2     C13641   1.523   0.698  10.118  0.0839 -0.5637  0.2825
  929MPD2    C113642   1.403   0.673  10.184 -0.8718  0.0443  0.5320
  929MPD2    C213643   1.288   0.721  10.125  0.1057 -0.7595 -0.5933
  929MPD2    C313644   1.288   0.784   9.998 -0.4297 -0.1291  0.5520
  929MPD2    C413645   1.405   0.803   9.932 -0.1659 -0.3702 -0.5435
  929MPD2    C513646   1.518   0.762   9.997  0.7766 -0.0305  0.4182
  929MPD2     H13647   1.193   0.690  10.166  0.2341 -1.3300 -0.7277
  929MPD2    H113648   1.403   0.859   9.839  1.2186  0.1657 -0.2568
  929MPD2    H213649   1.621   0.672  10.158  0.4634 -1.1241 -1.0277
  929MPD2    H313650   1.614   0.777   9.948 -0.2015  0.6534 -1.2788
  929MPD2     N13651   1.177   0.838   9.933 -1.2263  0.0066  0.2193
  929MPD2    H513652   1.194   0.879   9.842 -0.4873  0.2392  0.4614
  929MPD2    N113653   1.393   0.588  10.304 -0.3701 -0.1815  0.0090
  929MPD2    H713654   1.298   0.578  10.338 -0.4052  0.4985  0.1181
  930MPD2     C13655   3.180   2.941  14.718 -0.0676 -0.1982  0.2067
  930MPD2    C113656   3.181   3.068  14.672 -0.6085 -0.3192 -0.5302
  930MPD2    C213657   3.113   3.111  14.558 -0.0357  0.0572  0.6476
  930MPD2    C313658   3.051   3.015  14.477 -0.8805  0.8132  0.2496
  930MPD2    C413659   3.035   2.885  14.526 -0.3653 -0.3714 -0.4747
  930MPD2    C513660   3.098   2.855  14.646  0.3108 -0.0276  0.7339
  930MPD2     H13661   3.123   3.217  14.535 -1.1109 -0.3387 -1.6336
  930MPD2    H113662   2.976   2.805  14.481  1.2123 -1.3670 -0.7910
  930MPD2    H213663   3.227   2.902  14.807 -0.3364 -0.2832  0.3089
  930MPD2    H313664   3.100   2.748  14.666 -0.2581 -0.3006 -0.6381
  930MPD2     N13665   2.996   3.059  14.355 -0.4168  0.0108 -0.1427
  930MPD2    H513666   3.030   3.151  14.329 -0.1471 -0.4804 -1.5599
  930MPD2    N113667   3.257   3.168  14.733  0.4843  0.4261 -0.1101
  930MPD2    H713668   3.246   3.261  14.695 -0.7341  1.2662  2.3004
  931MPD2     C13669   3.247   1.815   0.330  0.2560  0.1376 -0.5479
  931MPD2    C113670   3.202   1.911   0.415  0.0396 -0.4236  0.2211
  931MPD2    C213671   3.195   1.892   0.548 -0.5135  0.3106  0.5401
  931MPD2    C313672   3.255   1.777   0.599 -0.3989 -0.0375  0.6186
  931MPD2    C413673   3.299   1.675   0.513  0.9858 -0.1799 -0.6062
  931MPD2    C513674   3.298   1.692   0.379  0.4296 -0.5103  0.5124
  931MPD2     H13675   3.185   1.977   0.615 -1.9808  1.1628 -0.7788
  931MPD2    H113676   3.342   1.589   0.563 -0.7320 -1.3734 -1.1772
  931MPD2    H213677   3.244   1.834   0.224  0.8814 -4.0661 -1.3360
  931MPD2    H313678   3.330   1.615   0.311  1.7506 -1.0155  1.7213
  931MPD2     N13679   3.283   1.755   0.732  0.6156  0.0650  0.5073
  931MPD2    H513680   3.332   1.669   0.756  0.3044  0.1911  1.6160
  931MPD2    N113681   3.155   2.032   0.357 -0.3430 -0.2420  0.4712
  931MPD2    H713682   3.146   2.031   0.256  1.0677  0.8849  0.3489
  932MPD2     C13683   4.181   1.269  11.419 -0.6933  0.0935  0.1334
  932MPD2    C113684   4.269   1.279  11.309  0.1200  0.2404  0.0051
  932MPD2    C213685   4.253   1.193  11.199  0.5719  0.6473 -0.0066
  932MPD2    C313686   4.157   1.092  11.199  0.3383 -0.3134  0.0207
  932MPD2    C413687   4.067   1.085  11.307 -0.0235  1.0795  0.1287
  932MPD2    C513688   4.084   1.172  11.410  0.4145 -0.3607  0.4038
  932MPD2     H13689   4.315   1.197  11.111 -1.8813 -2.0894 -1.8577
  932MPD2    H113690   3.997   1.002  11.318  0.7957  0.2247 -1.1850
  932MPD2    H213691   4.186   1.340  11.501  3.1911  0.6164 -0.5045
  932MPD2    H313692   4.016   1.164  11.494 -0.5681 -1.4647 -0.5016
  932MPD2     N13693   4.157   0.999  11.090  0.3236  0.1149  0.3469
  932MPD2    H513694   4.226   1.006  11.016 -2.2166  3.3055 -1.7455
  932MPD2    N113695   4.370   1.375  11.293  0.0684  0.0504 -0.5113
  932MPD2    H713696   4.422   1.372  11.206  1.9693  1.3784  0.5712
  933MPD2     C13697   0.421   1.440   1.907 -0.0068 -0.3401 -0.1717
  933MPD2    C113698   0.540   1.424   1.837 -0.0905 -0.9442  0.6506
  933MPD2    C213699   0.556   1.488   1.714 -0.2519  1.2893  0.9668
  933MPD2    C313700   0.450   1.543   1.651  0.0074 -0.5529 -0.3269
  933MPD2    C413701   0.332   1.558   1.720 -0.4853 -0.7713  0.5234
  933MPD2    C513702   0.321   1.512   1.847 -0.5827  0.0649  0.6596
  933MPD2     H13703   0.644   1.473   1.652 -1.4746  0.1414 -0.4815
  933MPD2    H113704   0.239   1.600   1.683  0.6585 -1.4413 -3.0449
  933MPD2    H213705   0.419   1.388   2.002  1.4760  1.9482  1.1348
  933MPD2    H313706   0.228   1.537   1.897 -0.7775 -0.7757  0.7202
  933MPD2     N13707   0.456   1.582   1.512 -0.4201  0.3068 -0.4030
  933MPD2    H513708   0.546   1.577   1.466 -0.5069  2.1596 -0.7566
  933MPD2    N113709   0.646   1.363   1.910  0.0343 -0.4692 -0.2727
  933MPD2    H713710   0.638   1.340   2.008 -0.3890  1.8774  0.2482
  934MPD2     C13711   2.481   3.479   2.097 -0.5447  0.4828 -0.0503
  934MPD2    C113712   2.550   3.435   1.984 -0.5849 -0.0289  0.5900
  934MPD2    C213713   2.502   3.336   1.897  0.6658  0.4180  0.0649
  934MPD2    C313714   2.368   3.299   1.909 -0.6762 -0.1998  0.6178
  934MPD2    C413715   2.297   3.350   2.014  0.3920 -0.4775 -0.5052
  934MPD2    C513716   2.357   3.427   2.114  0.8431  0.4198 -0.1744
  934MPD2     H13717   2.571   3.296   1.823 -1.8733 -1.6034 -1.2041
  934MPD2    H113718   2.192   3.326   2.027  0.0598  1.1944 -0.0709
  934MPD2    H213719   2.527   3.531   2.180  1.8436  0.0445 -1.1054
  934MPD2    H313720   2.304   3.465   2.201 -2.1107 -0.0040 -1.7987
  934MPD2     N13721   2.302   3.208   1.823  0.9481  0.0105 -0.0989
  934MPD2    H513722   2.210   3.174   1.851  1.1259 -1.2925 -1.0799
  934MPD2    N113723   2.674   3.489   1.942  0.0507  0.2409  0.0864
  934MPD2    H713724   2.696   3.464   1.846 -1.2016 -2.7816  0.5995
  935MPD2     C13725   2.623   2.443   1.191 -0.1188 -0.4166 -0.5132
  935MPD2    C113726   2.486   2.445   1.190 -0.2877 -0.3606  0.1889
  935MPD2    C213727   2.423   2.541   1.265 -0.2538  0.1168  0.3021
  935MPD2    C313728   2.502   2.637   1.339 -0.3197 -0.6890  0.3226
  935MPD2    C413729   2.638   2.622   1.341  0.0441  0.0912  0.0326
  935MPD2    C513730   2.695   2.520   1.269  0.1412 -0.1862  0.0635
  935MPD2     H13731   2.316   2.547   1.252 -0.2915 -2.1268 -0.3863
  935MPD2    H113732   2.696   2.692   1.400  0.8243  0.1829 -0.8458
  935MPD2    H213733   2.678   2.382   1.121 -0.7399 -1.2225 -0.2897
  935MPD2    H313734   2.803   2.523   1.278  0.0314  0.3968  1.1550
  935MPD2     N13735   2.445   2.739   1.415  0.5923  0.2213 -0.2099
  935MPD2    H513736   2.515   2.801   1.453 -0.7700  1.7281 -0.1641
  935MPD2    N113737   2.410   2.346   1.124  0.5889  0.4874 -0.4908
  935MPD2    H713738   2.309   2.349   1.139  0.7854  1.2263  0.6913
  936MPD2     C13739   0.408   4.021  13.268  0.1494  1.5658  0.5018
  936MPD2    C113740   0.416   4.162  13.270  0.3363  0.1259  0.4523
  936MPD2    C213741   0.521   4.218  13.194 -0.1640 -0.6121 -0.0720
  936MPD2    C313742   0.595   4.150  13.106  0.4549  0.3919 -0.6127
  936MPD2    C413743   0.571   4.013  13.094  0.4594 -0.0069  0.2233
  936MPD2    C513744   0.479   3.956  13.176 -0.0008  0.1599 -1.0045
  936MPD2     H13745   0.526   4.326  13.192 -2.2782 -0.4611  2.0923
  936MPD2    H113746   0.617   3.948  13.021 -1.7548 -1.5473  0.2377
  936MPD2    H213747   0.332   3.962  13.319  1.3285  0.1772  0.6706
  936MPD2    H313748   0.446   3.855  13.156 -0.0926  0.5904 -3.0235
  936MPD2     N13749   0.683   4.215  13.013 -0.1435  0.1337  0.5316
  936MPD2    H513750   0.706   4.170  12.925  1.3994 -2.9134  2.4646
  936MPD2    N113751   0.332   4.240  13.345 -0.2897 -0.4004  0.3080
  936MPD2    H713752   0.357   4.339  13.342 -0.1046 -0.5208 -1.9777
  937MPD2     C13753   2.819   1.454  11.033  0.7666  0.3502  0.0298
  937MPD2    C113754   2.926   1.537  11.031 -0.2344 -1.1274  0.1938
  937MPD2    C213755   2.985   1.558  10.914 -0.3211 -0.3584 -0.0860
  937MPD2    C313756   2.943   1.492  10.790 -0.1276 -0.3760 -1.1251
  937MPD2    C413757   2.842   1.397  10.797 -0.4616  0.2049 -0.0272
  937MPD2    C513758   2.783   1.389  10.920 -0.0219  0.4665  0.1182
  937MPD2     H13759   3.066   1.631  10.911  0.8713 -1.6725 -0.0940
  937MPD2    H113760   2.804   1.348  10.708 -2.4998 -2.2376  2.1953
  937MPD2    H213761   2.743   1.456  11.110  1.6200  0.7112  0.8653
  937MPD2    H313762   2.695   1.326  10.926 -1.1522  1.8299 -2.2447
  937MPD2     N13763   3.006   1.534  10.671 -0.4751  0.5991  0.0178
  937MPD2    H513764   3.079   1.603  10.687 -0.3095  0.3790  0.2165
  937MPD2    N113765   2.943   1.640  11.126 -0.3435 -0.4390  0.2103
  937MPD2    H713766   3.012   1.711  11.103 -0.8263 -0.5284 -1.5197
  938MPD2     C13767   1.510   2.966   0.782  0.4421 -0.1207 -0.7092
  938MPD2    C113768   1.577   3.017   0.892  0.4135 -0.8295 -0.4965
  938MPD2    C213769   1.547   2.962   1.014 -0.6862  0.4470  0.4728
  938MPD2    C313770   1.453   2.854   1.021  0.0136  0.1540  0.1041
  938MPD2    C413771   1.391   2.812   0.905  0.1284 -0.1497  0.3919
  938MPD2    C513772   1.416   2.871   0.787 -1.1852  0.3976 -0.0002
  938MPD2     H13773   1.589   3.016   1.098 -2.3531 -0.3870  1.8417
  938MPD2    H113774   1.309   2.742   0.906  0.3608 -0.4091  2.2450
  938MPD2    H213775   1.543   2.999   0.684 -0.2944  0.4746 -0.7589
  938MPD2    H313776   1.363   2.831   0.702  0.0667  0.2650 -0.7140
  938MPD2     N13777   1.425   2.784   1.144  0.3393  0.0152 -0.6240
  938MPD2    H513778   1.356   2.710   1.136 -0.4880  0.8285 -1.0805
  938MPD2    N113779   1.669   3.121   0.899  0.7042 -0.4286 -0.0895
  938MPD2    H713780   1.719   3.131   0.986  1.4504 -0.4340 -0.5102
  939MPD2     C13781   2.815   4.251   1.336  0.1757  0.0828  0.9098
  939MPD2    C113782   2.899   4.346   1.282  0.2722 -0.2641 -0.4304
  939MPD2    C213783   2.928   4.340   1.147 -0.0483  0.0210  0.3221
  939MPD2    C313784   2.876   4.233   1.077 -0.4622  0.2935 -0.0439
  939MPD2    C413785   2.777   4.152   1.127 -0.3340  0.2396 -0.1192
  939MPD2    C513786   2.750   4.161   1.259 -1.2364  0.0189 -0.0561
  939MPD2     H13787   2.989   4.414   1.097 -0.9158  0.9534  0.6305
  939MPD2    H113788   2.721   4.075   1.075 -0.4520  1.2087 -1.4391
  939MPD2    H213789   2.801   4.246   1.444 -0.4097 -2.6041  0.7041
  939MPD2    H313790   2.690   4.082   1.304  0.8360  0.3458  3.3147
  939MPD2     N13791   2.922   4.217   0.949 -0.8053 -0.4938  0.1448
  939MPD2    H513792   2.976   4.290   0.905 -0.7708 -0.3186  0.4765
  939MPD2    N113793   2.959   4.436   1.372 -0.0185  0.1950  0.6253
  939MPD2    H713794   2.938   4.423   1.470 -2.9165  0.2796  0.0224
  940MPD2     C13795   1.092   3.898  13.336 -0.0368 -0.3454 -0.6412
  940MPD2    C113796   1.151   3.977  13.429  0.4802  0.3210  0.0812
  940MPD2    C213797   1.081   4.090  13.461  0.3315  0.0971  0.2715
  940MPD2    C313798   0.958   4.120  13.409  0.0284 -0.7715  0.2258
  940MPD2    C413799   0.907   4.036  13.307 -0.4227 -0.7350 -0.6854
  940MPD2    C513800   0.973   3.919  13.285  0.8175  0.2933  0.0319
  940MPD2     H13801   1.124   4.160  13.531 -1.0116 -0.3865  1.5728
  940MPD2    H113802   0.815   4.060  13.255 -0.5690  1.6004  0.6428
  940MPD2    H213803   1.145   3.807  13.308  1.4596 -0.0296  1.1770
  940MPD2    H313804   0.933   3.844  13.217 -0.7763  1.0951  0.0919
  940MPD2     N13805   0.898   4.243  13.424 -0.2004 -0.1274 -0.9166
  940MPD2    H513806   0.822   4.258  13.357 -2.2142 -0.8722  1.1872
  940MPD2    N113807   1.274   3.956  13.497  0.2517  0.3247  0.5857
  940MPD2    H713808   1.294   4.028  13.566 -0.7540  0.0485  1.1588
  941MPD2     C13809   0.129   4.066   9.733 -0.7894  0.3461  0.1951
  941MPD2    C113810   0.202   3.976   9.818 -0.3369 -0.2016  0.6396
  941MPD2    C213811   0.139   3.884   9.897 -0.1859  0.5286  0.1544
  941MPD2    C313812   0.002   3.869   9.880  0.2145  0.0032  0.2733
  941MPD2    C413813   4.665   3.947   9.796  0.5093  0.2170  0.0501
  941MPD2    C513814   4.725   4.045   9.720 -0.5840  1.1258  0.4021
  941MPD2     H13815   0.191   3.828   9.974 -0.2803 -0.5736 -0.5748
  941MPD2    H113816   4.559   3.928   9.781  0.9384 -1.8202 -0.4691
  941MPD2    H213817   0.165   4.155   9.682  0.4246 -0.1256  0.2316
  941MPD2    H313818   4.658   4.092   9.648 -1.4148 -3.2326 -1.7106
  941MPD2     N13819   4.659   3.766   9.943 -0.1358  0.7230 -0.2350
  941MPD2    H513820   4.558   3.778   9.940 -0.3769 -1.5093 -0.7147
  941MPD2    N113821   0.341   3.992   9.830  0.2892 -0.1665  0.3151
  941MPD2    H713822   0.391   3.927   9.890  1.4818 -0.6091 -1.1453
  942MPD2     C13823   1.074   1.890   8.822 -0.2787 -0.1552 -0.1858
  942MPD2    C113824   0.954   1.860   8.881  0.3607 -0.3961 -0.5813
  942MPD2    C213825   0.936   1.734   8.937  0.1148  0.3639  0.4306
  942MPD2    C313826   1.040   1.648   8.967  0.6430 -0.0874 -0.1205
  942MPD2    C413827   1.162   1.679   8.907  0.0083 -0.2087 -0.9012
  942MPD2    C513828   1.169   1.793   8.822 -0.1027  0.0313  1.0817
  942MPD2     H13829   0.838   1.710   8.977  0.5393  0.5817  1.6010
  942MPD2    H113830   1.250   1.620   8.926 -1.6475 -2.5125 -0.4778
  942MPD2    H213831   1.095   1.977   8.760 -0.5824  0.7076  0.9346
  942MPD2    H313832   1.262   1.814   8.771  0.1371 -2.2457  0.5820
  942MPD2     N13833   1.033   1.531   9.043  0.2131  0.1345 -0.2926
  942MPD2    H513834   1.120   1.484   9.066  0.5218  1.4316  1.2306
  942MPD2    N113835   0.843   1.946   8.893  0.2675 -0.1276 -0.3485
  942MPD2    H713836   0.756   1.907   8.928 -0.4424 -1.7541 -3.8978
  943MPD2     C13837   4.012   4.563  10.022  0.1010 -0.2549 -0.3392
  943MPD2    C113838   3.972   4.467  10.109  0.7798 -0.5774  0.1558
  943MPD2    C213839   3.890   4.505  10.212  0.5541  0.4285 -0.5614
  943MPD2    C313840   3.843   4.634  10.220 -0.5774  0.0056  0.1375
  943MPD2    C413841   3.892   4.727  10.132 -0.6117 -0.7008 -0.6769
  943MPD2    C513842   3.978   4.695  10.030  0.3416 -0.2273 -0.3066
  943MPD2     H13843   3.856   4.431  10.282  2.0291  0.5541  0.2908
  943MPD2    H113844   3.848   0.094  10.134  2.9606  0.8450  0.8567
  943MPD2    H213845   4.070   4.546   9.933  1.8773 -0.1987  0.8140
  943MPD2    H313846   4.012   0.043   9.967  0.1854 -0.0251 -0.1346
  943MPD2     N13847   3.760   4.677  10.325 -0.6827 -0.5241  0.0677
  943MPD2    H513848   3.746   0.045  10.327 -0.9578 -0.5376 -1.2484
  943MPD2    N113849   4.015   4.331  10.082  0.9736 -0.0909 -0.0959
  943MPD2    H713850   4.079   4.320  10.004  0.8627  0.1785 -0.2283
  944MPD2     C13851   3.636   3.357  11.049 -0.5825  0.3028  0.6144
  944MPD2    C113852   3.530   3.291  11.110 -0.1558  0.1489 -0.0090
  944MPD2    C213853   3.457   3.361  11.209 -0.5024 -0.0399 -0.1851
  944MPD2    C313854   3.496   3.490  11.242 -0.0809  0.0261 -0.0321
  944MPD2    C413855   3.605   3.543  11.186  0.5629 -0.0305 -0.0458
  944MPD2    C513856   3.673   3.481  11.090 -0.6414  0.6911 -1.0518
  944MPD2     H13857   3.383   3.312  11.269 -0.6111 -2.4912 -2.3350
  944MPD2    H113858   3.638   3.643  11.209 -1.0912  0.5232 -0.0756
  944MPD2    H213859   3.696   3.319  10.967  1.1078  2.5707  0.7862
  944MPD2    H313860   3.749   3.536  11.035 -0.0171  1.2113  0.3338
  944MPD2     N13861   3.409   3.565  11.326  1.1605  0.7303  0.0334
  944MPD2    H513862   3.327   3.510  11.346  0.0993  1.6393 -1.8074
  944MPD2    N113863   3.501   3.159  11.059  0.0046  0.4398  0.0848
  944MPD2    H713864   3.543   3.138  10.969  1.4218 -0.9975  1.0816
    1TMC1    C113865   2.317   3.691  14.576 -0.8084 -0.1912  0.1593
    1TMC1    C213866   2.284   3.734  14.445 -0.7427  0.2623  0.1195
    1TMC1    C313867   2.270   3.637  14.353 -0.6536 -0.2746 -0.2533
    1TMC1    C413868   2.336   3.553  14.603  0.7846  0.0547 -1.0098
    1TMC1    C513869   2.309   3.461  14.502  0.6837 -0.5013 -0.3357
    1TMC1    C613870   2.301   3.502  14.378  0.1197 -0.1516  0.6550
    1TMC1     C13871   2.261   3.777  14.676  0.2687 -0.2941  0.7362
    1TMC1     O13872   2.203   3.729  14.773  0.6120 -0.2447  0.1986
    1TMC1     H13873   2.251   3.835  14.423 -4.0680 -0.4115  1.9371
    1TMC1    H113874   2.345   3.526  14.708 -0.8471  0.5095 -0.7612
    1TMC1    H213875   2.266   3.440  14.296  1.1045  1.1303 -0.7548
    1TMC1    C713876   2.363   3.331  14.512  0.1412 -0.1198  0.2337
    1TMC1    C813877   2.262   3.672  14.217  0.7165 -0.6226  0.1677
    1TMC1    O113878   2.459   3.308  14.584 -0.3199  0.4602  0.0389
    1TMC1    O213879   2.208   3.780  14.188 -0.2879  0.2761 -0.0734
    1TMC1    O313880   2.282   3.236  14.464  0.0206  0.1998 -0.0734
    1TMC1    H313881   2.206   3.273  14.415 -0.6758 -1.7700 -0.5055
    1TMC1    O513882   2.380   3.634  14.150 -0.0057  0.1452 -0.2098
    1TMC1    H513883   2.439   3.577  14.203 -1.0584 -1.8199 -1.1505
    2MPD2     C13884   2.237   4.248  14.872 -0.1352  0.0654 -0.6161
    2MPD2    C113885   2.267   4.257  14.742  0.2947 -0.0676  0.3775
    2MPD2    C213886   2.289   4.139  14.670 -0.2641 -0.3630  0.4777
    2MPD2    C313887   2.257   4.018  14.732 -0.7471 -0.7085  0.8677
    2MPD2    C413888   2.227   4.006  14.866 -0.1288 -0.1479 -0.1522
    2MPD2    C513889   2.209   4.122  14.932  0.3908 -0.5232  0.5212
    2MPD2     H13890   2.326   4.140  14.568 -0.9404  0.5317  0.2441
    2MPD2    H113891   2.231   3.915  14.925 -1.7169  0.5169  0.9868
    2MPD2    H213892   2.216   4.335  14.935 -0.1454  0.5144 -1.2384
    2MPD2    H313893   2.198   4.126  15.040  1.2139  0.3629  0.5808
    2MPD2     N13894   2.293   3.907  14.647 -0.1150 -0.7359  0.5192
    2MPD2    H513895   2.342   3.934  14.562 -1.2480  1.2957  0.5198
    2MPD2    N113896   2.277   4.381  14.692 -0.0566 -0.1759  0.2356
    2MPD2    H713897   2.259   4.455  14.759 -1.8890 -0.8190  0.4498
    3TMC2    C113898   2.317   4.555  14.531 -0.1670 -0.7382  0.2142
    3TMC2    C213899   2.306   4.654  14.631  0.0234  0.6625 -0.8161
    3TMC2    C313900   2.315   0.051  14.582 -0.6202  0.2604 -0.3443
    3TMC2    C413901   2.339   4.586  14.397  0.3052 -0.2328  0.1793
    3TMC2    C513902   2.333   4.720  14.365  0.2365  0.6080 -0.6750
    3TMC2    C613903   2.330   0.096  14.453  0.6973  0.6665  0.0788
    3TMC2     C13904   2.323   4.413  14.565 -0.0924 -0.2920 -0.2649
    3TMC2     O13905   2.372   4.343  14.475 -0.4991 -0.4720  0.0861
    3TMC2     H13906   2.283   4.640  14.736 -1.9936 -0.6955 -1.4403
    3TMC2    H113907   2.352   4.513  14.318 -2.2044  1.1135 -1.4617
    3TMC2    H213908   2.335   0.200  14.422 -0.3139  0.5982 -0.3234
    3TMC2    C713909   2.372   0.017  14.231  0.2588 -0.0435 -0.3889
    3TMC2    C813910   2.305   0.157  14.676 -0.2558  0.2555  0.8494
    3TMC2    O113911   2.449   4.675  14.176 -0.3685 -0.2511 -0.1128
    3TMC2    O213912   2.249   0.143  14.787 -0.1551  0.2717  0.3570
    3TMC2    O513913   2.399   0.240  14.657 -0.1310  0.1080  0.3238
    3TMC2    H513914   2.440   0.248  14.568  1.4947  0.0163  1.0661
    4TMC2    C113915   1.627   0.415  13.725 -0.0384 -0.4303 -0.7907
    4TMC2    C213916   1.623   0.356  13.604  0.3035  0.3721  0.4525
    4TMC2    C313917   1.740   0.296  13.565 -0.0259 -0.3465 -0.0120
    4TMC2    C413918   1.740   0.412  13.801  0.3142 -0.2081 -1.0112
    4TMC2    C513919   1.855   0.365  13.753  0.7054  0.2569  0.2022
    4TMC2    C613920   1.860   0.305  13.633  0.7019 -0.6548 -0.1332
    4TMC2     C13921   1.502   0.416  13.796  0.0872  0.3189  0.3001
    4TMC2     O13922   1.497   0.405  13.919  0.1792 -0.1825  0.3908
    4TMC2     H13923   1.532   0.327  13.553 -0.4757  0.2193  1.9345
    4TMC2    H113924   1.744   0.460  13.899  0.3989 -1.4915 -0.3913
    4TMC2    H213925   1.934   0.235  13.598  0.6454 -0.8252  0.0886
    4TMC2    C713926   1.965   0.344  13.848  0.6340 -0.0909 -0.3091
    4TMC2    C813927   1.745   0.208  13.449 -0.1186  0.1580  0.3590
    4TMC2    O113928   1.936   0.343  13.961 -0.0566  0.8199  0.2656
    4TMC2    O213929   1.821   0.113  13.439  0.7878  0.3828 -0.1741
    4TMC2    O513930   1.708   0.285  13.340  0.5109 -0.3676 -0.8080
    4TMC2    H513931   1.677   0.373  13.369 -1.4808 -1.0403 -0.8362
    5MPD2     C13932   0.983   0.473  13.812  0.0685 -0.2501  0.9117
    5MPD2    C113933   1.021   0.448  13.681  0.1603 -0.4984  0.2231
    5MPD2    C213934   1.157   0.436  13.650 -0.3691  0.4706  0.2887
    5MPD2    C313935   1.255   0.440  13.752 -0.0993 -0.8246 -0.3320
    5MPD2    C413936   1.215   0.477  13.876 -0.0518  0.0389  0.1256
    5MPD2    C513937   1.083   0.495  13.908  0.9200  0.4749 -0.0214
    5MPD2     H13938   1.188   0.410  13.550  0.0752  0.8783  0.3211
    5MPD2    H113939   1.291   0.489  13.952  0.4940 -0.9402 -0.2521
    5MPD2    H213940   0.880   0.476  13.845 -0.0217  0.9729  0.5321
    5MPD2    H313941   1.053   0.508  14.011 -1.0391 -2.0160 -0.2801
    5MPD2     N13942   1.392   0.434  13.711  0.1711  0.3835 -0.3417
    5MPD2    H513943   1.408   0.436  13.611 -1.0401  0.1474 -0.5393
    5MPD2    N113944   0.919   0.425  13.587 -0.3302  0.1123 -0.1823
    5MPD2    H713945   0.824   0.427  13.623 -1.3239  2.5214 -2.8842
    6MPD1     C13946   0.496   1.805  12.436  0.3402  0.6187  0.3643
    6MPD1    C113947   0.474   1.679  12.390 -0.5111 -0.5071  0.2152
    6MPD1    C213948   0.545   1.577  12.439  0.5397 -0.7298  0.7681
    6MPD1    C313949   0.630   1.584  12.544 -0.2586 -0.2253  0.5865
    6MPD1    C413950   0.652   1.715  12.591 -0.4663 -0.5400 -0.4695
    6MPD1    C513951   0.588   1.822  12.539  0.0295  0.1320 -0.3114
    6MPD1     H13952   0.516   1.478  12.406 -1.7344  0.5888 -1.1626
    6MPD1    H113953   0.727   1.732  12.667 -0.7844  0.2983 -0.3564
    6MPD1    H213954   0.435   1.890  12.408  1.6092  1.6523  0.6968
    6MPD1    H313955   0.588   1.915  12.596  1.3454 -1.0126  1.5378
    6MPD1     N13956   0.701   1.474  12.603  0.8691 -0.5827 -0.0046
    6MPD1    H513957   0.757   1.485  12.687  0.4702 -2.8989  0.5633
    6MPD1    N113958   0.363   1.654  12.310 -1.1271  0.0382  0.3490
    6MPD1    H613959   0.376   1.571  12.252 -0.4798 -0.6530  1.4833
    6MPD1    H713960   0.333   1.736  12.258 -1.2519  0.1499  0.5973
    7MPD2     C13961   0.657   1.138  13.301 -0.0679 -0.6400 -0.3440
    7MPD2    C113962   0.660   1.049  13.196  1.0022 -0.1237  0.4071
    7MPD2    C213963   0.638   0.914  13.213 -0.9133  0.0341 -0.4675
    7MPD2    C313964   0.616   0.864  13.340 -0.0302  0.1928  0.0534
    7MPD2    C413965   0.624   0.950  13.444 -0.4384  0.5107 -0.5221
    7MPD2    C513966   0.636   1.087  13.430  0.0634  0.5120  0.0681
    7MPD2     H13967   0.640   0.841  13.133 -0.0675 -3.1970  2.4423
    7MPD2    H113968   0.609   0.913  13.545 -1.2809  0.9246 -0.4911
    7MPD2    H213969   0.675   1.244  13.293 -1.3898 -0.2688  1.6227
    7MPD2    H313970   0.647   1.155  13.514 -0.4435 -1.5797  1.8286
    7MPD2     N13971   0.596   0.728  13.365  0.0455  0.3948  0.2043
    7MPD2    H513972   0.603   0.701  13.463 -0.9884 -1.1017 -0.1216
    7MPD2    N113973   0.681   1.068  13.063  0.0716 -0.6323 -0.2411
    7MPD2    H713974   0.651   0.993  13.001  1.7466 -1.1004 -0.4843
    8TMC3    C113975   0.603   0.497  13.334  0.4964  0.1997 -0.1886
    8TMC3    C213976   0.715   0.481  13.417  0.5075  0.3994 -0.1834
    8TMC3    C313977   0.809   0.382  13.388 -0.1005  0.4739 -0.4213
    8TMC3    C413978   0.584   0.406  13.237 -0.1976  0.5586  0.5734
    8TMC3    C513979   0.680   0.315  13.210 -0.2278 -0.9031 -0.7911
    8TMC3    C613980   0.799   0.305  13.278  0.4610  0.5036  0.4360
    8TMC3     C13981   0.592   0.624  13.275 -0.5685 -0.8781 -0.4233
    8TMC3     O13982   0.575   0.622  13.154  0.0601  0.0367 -0.4541
    8TMC3     H13983   0.751   0.560  13.481  1.4780  0.2959 -0.6106
    8TMC3    H113984   0.497   0.403  13.173 -0.5253 -4.1831  1.1803
    8TMC3    H213985   0.887   0.253  13.244 -0.4621 -1.0539  0.4135
    8TMC3    C713986   0.716   0.309  13.067  0.7308 -0.6679  0.9574
    8TMC3    C813987   0.936   0.393  13.451  0.0183  0.2985  0.0243
    8TMC3    O113988   0.780   0.212  13.030 -0.0914 -0.3625 -0.0538
    8TMC3    O213989   1.032   0.367  13.382  0.0053  0.2907  0.9350
    9TMC3    C113990   0.750   1.246  12.658 -0.3748  0.3962  0.0893
    9TMC3    C213991   0.798   1.125  12.612  0.7512 -0.1146 -0.3892
    9TMC3    C313992   0.819   1.028  12.705  0.4068  0.6505  0.5170
    9TMC3    C413993   0.742   1.269  12.794 -0.0454 -0.2670 -0.5358
    9TMC3    C513994   0.772   1.172  12.884 -0.1030 -0.8994 -0.8510
    9TMC3    C613995   0.811   1.047  12.841 -0.2072  0.4247  0.9602
    9TMC3     C13996   0.714   1.346  12.557  0.4252 -0.0429  0.5516
    9TMC3     O13997   0.686   1.308  12.442 -0.3735  0.6256 -0.2937
    9TMC3     H13998   0.802   1.102  12.506  0.3482 -0.7288 -0.2708
    9TMC3    H113999   0.680   1.348  12.835 -1.5123 -1.8688  0.3626
    9TMC3    H214000   0.832   0.966  12.910 -3.8775 -2.5844 -1.4778
    9TMC3    C714001   0.720   1.190  13.016  0.6657  0.0972 -0.5535
    9TMC3    C814002   0.839   0.892  12.658 -0.3258 -0.2825  0.2446
    9TMC3    O114003   0.726   1.296  13.070  0.7333 -0.5141  0.1411
    9TMC3    O214004   0.886   0.874  12.546 -0.0261 -0.1114 -0.1541
   10MPD2     C14005   0.834   0.395  12.808  0.3717  0.5022 -0.0632
   10MPD2    C114006   0.754   0.474  12.891  0.0491 -0.6734 -0.0130
   10MPD2    C214007   0.733   0.605  12.860  0.7836 -0.5706  0.5875
   10MPD2    C314008   0.799   0.664  12.756 -0.4087  0.0570  0.4368
   10MPD2    C414009   0.880   0.592  12.675  0.7876 -0.3368  0.3372
   10MPD2    C514010   0.889   0.456  12.703 -0.1337  0.1600  0.4887
   10MPD2     H14011   0.666   0.664  12.922 -2.0809 -2.0945 -1.0274
   10MPD2    H114012   0.915   0.633  12.581  1.0976 -2.0114 -0.2935
   10MPD2    H214013   0.862   0.293  12.833 -0.4069  0.2154 -0.3571
   10MPD2    H314014   0.930   0.383  12.633 -1.9551 -2.0780  1.7449
   10MPD2     N14015   0.782   0.802  12.744 -0.1127 -0.3605  0.0406
   10MPD2    H514016   0.729   0.851  12.815  2.7916  2.2397  0.4338
   10MPD2    N114017   0.693   0.427  13.009  0.1899  0.2535  0.2540
   10MPD2    H714018   0.654   0.492  13.076 -2.3419 -0.3550 -0.6216
   11MPD2     C14019   2.417   0.127  13.958 -0.2619  0.0539  0.3550
   11MPD2    C114020   2.317   0.169  14.043  0.0985  0.0707  0.3186
   11MPD2    C214021   2.207   0.239  13.998  0.4543  0.7100  0.5611
   11MPD2    C314022   2.198   0.263  13.859  0.7776  0.3250  0.3869
   11MPD2    C414023   2.304   0.240  13.775  0.4446  0.7324  0.1704
   11MPD2    C514024   2.414   0.169  13.829  0.2866  0.0198 -0.0099
   11MPD2     H14025   2.122   0.256  14.064 -1.1263 -2.2187 -0.7195
   11MPD2    H114026   2.300   0.252  13.668  0.9589 -1.3331 -0.0839
   11MPD2    H214027   2.499   0.061  13.986 -1.0156 -1.7820 -1.7244
   11MPD2    H314028   2.484   0.136  13.754  0.8452  2.8840 -0.7408
   11MPD2     N14029   2.082   0.305  13.794  0.3494 -0.2412  0.4175
   11MPD2    H514030   2.095   0.304  13.693 -0.8600  3.8282  0.2278
   11MPD2    N114031   2.309   0.122  14.176  0.2019  0.2650 -0.3757
   11MPD2    H714032   2.230   0.162  14.225  0.1380  0.4518 -0.6288
    1MPD1     C14033   4.270   1.463   0.286  0.3487 -0.1309 -0.0678
    1MPD1    C114034   4.399   1.408   0.309 -0.2305 -0.4824 -0.6517
    1MPD1    C214035   4.470   1.376   0.195  0.3265 -1.1390  0.0449
    1MPD1    C314036   4.416   1.384   0.070 -0.2391 -0.2883  0.0600
    1MPD1    C414037   4.300   1.452   0.056 -0.1770  0.1318 -1.1802
    1MPD1    C514038   4.230   1.498   0.161 -0.1438  0.1257  0.0686
    1MPD1     H14039   4.567   1.333   0.218  0.5694  0.6281  2.3622
    1MPD1    H114040   4.252   1.457  17.688 -1.3705 -1.1487 -0.6528
    1MPD1    H214041   4.204   1.512   0.358 -0.7140  1.0533 -1.8314
    1MPD1    H314042   4.142   1.560   0.154 -0.4161 -0.4042 -1.2690
    1MPD1     N14043   4.488   1.345  17.684  0.2372 -0.1283  0.3051
    1MPD1    H514044   4.436   1.355  17.597 -2.2192 -1.8622  1.5797
    1MPD1    N114045   4.452   1.397   0.441 -0.0270  0.0902  0.3183
    1MPD1    H614046   4.527   1.329   0.442 -1.2794 -1.2888  0.5536
    1MPD1    H714047   4.388   1.372   0.517  0.1489 -0.8178  0.1674
    2MPD1     C14048   4.539   0.795  16.839  0.0149 -0.1334  0.4616
    2MPD1    C114049   4.641   0.882  16.825  0.0289 -0.2732 -0.1398
    2MPD1    C214050   4.668   0.973  16.926 -0.4337  0.3496 -0.6458
    2MPD1    C314051   4.574   0.999  17.019 -0.2050 -0.0146 -0.0134
    2MPD1    C414052   4.463   0.921  17.019  0.3257  0.4802 -0.1695
    2MPD1    C514053   4.450   0.816  16.936 -0.2492 -0.3881  0.1339
    2MPD1     H14054   0.027   1.032  16.929 -1.0420  1.2743 -0.5569
    2MPD1    H114055   4.380   0.939  17.087 -1.6739  1.1700 -2.8226
    2MPD1    H214056   4.532   0.707  16.777 -1.6049 -1.2052  2.1737
    2MPD1    H314057   4.372   0.742  16.949  0.4437 -1.3346 -0.9942
    2MPD1     N14058   4.606   1.097  17.119 -0.1522  0.9625  0.1101
    2MPD1    H514059   4.697   1.142  17.112 -0.7548  2.2591  0.5443
    2MPD1    N114060   0.003   0.866  16.725  1.1423  0.4161  0.1780
    2MPD1    H614061   0.044   0.952  16.689  2.9087 -0.2977  0.4461
    2MPD1    H714062   4.705   0.813  16.644  0.1437  1.8141 -0.3576
    3TMC3    C114063   4.614   1.209  17.325 -0.7092  0.1849  0.3171
    3TMC3    C214064   0.005   1.265  17.293 -0.1276 -0.2621  0.4039
    3TMC3    C314065   0.095   1.303  17.393  0.2759  0.0012  0.1870
    3TMC3    C414066   4.568   1.219  17.457  0.0517  0.5063 -0.0740
    3TMC3    C514067   4.660   1.259  17.553 -0.1424  0.3553  0.6310
    3TMC3    C614068   0.055   1.297  17.522  0.0202  0.5695  0.0615
    3TMC3     C14069   4.532   1.126  17.236  0.6894 -0.0167 -0.9630
    3TMC3     O14070   4.430   1.080  17.284  0.1620  0.2982  0.4204
    3TMC3     H14071   0.044   1.275  17.192 -0.1812  0.9180  0.4932
    3TMC3    H114072   4.472   1.177  17.483 -0.3593  1.3193 -0.3062
    3TMC3    H214073   0.116   1.335  17.604  1.6871 -2.5289  0.2584
    3TMC3    C714074   4.612   1.297  17.685  0.1329 -0.7110 -0.0736
    3TMC3    C814075   0.236   1.315  17.367  0.5165 -0.4244 -0.0322
    3TMC3    O114076   4.693   1.316   0.040 -0.3367  0.4286  0.4845
    3TMC3    O214077   0.273   1.320  17.253 -0.5498 -0.2039 -0.0531
    4MPD1     C14078   0.708   1.243  17.532  0.2426  0.2669  0.6075
    4MPD1    C114079   0.621   1.221  17.636 -0.0834 -0.3370  0.6569
    4MPD1    C214080   0.487   1.232  17.619 -0.4097 -0.5349 -0.3385
    4MPD1    C314081   0.443   1.276  17.496  0.2627  0.0311  0.5477
    4MPD1    C414082   0.528   1.330  17.404  0.1930 -0.0389  0.8660
    4MPD1    C514083   0.661   1.310  17.420  0.9373 -0.0722  0.4330
    4MPD1     H14084   0.418   1.186  17.689 -1.4261 -0.7709 -1.4773
    4MPD1    H114085   0.496   1.373  17.310 -1.1171 -1.5466  0.6345
    4MPD1    H214086   0.813   1.224  17.549  0.5082  0.3948 -0.8783
    4MPD1    H314087   0.734   1.340  17.345 -0.5905  0.6050 -0.7878
    4MPD1     N14088   0.304   1.289  17.479  0.1823  0.3762 -0.4653
    4MPD1    H514089   0.243   1.257  17.553  1.2827  1.1727  0.7960
    4MPD1    N114090   0.661   1.168   0.026  0.1795  0.5737  0.2170
    4MPD1    H614091   0.758   1.197   0.039 -0.0522  1.7400 -0.6054
    4MPD1    H714092   0.602   1.209   0.099  0.1406 -0.2922  0.6655
    1TCq1    O114093   0.749   1.889  11.452 -0.1842  0.5917 -0.3831
    1TCq1    C114094   0.657   1.835  11.371  0.1406  0.3252  0.0230
    1TCq1    O214095   0.612   1.881  11.267  0.4449 -0.6137 -0.2951
    1TCq1    C214096   0.600   1.716  11.431  0.1008  0.0703 -0.1490
    1TCq1    C314097   0.592   1.708  11.565 -0.6412  0.0888 -0.2057
    1TCq1    C414098   0.476   1.661  11.622  0.0035 -0.6279 -0.0090
    1TCq1    C514099   0.389   1.577  11.554 -0.6943  0.1689  0.5266
    1TCq1    C614100   0.419   1.575  11.424  0.3968  0.2598  0.4854
    1TCq1    C714101   0.513   1.645  11.359  0.2426 -0.0713 -0.0007
    1TCq1    C814102   0.314   1.525  11.337 -0.1239  0.0985 -0.1673
    1TCq1    O414103   0.279   1.597  11.241 -1.1879  0.0539  0.0328
    1TCq1    C914104   0.477   1.653  11.766  0.5645 -0.1349  1.0517
    1TCq1    O514105   0.378   1.610  11.829 -0.4128 -0.2536 -0.3111
    1TCq1    O614106   0.586   1.693  11.816  0.3042 -0.3860 -0.2890
    1TCq1    H114107   0.784   1.822  11.515 -0.8206 -1.9273 -2.6906
    1TCq1    H214108   0.658   1.765  11.630  0.0619  1.3052 -1.9894
    1TCq1    H314109   0.312   1.523  11.607 -0.9745 -0.6829 -0.7439
    1TCq1    H414110   0.521   1.644  11.251 -0.6781 -2.9674 -0.0642
    2MPD1     C14111   4.694   1.159  11.239  0.1182 -0.0911 -0.0774
    2MPD1    C114112   4.727   1.150  11.370  0.6733  0.8197  0.7318
    2MPD1    C214113   0.086   1.239  11.421  0.7127 -0.4640  0.3479
    2MPD1    C314114   0.135   1.343  11.348 -0.2396  0.1717  0.4916
    2MPD1    C414115   0.091   1.358  11.218  0.2830  0.5360  0.2184
    2MPD1    C514116   0.013   1.262  11.158  0.5136 -0.5745 -0.4804
    2MPD1     H14117   0.123   1.232  11.522  1.0091  1.0769  0.3525
    2MPD1    H114118   0.125   1.440  11.156 -0.1228  0.0856 -0.6068
    2MPD1    H214119   4.620   1.087  11.204 -0.3940  0.2042  0.3991
    2MPD1    H314120   4.716   1.280  11.055 -0.6502 -2.6912 -0.5023
    2MPD1     N14121   0.245   1.417  11.395  0.3909  0.3949 -0.2079
    2MPD1    H514122   0.276   1.392  11.489 -1.7627 -0.2070  0.3365
    2MPD1    N114123   4.692   1.041  11.452  0.6268 -0.4156  0.3770
    2MPD1    H614124   4.663   1.067  11.546 -1.3388 -0.5683 -0.1834
    2MPD1    H714125   4.608   0.994  11.418  0.4137 -0.3404  0.8113
    1TMC1    C114126   4.250   3.723   1.310  0.1270  0.4683  0.8011
    1TMC1    C214127   4.340   3.800   1.244  0.5365  0.3605 -0.0966
    1TMC1    C314128   4.306   3.838   1.117  0.4170 -0.6935  0.3862
    1TMC1    C414129   4.127   3.696   1.256  0.0312  0.7593 -0.9417
    1TMC1    C514130   4.098   3.739   1.132  0.6921  0.6436 -0.5309
    1TMC1    C614131   4.184   3.819   1.060  0.0956  0.1482  0.1201
    1TMC1     C14132   4.275   3.697   1.453 -0.4252  0.0111  0.2536
    1TMC1     O14133   4.391   3.667   1.490 -0.1882 -0.0284  0.2831
    1TMC1     H14134   4.433   3.835   1.288  0.9777 -1.6069  0.5197
    1TMC1    H114135   4.065   3.621   1.304  1.6945  0.2426  0.3816
    1TMC1    H214136   4.174   3.839   0.954  0.6717  0.2644  0.0884
    1TMC1    C714137   3.985   3.680   1.057 -0.1976  0.3031 -0.7452
    1TMC1    C814138   4.406   3.887   1.029 -0.4019  0.0256 -0.0753
    1TMC1    O114139   3.963   3.559   1.060  0.0617 -0.2239  0.2344
    1TMC1    O214140   4.412   3.827   0.921  0.6502  0.0785 -0.2312
    1TMC1    O314141   3.943   3.779   0.971 -0.0816  0.2553  0.1058
    1TMC1    H314142   3.986   3.863   0.999 -0.8375  0.1260  1.6518
    1TMC1    O514143   4.403   4.024   1.043 -0.2817  0.2408 -0.3831
    1TMC1    H514144   4.391   4.043   1.138 -1.7661 -0.1604 -0.4874
    2MPD1     C14145   4.082   3.551   1.902 -0.0904 -0.7010 -0.2205
    2MPD1    C114146   3.980   3.612   1.834 -0.6826  0.2619  0.1451
    2MPD1    C214147   4.019   3.672   1.712 -0.5052  0.0883 -0.0432
    2MPD1    C314148   4.138   3.647   1.654  0.2873  0.0662 -0.5874
    2MPD1    C414149   4.231   3.576   1.718 -0.4762 -0.1538 -0.1118
    2MPD1    C514150   4.207   3.530   1.845  0.0266  0.8744  0.3582
    2MPD1     H14151   3.946   3.720   1.648  1.1845  1.0092 -1.3087
    2MPD1    H114152   4.326   3.551   1.672  0.2496  1.4436  0.5498
    2MPD1    H214153   4.069   3.511   2.001 -0.6454  0.2432  0.0898
    2MPD1    H314154   4.287   3.480   1.898 -1.6994 -3.4501 -1.1370
    2MPD1     N14155   4.159   3.708   1.525 -0.5044  0.7056  0.1817
    2MPD1    H514156   4.074   3.744   1.485 -0.9742 -0.4040  0.1804
    2MPD1    N114157   3.850   3.612   1.891  0.0141 -0.2818  0.6114
    2MPD1    H614158   3.842   3.537   1.959  1.4111 -0.9326  0.0399
    2MPD1    H714159   3.784   3.591   1.817  3.2774  2.3906 -3.0508
    1MPD1     C14160   1.951   2.308  12.336  0.5670  0.7479  0.9345
    1MPD1    C114161   2.051   2.399  12.353 -0.2799  0.2624  0.5470
    1MPD1    C214162   2.169   2.370  12.278  0.2962 -0.1449 -0.2686
    1MPD1    C314163   2.185   2.250  12.206 -0.2010  1.2818 -0.4380
    1MPD1    C414164   2.089   2.158  12.216 -0.0935 -0.1513 -0.2667
    1MPD1    C514165   1.972   2.193  12.273 -0.1949  0.1501 -0.6722
    1MPD1     H14166   2.252   2.439  12.280 -0.4279  0.6927  0.6281
    1MPD1    H114167   2.091   2.063  12.163  0.8565 -0.8800  1.0921
    1MPD1    H214168   1.850   2.319  12.373  0.1319 -0.9297  0.2685
    1MPD1    H314169   1.895   2.117  12.277 -0.0999  0.0884 -0.0763
    1MPD1     N14170   2.301   2.237  12.121 -0.5538  0.3205  0.8831
    1MPD1    H514171   2.371   2.310  12.128  0.6914 -0.5465 -2.4470
    1MPD1    N114172   2.032   2.526  12.408  0.1056 -0.0484 -0.6526
    1MPD1    H614173   2.118   2.574  12.432 -0.5811  0.1386  1.4956
    1MPD1    H714174   1.995   2.512  12.502 -0.5704 -0.2546 -0.9450
    2MPD1     C14175   2.232   1.524   9.887  0.0741 -0.3633  0.1548
    2MPD1    C114176   2.104   1.575   9.902  0.7449  0.1168  0.1885
    2MPD1    C214177   2.023   1.521  10.002  0.2404 -0.4777  0.2650
    2MPD1    C314178   2.054   1.409  10.074  0.2460 -0.7520  0.4319
    2MPD1    C414179   2.179   1.358  10.052  0.5463  0.0590  0.4482
    2MPD1    C514180   2.260   1.412   9.959 -0.0838 -0.4286 -0.1646
    2MPD1     H14181   1.939   1.586  10.027  2.4093  1.9271  1.3406
    2MPD1    H114182   2.210   1.268  10.104  0.6441  0.0692  0.4083
    2MPD1    H214183   2.309   1.561   9.820 -2.3161 -1.2360 -3.1241
    2MPD1    H314184   2.355   1.366   9.933 -0.2468 -1.6284  1.3821
    2MPD1     N14185   1.974   1.354  10.175  0.3368 -0.3695 -0.1219
    2MPD1    H514186   2.018   1.270  10.211  2.1772  0.2397 -0.9192
    2MPD1    N114187   2.069   1.694   9.840 -0.4900  0.3000 -0.6536
    2MPD1    H614188   1.971   1.712   9.818 -0.7144 -0.0565  0.0828
    2MPD1    H714189   2.123   1.720   9.758 -0.2842 -0.0376 -0.6265
    3MPD1     C14190   2.120   0.612  10.218 -0.5065  0.1012 -0.3232
    3MPD1    C114191   2.021   0.652  10.129  0.4671 -0.2260  0.4679
    3MPD1    C214192   1.934   0.751  10.175  0.7302 -0.6357 -0.0526
    3MPD1    C314193   1.941   0.805  10.298 -0.4932  0.2732 -0.1305
    3MPD1    C414194   2.033   0.758  10.383  0.4152 -0.3657 -0.7536
    3MPD1    C514195   2.114   0.655  10.348  0.3412  0.1177 -0.6748
    3MPD1     H14196   1.853   0.783  10.110  0.2718  1.0665  1.3465
    3MPD1    H114197   2.051   0.800  10.482 -0.3696 -0.7176 -0.4659
    3MPD1    H214198   2.194   0.540  10.185  0.1488 -0.2797  1.9906
    3MPD1    H314199   2.198   0.631  10.412  0.5603  0.5541 -0.7964
    3MPD1     N14200   1.862   0.922  10.329  0.6755 -0.6999 -0.7376
    3MPD1    H514201   1.812   0.964  10.251 -0.3061 -0.8171 -0.1616
    3MPD1    N114202   2.026   0.616   9.996 -0.0458  0.6202  0.1389
    3MPD1    H614203   2.061   0.521   9.991  0.6913  0.8739  0.3269
    3MPD1    H714204   1.940   0.632   9.944  0.0257  0.6500  0.0276
    4MPD2     C14205   2.486   2.479  11.446 -0.4533 -0.3808  0.0694
    4MPD2    C114206   2.437   2.358  11.490 -0.5414 -0.1101  0.1202
    4MPD2    C214207   2.356   2.291  11.400  0.3065 -0.4192  0.9338
    4MPD2    C314208   2.341   2.331  11.265  0.8044  0.4008 -0.2969
    4MPD2    C414209   2.399   2.446  11.226 -0.5116  0.0540 -0.2782
    4MPD2    C514210   2.464   2.523  11.317  0.1398 -0.3784  0.0481
    4MPD2     H14211   2.336   2.185  11.415  1.7047 -0.9414 -0.8754
    4MPD2    H114212   2.395   2.481  11.123 -1.5286  0.3461 -0.1384
    4MPD2    H214213   2.539   2.550  11.509 -1.0589 -1.6517  1.9971
    4MPD2    H314214   2.507   2.619  11.289 -0.8433  0.0572  0.0333
    4MPD2     N14215   2.285   2.250  11.167 -0.1378 -0.2321  0.2332
    4MPD2    H514216   2.319   2.265  11.072  2.0218  2.6227  1.4466
    4MPD2    N114217   2.455   2.307  11.626  0.8531  0.1272 -0.0556
    4MPD2    H714218   2.408   2.220  11.649 -1.1167  1.5538  1.3471
    5TMC3    C114219   2.572   2.277  11.819  0.2625  0.1355  0.2799
    5TMC3    C214220   2.474   2.271  11.914 -1.0626 -0.6473  0.1041
    5TMC3    C314221   2.446   2.147  11.964 -0.2589  0.2586  0.1843
    5TMC3    C414222   2.639   2.162  11.787 -0.4855 -0.4314 -0.4314
    5TMC3    C514223   2.604   2.040  11.837  0.5235 -0.3017 -0.2030
    5TMC3    C614224   2.504   2.032  11.931 -0.1445 -0.6668 -0.2547
    5TMC3     C14225   2.546   2.365  11.705 -0.2900  0.3782  0.5384
    5TMC3     O14226   2.644   2.437  11.676 -0.4742  0.2174 -0.2886
    5TMC3     H14227   2.431   2.368  11.936 -0.5154 -0.5266  0.6451
    5TMC3    H114228   2.723   2.166  11.717  1.0878 -0.3510  1.4530
    5TMC3    H214229   2.469   1.936  11.966 -0.0010 -1.0722 -1.2245
    5TMC3    C714230   2.608   1.946  11.732 -0.3584  0.5777  0.1881
    5TMC3    C814231   2.327   2.129  12.036 -0.2936  0.1573 -0.0059
    5TMC3    O114232   2.641   1.981  11.619  0.5009  0.1026 -0.3258
    5TMC3    O214233   2.252   2.033  12.005  0.2149  0.7659  0.4592
    6TMC3    C114234   1.811   1.319  10.323 -0.2498 -0.1304  0.5380
    6TMC3    C214235   1.845   1.186  10.319  0.5618  0.5600 -0.5334
    6TMC3    C314236   1.811   1.120  10.440  0.4412 -1.2132  0.0008
    6TMC3    C414237   1.755   1.385  10.427  0.4105 -0.2193  1.1186
    6TMC3    C514238   1.737   1.315  10.541 -0.0900 -0.2164 -0.3995
    6TMC3    C614239   1.768   1.181  10.549 -0.4494 -0.3256 -0.4602
    6TMC3     C14240   1.854   1.401  10.214  0.2828 -0.2017  0.5240
    6TMC3     O14241   1.794   1.501  10.179 -0.6787  0.0544  0.0803
    6TMC3     H14242   1.893   1.139  10.234  0.6811  1.6397 -1.0635
    6TMC3    H114243   1.745   1.492  10.415  2.8735  0.0707  1.6434
    6TMC3    H214244   1.746   1.122  10.638  0.0550 -1.3257 -1.0072
    6TMC3    C714245   1.750   1.399  10.652  0.0583 -0.5810 -0.2385
    6TMC3    C814246   1.850   0.981  10.452  0.4416 -0.5741 -0.6718
    6TMC3    O114247   1.797   1.364  10.759  0.2249  0.0739  1.1209
    6TMC3    O214248   1.879   0.939  10.563 -0.2036 -0.0530  0.2556
    7MPD2     C14249   2.329   1.573  11.511  0.6164 -0.4044 -0.1268
    7MPD2    C114250   2.389   1.681  11.455  0.5417 -0.9863 -0.7658
    7MPD2    C214251   2.467   1.765  11.534 -0.2131  0.3017  0.2402
    7MPD2    C314252   2.485   1.738  11.672 -0.3667  0.5508 -0.5734
    7MPD2    C414253   2.428   1.623  11.718 -0.0650 -0.2165 -0.9244
    7MPD2    C514254   2.354   1.538  11.641 -0.0710  0.0543 -0.1428
    7MPD2     H14255   2.485   1.861  11.488 -0.6467  0.1912 -0.1701
    7MPD2    H114256   2.429   1.599  11.824  1.4967  0.4132 -0.8037
    7MPD2    H214257   2.258   1.511  11.457 -0.6795  0.9971 -0.0204
    7MPD2    H314258   2.301   1.456  11.688  0.1985  0.2473  0.5006
    7MPD2     N14259   2.538   1.830  11.760  0.5214  0.0173  0.0315
    7MPD2    H514260   2.521   1.816  11.859  2.0678  0.6590  0.3993
    7MPD2    N114261   2.346   1.712  11.324  1.0307 -0.3041 -0.1039
    7MPD2    H714262   2.270   1.655  11.289  1.8934 -1.5886  0.1411
    8TMC3    C114263   2.332   1.839  11.128 -0.7210  0.1851  0.2318
    8TMC3    C214264   2.226   1.764  11.096 -0.0987 -0.2121  0.2597
    8TMC3    C314265   2.114   1.832  11.052 -0.7430  0.2642  0.8797
    8TMC3    C414266   2.336   1.974  11.104 -0.3063 -0.3378 -0.0371
    8TMC3    C514267   2.219   2.043  11.088  0.1573 -0.0107 -0.5778
    8TMC3    C614268   2.112   1.964  11.073  0.7334  0.7664  0.3342
    8TMC3     C14269   2.404   1.808  11.248  0.1054  0.5428  0.1848
    8TMC3     O14270   2.495   1.888  11.270 -0.3200 -0.0810 -0.4534
    8TMC3     H14271   2.238   1.659  11.076 -0.9416 -0.2813  0.1057
    8TMC3    H114272   2.420   2.039  11.123 -1.3759  1.3070 -0.8763
    8TMC3    H214273   2.019   2.019  11.077 -0.1040 -0.5876 -0.3483
    8TMC3    C714274   2.208   2.139  11.187  0.4635 -0.0721 -0.0917
    8TMC3    C814275   2.021   1.762  10.972 -0.1824 -0.0040  0.3754
    8TMC3    O114276   2.139   2.109  11.284  0.1241  0.1760  0.3210
    8TMC3    O214277   2.033   1.637  10.969  0.1494 -0.3242  1.0841
    9MPD2     C14278   1.729   1.895  10.793 -0.0203 -0.5294 -0.1012
    9MPD2    C114279   1.820   1.796  10.833  0.2936 -0.9043 -0.5699
    9MPD2    C214280   1.800   1.667  10.782  0.0028  1.0267  0.0513
    9MPD2    C314281   1.694   1.639  10.697  0.2090  0.1449  0.4663
    9MPD2    C414282   1.611   1.743  10.663 -0.1608  0.3972  0.2127
    9MPD2    C514283   1.619   1.867  10.719  0.3197  0.0000  0.2376
    9MPD2     H14284   1.869   1.585  10.798 -1.0470 -0.1018 -1.1814
    9MPD2    H114285   1.525   1.720  10.601  0.9004  1.2898 -1.6016
    9MPD2    H214286   1.732   1.998  10.826 -1.4641  0.4683 -3.0849
    9MPD2    H314287   1.549   1.945  10.692  0.5514 -0.4782 -1.7437
    9MPD2     N14288   1.681   1.514  10.628  0.4635 -0.6491  0.5884
    9MPD2    H514289   1.612   1.513  10.554  0.6357 -0.9904  0.4315
    9MPD2    N114290   1.926   1.839  10.910  0.2240 -0.1428  0.0541
    9MPD2    H714291   1.932   1.939  10.930 -0.2685  0.1110 -1.0435
    1MPD1     C14292   4.195   3.798  16.373  0.1533  0.5488  0.4888
    1MPD1    C114293   4.170   3.844  16.501  0.3196 -0.0301 -0.0566
    1MPD1    C214294   4.037   3.862  16.536  0.4570 -0.0766  0.8935
    1MPD1    C314295   3.939   3.877  16.440  0.4404 -0.2663  0.3533
    1MPD1    C414296   3.956   3.833  16.316  0.3731 -0.0771 -0.5152
    1MPD1    C514297   4.092   3.805  16.282 -0.2415 -0.1158  0.5158
    1MPD1     H14298   4.012   3.897  16.636 -1.7592 -0.3515  0.4430
    1MPD1    H114299   3.872   3.833  16.247  0.4426 -0.6153 -0.6014
    1MPD1    H214300   4.292   3.773  16.331 -0.8352 -1.4513 -0.6302
    1MPD1    H314301   4.120   3.783  16.180  0.9132  2.4045  0.2823
    1MPD1     N14302   3.807   3.932  16.459  0.6335  0.4215  0.1762
    1MPD1    H514303   3.744   3.930  16.381  0.1116  0.6559  0.5928
    1MPD1    N114304   4.267   3.832  16.597  0.8333  0.4685 -0.0723
    1MPD1    H614305   4.365   3.835  16.571  0.9217 -1.8340  0.0030
    1MPD1    H714306   4.253   3.903  16.669 -2.1971 -0.1759 -0.0317
    2TMC2    C114307   3.509   4.218  16.675  0.5314 -0.9771  0.2072
    2TMC2    C214308   3.465   4.262  16.552  0.6660  0.0370 -0.5310
    2TMC2    C314309   3.522   4.207  16.444  0.2492 -0.1229 -0.0971
    2TMC2    C414310   3.603   4.116  16.687  0.0752 -0.4359  1.1618
    2TMC2    C514311   3.662   4.069  16.569 -0.2191 -0.2702 -0.1173
    2TMC2    C614312   3.627   4.120  16.448  0.1326 -0.0737 -0.3083
    2TMC2     C14313   3.457   4.269  16.797 -0.1673 -0.3126  0.1550
    2TMC2     O14314   3.462   4.186  16.888 -0.2713 -0.4341  0.1116
    2TMC2     H14315   3.400   4.348  16.543 -0.3198 -0.3942  2.7407
    2TMC2    H114316   3.635   4.089  16.787 -1.9791 -1.8835  1.4205
    2TMC2    H214317   3.683   4.101  16.357  0.5290  1.8696 -0.4746
    2TMC2    C714318   3.766   3.968  16.581 -0.0750 -0.2760 -0.2015
    2TMC2    C814319   3.467   4.237  16.307  0.1073  0.1550 -0.0353
    2TMC2    O114320   3.808   3.938  16.694  0.2417  0.1339 -0.1915
    2TMC2    O214321   3.403   4.338  16.292  0.1052 -0.5932  0.4810
    2TMC2    O514322   3.424   4.116  16.271 -0.1433 -1.1421 -0.3252
    2TMC2    H514323   3.500   4.058  16.293  0.0360 -0.9609 -0.4701
    3MPD1     C14324   3.218   4.597  17.095  0.7373 -0.0430 -0.5276
    3MPD1    C114325   3.268   4.677  16.991  0.2952 -0.8625  0.1739
    3MPD1    C214326   3.336   4.608  16.891  0.5602  0.2531  0.1537
    3MPD1    C314327   3.361   4.476  16.897  0.3000 -0.1996 -0.2040
    3MPD1    C414328   3.329   4.407  17.010  0.1730  0.1760 -0.5671
    3MPD1    C514329   3.248   4.462  17.104  0.0336 -0.0781 -0.4125
    3MPD1     H14330   3.362   4.676  16.810 -0.3745  1.1970  0.6447
    3MPD1    H114331   3.355   4.304  17.031  2.1076  0.4660 -1.5830
    3MPD1    H214332   3.163   4.643  17.176 -1.4213 -2.0700 -0.8561
    3MPD1    H314333   3.217   4.406  17.191  1.6575  1.2499  1.0205
    3MPD1     N14334   3.426   4.401  16.796 -0.1512 -0.6088  0.4566
    3MPD1    H514335   3.452   4.460  16.718 -0.6988 -0.3915  0.4409
    3MPD1    N114336   3.225   0.077  16.975  0.0756 -0.3319  0.0780
    3MPD1    H614337   3.294   0.119  16.914  1.4172 -0.4227  1.5512
    3MPD1    H714338   3.231   0.127  17.063 -1.8840 -1.3509  0.7968
    1TMC1    C114339   0.062   3.608  12.356 -1.3657  0.2543  0.3381
    1TMC1    C214340   4.667   3.645  12.322 -0.1435 -0.0681 -0.9608
    1TMC1    C314341   4.567   3.561  12.273  0.0646 -0.1589 -0.3955
    1TMC1    C414342   0.091   3.477  12.339  0.0914  0.0469 -0.4351
    1TMC1    C514343   4.726   3.393  12.294 -0.7119  0.2251 -0.3605
    1TMC1    C614344   4.597   3.428  12.268 -0.1439  0.0594 -0.6732
    1TMC1     C14345   0.166   3.698  12.409  0.4511  0.5242  0.9864
    1TMC1     O14346   0.143   3.814  12.387  0.3083  0.3058  0.1428
    1TMC1     H14347   4.639   3.747  12.344  0.2858 -0.6547  2.3381
    1TMC1    H114348   0.194   3.443  12.345 -0.1591 -0.6687 -0.1246
    1TMC1    H214349   4.521   3.357  12.235 -1.8087  1.9317 -0.9139
    1TMC1    C714350   0.011   3.252  12.323  0.4956  0.6388  0.1621
    1TMC1    C814351   4.444   3.613  12.234  0.2886 -0.0769 -0.1237
    1TMC1    O114352   4.664   3.164  12.289  0.1772  0.2880  0.1720
    1TMC1    O214353   4.359   3.529  12.210  0.1524 -0.2176  0.4458
    1TMC1    O314354   0.058   3.263  12.452  0.0460  0.0986  0.1133
    1TMC1    H314355   0.148   3.297  12.467  0.1948 -0.4373  0.4000
    1TMC1    O514356   4.472   3.723  12.164 -0.3688  0.1429 -0.5706
    1TMC1    H514357   4.548   3.779  12.189 -0.3512 -0.8359  1.5176
    2MPD2     C14358   0.392   3.819  12.538  0.0407 -0.1231  0.3662
    2MPD2    C114359   0.367   3.689  12.554 -0.1817 -0.1048  0.4564
    2MPD2    C214360   0.458   3.621  12.630 -0.8575 -0.2870 -0.1175
    2MPD2    C314361   0.542   3.680  12.720 -0.2336  0.3255  0.4456
    2MPD2    C414362   0.573   3.813  12.702 -0.3144  0.3127  0.5364
    2MPD2    C514363   0.493   3.882  12.612 -0.3886 -0.0607  0.4711
    2MPD2     H14364   0.441   3.516  12.650 -1.5479 -0.0064  0.7686
    2MPD2    H114365   0.650   3.866  12.757  1.2299 -1.8911  0.4972
    2MPD2    H214366   0.328   3.882  12.478  1.1811  2.6004  1.9648
    2MPD2    H314367   0.508   3.988  12.594 -0.4709 -0.6938 -3.3163
    2MPD2     N14368   0.620   3.593  12.800  0.1138  0.1723  0.0709
    2MPD2    H514369   0.613   3.492  12.789 -1.4117  0.3909 -0.9310
    2MPD2    N114370   0.254   3.633  12.491 -0.3609 -0.1012  0.4664
    2MPD2    H714371   0.249   3.532  12.500 -2.0645 -0.1812 -1.4209
    3TCq1    O114372   1.188   3.350  13.124 -0.0708 -0.5149  0.2726
    3TCq1    C114373   1.093   3.444  13.134  0.2613 -0.2343  0.3425
    3TCq1    O214374   1.106   3.548  13.203  0.1764 -0.2693 -0.0406
    3TCq1    C214375   0.984   3.427  13.040  0.5763 -0.2341  0.1020
    3TCq1    C314376   0.954   3.302  12.996 -0.0863 -0.3019 -0.1251
    3TCq1    C414377   0.850   3.279  12.912 -0.8300 -0.3685 -0.0296
    3TCq1    C514378   0.764   3.377  12.882 -0.7517  0.9661  0.0975
    3TCq1    C614379   0.793   3.504  12.929  0.3967  0.4040 -0.2413
    3TCq1    C714380   0.902   3.532  13.011 -0.2802 -0.6229  0.0878
    3TCq1    C814381   0.713   3.623  12.896  0.0481  1.1123 -0.1395
    3TCq1    O414382   0.734   3.733  12.947 -0.1226  0.8119  0.6461
    3TCq1    C914383   0.820   3.145  12.867  0.5056 -0.1189 -0.2204
    3TCq1    O514384   0.738   3.130  12.776 -0.1615 -0.3978  0.8119
    3TCq1    O614385   0.893   3.056  12.913 -0.1655  0.0440  0.4648
    3TCq1    H114386   1.171   3.281  13.056 -0.6978  0.2592 -0.3745
    3TCq1    H214387   1.017   3.221  13.030 -0.8225 -1.4967 -1.6309
    3TCq1    H314388   0.693   3.350  12.804  1.6647  2.7010 -2.7238
    3TCq1    H414389   0.933   3.635  13.026 -0.9725 -0.4305  0.2093
    1MPD2     C14390   4.696   0.584  14.934  0.1269  0.5738  0.2594
    1MPD2    C114391   4.568   0.535  14.936 -0.7820  0.2071  0.8563
    1MPD2    C214392   4.544   0.407  14.904 -0.5496 -0.5259 -0.3277
    1MPD2    C314393   4.643   0.318  14.870 -0.4693 -0.3329 -0.8510
    1MPD2    C414394   0.045   0.362  14.883 -0.5012  0.5135  0.5794
    1MPD2    C514395   0.068   0.496  14.912  0.3441  0.4700 -0.1836
    1MPD2     H14396   4.444   0.365  14.909 -0.1617 -1.2362  1.4724
    1MPD2    H114397   0.124   0.292  14.860  0.9705  2.1730  0.5840
    1MPD2    H214398   4.713   0.686  14.965  0.3183  0.7951 -0.5648
    1MPD2    H314399   0.171   0.531  14.904 -0.1706  1.8298 -0.7759
    1MPD2     N14400   4.597   0.193  14.827 -0.0578 -0.6395  0.6407
    1MPD2    H514401   4.497   0.183  14.810 -0.7128  0.8642  3.6141
    1MPD2    N114402   4.466   0.625  14.975 -0.0919 -0.0759 -0.6168
    1MPD2    H714403   4.495   0.720  14.996  2.0604 -0.2584 -2.7201
    2TMC3    C114404   4.248   0.716  14.966 -0.4717  0.4761 -0.0948
    2TMC3    C214405   4.122   0.672  14.968  0.3941  0.9223  0.0847
    2TMC3    C314406   4.030   0.735  14.883 -0.3194 -0.1146  0.1674
    2TMC3    C414407   4.294   0.811  14.888 -0.1844 -0.2732  0.0511
    2TMC3    C514408   4.198   0.870  14.803  1.1531 -0.4219  0.1676
    2TMC3    C614409   4.070   0.836  14.799 -0.0380  0.0585  0.1482
    2TMC3     C14410   4.333   0.598  14.973  0.0156  0.3308 -0.5452
    2TMC3     O14411   4.278   0.493  14.955  0.2530  0.6298 -0.2149
    2TMC3     H14412   4.087   0.599  15.040  2.1988 -0.3130 -0.2833
    2TMC3    H114413   4.396   0.848  14.882 -0.0934 -0.4834  0.3201
    2TMC3    H214414   4.000   0.865  14.721 -1.0059  0.5057  1.1905
    2TMC3    C714415   4.226   0.977  14.711  0.3753 -0.2802  0.1768
    2TMC3    C814416   3.946   0.631  14.826 -0.4410 -0.3864 -0.3479
    2TMC3    O114417   4.124   1.040  14.675 -0.2913 -0.0001 -0.0570
    2TMC3    O214418   3.829   0.641  14.790  0.8270 -0.2395  0.2175
    3TCq1    O114419   0.423   1.376  14.005  0.0458  0.7357  0.0791
    3TCq1    C114420   0.464   1.284  14.095 -0.2703 -1.3648 -0.5977
    3TCq1    O214421   0.552   1.204  14.080 -0.5125 -0.2678 -0.2064
    3TCq1    C214422   0.389   1.303  14.219 -0.0199  0.0375 -0.8862
    3TCq1    C314423   0.447   1.257  14.333 -0.8742 -0.0204  0.6944
    3TCq1    C414424   0.370   1.236  14.443 -0.3333  0.2578 -0.0430
    3TCq1    C514425   0.238   1.259  14.437 -0.2955  0.2131  0.3073
    3TCq1    C614426   0.182   1.279  14.316  0.3029  0.7080  0.3997
    3TCq1    C714427   0.250   1.301  14.200 -0.0882  0.8290  0.1277
    3TCq1    C814428   0.041   1.282  14.308 -0.4638 -0.5516 -0.2744
    3TCq1    O414429   4.723   1.347  14.217 -0.2549 -0.5745  0.4680
    3TCq1    C914430   0.442   1.212  14.566  0.1789  0.1978  0.0527
    3TCq1    O514431   0.367   1.181  14.665 -0.3871  0.2918  0.4185
    3TCq1    O614432   0.567   1.232  14.557 -0.6303 -0.3460 -0.3660
    3TCq1    H114433   0.373   1.451  14.044  0.3616  1.1414 -0.2978
    3TCq1    H214434   0.555   1.246  14.333 -0.9163 -0.4614 -0.5149
    3TCq1    H314435   0.197   1.251  14.537 -1.8065  0.9666 -0.2499
    3TCq1    H414436   0.206   1.322  14.104 -1.0345 -0.3367  0.3091
    4MPD2     C14437   4.479   1.274  14.378  0.3820 -0.7275  0.3779
    4MPD2    C114438   4.573   1.203  14.446 -0.3429  0.6863 -0.1693
    4MPD2    C214439   4.526   1.116  14.542  0.5285 -0.0147  0.0930
    4MPD2    C314440   4.389   1.104  14.579  0.0844 -0.4550  1.4671
    4MPD2    C414441   4.303   1.185  14.508 -0.8000 -0.3262  0.2006
    4MPD2    C514442   4.349   1.250  14.396  0.0337  0.4540 -0.1659
    4MPD2     H14443   4.596   1.046  14.585 -1.2343 -2.5749 -1.1613
    4MPD2    H114444   4.197   1.179  14.531 -1.0568 -0.1762 -0.9365
    4MPD2    H214445   4.509   1.343  14.299 -1.1694  0.3699  0.7300
    4MPD2    H314446   4.276   1.312  14.345 -0.9881  0.0151  0.7682
    4MPD2     N14447   4.353   0.998  14.669  0.2226  0.5538  0.4640
    4MPD2    H514448   4.435   0.949  14.705 -0.1933 -0.8295 -0.5097
    4MPD2    N114449   4.711   1.209  14.411  0.3676  0.6337  0.0967
    4MPD2    H714450   0.032   1.154  14.477  1.4307 -0.9864 -2.1144
    5TMC2    C114451   4.370   4.713  14.697 -0.0613  0.1179  0.7225
    5TMC2    C214452   4.331   4.615  14.781 -0.3853 -0.0257 -0.5701
    5TMC2    C314453   4.434   4.558  14.854 -0.2146  0.1406 -0.1530
    5TMC2    C414454   4.493   0.022  14.675  0.3478 -0.1898 -0.6947
    5TMC2    C514455   4.586   4.707  14.765  0.7971  0.0136  0.1295
    5TMC2    C614456   4.555   4.612  14.855  0.6717 -0.1209 -0.2963
    5TMC2     C14457   4.287   0.099  14.690 -0.5679  0.0478  0.0996
    5TMC2     O14458   4.352   0.202  14.703 -0.4314  0.0090  0.1399
    5TMC2     H14459   4.228   4.589  14.803 -0.1556  0.7858  1.4304
    5TMC2    H114460   4.524   0.105  14.613  0.5623  0.1817 -0.0978
    5TMC2    H214461   4.628   4.580  14.929 -0.5743 -0.6699  0.7153
    5TMC2    C714462   4.672   0.080  14.812  0.0301 -0.2617 -0.8068
    5TMC2    C814463   4.392   4.486  14.971 -0.6717 -0.2514 -0.4259
    5TMC2    O114464   0.043   0.045  14.861  0.2242  0.1265 -0.5713
    5TMC2    O214465   4.314   4.391  14.965 -0.1834 -0.3879  0.4248
    5TMC2    O514466   4.447   4.545  15.081 -0.2153  0.3948  0.3194
    5TMC2    H514467   4.452   4.640  15.056  1.1915  0.1517 -0.2843
    6MPD2     C14468   3.851   0.369  14.710  0.3425  0.9107 -0.5921
    6MPD2    C114469   3.982   0.393  14.753 -0.5556  0.2805  0.0002
    6MPD2    C214470   4.081   0.306  14.737  0.2393 -0.7662 -0.2863
    6MPD2    C314471   4.055   0.173  14.684 -0.0542  0.3401  0.3346
    6MPD2    C414472   3.922   0.144  14.642 -0.1720  0.1202 -0.2188
    6MPD2    C514473   3.823   0.243  14.663 -0.8990  0.2609 -0.5206
    6MPD2     H14474   4.177   0.334  14.779 -0.0457 -1.8128  1.0716
    6MPD2    H114475   3.893   0.048  14.601  0.3027 -0.5503  1.0115
    6MPD2    H214476   3.768   0.439  14.717  1.1946  1.9798 -1.0770
    6MPD2    H314477   3.724   0.223  14.624 -0.4805 -0.4196 -1.2464
    6MPD2     N14478   4.147   0.073  14.679 -0.0151  0.3596  0.0612
    6MPD2    H514479   4.121   4.707  14.678  0.2874  0.2622  1.1722
    6MPD2    N114480   4.023   0.516  14.811 -0.1630 -0.3787  0.5431
    6MPD2    H714481   4.117   0.517  14.848  0.1650  0.6745 -0.3147
  945NH3     N114482   0.088   2.789  12.966 -0.0553  0.3275  0.3882
  945NH3     H214483   0.125   2.737  13.045 -1.2327  0.2252  0.8684
  945NH3     H314484   0.008   2.737  12.932  0.4547 -0.2986  0.1444
  945NH3     H414485   0.155   2.772  12.891 -0.6899 -0.8156  0.0872
  946SOD     NA14486   1.912   3.036  15.726  0.0893  0.0190  0.4984
  947SOD     NA14487   3.339   2.806   2.833 -0.3210  0.1153 -0.6571
  948SOD     NA14488   1.347   4.715   0.900 -0.3624 -0.5837  0.1340
  949SOD     NA14489   0.082   0.656  12.652 -0.3485 -0.0265 -0.1374
  950SOD     NA14490   1.549   1.064  17.328  0.3467 -0.2272  0.5228
  951SOD     NA14491   0.073   3.893  13.377 -0.5452  0.2544 -0.7670
  952SOD     NA14492   1.045   0.671   0.095  0.1143  0.3204 -0.5938
  953SOD     NA14493   0.808   1.580  14.690 -0.2572  0.1646 -0.4796
  954SOL     OW14494   3.300   1.571   7.718 -0.0305  0.3465 -0.2262
  954SOL    HW114495   3.325   1.601   7.806  1.2041  1.0425 -0.8114
  954SOL    HW214496   3.389   1.544   7.697 -0.4072 -0.7914 -0.3343
  955SOL     OW14497   1.231   1.482   1.190  0.3208 -0.1209  0.4693
  955SOL    HW114498   1.304   1.542   1.176 -0.4605  1.1534  1.8801
  955SOL    HW214499   1.156   1.528   1.152  0.9089  1.5952  1.4280
  956SOL     OW14500   2.876   3.976   8.771 -0.3303  0.4660 -0.1771
  956SOL    HW114501   2.970   3.958   8.774 -0.1992  0.5716 -3.2564
  956SOL    HW214502   2.835   3.914   8.831  0.9153 -1.1912 -1.0159
  957SOL     OW14503   4.726   2.242  15.927  0.0503 -0.1419  0.3426
  957SOL    HW114504   0.032   2.222  15.841 -1.3895  0.2854 -0.3867
  957SOL    HW214505   0.054   2.307  15.963  1.2821 -1.9831  1.5796
  958SOL     OW14506   4.115   1.615   8.676 -0.3063  0.0120 -0.2490
  958SOL    HW114507   4.093   1.702   8.642  0.5131  0.2607 -0.1484
  958SOL    HW214508   4.155   1.645   8.758  0.4512 -0.2794 -0.5157
  959SOL     OW14509   3.626   1.397  14.936 -0.3102 -0.0156 -0.5969
  959SOL    HW114510   3.555   1.396  14.873  0.1653  2.3004 -1.1528
  959SOL    HW214511   3.596   1.346  15.011  1.9004  0.7543  0.8247
  960SOL     OW14512   1.893   4.092   0.948 -0.1000 -0.6477 -0.2046
  960SOL    HW114513   1.880   4.101   1.042 -1.5469  0.7711 -0.5471
  960SOL    HW214514   1.988   4.098   0.935  0.0014  0.5527  1.0521
  961SOL     OW14515   4.684   1.883   8.609  0.1339  0.2511  0.3837
  961SOL    HW114516   4.700   1.929   8.692  2.1953  2.2266 -1.0692
  961SOL    HW214517   4.662   1.956   8.550 -1.2760  0.2824  0.9541
  962SOL     OW14518   1.675   1.141   8.946  0.1761  0.1001 -0.8205
  962SOL    HW114519   1.695   1.101   9.030  0.1192 -1.1712 -1.4168
  962SOL    HW214520   1.733   1.091   8.889  1.9120  0.6642  0.4561
  963SOL     OW14521   0.179   3.246  12.909  0.6213  0.0063  0.1466
  963SOL    HW114522   0.120   3.182  12.948 -0.0126  0.6889  0.3205
  963SOL    HW214523   0.189   3.214  12.820  0.6160 -0.0684  0.1728
  964SOL     OW14524   2.474   1.371   7.573 -0.2683 -0.6469 -0.2353
  964SOL    HW114525   2.416   1.427   7.624 -0.5977 -1.5556  0.3823
  964SOL    HW214526   2.553   1.424   7.580 -1.2427  0.8178 -0.4071
  965SOL     OW14527   4.673   1.072   2.039 -0.1940 -0.6039  0.2461
  965SOL    HW114528   0.019   1.127   2.029  0.1904 -1.0584  0.7842
  965SOL    HW214529   4.707   1.004   2.097  0.4011 -1.6449 -1.3342
  966SOL     OW14530   0.667   1.983   7.978  0.1404 -0.6089 -0.1065
  966SOL    HW114531   0.734   1.955   8.040 -0.3418  0.2445  0.8054
  966SOL    HW214532   0.610   1.906   7.975  1.4674 -1.5253 -1.8940
  967SOL     OW14533   1.385   4.728  12.558 -0.0561  0.0458 -0.5924
  967SOL    HW114534   1.299   4.700  12.528  0.1025 -0.7565 -0.2884
  967SOL    HW214535   1.440   4.654  12.531  0.6743  0.2115  0.4315
  968SOL     OW14536   0.199   2.644   2.759 -0.1888 -0.3230 -0.1131
  968SOL    HW114537   0.119   2.604   2.724  0.2031 -0.1272 -1.2294
  968SOL    HW214538   0.240   2.671   2.677 -1.9283 -1.1114 -1.2298
  969SOL     OW14539   2.601   4.021  12.229  0.3592 -0.0661  0.5342
  969SOL    HW114540   2.525   4.076  12.213  1.9383  1.8317 -0.3920
  969SOL    HW214541   2.648   4.031  12.147 -0.8144 -1.5995 -0.3336
  970SOL     OW14542   3.750   1.664   7.972 -0.1325  0.5773 -0.5138
  970SOL    HW114543   3.799   1.744   7.952  1.0600  0.3183  1.3789
  970SOL    HW214544   3.820   1.599   7.982 -1.2214 -0.0450  2.8291
  971SOL     OW14545   4.211   0.845   8.948  0.2820 -0.3063 -0.0655
  971SOL    HW114546   4.288   0.855   8.892  0.0053 -1.2900 -0.6218
  971SOL    HW214547   4.146   0.890   8.894 -0.6204 -0.2339  1.0982
  972SOL     OW14548   2.438   3.367   6.201 -0.6309 -0.1127 -0.4014
  972SOL    HW114549   2.442   3.442   6.142  0.3057  0.2492  0.1338
  972SOL    HW214550   2.349   3.380   6.234 -0.1718 -0.7658  1.0969
  973SOL     OW14551   3.651   1.376   5.613  0.0807 -0.3603  1.0540
  973SOL    HW114552   3.607   1.312   5.669 -1.6343  0.5513  0.7360
  973SOL    HW214553   3.713   1.410   5.678  1.1886  2.1961 -1.3579
  974SOL     OW14554   1.503   3.532  12.354 -0.2571  0.5219 -0.4603
  974SOL    HW114555   1.562   3.476  12.303  0.9108  0.9120  0.4740
  974SOL    HW214556   1.525   3.623  12.336 -0.4798  0.9802  1.5691
  975SOL     OW14557   1.445   2.177  15.527  0.2349 -0.4262  0.2179
  975SOL    HW114558   1.421   2.220  15.445  0.5743 -0.3397  0.1660
  975SOL    HW214559   1.498   2.103  15.499 -1.2057 -2.3728  2.5645
  976SOL     OW14560   0.361   3.770   6.176 -0.3001 -0.4178  0.1443
  976SOL    HW114561   0.339   3.862   6.188  1.4993  0.2035 -1.4200
  976SOL    HW214562   0.431   3.773   6.112  0.5012 -0.5035  1.0061
  977SOL     OW14563   3.603   1.680   1.472  0.4110  0.2123  0.4120
  977SOL    HW114564   3.565   1.625   1.541  0.3707  1.1138  1.1085
  977SOL    HW214565   3.576   1.767   1.500  0.3085 -0.2006  1.6106
  978SOL     OW14566   4.422   4.565   2.849 -0.3658  0.4369 -0.2803
  978SOL    HW114567   4.417   4.615   2.931  2.5846 -0.5954  0.5554
  978SOL    HW214568   4.517   4.565   2.836 -0.4381  0.0458 -0.8016
  979SOL     OW14569   2.212   3.059   6.053 -0.2091  0.3938 -0.4429
  979SOL    HW114570   2.231   3.076   6.145  0.6975 -0.1770 -0.5276
  979SOL    HW214571   2.303   3.067   6.023 -0.0898 -0.4556 -0.2840
  980SOL     OW14572   1.629   0.452   7.909  0.3928  0.5028  0.3611
  980SOL    HW114573   1.677   0.448   7.827 -1.9142  1.8978 -1.0485
  980SOL    HW214574   1.544   0.412   7.891  0.1345  0.4190  1.7928
  981SOL     OW14575   2.325   1.703   3.817 -0.3518  0.2856  0.9288
  981SOL    HW114576   2.290   1.768   3.756  0.4610 -1.3194 -1.2837
  981SOL    HW214577   2.406   1.743   3.849  0.2878  1.8183 -2.6018
  982SOL     OW14578   2.922   2.523   4.778 -0.2949  0.0913  0.9380
  982SOL    HW114579   2.933   2.456   4.711  2.7552  1.7584 -0.2379
  982SOL    HW214580   3.013   2.527   4.808 -0.3253 -1.4682  1.2393
  983SOL     OW14581   3.705   2.726   1.130  0.2246  0.5092  0.2533
  983SOL    HW114582   3.748   2.656   1.179 -0.4887  0.6058  1.0331
  983SOL    HW214583   3.700   2.690   1.041  0.3061 -2.2902  1.3602
  984SOL     OW14584   3.686   4.088   6.882  0.0036  0.3421 -0.1431
  984SOL    HW114585   3.601   4.107   6.842  0.7244 -1.5497 -2.5306
  984SOL    HW214586   3.726   4.061   6.800  1.8194  0.1081  0.8105
  985SOL     OW14587   4.449   2.048   8.620  0.4784  0.3500  0.0090
  985SOL    HW114588   4.385   1.993   8.575  2.2591 -0.1252 -1.9193
  985SOL    HW214589   4.429   2.020   8.709 -0.8989  0.9535 -0.0955
  986SOL     OW14590   1.789   0.028   0.743  0.1647 -0.0692 -0.1054
  986SOL    HW114591   1.723   4.709   0.698  1.5304  0.2751 -2.5126
  986SOL    HW214592   1.825   4.709   0.815  0.4819  1.9914  1.2233
  987SOL     OW14593   0.053   1.060   7.479  0.1298 -0.0439 -0.2301
  987SOL    HW114594   4.713   1.087   7.422  0.0000 -0.3302 -0.2039
  987SOL    HW214595   0.013   1.044   7.565 -0.5597  2.5612 -0.0681
  988SOL     OW14596   1.564   4.363  16.811 -0.0483  0.1736 -0.4893
  988SOL    HW114597   1.649   4.320  16.822  1.0542  1.7406 -2.8797
  988SOL    HW214598   1.537   4.325  16.727 -0.7099 -1.0349  0.2642
  989SOL     OW14599   0.737   3.778   3.068 -0.2354 -0.5948 -0.1322
  989SOL    HW114600   0.799   3.725   3.118  1.0279  0.8487 -0.1641
  989SOL    HW214601   0.732   3.849   3.133 -0.8088 -0.2935 -0.5004
  990SOL     OW14602   2.344   1.339   0.389  0.1147  0.2012  0.4049
  990SOL    HW114603   2.257   1.374   0.369  0.1310  2.0153  3.5007
  990SOL    HW214604   2.326   1.278   0.461 -1.0724 -2.3216 -2.0359
  991SOL     OW14605   4.717   1.245   2.479 -0.3023  0.1819  0.2548
  991SOL    HW114606   0.079   1.251   2.495  0.0353  0.4257 -1.7988
  991SOL    HW214607   4.691   1.234   2.570  0.5271 -0.3419  0.4201
  992SOL     OW14608   3.269   1.471   5.187  0.3262  0.2944  0.3653
  992SOL    HW114609   3.206   1.476   5.258 -0.5899 -0.7292 -0.3837
  992SOL    HW214610   3.226   1.427   5.114  1.4979  0.4440 -0.4209
  993SOL     OW14611   0.704   0.905  17.681 -0.0192  0.2004 -0.3009
  993SOL    HW114612   0.628   0.885  17.627  0.8009  2.5267 -2.3696
  993SOL    HW214613   0.681   0.994  17.709 -1.5574 -0.3701  0.2346
  994SOL     OW14614   3.953   2.459  12.987  0.4210 -0.0885 -0.0776
  994SOL    HW114615   3.925   2.514  12.914 -0.7105 -2.3716 -1.3461
  994SOL    HW214616   4.013   2.519  13.033  1.1296 -0.5007 -0.4576
  995SOL     OW14617   3.066   2.910  13.242  0.3526  0.3022 -0.0038
  995SOL    HW114618   3.133   2.977  13.257  1.2721 -1.0132  1.7804
  995SOL    HW214619   3.113   2.830  13.219  2.0265  1.1954  0.3695
  996SOL     OW14620   3.246   2.595   9.133  0.3501  0.9564 -0.5397
  996SOL    HW114621   3.236   2.612   9.040  2.8025 -0.9507 -1.1483
  996SOL    HW214622   3.161   2.568   9.168  0.4474 -0.1520 -1.1505
  997SOL     OW14623   0.437   0.040  10.739  0.5060 -0.1337 -0.2381
  997SOL    HW114624   0.478   4.688  10.716  0.6424 -0.2160  0.3013
  997SOL    HW214625   0.422   0.029  10.833  1.2861  1.7241  0.1025
  998SOL     OW14626   2.790   1.192   5.301 -0.2235 -0.0787 -0.6916
  998SOL    HW114627   2.879   1.205   5.336 -0.4352 -0.2560 -0.0996
  998SOL    HW214628   2.789   1.099   5.323  2.1954  0.2101  0.6480
  999SOL     OW14629   2.269   3.509   4.264 -0.2155  0.1090  0.0596
  999SOL    HW114630   2.236   3.429   4.225  0.8773 -0.5711  0.5252
  999SOL    HW214631   2.362   3.485   4.263  0.0573  1.1241  1.0335
 1000SOL     OW14632   4.278   4.193   3.522 -0.1920  0.5148  0.0260
 1000SOL    HW114633   4.370   4.185   3.548 -0.3480 -1.6653 -0.1103
 1000SOL    HW214634   4.245   4.119   3.574  0.7052  0.9069  1.1554
 1001SOL     OW14635   1.106   0.236   2.403  0.6313  0.4870  0.1526
 1001SOL    HW114636   1.011   0.233   2.403  0.5939  1.5338 -0.1356
 1001SOL    HW214637   1.127   0.147   2.431 -0.6597 -0.3798 -1.6444
 1002SOL     OW14638   4.625   4.241   5.744 -0.4037  0.5738  0.1899
 1002SOL    HW114639   4.655   4.150   5.739  0.4583  0.8493  0.1929
 1002SOL    HW214640   4.709   4.288   5.737  0.8674 -1.8760 -0.8964
 1003SOL     OW14641   1.974   2.691   5.215  0.1779  0.4312 -0.4582
 1003SOL    HW114642   1.887   2.698   5.253 -0.5275  1.0657 -2.1890
 1003SOL    HW214643   2.034   2.729   5.278 -0.3725 -1.9087  1.4745
 1004SOL     OW14644   2.276   3.603   1.389  0.2933 -0.5440  0.0730
 1004SOL    HW114645   2.308   3.607   1.299 -0.5769 -2.7481 -0.3199
 1004SOL    HW214646   2.252   3.693   1.412  1.6595  0.2580 -1.6461
 1005SOL     OW14647   1.285   2.570  10.035  0.1241 -0.7656 -0.4040
 1005SOL    HW114648   1.263   2.477  10.036 -0.8204 -0.5519 -1.2727
 1005SOL    HW214649   1.267   2.604  10.122 -0.5973  0.6498 -1.1090
 1006SOL     OW14650   3.628   3.611   3.804 -0.3642  0.3634 -0.1096
 1006SOL    HW114651   3.569   3.633   3.876 -0.5134  0.5726 -0.2954
 1006SOL    HW214652   3.714   3.621   3.844  0.3672 -1.2928 -1.2710
 1007SOL     OW14653   4.720   1.525   6.890  0.2090  0.0974  1.0262
 1007SOL    HW114654   4.625   1.534   6.898 -0.1042 -0.2193 -2.4165
 1007SOL    HW214655   0.002   1.515   6.796  0.4399  2.8193  0.7547
 1008SOL     OW14656   1.059   0.500   5.420 -0.4914 -0.0709  0.1869
 1008SOL    HW114657   1.103   0.579   5.452 -2.8393 -0.3751  4.1146
 1008SOL    HW214658   1.134   0.440   5.412 -0.1627  0.0978  1.9007
 1009SOL     OW14659   3.803   2.871   7.565 -0.0109 -0.2570  0.3177
 1009SOL    HW114660   3.856   2.847   7.489  2.6573  1.3910  1.6459
 1009SOL    HW214661   3.753   2.946   7.532 -0.1571  0.4487  2.1566
 1010SOL     OW14662   2.144   3.750  10.976  0.0149 -0.6511  0.2445
 1010SOL    HW114663   2.131   3.662  10.941 -0.2972 -1.8845  3.4061
 1010SOL    HW214664   2.238   3.770  10.971  0.3226 -1.9620  0.8000
 1011SOL     OW14665   0.923   4.663   0.453 -0.0605 -0.0165  0.1822
 1011SOL    HW114666   0.861   4.681   0.382 -0.7367 -0.3948  0.6723
 1011SOL    HW214667   0.920   0.010   0.507  0.1802  0.8707 -1.1120
 1012SOL     OW14668   4.297   3.846   4.162 -0.0353 -0.3679 -0.1369
 1012SOL    HW114669   4.323   3.922   4.215  0.4195  1.0096 -2.3389
 1012SOL    HW214670   4.339   3.871   4.080  1.3802  0.3872  0.8102
 1013SOL     OW14671   1.955   0.688   4.816 -0.0350 -0.1865 -0.1909
 1013SOL    HW114672   2.009   0.701   4.738 -0.9462  0.2441 -0.7499
 1013SOL    HW214673   1.905   0.608   4.802  0.9499 -1.1997  2.1191
 1014SOL     OW14674   2.843   1.693   5.429  0.2350 -0.3116 -0.2831
 1014SOL    HW114675   2.859   1.735   5.345 -1.6616  0.0901 -0.4339
 1014SOL    HW214676   2.843   1.761   5.496 -0.9786  0.9646 -1.5950
 1015SOL     OW14677   0.125   0.915  14.825  0.3128 -0.0359 -0.1370
 1015SOL    HW114678   0.211   0.875  14.813  0.5335  0.2365  0.5509
 1015SOL    HW214679   0.153   0.948  14.910  0.8957  3.0159 -1.5268
 1016SOL     OW14680   3.767   1.934   9.056  0.1852 -0.6111  0.2679
 1016SOL    HW114681   3.739   2.021   9.026 -2.4236 -1.2061  0.9445
 1016SOL    HW214682   3.847   1.965   9.098  0.8356  0.7696 -1.9766
 1017SOL     OW14683   2.881   1.710   3.261  0.0363 -0.1340  0.4552
 1017SOL    HW114684   2.855   1.793   3.301 -0.5535 -0.8757  1.6074
 1017SOL    HW214685   2.801   1.661   3.242 -2.0012  3.9726 -1.5507
 1018SOL     OW14686   2.772   4.705  13.095 -0.4481  0.1730 -0.3026
 1018SOL    HW114687   2.715   0.005  13.025  0.4534 -0.9749 -1.5780
 1018SOL    HW214688   2.836   4.656  13.043  1.5386  1.7533  0.6691
 1019SOL     OW14689   0.947   1.493   2.737 -0.6822  0.1185 -0.2659
 1019SOL    HW114690   1.028   1.526   2.697  0.5926 -2.8208 -0.1036
 1019SOL    HW214691   0.934   1.543   2.818  0.7230 -0.3840  0.2864
 1020SOL     OW14692   3.696   1.959  15.468 -0.7609  0.0811 -0.1939
 1020SOL    HW114693   3.731   2.044  15.441  1.1192 -0.3472  0.8889
 1020SOL    HW214694   3.606   1.974  15.440 -0.3530  1.8938 -0.5361
 1021SOL     OW14695   3.278   2.891   7.494 -0.1882  0.4378  0.5317
 1021SOL    HW114696   3.301   2.924   7.581  1.0097 -1.4183  0.9112
 1021SOL    HW214697   3.350   2.932   7.445 -0.1813  1.6421  1.5599
 1022SOL     OW14698   0.011   1.097   4.316  0.4404 -0.2261 -0.2408
 1022SOL    HW114699   0.100   1.065   4.332  1.5421  2.6024 -0.7467
 1022SOL    HW214700   0.027   1.186   4.346 -0.3416 -0.5611  1.1940
 1023SOL     OW14701   1.633   4.441   8.190  0.2957  0.5391  0.1983
 1023SOL    HW114702   1.618   4.438   8.284 -0.6848  1.6258  0.0692
 1023SOL    HW214703   1.600   4.528   8.171 -2.0710 -0.0464  1.7098
 1024SOL     OW14704   3.853   3.719   3.555 -0.1938  0.2045 -0.0214
 1024SOL    HW114705   3.841   3.788   3.621 -2.2745 -0.6821  0.5298
 1024SOL    HW214706   3.945   3.728   3.531  0.0643  0.1761  0.9677
 1025SOL     OW14707   4.415   2.163   6.283 -0.7259  0.0513  0.2320
 1025SOL    HW114708   4.331   2.192   6.319 -0.8530 -0.8825  0.7070
 1025SOL    HW214709   4.472   2.147   6.358 -1.0156  4.3718  1.3322
 1026SOL     OW14710   1.339   1.374   2.415 -0.2053  0.0376 -0.0587
 1026SOL    HW114711   1.246   1.352   2.414  0.1565 -1.3891 -2.8620
 1026SOL    HW214712   1.374   1.285   2.406  0.5927  0.4344 -0.9507
 1027SOL     OW14713   4.610   2.322   5.006  0.0627 -0.3595 -0.0231
 1027SOL    HW114714   4.661   2.350   5.081  0.9639  1.1910 -1.2221
 1027SOL    HW214715   4.621   2.401   4.953  1.0641 -0.1819  0.4593
 1028SOL     OW14716   1.200   3.588   8.287 -0.0355 -0.1465 -0.2510
 1028SOL    HW114717   1.252   3.521   8.242  1.1357  1.2636 -0.9690
 1028SOL    HW214718   1.162   3.628   8.209  1.2594  0.0435 -0.7862
 1029SOL     OW14719   3.832   3.042  11.878 -0.0100 -0.3608  0.1610
 1029SOL    HW114720   3.770   2.986  11.831  0.1396  0.6738 -1.2936
 1029SOL    HW214721   3.890   3.087  11.816 -0.9697  0.2894 -0.2558
 1030SOL     OW14722   2.449   2.778   8.570  0.5744 -0.8459  0.0589
 1030SOL    HW114723   2.496   2.837   8.629 -0.1782 -1.3567  1.1602
 1030SOL    HW214724   2.376   2.749   8.625  1.6083 -1.9126  0.8724
 1031SOL     OW14725   4.452   2.849   2.124 -0.3538 -0.1116  1.0551
 1031SOL    HW114726   4.434   2.797   2.201 -0.1509  1.7164  2.3369
 1031SOL    HW214727   4.480   2.778   2.066 -0.3976  0.3188  0.5029
 1032SOL     OW14728   2.884   2.938   2.595  0.1511  0.4698  0.0088
 1032SOL    HW114729   2.805   2.888   2.576  2.4803 -2.9855 -0.6721
 1032SOL    HW214730   2.927   2.930   2.510 -0.0547  0.6890 -0.1136
 1033SOL     OW14731   2.611   1.421  12.142 -0.0242 -0.1474  0.3915
 1033SOL    HW114732   2.600   1.329  12.164 -1.0108 -0.5091 -1.6461
 1033SOL    HW214733   2.664   1.402  12.065 -1.0461 -3.5484  0.5293
 1034SOL     OW14734   2.308   3.204   5.742  0.3105  0.0904 -0.9737
 1034SOL    HW114735   2.326   3.116   5.707  0.7465  0.5940 -1.9978
 1034SOL    HW214736   2.398   3.236   5.734  0.5646 -0.2851  0.3785
 1035SOL     OW14737   1.676   1.465   4.384 -0.3924  0.4564 -0.2295
 1035SOL    HW114738   1.682   1.557   4.412 -0.4136  0.3117  0.2425
 1035SOL    HW214739   1.685   1.480   4.289 -1.3730 -0.6767 -0.4925
 1036SOL     OW14740   4.351   4.535   6.836  0.1304  0.2506 -0.8324
 1036SOL    HW114741   4.424   4.520   6.896  1.3124 -0.7130 -2.4934
 1036SOL    HW214742   4.287   4.474   6.873 -2.4856  3.0327 -0.8189
 1037SOL     OW14743   3.864   3.013   0.945  0.3036  0.3757  0.1711
 1037SOL    HW114744   3.908   2.930   0.961 -0.4543  0.4188  2.3879
 1037SOL    HW214745   3.904   3.072   1.009  0.5131 -0.8964  1.2089
 1038SOL     OW14746   3.685   0.256   2.421 -0.3739  0.0168  0.1634
 1038SOL    HW114747   3.778   0.277   2.433 -1.1608  4.4560 -1.5510
 1038SOL    HW214748   3.703   0.169   2.385  1.9844  0.1513  0.9652
 1039SOL     OW14749   1.563   0.187  16.393  0.3750  0.0423  0.6500
 1039SOL    HW114750   1.656   0.203  16.409 -0.0966  1.6114  1.8284
 1039SOL    HW214751   1.539   0.152  16.478 -0.2310 -1.1257 -0.0125
 1040SOL     OW14752   4.077   4.653  10.801 -0.3012 -0.1001 -0.5085
 1040SOL    HW114753   4.060   4.700  10.719 -1.4353  0.0646 -0.1798
 1040SOL    HW214754   4.157   4.703  10.811 -1.5756  1.8384  0.0259
 1041SOL     OW14755   1.046   1.910  13.649  0.0444 -0.8950  0.2220
 1041SOL    HW114756   1.130   1.953  13.636 -0.1384 -0.2501  1.0918
 1041SOL    HW214757   1.076   1.855  13.721 -0.4851  0.3164  1.3797
 1042SOL     OW14758   1.094   3.143   2.565 -0.0080 -0.2952 -0.2584
 1042SOL    HW114759   1.114   3.234   2.588 -3.1647 -0.2013  2.1058
 1042SOL    HW214760   1.105   3.099   2.649  0.6478  3.1679  1.4726
 1043SOL     OW14761   3.881   4.623   9.136 -0.2258 -0.3127 -0.7130
 1043SOL    HW114762   3.921   4.678   9.204 -0.1159  1.2191 -1.9925
 1043SOL    HW214763   3.811   4.680   9.106  0.5848 -0.3826 -2.7424
 1044SOL     OW14764   4.223   0.918   2.531  0.6307  0.1418 -0.3970
 1044SOL    HW114765   4.171   0.919   2.611 -1.5560 -0.2997 -1.8177
 1044SOL    HW214766   4.159   0.904   2.461  0.0717  1.0715 -0.0739
 1045SOL     OW14767   4.436   2.386   0.869 -0.2424  0.4646  0.0503
 1045SOL    HW114768   4.446   2.292   0.861 -1.6179  0.3515 -0.3019
 1045SOL    HW214769   4.505   2.421   0.812  0.1211  0.7015  0.6408
 1046SOL     OW14770   1.223   1.482   5.239 -0.0033  0.3184  0.4109
 1046SOL    HW114771   1.139   1.508   5.275 -0.0615  0.5199  0.1300
 1046SOL    HW214772   1.268   1.425   5.302  0.3160  0.0963 -0.0152
 1047SOL     OW14773   0.001   1.963   2.102 -0.3305  0.1399 -0.1368
 1047SOL    HW114774   4.704   1.942   2.014  1.4552 -1.4079 -0.3652
 1047SOL    HW214775   0.013   1.873   2.130  1.4417 -0.5455 -3.1255
 1048SOL     OW14776   4.169   3.401   4.143 -0.9090  0.9235 -0.5061
 1048SOL    HW114777   4.253   3.363   4.120 -0.3900  3.1749 -2.3627
 1048SOL    HW214778   4.185   3.475   4.202 -1.3320 -0.4176  1.2806
 1049SOL     OW14779   3.126   2.030   0.058 -0.4047 -0.4939  0.1997
 1049SOL    HW114780   3.050   1.977   0.034 -0.3709 -0.2610 -0.4303
 1049SOL    HW214781   3.137   2.085  17.710 -1.2659 -0.8873 -0.1973
 1050SOL     OW14782   1.213   0.784   8.088 -0.4562  0.1258 -0.1305
 1050SOL    HW114783   1.268   0.847   8.135 -1.4897 -0.3539  1.6938
 1050SOL    HW214784   1.278   0.757   8.023  2.2895  1.9493  1.8669
 1051SOL     OW14785   2.176   4.676   3.162 -0.0172 -0.4141  0.0913
 1051SOL    HW114786   2.093   4.687   3.117  0.4127 -0.2440 -0.6681
 1051SOL    HW214787   2.241   4.689   3.092  0.6706  1.7976  1.1419
 1052SOL     OW14788   2.685   4.179  17.326  0.1364 -0.2192  0.1999
 1052SOL    HW114789   2.611   4.150  17.379  1.0911 -2.8644  0.0567
 1052SOL    HW214790   2.750   4.116  17.357 -1.2074 -1.9221 -0.4523
 1053SOL     OW14791   2.564   2.753  12.448 -0.2521 -0.4801  0.6198
 1053SOL    HW114792   2.525   2.840  12.457 -0.0124 -0.4554  1.4099
 1053SOL    HW214793   2.487   2.701  12.425  0.4685 -0.9417 -0.7116
 1054SOL     OW14794   1.079   4.331   8.051 -0.1466 -0.2210  0.0230
 1054SOL    HW114795   1.074   4.411   7.998  0.2870 -0.5803 -0.5669
 1054SOL    HW214796   1.089   4.268   7.980  0.3234 -0.4594  0.3049
 1055SOL     OW14797   3.083   1.026   5.224  0.5307  0.1385  0.2262
 1055SOL    HW114798   3.054   1.071   5.144 -2.1168  0.0264  1.1137
 1055SOL    HW214799   3.099   1.101   5.281  1.9810  1.4198 -1.8496
 1056SOL     OW14800   4.194   3.835   9.273 -0.4602 -0.0504 -0.0059
 1056SOL    HW114801   4.239   3.868   9.195  1.6620  1.9128  2.0645
 1056SOL    HW214802   4.258   3.855   9.341  0.2305  0.8514 -0.9081
 1057SOL     OW14803   3.830   0.516  10.871  0.2213  0.2008  0.3286
 1057SOL    HW114804   3.738   0.493  10.884  0.4217 -0.7697  0.0371
 1057SOL    HW214805   3.820   0.594  10.816  1.0183 -1.5539 -2.3250
 1058SOL     OW14806   2.359   1.880   1.242 -0.0515 -0.0992 -0.2981
 1058SOL    HW114807   2.419   1.866   1.315  2.7902  0.9891 -2.3810
 1058SOL    HW214808   2.422   1.909   1.176  0.5901 -2.3394 -0.6746
 1059SOL     OW14809   2.822   2.453   9.036  0.0689  0.2684 -0.1747
 1059SOL    HW114810   2.785   2.527   8.988  2.0458  1.3370 -0.0377
 1059SOL    HW214811   2.906   2.428   8.996 -0.4195  0.5506 -1.3664
 1060SOL     OW14812   3.044   1.223   5.418  0.4424 -0.5177  0.0822
 1060SOL    HW114813   3.016   1.314   5.410 -1.7208 -0.9965  2.1211
 1060SOL    HW214814   3.121   1.243   5.471  0.2972 -1.8350  0.7826
 1061SOL     OW14815   0.290   3.385   1.266 -0.3431 -0.5962 -0.5159
 1061SOL    HW114816   0.322   3.320   1.203  1.0868 -1.0155  0.6623
 1061SOL    HW214817   0.305   3.331   1.344 -1.5468  0.6957  0.6136
 1062SOL     OW14818   0.571   3.077   6.355  0.4868 -0.0521  0.1796
 1062SOL    HW114819   0.665   3.095   6.349  0.7682 -1.9255 -0.8211
 1062SOL    HW214820   0.567   3.060   6.450 -1.4234  2.2980  0.5111
 1063SOL     OW14821   0.099   1.997   2.401 -0.1869  0.0804  0.1653
 1063SOL    HW114822   0.187   1.961   2.386 -0.4264  0.0563 -1.1920
 1063SOL    HW214823   0.048   1.939   2.344 -2.2281  0.3042  1.7761
 1064SOL     OW14824   2.987   4.341   1.907  0.0347  0.3475 -0.3916
 1064SOL    HW114825   3.053   4.289   1.953 -1.7792 -2.7897 -1.3621
 1064SOL    HW214826   2.967   4.396   1.983 -2.1918 -1.7111  0.5208
 1065SOL     OW14827   2.511   4.364   2.616  0.0450  0.1084 -0.7091
 1065SOL    HW114828   2.510   4.304   2.690 -0.6616  0.9028 -0.0646
 1065SOL    HW214829   2.540   4.307   2.546  1.5822  3.5958 -2.9186
 1066SOL     OW14830   4.704   0.796  13.741  0.2837 -0.1045  0.7183
 1066SOL    HW114831   4.693   0.843  13.824  2.2617  0.2942  0.7611
 1066SOL    HW214832   4.623   0.747  13.731  0.2100 -0.0881  1.2205
 1067SOL     OW14833   4.139   2.318  16.286  0.3703 -0.7585 -0.4414
 1067SOL    HW114834   4.226   2.357  16.280 -0.4947  1.5566  1.9601
 1067SOL    HW214835   4.105   2.339  16.199  3.2580  0.0878 -1.3886
 1068SOL     OW14836   1.362   0.414   1.752 -0.0046 -0.1925  0.2718
 1068SOL    HW114837   1.303   0.480   1.789 -1.5441 -1.1555 -0.4528
 1068SOL    HW214838   1.295   0.358   1.713 -1.2368  0.7689  1.0049
 1069SOL     OW14839   2.571   2.411   2.161  0.3791 -1.0227  0.1341
 1069SOL    HW114840   2.555   2.413   2.066 -0.8974 -1.1317  0.3404
 1069SOL    HW214841   2.500   2.363   2.204  1.9857 -0.9898  2.8019
 1070SOL     OW14842   2.127   1.116   8.761 -0.1863  0.5221 -0.0083
 1070SOL    HW114843   2.178   1.146   8.837  0.8055  0.0553 -0.4968
 1070SOL    HW214844   2.175   1.165   8.694  0.7546  1.4660  1.3518
 1071SOL     OW14845   4.139   1.991   4.380  0.4126  0.4497 -0.4582
 1071SOL    HW114846   4.046   2.013   4.377  0.1197 -0.4716  2.3407
 1071SOL    HW214847   4.172   2.063   4.434 -0.7717  0.1023  0.7317
 1072SOL     OW14848   2.375   2.098  12.811 -0.3981 -0.1722  0.0239
 1072SOL    HW114849   2.387   2.049  12.730 -0.3818 -0.5044  0.2239
 1072SOL    HW214850   2.286   2.068  12.833 -0.6009  1.1766  0.9920
 1073SOL     OW14851   2.823   2.709   5.740 -0.1955  0.5027  0.3258
 1073SOL    HW114852   2.837   2.699   5.646 -0.0491  1.2596  0.2680
 1073SOL    HW214853   2.728   2.706   5.743 -0.2233  0.1173 -0.8980
 1074SOL     OW14854   0.955   0.715   6.317 -0.1415  0.3890  0.3132
 1074SOL    HW114855   0.936   0.660   6.242 -0.3831  1.6002 -0.5191
 1074SOL    HW214856   0.996   0.792   6.276 -2.9385  1.3948 -0.5438
 1075SOL     OW14857   0.794   4.626  17.342 -0.2813  0.3986  0.1397
 1075SOL    HW114858   0.750   4.576  17.411 -1.7365  0.2339 -0.9139
 1075SOL    HW214859   0.745   4.708  17.349 -1.5943 -0.3534 -0.2920
 1076SOL     OW14860   3.957   1.336   3.592 -0.1855 -0.1518  0.2765
 1076SOL    HW114861   4.045   1.362   3.565 -0.6355 -0.9023 -1.9299
 1076SOL    HW214862   3.951   1.246   3.560 -0.9521 -0.0777  0.2161
 1077SOL     OW14863   4.457   1.990   2.559 -0.7185  0.5390  0.3241
 1077SOL    HW114864   4.472   1.898   2.537 -1.7106  1.0046 -2.3433
 1077SOL    HW214865   4.443   2.027   2.472 -0.2770  0.3564  0.1770
 1078SOL     OW14866   0.451   4.492   7.397 -0.7844  0.2201  0.2517
 1078SOL    HW114867   0.470   4.584   7.414 -0.1592  0.6443 -2.6898
 1078SOL    HW214868   0.493   4.445   7.469 -0.5527 -0.7466 -0.5166
 1079SOL     OW14869   0.125   1.762   3.219 -0.1542 -0.1662  0.4901
 1079SOL    HW114870   0.051   1.754   3.279  1.5255 -1.0774  2.4618
 1079SOL    HW214871   0.201   1.776   3.276 -1.4144 -1.8215  2.5806
 1080SOL     OW14872   3.624   3.353   3.692  0.1612  0.4568  0.4648
 1080SOL    HW114873   3.566   3.284   3.724  1.5204 -0.6134  0.6282
 1080SOL    HW214874   3.569   3.426   3.720  0.1204 -0.2827  2.3197
 1081SOL     OW14875   3.774   4.257   0.341 -0.4018 -0.1136 -0.2300
 1081SOL    HW114876   3.813   4.329   0.390 -0.6043 -1.3774  1.7762
 1081SOL    HW214877   3.715   4.291   0.274 -0.5713  0.3675  0.1642
 1082SOL     OW14878   4.042   0.699   7.931  0.1734  0.6016  0.0562
 1082SOL    HW114879   4.054   0.778   7.985 -2.1643 -0.3769  2.0067
 1082SOL    HW214880   4.093   0.630   7.973  0.2976  2.1568  2.4447
 1083SOL     OW14881   3.003   2.755   3.206  0.6262 -0.3373 -0.2016
 1083SOL    HW114882   2.938   2.696   3.167  0.0109 -1.1463  2.0505
 1083SOL    HW214883   2.959   2.838   3.188  2.0220  0.0275 -1.8696
 1084SOL     OW14884   4.467   3.514   2.286  0.5166 -0.1204  0.5585
 1084SOL    HW114885   4.510   3.453   2.226 -0.6979 -0.2446 -0.1888
 1084SOL    HW214886   4.409   3.457   2.336  0.5373 -0.0320  0.6846
 1085SOL     OW14887   2.362   3.821   6.740 -0.0594  0.4438  0.1768
 1085SOL    HW114888   2.288   3.775   6.780 -0.9278  1.7259  0.0425
 1085SOL    HW214889   2.440   3.784   6.782 -0.0419 -1.3373 -1.3836
 1086SOL     OW14890   4.106   2.325   1.530 -0.2504  0.7511 -0.5906
 1086SOL    HW114891   4.120   2.408   1.484 -3.1552  0.9787 -1.0250
 1086SOL    HW214892   4.105   2.358   1.619  1.7243 -1.6672  0.3308
 1087SOL     OW14893   3.632   2.111   4.450  0.2798 -0.5825 -0.3630
 1087SOL    HW114894   3.598   2.162   4.524 -0.1645 -0.7013 -0.4864
 1087SOL    HW214895   3.582   2.030   4.455  0.1133 -0.3236  2.5214
 1088SOL     OW14896   3.568   3.857   5.829 -0.1347  0.1377  0.1065
 1088SOL    HW114897   3.556   3.762   5.829  0.3563  0.0757  0.5155
 1088SOL    HW214898   3.642   3.856   5.890  0.2325 -1.2754 -0.3685
 1089SOL     OW14899   1.798   0.802   5.008 -0.3688 -0.3622  0.1881
 1089SOL    HW114900   1.735   0.731   5.022  0.1968 -0.6503  1.2942
 1089SOL    HW214901   1.849   0.764   4.936 -2.1779 -1.8934 -0.2726
 1090SOL     OW14902   0.552   2.181   1.131 -0.4048  0.0751 -0.4542
 1090SOL    HW114903   0.524   2.260   1.178  1.6823  0.0941  0.7431
 1090SOL    HW214904   0.574   2.231   1.052  1.7621 -0.1546  0.0247
 1091SOL     OW14905   0.564   3.075   8.737  0.0184  0.2010 -0.0805
 1091SOL    HW114906   0.518   3.122   8.807 -0.7381  0.6953 -0.9100
 1091SOL    HW214907   0.546   3.123   8.656 -1.2992  1.1480  0.7626
 1092SOL     OW14908   3.967   3.382   7.292 -0.5141  0.9282  0.7551
 1092SOL    HW114909   3.952   3.357   7.383  0.9555  1.3615  1.1100
 1092SOL    HW214910   4.058   3.356   7.281 -1.2247 -1.6080  0.8451
 1093SOL     OW14911   1.440   4.673   1.219  0.0364  0.8740  0.2416
 1093SOL    HW114912   1.352   4.658   1.256  0.0937 -0.5042 -0.1698
 1093SOL    HW214913   1.488   4.647   1.298  0.6474 -0.4881 -0.5932
 1094SOL     OW14914   4.054   2.468   8.255 -0.2391 -0.2913  0.2705
 1094SOL    HW114915   4.036   2.435   8.343  0.8228 -0.6821  0.3363
 1094SOL    HW214916   4.134   2.418   8.238  0.8095  1.5018 -0.1221
 1095SOL     OW14917   3.177   3.885   8.149  0.4620  0.0616  0.5946
 1095SOL    HW114918   3.092   3.928   8.150  0.8979  1.0319 -1.6291
 1095SOL    HW214919   3.152   3.806   8.196  1.4747 -1.7946 -1.9913
 1096SOL     OW14920   4.142   3.623   3.299  0.1763  0.4801  0.5083
 1096SOL    HW114921   4.083   3.574   3.356 -0.6759  0.3838 -0.4631
 1096SOL    HW214922   4.130   3.715   3.324  2.5354  0.7491  0.6533
 1097SOL     OW14923   1.265   4.269   9.370 -0.5583 -0.6035 -0.1847
 1097SOL    HW114924   1.262   4.211   9.446  1.4916  0.8207  0.9870
 1097SOL    HW214925   1.188   4.242   9.321 -0.7746  0.1398 -0.2481
 1098SOL     OW14926   0.475   4.537  11.462  0.0389  0.1088  0.0066
 1098SOL    HW114927   0.499   4.473  11.529 -0.5297 -1.0348 -0.8716
 1098SOL    HW214928   0.425   4.475  11.409  0.5864  0.0345 -0.4210
 1099SOL     OW14929   1.589   0.289   6.104 -0.3368  0.0860  0.2116
 1099SOL    HW114930   1.681   0.263   6.105 -1.0148 -2.3501  0.5792
 1099SOL    HW214931   1.557   0.257   6.020 -0.1858  2.6899 -0.8138
 1100SOL     OW14932   0.861   1.076   6.042  0.4388  0.3374  0.4692
 1100SOL    HW114933   0.947   1.035   6.028 -0.1387 -0.7703  0.1314
 1100SOL    HW214934   0.860   1.135   5.967 -1.3723  0.9150  0.9591
 1101SOL     OW14935   1.609   4.182   4.835 -0.4718 -0.2871  0.2196
 1101SOL    HW114936   1.633   4.260   4.785 -0.1138  0.9199  2.2359
 1101SOL    HW214937   1.695   4.161   4.872  0.6756  1.4518 -1.4704
 1102SOL     OW14938   2.604   1.970   5.188  0.3433 -0.3272 -0.6614
 1102SOL    HW114939   2.537   1.979   5.121  1.0842 -3.0677 -1.7580
 1102SOL    HW214940   2.617   2.063   5.211  0.1737 -0.7629  1.2435
 1103SOL     OW14941   3.484   0.462   2.966  0.0506 -0.2451  0.6993
 1103SOL    HW114942   3.557   0.406   2.942 -0.3441 -0.1011 -0.8782
 1103SOL    HW214943   3.430   0.466   2.887  1.5954 -0.5625 -0.3576
 1104SOL     OW14944   4.196   1.250   8.684 -0.1436 -0.2730 -0.6445
 1104SOL    HW114945   4.256   1.176   8.672  0.3941  0.1615 -0.6386
 1104SOL    HW214946   4.264   1.305   8.722 -0.6732  0.4094 -0.6768
 1105SOL     OW14947   0.103   3.924   1.680 -0.0222  0.1858  0.3344
 1105SOL    HW114948   0.020   3.919   1.632  0.6566  2.4275 -1.0677
 1105SOL    HW214949   0.126   4.017   1.689  1.3365 -0.4857  3.8628
 1106SOL     OW14950   4.451   4.673  13.233  0.1580 -0.2099  0.1161
 1106SOL    HW114951   4.428   4.592  13.279 -1.4783  0.6051  0.7239
 1106SOL    HW214952   4.489   4.634  13.154 -1.8160  0.7799 -1.3092
 1107SOL     OW14953   2.952   1.360   8.146  0.3847 -0.3998 -0.0905
 1107SOL    HW114954   2.876   1.313   8.179 -0.9499  0.7253 -1.5704
 1107SOL    HW214955   2.956   1.441   8.196 -1.0533 -1.4784  1.7506
 1108SOL     OW14956   1.846   4.533  17.373 -0.7158 -0.1322 -0.1074
 1108SOL    HW114957   1.814   4.444  17.385 -1.3845  0.1080 -0.1274
 1108SOL    HW214958   1.820   4.553  17.283  0.8505 -0.9113 -0.7338
 1109SOL     OW14959   0.739   2.695  13.496  0.2022 -0.1271 -0.4732
 1109SOL    HW114960   0.754   2.608  13.533 -2.2317 -0.4341 -0.1573
 1109SOL    HW214961   0.742   2.666  13.405 -1.7298  3.1432 -1.5853
 1110SOL     OW14962   2.132   0.495   3.783 -0.0551  0.0789 -0.2961
 1110SOL    HW114963   2.127   0.584   3.818 -0.6799 -0.2905  0.5504
 1110SOL    HW214964   2.223   0.466   3.782 -0.4430 -1.2337  2.2545
 1111SOL     OW14965   0.191   4.116   3.136 -0.3208  0.3275 -0.0206
 1111SOL    HW114966   0.283   4.109   3.113  0.3004 -0.5920  2.7411
 1111SOL    HW214967   0.164   4.026   3.153 -2.5524  1.0416  0.2969
 1112SOL     OW14968   1.856   4.011   2.239  0.0241  0.0979  0.4370
 1112SOL    HW114969   1.897   4.062   2.309  1.0034  1.1126 -0.8967
 1112SOL    HW214970   1.930   3.971   2.195 -0.4808 -1.2025  0.7528
 1113SOL     OW14971   1.264   4.505   5.799  0.5183  0.0190 -0.0547
 1113SOL    HW114972   1.172   4.499   5.827 -0.0352 -0.5560 -1.9509
 1113SOL    HW214973   1.281   4.416   5.829  2.1362  0.4415  0.2431
 1114SOL     OW14974   0.211   1.264   7.437 -0.3060  0.0477 -0.1748
 1114SOL    HW114975   0.155   1.187   7.431  0.5229 -0.5104 -0.8065
 1114SOL    HW214976   0.165   1.306   7.509  3.1567 -0.8462  2.5355
 1115SOL     OW14977   3.461   2.752   1.210 -0.3702 -0.0744 -0.1102
 1115SOL    HW114978   3.430   2.757   1.119 -1.4971  0.8595  0.3243
 1115SOL    HW214979   3.556   2.759   1.201  0.0279 -2.6716  2.1331
 1116SOL     OW14980   2.830   1.091  13.548  0.8597 -0.3983  0.4780
 1116SOL    HW114981   2.880   1.131  13.619 -0.0153  0.5618  0.5423
 1116SOL    HW214982   2.843   1.155  13.478 -0.5671 -0.3241  0.2931
 1117SOL     OW14983   1.599   0.205  17.620 -0.4461  0.3987 -0.4754
 1117SOL    HW114984   1.591   0.171  17.709 -1.0169 -0.3979 -0.8272
 1117SOL    HW214985   1.588   0.127  17.566 -1.8460 -0.7948  1.5134
 1118SOL     OW14986   4.357   3.696  17.092 -0.2799 -0.0291  0.0457
 1118SOL    HW114987   4.399   3.610  17.084  1.1038  0.7213 -0.7847
 1118SOL    HW214988   4.371   3.708  17.186 -1.4001 -2.5944  0.5405
 1119SOL     OW14989   3.257   1.319   5.603 -0.3394  0.5712  0.1726
 1119SOL    HW114990   3.341   1.348   5.566 -0.4199  1.0390  0.3552
 1119SOL    HW214991   3.203   1.398   5.601 -1.8338 -0.4608  0.5580
 1120SOL     OW14992   0.541   0.937   2.398  0.0179 -0.2270 -0.5275
 1120SOL    HW114993   0.472   0.904   2.456  2.7845  1.0029  3.4463
 1120SOL    HW214994   0.521   1.029   2.381  0.2537 -0.3759 -1.5514
 1121SOL     OW14995   0.389   2.452   7.154  0.0743 -0.1965  0.4051
 1121SOL    HW114996   0.417   2.371   7.112  3.3491  0.1519  1.8957
 1121SOL    HW214997   0.394   2.509   7.078 -1.0515  1.2074  1.3584
 1122SOL     OW14998   1.365   2.098   7.186  0.4999  0.2252  0.3116
 1122SOL    HW114999   1.410   2.016   7.206  1.8923  0.8990 -0.0606
 1122SOL    HW215000   1.340   2.088   7.094 -0.7986  1.1849  0.5552
 1123SOL     OW15001   0.072   0.280   9.162  0.0121  0.0565  0.1348
 1123SOL    HW115002   0.078   0.360   9.214  0.6553 -0.4787  0.8813
 1123SOL    HW215003   4.711   0.259   9.163 -0.7922  3.5727 -0.1409
 1124SOL     OW15004   1.508   3.210   8.794  0.7651 -0.2486 -0.0807
 1124SOL    HW115005   1.513   3.251   8.708  2.3524  0.3195  0.2868
 1124SOL    HW215006   1.514   3.291   8.844 -1.4795  0.0896 -0.3488
 1125SOL     OW15007   1.985   3.959  12.241  0.1442  0.1252 -0.5237
 1125SOL    HW115008   2.050   3.958  12.312  1.0516  0.8693 -1.3467
 1125SOL    HW215009   2.034   4.003  12.172  0.1141 -0.0470 -0.6534
 1126SOL     OW15010   0.817   2.288   4.907 -0.2276  0.4195  0.2003
 1126SOL    HW115011   0.770   2.370   4.924 -0.1048  0.9281 -1.8736
 1126SOL    HW215012   0.908   2.317   4.905 -0.4958  1.2756  0.5131
 1127SOL     OW15013   3.067   2.385   8.943 -0.3522  0.1346  0.4138
 1127SOL    HW115014   3.157   2.370   8.973  0.5568 -0.1734 -2.5283
 1127SOL    HW215015   3.081   2.423   8.857 -1.0244 -1.2656 -0.3109
 1128SOL     OW15016   1.738   0.451   8.276  0.1777 -0.5471 -0.1458
 1128SOL    HW115017   1.830   0.445   8.303  0.6528  0.6674 -1.4855
 1128SOL    HW215018   1.738   0.512   8.202  2.7239 -0.2201  0.1053
 1129SOL     OW15019   1.300   0.931   5.674 -0.1418  0.0848 -0.3122
 1129SOL    HW115020   1.343   0.891   5.749  1.9842  0.5706 -1.2921
 1129SOL    HW215021   1.342   1.017   5.670  0.6355 -0.3838 -2.4956
 1130SOL     OW15022   4.423   0.964   2.897  0.6013 -0.3504  0.4026
 1130SOL    HW115023   4.360   0.894   2.879 -0.4591  1.1822 -1.9312
 1130SOL    HW215024   4.442   0.928   2.984  0.7033 -0.1029  0.4829
 1131SOL     OW15025   3.923   2.880   2.118 -0.2110 -0.2716 -0.0415
 1131SOL    HW115026   3.850   2.848   2.065  0.9026 -0.9670 -1.1326
 1131SOL    HW215027   3.989   2.815   2.095  0.1336 -0.3341  1.0870
 1132SOL     OW15028   0.618   2.356  12.372  0.0627  0.1555  0.4936
 1132SOL    HW115029   0.674   2.399  12.437  3.0647 -1.2436 -1.1647
 1132SOL    HW215030   0.675   2.370  12.296 -0.3020  3.5563  0.8592
 1133SOL     OW15031   1.677   1.555   1.295  0.4643  0.7405 -0.0526
 1133SOL    HW115032   1.628   1.566   1.377  2.4311 -0.1001  1.2238
 1133SOL    HW215033   1.715   1.642   1.286  0.7361  0.5534 -0.7462
 1134SOL     OW15034   0.031   2.827   8.055 -0.1123  0.0332  0.1552
 1134SOL    HW115035   0.112   2.848   8.008  0.0707 -1.2668 -0.1160
 1134SOL    HW215036   4.712   2.813   7.976 -0.7421 -1.5598  0.8330
 1135SOL     OW15037   1.155   1.809   3.610 -0.3564 -0.1929  0.2400
 1135SOL    HW115038   1.105   1.728   3.625 -1.6941  0.0328 -3.0504
 1135SOL    HW215039   1.089   1.860   3.563 -0.7637 -0.3209  0.6669
 1136SOL     OW15040   1.035   1.835   3.078 -0.2072 -0.2921 -0.5956
 1136SOL    HW115041   0.992   1.905   3.028 -0.3889  0.7001  0.9370
 1136SOL    HW215042   1.036   1.874   3.165 -0.8281  0.3272 -0.8639
 1137SOL     OW15043   0.042   2.401   0.913 -0.0896  0.2260  0.3683
 1137SOL    HW115044   0.043   2.444   0.998 -0.6954  1.8887 -0.4627
 1137SOL    HW215045   0.094   2.322   0.930 -2.1131 -0.4663  3.2287
 1138SOL     OW15046   4.280   3.938   7.400 -0.3156  0.2439  0.2604
 1138SOL    HW115047   4.202   3.974   7.442  0.1143 -0.3861  1.5965
 1138SOL    HW215048   4.328   3.897   7.472  0.0034  2.2399  1.1672
 1139SOL     OW15049   0.512   3.268   2.127  0.6559 -0.0620  0.0337
 1139SOL    HW115050   0.602   3.261   2.159  0.3837 -1.8197  0.4372
 1139SOL    HW215051   0.477   3.329   2.192  1.9908  0.4030  0.3155
 1140SOL     OW15052   1.470   0.863   2.150 -0.2209 -0.2487  0.5783
 1140SOL    HW115053   1.456   0.830   2.239  1.1693  0.7421  1.1660
 1140SOL    HW215054   1.521   0.789   2.118  0.0033  0.0598  0.2293
 1141SOL     OW15055   1.999   0.055   5.651 -0.3833  0.0425  0.3960
 1141SOL    HW115056   1.940   0.123   5.619 -2.5312 -1.6030  0.8460
 1141SOL    HW215057   2.013   4.725   5.579 -0.5232 -0.2347  0.6113
 1142SOL     OW15058   4.243   1.035   1.749 -0.4680  0.5383  0.0210
 1142SOL    HW115059   4.325   1.042   1.798  0.9836  1.1336 -2.4980
 1142SOL    HW215060   4.251   1.115   1.697 -0.1444  2.0380  2.4329
 1143SOL     OW15061   3.923   3.063   5.119 -0.4925  0.0469 -0.7055
 1143SOL    HW115062   3.922   2.967   5.115 -1.9964 -0.0189  1.1872
 1143SOL    HW215063   4.003   3.071   5.171 -1.9264 -0.8131  1.6523
 1144SOL     OW15064   0.639   2.178   3.570 -0.2063  0.4582 -1.1065
 1144SOL    HW115065   0.711   2.212   3.623 -2.0066  1.1057  0.9044
 1144SOL    HW215066   0.584   2.254   3.549 -0.7043 -0.1419 -1.9710
 1145SOL     OW15067   0.032   4.168   8.378  0.3056 -0.6664  0.0457
 1145SOL    HW115068   4.690   4.195   8.432  0.0900 -0.2202 -0.4733
 1145SOL    HW215069   0.103   4.182   8.440 -2.5605 -0.3680  3.2649
 1146SOL     OW15070   0.804   1.568   4.851  0.3575  0.1147 -0.1346
 1146SOL    HW115071   0.718   1.527   4.842  0.5244  0.1465 -2.0368
 1146SOL    HW215072   0.850   1.568   4.766  3.2268  0.9584  1.4040
 1147SOL     OW15073   0.068   4.401   1.913  0.1232  0.2727  0.2170
 1147SOL    HW115074   0.037   4.321   1.871  1.6057  0.4155 -1.1945
 1147SOL    HW215075   4.728   4.432   1.967 -0.8422 -1.9723  0.2337
 1148SOL     OW15076   4.362   4.725   2.186  0.2773 -0.3665 -0.1459
 1148SOL    HW115077   4.356   0.083   2.218 -4.1180 -1.1592  1.2399
 1148SOL    HW215078   4.413   4.685   2.256  0.5944  0.0701 -0.1254
 1149SOL     OW15079   3.188   2.561   4.848  0.0247  0.5777 -0.2408
 1149SOL    HW115080   3.193   2.637   4.906 -1.1186 -0.6832  1.5301
 1149SOL    HW215081   3.247   2.579   4.775 -0.5865  1.1754 -0.5864
 1150SOL     OW15082   0.435   0.265   0.901 -0.3436  0.0875  0.0695
 1150SOL    HW115083   0.497   0.208   0.855 -1.2979  0.4095 -1.6144
 1150SOL    HW215084   0.396   0.219   0.976 -0.4272  0.8435  0.4857
 1151SOL     OW15085   1.779   2.407  10.361  0.2523  0.5684  0.3444
 1151SOL    HW115086   1.782   2.499  10.334 -1.4006 -0.0565 -1.9631
 1151SOL    HW215087   1.772   2.415  10.456  0.5812 -1.8334  0.5792
 1152SOL     OW15088   2.230   3.645  16.280 -0.1439  0.4561  0.1490
 1152SOL    HW115089   2.320   3.657  16.250 -0.5937  0.6974 -1.1080
 1152SOL    HW215090   2.204   3.735  16.297  2.8248  1.6935 -1.9916
 1153SOL     OW15091   0.345   0.993  12.984 -0.3997 -0.9075 -0.3446
 1153SOL    HW115092   0.381   1.074  12.948  0.2841 -0.8799  0.4187
 1153SOL    HW215093   0.252   1.012  12.971 -0.7028 -2.2569 -0.1254
 1154SOL     OW15094   2.900   0.784  14.899  0.8858 -0.1204  0.4873
 1154SOL    HW115095   2.833   0.747  14.957  0.6906 -0.8922 -0.2438
 1154SOL    HW215096   2.867   0.873  14.885  1.1420 -0.3388 -1.4036
 1155SOL     OW15097   0.399   0.212  17.385  0.6208  0.1156  0.1182
 1155SOL    HW115098   0.399   0.292  17.331 -0.2477  1.7690  2.5591
 1155SOL    HW215099   0.304   0.201  17.391  0.3770  1.8650 -0.5289
 1156SOL     OW15100   0.833   3.512   6.522  0.6426  0.1118 -0.2747
 1156SOL    HW115101   0.904   3.573   6.503  0.8387  0.2900  1.0434
 1156SOL    HW215102   0.771   3.574   6.560  1.5024  1.2763 -0.7688
 1157SOL     OW15103   3.868   0.876   9.974  0.2566  0.8469 -0.5522
 1157SOL    HW115104   3.876   0.863   9.880  0.1540  0.3032 -0.4827
 1157SOL    HW215105   3.906   0.796  10.011 -1.5731  0.5338  0.6095
 1158SOL     OW15106   1.512   3.692   2.579 -0.3679  0.3044  0.6370
 1158SOL    HW115107   1.448   3.653   2.639 -1.6405 -0.6104 -1.3379
 1158SOL    HW215108   1.452   3.735   2.518 -0.1357 -0.9302 -0.4464
 1159SOL     OW15109   4.513   3.863  13.034  0.2517 -0.4192  0.1245
 1159SOL    HW115110   4.521   3.768  13.029 -3.4717 -0.7921  1.6057
 1159SOL    HW215111   4.495   3.876  12.941 -2.0168  2.5393  0.9476
 1160SOL     OW15112   2.111   1.965  11.556 -0.1771  0.2517  0.3875
 1160SOL    HW115113   2.096   1.884  11.509  0.0078  0.1056  0.5771
 1160SOL    HW215114   2.100   2.030  11.487  1.1507 -0.1768 -0.2387
 1161SOL     OW15115   2.078   1.698  16.731 -0.3267  0.0528 -0.0209
 1161SOL    HW115116   2.028   1.683  16.650 -0.6031 -1.8190  0.4972
 1161SOL    HW215117   2.047   1.784  16.758  1.6208  1.6077 -2.7530
 1162SOL     OW15118   2.256   1.581   2.884  0.0947  0.4205  0.2335
 1162SOL    HW115119   2.221   1.525   2.815 -0.9679  1.6391 -0.2198
 1162SOL    HW215120   2.319   1.522   2.925  0.7240  1.5628  0.9034
 1163SOL     OW15121   2.388   3.783   7.936  0.0476 -0.0618 -0.2866
 1163SOL    HW115122   2.325   3.747   7.999  1.5952 -4.2009 -1.1204
 1163SOL    HW215123   2.457   3.717   7.938  0.0618 -0.1066 -3.1066
 1164SOL     OW15124   4.194   2.740  11.415 -0.1334 -0.3100 -0.1189
 1164SOL    HW115125   4.163   2.816  11.366  0.7969 -0.7864 -1.4326
 1164SOL    HW215126   4.284   2.735  11.385 -0.4740  0.8206 -1.3111
 1165SOL     OW15127   1.148   3.126   3.407  0.2321 -0.4445 -0.0460
 1165SOL    HW115128   1.222   3.184   3.389 -1.6299  2.0067  0.1877
 1165SOL    HW215129   1.185   3.041   3.384  0.5129 -0.1855 -0.5728
 1166SOL     OW15130   3.384   2.132   2.146  0.2336  0.2245  0.0772
 1166SOL    HW115131   3.462   2.100   2.191 -0.3263 -2.4384 -0.8331
 1166SOL    HW215132   3.319   2.111   2.214  2.3503 -0.6027  1.8568
 1167SOL     OW15133   4.183   4.230   9.737 -0.1037  0.0864 -0.0575
 1167SOL    HW115134   4.274   4.259   9.723 -0.6014  0.7983 -1.8099
 1167SOL    HW215135   4.138   4.313   9.720 -0.7795  0.0190  1.4431
 1168SOL     OW15136   0.124   3.691  14.495 -0.0512 -0.1954 -0.0854
 1168SOL    HW115137   0.082   3.620  14.543  1.0466 -1.1104 -0.4951
 1168SOL    HW215138   0.099   3.666  14.406 -1.4928 -0.4537  0.3782
 1169SOL     OW15139   2.050   1.181  16.774 -0.0261  1.2403 -0.2359
 1169SOL    HW115140   1.963   1.145  16.763  0.9537 -0.7586 -1.3217
 1169SOL    HW215141   2.085   1.177  16.685  1.1264  1.6153  0.1913
 1170SOL     OW15142   4.137   3.105   1.221 -0.3574  0.2013 -0.0005
 1170SOL    HW115143   4.136   3.173   1.154  0.5103 -0.0214 -0.2425
 1170SOL    HW215144   4.047   3.111   1.255 -1.2651  0.6593 -2.4896
 1171SOL     OW15145   2.189   0.126   3.620 -0.2591  0.0731  0.0641
 1171SOL    HW115146   2.109   0.119   3.673 -0.5000 -1.1562 -0.4771
 1171SOL    HW215147   2.248   0.075   3.675 -0.1825  0.1965  0.0975
 1172SOL     OW15148   1.123   0.104   6.991 -0.6699 -0.0676  0.0849
 1172SOL    HW115149   1.092   0.181   6.943 -0.1041  0.4537  0.5544
 1172SOL    HW215150   1.050   0.083   7.050  0.4986 -1.2448  1.1026
 1173SOL     OW15151   2.556   1.805   3.876  0.2126 -0.1944  0.0212
 1173SOL    HW115152   2.613   1.818   3.800 -0.0953  0.1227 -0.1570
 1173SOL    HW215153   2.572   1.878   3.936  0.8095  0.3568 -0.8150
 1174SOL     OW15154   2.811   1.021   3.227  0.2803 -0.0559  0.6790
 1174SOL    HW115155   2.716   1.030   3.224  0.2524 -0.6656 -0.5589
 1174SOL    HW215156   2.825   0.934   3.264  0.8227  0.1264  0.9110
 1175SOL     OW15157   2.102   1.522  12.343 -0.0415  0.2880  0.2980
 1175SOL    HW115158   2.009   1.545  12.351 -0.2527 -0.3622 -0.2623
 1175SOL    HW215159   2.126   1.526  12.436  0.7067 -0.8934  0.1432
 1176SOL     OW15160   3.077   4.177   3.301 -0.0613  0.0592 -0.1237
 1176SOL    HW115161   3.078   4.083   3.281  2.5239  0.1340 -0.4091
 1176SOL    HW215162   3.149   4.182   3.364  0.6586 -0.8576 -0.8588
 1177SOL     OW15163   0.128   1.864   1.156 -0.3761  0.5780 -0.8960
 1177SOL    HW115164   0.185   1.892   1.084  0.0879  1.8722 -0.0143
 1177SOL    HW215165   0.197   1.821   1.206  0.6139 -0.5860 -3.2906
 1178SOL     OW15166   3.341   3.758   1.336  0.0512  0.0573  0.4341
 1178SOL    HW115167   3.418   3.712   1.370 -0.5706 -1.3145 -0.0196
 1178SOL    HW215168   3.317   3.803   1.418  1.6338  0.2014  0.8217
 1179SOL     OW15169   3.894   3.772   5.120 -0.6340 -0.7120  0.8782
 1179SOL    HW115170   3.864   3.685   5.093  1.2900 -1.4874  1.2119
 1179SOL    HW215171   3.885   3.764   5.215  0.0685 -0.6464  0.9560
 1180SOL     OW15172   1.621   3.438   7.387  0.2242 -0.0732  0.3524
 1180SOL    HW115173   1.568   3.400   7.457 -1.8955 -0.6568 -1.5720
 1180SOL    HW215174   1.684   3.371   7.362  1.8717  2.0483 -1.1655
 1181SOL     OW15175   3.060   1.537   5.660 -0.3368 -0.2951  0.1363
 1181SOL    HW115176   2.986   1.556   5.719 -1.9133 -1.2325 -1.5462
 1181SOL    HW215177   3.130   1.519   5.723 -0.9070 -1.4584  0.4476
 1182SOL     OW15178   3.785   2.709   8.999 -0.0838  0.4418  0.3881
 1182SOL    HW115179   3.861   2.697   9.055  0.9564  0.7112 -0.9515
 1182SOL    HW215180   3.826   2.771   8.938 -2.0967  2.3460  0.9730
 1183SOL     OW15181   2.352   1.336  11.098  0.0655 -0.8113  0.0990
 1183SOL    HW115182   2.277   1.385  11.130  0.1471 -1.1198  0.7652
 1183SOL    HW215183   2.353   1.260  11.157 -1.3399 -0.6602  0.3105
 1184SOL     OW15184   0.276   1.312   9.013  0.6873 -0.2780  0.1874
 1184SOL    HW115185   0.214   1.246   8.983 -0.4128  0.4181  0.9505
 1184SOL    HW215186   0.217   1.380   9.046  0.2231  0.8469 -2.9733
 1185SOL     OW15187   1.577   1.755   1.807 -0.7780  0.1061 -0.0416
 1185SOL    HW115188   1.581   1.660   1.817  1.5895  0.1961  0.0120
 1185SOL    HW215189   1.496   1.769   1.855 -0.4688  2.1228 -0.1108
 1186SOL     OW15190   3.444   0.729   3.449 -0.7210  0.1692 -0.4782
 1186SOL    HW115191   3.389   0.787   3.501 -0.2971 -0.7989  1.0611
 1186SOL    HW215192   3.447   0.659   3.514  0.9029  0.7581  0.0971
 1187SOL     OW15193   3.366   4.189   6.281 -0.2024  0.4771 -0.1171
 1187SOL    HW115194   3.326   4.200   6.367  0.5631  0.1123  0.2866
 1187SOL    HW215195   3.360   4.280   6.250  0.9337  0.9068  0.9345
 1188SOL     OW15196   1.068   1.584   7.627  0.1575  0.7208 -0.1354
 1188SOL    HW115197   1.075   1.496   7.591  2.1218  0.9884 -0.3957
 1188SOL    HW215198   1.156   1.609   7.601  0.2992  2.2431  1.8362
 1189SOL     OW15199   1.292   1.812   7.843 -0.1845  0.0737  0.0883
 1189SOL    HW115200   1.287   1.785   7.752 -0.9118  1.5524 -0.2983
 1189SOL    HW215201   1.210   1.861   7.856  0.2779  1.7669 -3.5693
 1190SOL     OW15202   1.182   3.469   9.262  0.5968 -0.0408 -0.0312
 1190SOL    HW115203   1.087   3.484   9.263  0.4469 -1.0263  1.1046
 1190SOL    HW215204   1.212   3.525   9.191 -0.9078 -0.0549 -0.6940
 1191SOL     OW15205   0.955   4.274   1.267  0.0413 -0.0323 -0.4501
 1191SOL    HW115206   0.953   4.288   1.172 -1.2338  0.9732 -0.2797
 1191SOL    HW215207   0.918   4.187   1.281  0.2777  0.0767  0.8385
 1192SOL     OW15208   4.022   3.365   2.850 -0.1126  0.1990  0.1783
 1192SOL    HW115209   3.951   3.363   2.914  0.2235  1.0583  0.5840
 1192SOL    HW215210   4.022   3.457   2.824  0.8733  0.3602  0.7229
 1193SOL     OW15211   2.596   2.634   2.322  0.0746  0.3042  0.3109
 1193SOL    HW115212   2.544   2.611   2.400 -1.0782  0.6745 -0.3485
 1193SOL    HW215213   2.595   2.556   2.268 -1.6350  0.3981  0.2167
 1194SOL     OW15214   1.462   4.431   4.293  0.8516  0.3387  0.5195
 1194SOL    HW115215   1.468   4.400   4.203  1.8107 -1.3440  1.1694
 1194SOL    HW215216   1.549   4.417   4.331  0.2540  1.7362  2.3927
 1195SOL     OW15217   0.105   0.239   0.573 -0.2246 -0.6451 -0.3504
 1195SOL    HW115218   0.193   0.202   0.571 -0.2794 -0.9269  2.5944
 1195SOL    HW215219   0.066   0.196   0.649 -1.4269 -1.7749 -1.6202
 1196SOL     OW15220   4.555   4.508   5.532  0.0424  0.0466 -0.3728
 1196SOL    HW115221   4.579   4.421   5.565 -0.0891  0.6445  1.3324
 1196SOL    HW215222   4.636   4.548   5.501 -0.0232 -1.0033 -1.8478
 1197SOL     OW15223   2.024   3.634   4.793  0.4639 -0.3171  0.0670
 1197SOL    HW115224   1.932   3.663   4.795 -0.1799 -2.3065 -0.5740
 1197SOL    HW215225   2.068   3.704   4.745 -0.7736  0.7415  0.4660
 1198SOL     OW15226   1.017   1.970   6.477 -0.2189  0.2608  0.3595
 1198SOL    HW115227   0.945   1.953   6.539 -0.5585  1.1743  0.2101
 1198SOL    HW215228   1.041   2.062   6.479 -0.5525  0.3780 -0.8891
 1199SOL     OW15229   1.610   2.037   0.544 -0.1278  0.3740  0.1071
 1199SOL    HW115230   1.558   1.982   0.602 -1.9147  0.2495 -1.6079
 1199SOL    HW215231   1.700   2.008   0.559 -0.1926  0.6574  1.0491
 1200SOL     OW15232   0.567   2.759  10.600 -0.3173 -0.4675  0.3697
 1200SOL    HW115233   0.660   2.761  10.577 -0.3235 -2.1172  0.1958
 1200SOL    HW215234   0.524   2.777  10.517  0.3735 -3.0517 -0.5421
 1201SOL     OW15235   2.628   3.471   3.081  0.3246  0.4177  0.1436
 1201SOL    HW115236   2.591   3.553   3.048 -2.5165 -0.8041  0.3435
 1201SOL    HW215237   2.649   3.491   3.172  0.7282  1.9604 -0.2888
 1202SOL     OW15238   1.774   0.665  17.124 -0.0800 -0.5054  0.0213
 1202SOL    HW115239   1.722   0.683  17.046 -1.5299  0.6025  1.2484
 1202SOL    HW215240   1.713   0.631  17.190  1.4304 -1.5701  0.8924
 1203SOL     OW15241   1.252   2.220   5.081  0.1872 -0.0286 -0.0162
 1203SOL    HW115242   1.272   2.126   5.072 -2.4909 -0.5122 -0.8862
 1203SOL    HW215243   1.335   2.250   5.043  0.2686  0.5881  0.6548
 1204SOL     OW15244   0.750   2.465  13.636  0.3147 -0.3427 -0.0914
 1204SOL    HW115245   0.679   2.404  13.618 -0.9749  1.0048  0.4403
 1204SOL    HW215246   0.834   2.420  13.627  0.2252 -0.5820  0.3100
 1205SOL     OW15247   2.453   1.623  12.656 -0.8723 -0.7879  0.7914
 1205SOL    HW115248   2.428   1.570  12.580 -4.3217  2.5973 -0.4078
 1205SOL    HW215249   2.542   1.589  12.668  0.9318  4.0953  1.4551
 1206SOL     OW15250   0.596   3.269   2.751 -0.2810 -0.1177 -0.4042
 1206SOL    HW115251   0.586   3.350   2.801 -1.3815 -0.6632  0.2613
 1206SOL    HW215252   0.657   3.299   2.684 -0.7010 -0.4275 -0.9181
 1207SOL     OW15253   3.821   2.958  10.277 -0.0859 -0.5691  0.5972
 1207SOL    HW115254   3.799   3.033  10.333 -0.4913  0.1677 -0.5532
 1207SOL    HW215255   3.855   2.893  10.339 -1.3553 -0.7233  1.1331
 1208SOL     OW15256   1.199   2.492   6.486 -0.0490 -0.4308 -0.2235
 1208SOL    HW115257   1.118   2.503   6.536 -0.2159 -2.3715 -0.0622
 1208SOL    HW215258   1.241   2.415   6.523  1.3266  0.7048  0.5987
 1209SOL     OW15259   2.661   1.173   8.746 -0.0920 -0.1602 -0.0722
 1209SOL    HW115260   2.752   1.164   8.717  0.3702 -0.3537  1.4295
 1209SOL    HW215261   2.674   1.258   8.788 -1.4607  0.4999 -0.9758
 1210SOL     OW15262   2.777   2.324   2.352  0.8781 -0.4403 -0.4239
 1210SOL    HW115263   2.738   2.345   2.437 -0.4278  1.6711 -1.5402
 1210SOL    HW215264   2.701   2.343   2.296  1.1925  0.4302 -0.5584
 1211SOL     OW15265   2.315   0.548   6.309  0.1519 -0.1345  0.4602
 1211SOL    HW115266   2.370   0.588   6.242  1.1797  1.0436  2.0178
 1211SOL    HW215267   2.312   0.455   6.287 -2.0400  0.5165 -1.9946
 1212SOL     OW15268   3.843   0.999   2.537 -0.1011 -0.0520 -0.1216
 1212SOL    HW115269   3.855   0.947   2.458 -0.2064  0.7487 -0.6581
 1212SOL    HW215270   3.767   0.961   2.581  0.1536 -1.5613 -1.0128
 1213SOL     OW15271   0.441   4.703   2.770 -0.1673  0.1411  0.0239
 1213SOL    HW115272   0.504   4.641   2.808  1.7957  2.1620  0.0478
 1213SOL    HW215273   0.497   0.041   2.738  1.5306 -1.0739  0.3138
 1214SOL     OW15274   4.084   3.927   2.347  0.0588  0.5255  0.0955
 1214SOL    HW115275   4.173   3.949   2.374 -0.3032  1.8946  0.1305
 1214SOL    HW215276   4.037   3.958   2.424 -0.0659  0.5535  0.0071
 1215SOL     OW15277   4.711   4.618   2.843  0.0824 -0.5038  0.3320
 1215SOL    HW115278   0.023   4.681   2.900  1.2450 -2.7203  1.8755
 1215SOL    HW215279   0.051   4.567   2.808  0.8769  0.7559  0.1536
 1216SOL     OW15280   4.352   1.374   3.045  0.1304  0.3320 -0.6955
 1216SOL    HW115281   4.269   1.422   3.048 -0.9079 -1.5673  1.0108
 1216SOL    HW215282   4.359   1.323   2.964  0.5281 -0.0957 -0.3945
 1217SOL     OW15283   2.237   4.684   8.917 -0.0879  0.4819 -0.5732
 1217SOL    HW115284   2.326   4.678   8.883 -0.2077  0.7378 -0.9304
 1217SOL    HW215285   2.180   4.684   8.841 -1.0145  0.1497  0.1176
 1218SOL     OW15286   1.796   3.579   3.389  0.4162  0.4359  0.0837
 1218SOL    HW115287   1.817   3.633   3.465 -2.1080 -0.4322  1.3940
 1218SOL    HW215288   1.713   3.539   3.418  1.1614 -0.6343  0.7271
 1219SOL     OW15289   1.173   1.618  17.301  0.3092 -0.5254  0.1357
 1219SOL    HW115290   1.260   1.610  17.262  0.2094  1.7809 -0.6128
 1219SOL    HW215291   1.189   1.664  17.383  0.2112  1.2003 -0.7998
 1220SOL     OW15292   0.974   0.668   1.390 -0.0494 -0.0097 -0.3593
 1220SOL    HW115293   1.013   0.749   1.358  3.6283 -1.6948 -0.1295
 1220SOL    HW215294   0.923   0.638   1.315  0.3082  1.1501 -1.0546
 1221SOL     OW15295   0.246   2.396  10.961 -0.6726 -0.3600 -0.5579
 1221SOL    HW115296   0.270   2.488  10.948  1.0842 -0.6319  0.9046
 1221SOL    HW215297   0.233   2.371  10.869 -0.6581  0.1887 -0.7136
 1222SOL     OW15298   0.439   1.607   3.087 -0.0523  0.3543  0.0691
 1222SOL    HW115299   0.377   1.603   3.160  0.4276  0.5556  0.4868
 1222SOL    HW215300   0.502   1.665   3.130 -0.3566  0.0858  0.8885
 1223SOL     OW15301   1.296   1.812   6.335 -0.5684 -0.3049  0.1003
 1223SOL    HW115302   1.205   1.827   6.361 -0.0191  1.1722  1.2166
 1223SOL    HW215303   1.325   1.903   6.325 -2.1143 -0.0756 -2.2124
 1224SOL     OW15304   0.105   1.812  14.087  0.4555  0.2153  0.0080
 1224SOL    HW115305   0.045   1.787  14.157 -0.2083  1.8148  0.0133
 1224SOL    HW215306   0.049   1.815  14.009  0.3027  1.0413  0.1470
 1225SOL     OW15307   1.226   2.206  15.721 -0.4635 -0.1122  0.3559
 1225SOL    HW115308   1.308   2.215  15.673 -0.2804 -0.5203  0.5947
 1225SOL    HW215309   1.190   2.118  15.708 -2.7809  0.9615 -0.6294
 1226SOL     OW15310   4.289   0.641  13.367 -0.5425  0.0691  0.0149
 1226SOL    HW115311   4.253   0.695  13.297 -0.3490 -1.3226 -1.1601
 1226SOL    HW215312   4.227   0.656  13.439 -0.4864 -0.0888  0.0953
 1227SOL     OW15313   4.168   2.230  17.636  0.8067 -0.1042 -0.2262
 1227SOL    HW115314   4.176   2.136  17.616  0.2811 -0.0827 -0.5655
 1227SOL    HW215315   4.139   2.223  17.727  3.7825 -1.2824  0.6085
 1228SOL     OW15316   1.684   4.591   6.065 -0.3183  0.2618 -0.3814
 1228SOL    HW115317   1.613   4.586   6.002 -0.4120  1.1814 -0.3475
 1228SOL    HW215318   1.750   4.631   6.008  0.6744  0.0045  0.5650
 1229SOL     OW15319   3.489   2.844   1.805 -0.2118  0.0212  0.2985
 1229SOL    HW115320   3.467   2.926   1.760 -0.5469 -0.4157 -0.3309
 1229SOL    HW215321   3.412   2.835   1.861 -0.3078  0.7626  0.2866
 1230SOL     OW15322   3.442   2.513  16.170  0.2933 -0.1407 -0.1180
 1230SOL    HW115323   3.506   2.582  16.152  0.6434  0.0571  1.9807
 1230SOL    HW215324   3.473   2.481  16.254 -0.8441 -0.0307  0.3389
 1231SOL     OW15325   0.041   0.514   5.992  0.1489 -0.3763 -0.0496
 1231SOL    HW115326   4.705   0.581   6.001 -0.8146 -1.3124 -0.3592
 1231SOL    HW215327   0.106   0.543   6.055 -1.4302  2.4966  0.2802
 1232SOL     OW15328   2.831   4.057   5.386  0.7170  0.3493 -0.9162
 1232SOL    HW115329   2.838   3.974   5.435 -0.4686  0.5210 -0.4491
 1232SOL    HW215330   2.907   4.110   5.409 -0.2541  2.0416 -1.6759
 1233SOL     OW15331   2.469   4.162   2.820 -0.2053  0.4276  0.0889
 1233SOL    HW115332   2.389   4.140   2.773 -0.5496  0.2259  0.7625
 1233SOL    HW215333   2.520   4.081   2.821  0.8087  1.0756  1.1826
 1234SOL     OW15334   3.874   4.136   3.553 -0.4183 -0.0340 -0.1302
 1234SOL    HW115335   3.905   4.220   3.590 -0.7945  1.7863 -4.0067
 1234SOL    HW215336   3.938   4.115   3.485 -3.0268 -0.4498 -2.4365
 1235SOL     OW15337   0.029   3.972  11.690  0.0071 -0.0433 -0.3516
 1235SOL    HW115338   0.004   3.885  11.659 -2.4768  0.6381 -0.2927
 1235SOL    HW215339   4.679   3.989  11.736  0.4343 -0.4569  0.5863
 1236SOL     OW15340   0.574   1.030   8.157 -0.3701 -0.0274 -0.4343
 1236SOL    HW115341   0.623   1.028   8.075  1.1725  0.6927  0.4540
 1236SOL    HW215342   0.618   0.970   8.216  1.4867 -0.9325 -2.7576
 1237SOL     OW15343   0.794   1.976   3.831  0.5899  0.3061 -0.3498
 1237SOL    HW115344   0.765   1.925   3.755 -1.2622  0.9486 -0.0754
 1237SOL    HW215345   0.739   1.936   3.899  0.2641  1.0067 -0.1983
 1238SOL     OW15346   4.421   0.149  12.996  0.0328 -0.5430 -0.1812
 1238SOL    HW115347   4.402   0.056  12.981  3.0081 -1.0263 -0.8071
 1238SOL    HW215348   4.465   0.133  13.079  0.2298  0.4148 -0.0970
 1239SOL     OW15349   4.620   1.591   8.694 -0.1785  0.1731 -0.1970
 1239SOL    HW115350   4.632   1.671   8.643 -1.2663 -0.3001 -1.1870
 1239SOL    HW215351   4.586   1.626   8.777  0.4309 -0.5747  0.3732
 1240SOL     OW15352   2.137   2.182   6.696 -0.0491  0.2154  0.6186
 1240SOL    HW115353   2.170   2.120   6.631  0.7889 -1.0242  2.2545
 1240SOL    HW215354   2.145   2.121   6.769 -2.1417 -1.2844 -0.3813
 1241SOL     OW15355   1.994   2.804   4.951  0.0353 -0.6149  0.7199
 1241SOL    HW115356   1.920   2.859   4.976 -2.3078 -3.3884 -0.1418
 1241SOL    HW215357   2.009   2.764   5.037  1.0126 -0.2452  0.7196
 1242SOL     OW15358   3.880   4.612   4.316  0.2620 -0.2891  0.1913
 1242SOL    HW115359   3.822   4.681   4.349 -1.3549 -1.0345 -1.0906
 1242SOL    HW215360   3.925   4.669   4.254 -0.0446 -0.1077  0.1336
 1243SOL     OW15361   1.253   3.342   7.238  0.9345 -0.2570  1.0000
 1243SOL    HW115362   1.191   3.312   7.170 -0.1652 -1.1363  2.3952
 1243SOL    HW215363   1.255   3.262   7.289  0.7383  0.6883  2.4941
 1244SOL     OW15364   3.583   1.614  11.278 -0.1407 -0.2966 -0.0024
 1244SOL    HW115365   3.602   1.550  11.346 -2.1017 -0.5314  0.3106
 1244SOL    HW215366   3.654   1.678  11.290 -0.2381  0.0265 -1.1910
 1245SOL     OW15367   4.085   0.928  15.284 -0.0418  0.4792 -0.2547
 1245SOL    HW115368   4.155   0.967  15.337 -0.7716 -1.0844  1.9024
 1245SOL    HW215369   4.065   0.994  15.218 -1.1924 -0.4195 -0.8044
 1246SOL     OW15370   4.539   1.534   3.833 -0.5476  0.0307 -0.4316
 1246SOL    HW115371   4.588   1.488   3.765 -1.5261 -1.2725 -0.2554
 1246SOL    HW215372   4.544   1.626   3.808 -2.9130 -0.0709 -1.2932
 1247SOL     OW15373   0.934   0.631  17.599 -0.4620 -0.0957  0.1531
 1247SOL    HW115374   0.949   0.692  17.526  0.3779  0.5106  0.8175
 1247SOL    HW215375   0.842   0.654  17.607 -1.6233 -4.0279 -1.9052
 1248SOL     OW15376   4.376   0.709   1.623 -0.2895  0.1854  0.6970
 1248SOL    HW115377   4.421   0.660   1.554  0.5991 -1.0365  2.1436
 1248SOL    HW215378   4.284   0.708   1.598 -0.0765 -0.3861 -0.0341
 1249SOL     OW15379   1.529   3.166   6.326 -0.2730  0.1760 -0.0260
 1249SOL    HW115380   1.556   3.124   6.407  1.1399  0.4347 -0.3726
 1249SOL    HW215381   1.610   3.162   6.276 -1.0535  1.5919 -1.4142
 1250SOL     OW15382   4.026   0.901   2.321 -0.6277 -0.4728 -0.1448
 1250SOL    HW115383   4.011   0.918   2.228  0.5643  0.6106 -0.1507
 1250SOL    HW215384   3.999   0.809   2.329  0.9191 -1.0104 -1.1349
 1251SOL     OW15385   3.674   0.434   3.694  0.0915  0.2553 -0.7220
 1251SOL    HW115386   3.733   0.506   3.715 -0.8158  1.2868 -1.7065
 1251SOL    HW215387   3.585   0.468   3.688  0.0584  0.5780  1.4917
 1252SOL     OW15388   0.723   0.761   0.994  0.3602  0.2340 -0.3662
 1252SOL    HW115389   0.633   0.791   0.981 -0.9678 -3.7191 -0.3029
 1252SOL    HW215390   0.772   0.784   0.915  0.0874  0.8972 -0.3445
 1253SOL     OW15391   1.755   3.670   4.810  0.0027  0.3910 -0.6290
 1253SOL    HW115392   1.721   3.602   4.751 -0.8713 -1.5502  2.1504
 1253SOL    HW215393   1.673   3.694   4.853  0.3942  0.5653  0.0205
 1254SOL     OW15394   2.795   1.098  12.392 -0.1035 -0.0217  0.5064
 1254SOL    HW115395   2.816   1.170  12.452 -2.9101 -0.3937  1.9597
 1254SOL    HW215396   2.789   1.028  12.458  0.2046 -1.4785 -1.0144
 1255SOL     OW15397   3.105   3.821   3.572  0.2327  0.3068  0.8514
 1255SOL    HW115398   3.196   3.851   3.568 -0.1367  1.1721 -0.8433
 1255SOL    HW215399   3.059   3.894   3.531 -0.9512  1.2800  3.9055
 1256SOL     OW15400   2.382   3.419   3.601 -0.1109  0.1647 -0.1913
 1256SOL    HW115401   2.403   3.386   3.514 -0.6843 -1.2162  0.1902
 1256SOL    HW215402   2.461   3.465   3.629  0.1550 -2.2439  2.9866
 1257SOL     OW15403   2.524   4.565  17.685  0.4309  0.2950 -0.4573
 1257SOL    HW115404   2.465   4.498  17.720  2.5612 -0.8937  0.8562
 1257SOL    HW215405   2.545   4.515  17.606 -0.8438 -0.7721 -0.1256
 1258SOL     OW15406   3.688   0.499   2.510  0.3956  0.3441 -0.0528
 1258SOL    HW115407   3.740   0.489   2.590 -0.1543 -0.2134  0.2307
 1258SOL    HW215408   3.682   0.412   2.471  0.8652  0.9228 -1.4096
 1259SOL     OW15409   2.618   2.749   8.343  0.5118 -0.5704 -0.3710
 1259SOL    HW115410   2.600   2.821   8.282  1.9625 -0.8858 -1.1627
 1259SOL    HW215411   2.585   2.784   8.426  0.8129 -0.2549 -0.3839
 1260SOL     OW15412   4.060   4.360   2.879  0.0263 -0.5323  0.1519
 1260SOL    HW115413   4.103   4.279   2.907  0.3440  0.1389  1.5800
 1260SOL    HW215414   4.031   4.399   2.961 -0.7919 -2.0640  0.5795
 1261SOL     OW15415   4.096   0.982  11.675 -0.7621  0.2440 -0.2914
 1261SOL    HW115416   4.016   0.941  11.641 -1.2880 -0.5685  1.9245
 1261SOL    HW215417   4.097   1.071  11.639 -1.7064  0.6631  0.7002
 1262SOL     OW15418   3.875   1.902   8.341  0.1110  0.2138 -0.1653
 1262SOL    HW115419   3.883   1.995   8.362  1.1427 -0.5171  2.6713
 1262SOL    HW215420   3.792   1.909   8.295 -0.9938  0.7807  1.9309
 1263SOL     OW15421   1.435   4.288   6.599 -0.4207  0.3792  0.1481
 1263SOL    HW115422   1.483   4.342   6.662  0.0186  2.1338 -1.6839
 1263SOL    HW215423   1.346   4.318   6.614  0.0372  0.5190  2.6738
 1264SOL     OW15424   4.613   2.973   3.035  0.1533 -0.4585  0.0700
 1264SOL    HW115425   4.615   3.003   3.126  1.8168 -2.3669  0.6581
 1264SOL    HW215426   4.580   3.054   2.995  3.5968 -0.1275 -2.1183
 1265SOL     OW15427   3.260   1.662   9.205  0.1205 -0.2884  0.0484
 1265SOL    HW115428   3.291   1.604   9.136 -0.6291  0.2271 -0.7196
 1265SOL    HW215429   3.321   1.734   9.188 -2.2895  1.3962 -1.4487
 1266SOL     OW15430   3.366   1.890  17.335  0.3230 -0.0510 -0.5709
 1266SOL    HW115431   3.341   1.982  17.345  1.8739  0.2038  0.9019
 1266SOL    HW215432   3.441   1.896  17.275 -0.0252 -1.6809 -1.1660
 1267SOL     OW15433   0.383   3.607   1.379  0.6670 -0.0599 -0.2493
 1267SOL    HW115434   0.360   3.531   1.326  3.2031  0.6678 -2.4463
 1267SOL    HW215435   0.298   3.651   1.385  0.8691  0.3520 -0.3972
 1268SOL     OW15436   4.408   0.319   8.194 -0.0899  0.5511  0.3329
 1268SOL    HW115437   4.425   0.343   8.103  1.6535 -1.1534  0.1915
 1268SOL    HW215438   4.441   0.401   8.230 -0.0523  1.8232 -2.5833
 1269SOL     OW15439   0.703   0.736   5.783  0.3098 -0.5855 -0.1717
 1269SOL    HW115440   0.793   0.711   5.763  0.5227  0.5950 -0.7308
 1269SOL    HW215441   0.660   0.674   5.841 -0.5173  0.3728  0.2488
 1270SOL     OW15442   3.564   0.807   3.725  0.2321 -0.0454  0.5214
 1270SOL    HW115443   3.521   0.764   3.799  1.3991 -1.0904  0.5903
 1270SOL    HW215444   3.571   0.899   3.752  2.6881  0.0982 -0.5972
 1271SOL     OW15445   0.491   2.728   4.059 -0.5422 -0.4144 -0.2086
 1271SOL    HW115446   0.445   2.800   4.104  2.2142  1.7207 -0.8491
 1271SOL    HW215447   0.584   2.741   4.077 -0.5336 -2.2944  1.0525
 1272SOL     OW15448   1.357   1.947   4.992 -0.8327  0.3633 -0.2593
 1272SOL    HW115449   1.378   1.878   5.055 -1.2203 -1.2244 -1.8816
 1272SOL    HW215450   1.431   1.945   4.932 -0.5641 -4.5180  0.2411
 1273SOL     OW15451   3.154   4.658   9.686  0.3802  0.4107 -0.7316
 1273SOL    HW115452   3.244   4.671   9.715 -0.3151 -0.6153  1.8711
 1273SOL    HW215453   3.112   4.609   9.757 -1.7517 -0.0993 -2.3482
 1274SOL     OW15454   1.582   4.020   8.375  0.0320  0.1720 -0.1318
 1274SOL    HW115455   1.597   4.003   8.281  0.8051 -2.3448  0.4361
 1274SOL    HW215456   1.667   3.997   8.413  0.3345 -2.6991 -2.5302
 1275SOL     OW15457   3.774   2.675   5.627  0.3706 -0.5314 -0.6353
 1275SOL    HW115458   3.859   2.642   5.657 -0.0226  0.0080  1.0606
 1275SOL    HW215459   3.724   2.679   5.709 -0.1650 -0.0221 -0.9924
 1276SOL     OW15460   1.238   1.226   6.062 -0.7769 -0.6186  0.2491
 1276SOL    HW115461   1.215   1.215   6.154 -1.0030  3.4096  0.7102
 1276SOL    HW215462   1.264   1.137   6.039  0.0703 -0.3686  0.2240
 1277SOL     OW15463   0.632   0.827   3.858  1.0196 -0.0562  0.0290
 1277SOL    HW115464   0.715   0.826   3.810  0.6477 -1.3767 -0.5943
 1277SOL    HW215465   0.647   0.899   3.919  1.4550  0.7119 -0.9785
 1278SOL     OW15466   4.706   0.908   6.748 -0.3671  0.0632  0.0220
 1278SOL    HW115467   4.652   0.966   6.694  0.4623 -0.7129 -1.6209
 1278SOL    HW215468   4.661   0.824   6.741  1.4805 -1.1490  2.4388
 1279SOL     OW15469   3.263   1.021  11.328 -0.7857 -0.4006  0.1275
 1279SOL    HW115470   3.247   0.937  11.373 -0.4969 -2.2619 -3.2098
 1279SOL    HW215471   3.312   0.983  11.255  2.3662 -0.4969  2.2505
 1280SOL     OW15472   1.928   0.969   7.145 -0.4579  0.3980 -0.2715
 1280SOL    HW115473   1.841   0.976   7.186  1.0817  0.9849  2.9445
 1280SOL    HW215474   1.923   0.915   7.067 -1.4749 -0.3311  0.2946
 1281SOL     OW15475   3.189   4.613  11.852 -0.0156 -0.4506 -0.3085
 1281SOL    HW115476   3.156   4.688  11.901 -1.6668 -2.7658  2.0557
 1281SOL    HW215477   3.183   4.657  11.767 -3.0783 -0.1295  0.0864
 1282SOL     OW15478   3.476   4.649   1.996  0.5412 -0.2501  0.2335
 1282SOL    HW115479   3.559   4.698   1.991  0.7455 -0.5784  0.4171
 1282SOL    HW215480   3.515   4.563   1.983 -0.6454 -0.6093 -0.9016
 1283SOL     OW15481   1.599   1.371   4.800 -0.3274 -0.0263  0.0073
 1283SOL    HW115482   1.625   1.280   4.813  0.8520  0.2807 -0.1499
 1283SOL    HW215483   1.600   1.373   4.704  0.5017  2.2891  0.0413
 1284SOL     OW15484   2.562   0.602   8.029  0.2832 -0.4067 -0.1207
 1284SOL    HW115485   2.498   0.664   8.063  0.5588 -0.6749  0.9020
 1284SOL    HW215486   2.517   0.586   7.946 -1.3659 -0.1475  0.7288
 1285SOL     OW15487   1.086   3.200   7.615 -0.5412  0.9448 -0.2042
 1285SOL    HW115488   1.008   3.253   7.600 -0.7483 -0.0282 -2.5880
 1285SOL    HW215489   1.103   3.195   7.709  1.0062  2.3395 -0.4127
 1286SOL     OW15490   1.950   1.074   4.381  0.1948 -0.0020 -0.2471
 1286SOL    HW115491   1.954   1.070   4.477  0.0600 -0.2604 -0.2532
 1286SOL    HW215492   1.899   1.155   4.378 -0.9307 -0.6657  0.8401
 1287SOL     OW15493   0.826   4.240   7.720 -0.1854 -0.1931  0.6436
 1287SOL    HW115494   0.897   4.197   7.672 -1.8199 -0.3643 -1.6239
 1287SOL    HW215495   0.845   4.333   7.709  1.9868 -0.7105 -0.1453
 1288SOL     OW15496   2.028   4.361   4.900  0.2522 -0.1994  0.6317
 1288SOL    HW115497   1.958   4.420   4.874  0.3201 -1.2087 -1.8349
 1288SOL    HW215498   2.002   4.285   4.848 -0.4696 -0.0742  0.8151
 1289SOL     OW15499   1.589   3.341  13.698  0.3947  0.3592 -0.0129
 1289SOL    HW115500   1.649   3.280  13.655  1.2348  2.3323 -1.6477
 1289SOL    HW215501   1.540   3.369  13.621  2.8743  1.7618 -1.1111
 1290SOL     OW15502   3.946   1.324   6.297  0.0704 -0.0914  0.2604
 1290SOL    HW115503   3.963   1.384   6.225  0.9373 -1.7604 -0.9209
 1290SOL    HW215504   3.988   1.374   6.367 -1.3113  0.3295  0.7987
 1291SOL     OW15505   3.055   2.840   7.860 -0.4148 -0.5149  0.0055
 1291SOL    HW115506   3.148   2.818   7.862  0.0466  1.5964  1.4046
 1291SOL    HW215507   3.037   2.832   7.766 -0.4152  1.3819 -0.1407
 1292SOL     OW15508   2.979   1.510  11.655  0.8538 -0.3114  0.1686
 1292SOL    HW115509   3.065   1.551  11.653 -0.0728  1.6117 -0.5572
 1292SOL    HW215510   2.997   1.457  11.732  1.3872 -2.3966 -1.3943
 1293SOL     OW15511   0.146   3.272  11.198  0.1802  0.0109  0.3651
 1293SOL    HW115512   0.179   3.235  11.279  0.6640  1.4795  0.8412
 1293SOL    HW215513   0.221   3.271  11.138  0.5120 -0.0400  0.7809
 1294SOL     OW15514   2.786   2.437   6.132 -0.1912  0.1361  0.2086
 1294SOL    HW115515   2.763   2.425   6.224  1.3421 -2.2184  0.2981
 1294SOL    HW215516   2.740   2.519   6.114  2.0981  1.5075  0.6243
 1295SOL     OW15517   3.782   1.768   5.611  0.2438  0.4322 -0.2612
 1295SOL    HW115518   3.871   1.734   5.615  0.2630  0.6173  0.9641
 1295SOL    HW215519   3.794   1.861   5.627 -1.3489  0.7487 -0.8465
 1296SOL     OW15520   0.360   3.568   3.622 -0.2752 -0.1915  0.1059
 1296SOL    HW115521   0.292   3.547   3.686 -1.2557 -0.3802 -0.9917
 1296SOL    HW215522   0.436   3.583   3.678 -0.1311  0.0734 -0.1587
 1297SOL     OW15523   1.364   0.698  11.638 -0.0685 -0.0061 -0.7458
 1297SOL    HW115524   1.366   0.689  11.733  2.3022  1.1322 -0.6867
 1297SOL    HW215525   1.270   0.694  11.620 -0.9395 -0.5344  3.9531
 1298SOL     OW15526   1.608   4.432   7.783 -0.2176  0.6182 -0.5497
 1298SOL    HW115527   1.701   4.441   7.806  0.3928 -1.2488 -2.2477
 1298SOL    HW215528   1.621   4.395   7.696  1.5378 -1.4318  0.5760
 1299SOL     OW15529   3.738   2.476   9.579  0.1359 -0.2017 -0.4417
 1299SOL    HW115530   3.676   2.409   9.550  1.7897 -1.3078 -1.4215
 1299SOL    HW215531   3.698   2.500   9.663 -0.3701 -0.8351 -0.5048
 1300SOL     OW15532   3.218   4.049  11.886 -0.0051 -0.6241 -0.2323
 1300SOL    HW115533   3.146   4.021  11.942 -0.5275 -2.0715 -1.6502
 1300SOL    HW215534   3.220   4.144  11.902 -3.3206 -0.6870  0.6018
 1301SOL     OW15535   3.541   0.115   2.723  0.5477 -0.2539 -0.4671
 1301SOL    HW115536   3.502   0.157   2.647  1.2449  1.6100  0.2106
 1301SOL    HW215537   3.546   0.030   2.679  0.6111 -1.3319  1.6190
 1302SOL     OW15538   0.575   0.108   8.391 -0.0237 -0.4072 -0.4020
 1302SOL    HW115539   0.543   0.187   8.436  0.9921 -0.6222  0.6862
 1302SOL    HW215540   0.668   0.128   8.391  0.1218 -1.0930 -0.0313
 1303SOL     OW15541   1.282   0.964   7.278  0.1536 -0.2778 -0.2198
 1303SOL    HW115542   1.326   0.888   7.242  1.8994  0.1942  0.9492
 1303SOL    HW215543   1.349   1.023   7.313 -0.3011 -0.0941  0.3625
 1304SOL     OW15544   0.106   1.256  13.189  0.5288  0.4429  0.4252
 1304SOL    HW115545   0.042   1.311  13.234 -1.1859  0.3625 -1.9450
 1304SOL    HW215546   0.127   1.293  13.104  1.2575  0.9839  0.8417
 1305SOL     OW15547   2.415   0.746  11.319 -0.4969 -0.1093  0.2037
 1305SOL    HW115548   2.505   0.764  11.292  0.4504 -3.0541  1.4572
 1305SOL    HW215549   2.419   0.815  11.385 -0.8214  1.5819 -1.5259
 1306SOL     OW15550   2.749   1.288   5.044 -0.1881 -0.4659 -0.6092
 1306SOL    HW115551   2.743   1.383   5.032 -1.2354 -0.1012  2.8940
 1306SOL    HW215552   2.769   1.287   5.137 -1.5338 -0.9120 -0.3285
 1307SOL     OW15553   3.791   3.510   2.168  0.1333  0.4594 -0.1072
 1307SOL    HW115554   3.790   3.605   2.160 -1.3452  0.4205 -0.4293
 1307SOL    HW215555   3.705   3.495   2.208 -0.1375  0.5856 -0.6308
 1308SOL     OW15556   0.516   0.672   3.517  0.5085  0.7893  0.8475
 1308SOL    HW115557   0.607   0.665   3.490 -0.8916 -1.0760 -3.5338
 1308SOL    HW215558   0.498   0.593   3.568 -0.5478  1.6633  1.8319
 1309SOL     OW15559   1.835   0.945   3.954  0.5737 -0.0349  0.3443
 1309SOL    HW115560   1.838   0.934   4.049  1.7420  0.4160  0.3623
 1309SOL    HW215561   1.776   1.021   3.953  0.6143 -0.0315 -0.8762
 1310SOL     OW15562   1.376   3.907   2.809 -0.2829 -0.5049  0.1079
 1310SOL    HW115563   1.430   3.831   2.786 -1.1716 -0.2942 -2.7364
 1310SOL    HW215564   1.370   3.957   2.727 -0.5206  1.4436  1.3093
 1311SOL     OW15565   4.598   3.604  13.057 -0.1808  0.0918 -0.1834
 1311SOL    HW115566   4.678   3.554  13.039  0.5629  1.5097 -0.8355
 1311SOL    HW215567   4.610   3.619  13.151  3.5083  0.4273 -0.6863
 1312SOL     OW15568   0.059   3.815   7.177 -0.3020 -0.0296 -0.5361
 1312SOL    HW115569   0.119   3.856   7.115  0.4615 -1.5331 -0.8152
 1312SOL    HW215570   4.716   3.874   7.175 -0.2705 -0.0482 -1.7761
 1313SOL     OW15571   1.324   3.945   3.908 -0.3253  0.0065  0.0631
 1313SOL    HW115572   1.232   3.924   3.923  0.0135  0.0749  2.1812
 1313SOL    HW215573   1.370   3.873   3.866 -0.2939  0.2376 -0.3000
 1314SOL     OW15574   2.301   0.558   2.008 -0.1187  0.0024  0.0574
 1314SOL    HW115575   2.289   0.653   2.009 -1.2972 -0.1230 -1.5151
 1314SOL    HW215576   2.265   0.531   2.092 -0.6218  3.2756  0.8986
 1315SOL     OW15577   2.173   1.013   5.119  0.1757  0.1201 -0.3023
 1315SOL    HW115578   2.130   0.931   5.093  0.1177  0.1202 -0.2057
 1315SOL    HW215579   2.256   0.976   5.146 -1.4448 -2.9367  0.5041
 1316SOL     OW15580   2.994   4.566   2.802 -0.0810 -0.4658  0.4134
 1316SOL    HW115581   2.916   4.622   2.801 -0.2589 -0.7095  0.5104
 1316SOL    HW215582   2.952   4.485   2.831  1.1416 -0.8800  0.9922
 1317SOL     OW15583   4.436   0.991   0.298 -0.1168  0.2907  0.7997
 1317SOL    HW115584   4.363   1.014   0.355 -1.0531 -0.0222 -0.2768
 1317SOL    HW215585   4.490   0.961   0.372  1.8176 -0.0629 -0.7543
 1318SOL     OW15586   1.133   3.765   3.538 -0.5235 -0.5211  0.2403
 1318SOL    HW115587   1.175   3.826   3.478 -0.6101 -2.2144 -1.5187
 1318SOL    HW215588   1.191   3.691   3.523  0.8116  0.2430  1.6741
 1319SOL     OW15589   2.338   4.508  15.218  0.2278 -0.6815  0.0428
 1319SOL    HW115590   2.288   4.441  15.265 -1.1020  0.4756  0.2616
 1319SOL    HW215591   2.286   4.587  15.230  1.7624  0.2592  0.5376
 1320SOL     OW15592   1.657   2.794   3.265 -0.0578 -0.0941 -0.1964
 1320SOL    HW115593   1.641   2.763   3.175 -0.8568  1.7499 -0.6914
 1320SOL    HW215594   1.749   2.771   3.277  0.0674  1.1876  1.1863
 1321SOL     OW15595   4.046   3.591   6.456  0.1882 -0.0256  0.3053
 1321SOL    HW115596   4.071   3.528   6.524 -1.9496 -0.6679  0.4665
 1321SOL    HW215597   4.133   3.631   6.452  0.0559  0.0945 -1.5438
 1322SOL     OW15598   2.595   2.246   2.784 -0.1372  0.0237 -0.0232
 1322SOL    HW115599   2.677   2.197   2.786 -0.0797  0.2502  3.1126
 1322SOL    HW215600   2.576   2.274   2.873  2.2064  2.0033 -0.1419
 1323SOL     OW15601   2.726   0.597   4.746  0.3315  0.2039 -0.2260
 1323SOL    HW115602   2.760   0.626   4.831 -2.5292 -1.2543  1.4417
 1323SOL    HW215603   2.805   0.609   4.693 -0.8483 -0.5676 -2.1439
 1324SOL     OW15604   2.437   1.761   7.585  0.7646  0.2986 -0.9185
 1324SOL    HW115605   2.427   1.789   7.494 -0.1129 -1.5121 -1.3823
 1324SOL    HW215606   2.531   1.743   7.589  1.0507  1.4872 -2.3827
 1325SOL     OW15607   2.920   1.178  13.769  0.2159  0.1762 -0.5777
 1325SOL    HW115608   2.842   1.227  13.796  1.1374  1.2856  0.0583
 1325SOL    HW215609   2.965   1.183  13.853 -1.5244 -0.9714  0.4236
 1326SOL     OW15610   1.412   1.733   6.750  0.2403  0.7595 -0.6689
 1326SOL    HW115611   1.342   1.685   6.707  0.0315 -0.5061  1.0862
 1326SOL    HW215612   1.433   1.803   6.688 -0.3869  1.5349 -0.0067
 1327SOL     OW15613   2.093   0.702   3.582 -0.0642  0.0020  0.0267
 1327SOL    HW115614   2.083   0.739   3.670 -1.0805  3.3275 -1.4730
 1327SOL    HW215615   2.122   0.616   3.610 -0.7073  0.0025  0.7040
 1328SOL     OW15616   2.052   1.337   0.706  0.0626  0.3743  0.1014
 1328SOL    HW115617   2.030   1.260   0.654  1.2248 -0.3053  0.6180
 1328SOL    HW215618   2.068   1.294   0.790  0.2065  2.0990  0.9652
 1329SOL     OW15619   2.291   2.019   8.696  0.3507 -0.0523 -0.7577
 1329SOL    HW115620   2.236   2.090   8.729 -0.1582 -1.9811  2.5283
 1329SOL    HW215621   2.304   1.982   8.783  0.2211 -1.8289 -1.5017
 1330SOL     OW15622   2.942   4.006   5.705  0.4280  0.3499  0.1438
 1330SOL    HW115623   3.032   3.975   5.709  1.4113  3.4923  2.6670
 1330SOL    HW215624   2.949   4.092   5.746 -1.2913  1.6577 -2.3386
 1331SOL     OW15625   3.818   4.296   5.426  0.8025  0.5683 -0.2774
 1331SOL    HW115626   3.728   4.320   5.447  0.7238  2.0107 -2.2821
 1331SOL    HW215627   3.802   4.202   5.413 -1.4751  1.0552 -0.8934
 1332SOL     OW15628   4.186   2.886  10.598 -0.0029  0.1132 -0.0380
 1332SOL    HW115629   4.160   2.978  10.594  2.0627  0.6783 -0.8151
 1332SOL    HW215630   4.168   2.850  10.684  0.7229  0.2564  0.1731
 1333SOL     OW15631   1.795   1.086   5.303 -0.4497 -0.2738  0.3496
 1333SOL    HW115632   1.748   1.073   5.221  1.8379 -0.2803 -0.9367
 1333SOL    HW215633   1.842   1.165   5.277  1.7897 -1.2822  1.3532
 1334SOL     OW15634   3.859   3.178  10.454 -0.1960  0.2282 -0.2463
 1334SOL    HW115635   3.942   3.197  10.498 -0.9219  0.2538  1.1060
 1334SOL    HW215636   3.800   3.236  10.502  0.2034  0.9668 -0.6605
 1335SOL     OW15637   0.245   3.314  13.575  0.1042 -0.3352  0.3024
 1335SOL    HW115638   0.257   3.233  13.526  1.4010 -1.1888  1.9992
 1335SOL    HW215639   0.220   3.371  13.503  0.7979 -0.4947 -0.0641
 1336SOL     OW15640   3.416   4.505   5.472 -0.5026  0.0331  0.0758
 1336SOL    HW115641   3.367   4.520   5.553  2.4359  0.7740  1.6780
 1336SOL    HW215642   3.464   4.424   5.491 -2.3823 -1.0533  0.2307
 1337SOL     OW15643   3.152   0.212   9.622 -0.0923 -0.4146  0.2825
 1337SOL    HW115644   3.160   0.122   9.655 -0.0676  0.0464  1.5486
 1337SOL    HW215645   3.178   0.210   9.530  1.0714 -0.7086  0.6076
 1338SOL     OW15646   2.235   2.962  12.433 -0.6394 -0.1059 -0.7595
 1338SOL    HW115647   2.252   2.904  12.507 -0.1927 -0.1432 -0.8879
 1338SOL    HW215648   2.158   2.915  12.402 -2.1387  2.1444 -0.4759
 1339SOL     OW15649   1.401   0.837   1.666 -0.2825 -0.0218 -0.2319
 1339SOL    HW115650   1.385   0.787   1.586  0.1476 -0.4831 -0.0299
 1339SOL    HW215651   1.486   0.880   1.656  0.4577 -0.7720  2.6927
 1340SOL     OW15652   3.280   0.466   1.394 -0.0579 -0.0126  0.1861
 1340SOL    HW115653   3.364   0.499   1.426 -0.3612  1.4128 -0.4821
 1340SOL    HW215654   3.302   0.382   1.353 -0.6218  0.4203 -1.0135
 1341SOL     OW15655   2.559   0.485   0.903 -0.6709 -0.4304 -0.3714
 1341SOL    HW115656   2.567   0.581   0.901 -2.4319 -0.2782  0.1013
 1341SOL    HW215657   2.482   0.468   0.850 -0.5653  2.2951 -1.4172
 1342SOL     OW15658   3.541   2.222  12.578 -0.5245  0.3634 -0.0549
 1342SOL    HW115659   3.465   2.189  12.626 -0.1500  0.9200  0.9279
 1342SOL    HW215660   3.557   2.169  12.500 -1.4599  1.7508 -1.1922
 1343SOL     OW15661   3.239   3.310   7.611 -0.4460  0.0262  0.3557
 1343SOL    HW115662   3.272   3.297   7.522 -0.5114 -3.8114  0.8947
 1343SOL    HW215663   3.215   3.403   7.613 -0.1066  0.1261 -0.1571
 1344SOL     OW15664   4.232   0.056  15.824  0.4652  0.3142  0.5142
 1344SOL    HW115665   4.174   0.029  15.753  1.9433 -1.2444 -0.0994
 1344SOL    HW215666   4.265   4.708  15.864  0.8277  0.8425  1.2746
 1345SOL     OW15667   4.674   2.129   7.762  0.2212  0.0810  0.2623
 1345SOL    HW115668   4.635   2.064   7.702  0.3055 -2.1605  2.6385
 1345SOL    HW215669   4.604   2.185   7.794  0.4126  1.0863 -1.0993
 1346SOL     OW15670   0.754   4.135   0.741  0.9601 -0.4014 -0.3981
 1346SOL    HW115671   0.664   4.165   0.727  1.1739  0.5210  0.1498
 1346SOL    HW215672   0.751   4.045   0.774  1.5767 -1.1083 -2.3185
 1347SOL     OW15673   3.796   1.768   1.703 -0.2836 -0.4674 -0.3711
 1347SOL    HW115674   3.851   1.692   1.722 -1.9463 -2.0307 -1.8162
 1347SOL    HW215675   3.725   1.743   1.762 -1.2518 -0.1447 -1.3898
 1348SOL     OW15676   3.223   3.110  13.279 -0.3726  0.3889 -0.0045
 1348SOL    HW115677   3.228   3.185  13.220  0.5393 -0.1526 -0.6094
 1348SOL    HW215678   3.231   3.152  13.365  0.5305  1.4474 -0.6060
 1349SOL     OW15679   0.489   0.350   0.036 -0.2796 -0.1140 -0.2398
 1349SOL    HW115680   0.398   0.347   0.064 -0.1753 -1.7636 -0.1042
 1349SOL    HW215681   0.518   0.259   0.042 -2.4944 -1.0105 -2.8604
 1350SOL     OW15682   1.071   3.972   6.183  0.4036  0.2125  0.1546
 1350SOL    HW115683   1.080   4.031   6.258  0.4992  0.8181 -0.3291
 1350SOL    HW215684   1.162   3.956   6.159  0.1668 -3.3893  1.6897
 1351SOL     OW15685   0.086   4.447  11.027  0.1967  0.3184 -0.1030
 1351SOL    HW115686   0.137   4.448  11.109 -1.7400 -0.4797  1.0982
 1351SOL    HW215687   0.011   4.498  11.058  2.1362  1.7548  2.2602
 1352SOL     OW15688   3.498   0.726  10.834  0.6897 -0.5574  0.6274
 1352SOL    HW115689   3.510   0.701  10.743 -0.6186  1.8260 -0.2280
 1352SOL    HW215690   3.510   0.643  10.879  0.2632 -1.7428 -1.4584
 1353SOL     OW15691   2.982   2.830  16.952 -0.0182 -0.3648  0.3630
 1353SOL    HW115692   2.976   2.739  16.921  3.8996 -0.3360 -0.4098
 1353SOL    HW215693   3.068   2.864  16.930 -0.4119  0.9965  0.9135
 1354SOL     OW15694   0.256   3.541   3.052 -0.1211 -0.2773  0.0762
 1354SOL    HW115695   0.271   3.631   3.082 -0.9718  0.5003 -1.8545
 1354SOL    HW215696   0.217   3.496   3.127 -1.5370 -2.2942 -1.8986
 1355SOL     OW15697   3.725   0.652   1.766 -0.5346 -0.4226  0.1990
 1355SOL    HW115698   3.708   0.570   1.813 -2.9400 -0.9553 -1.6060
 1355SOL    HW215699   3.788   0.695   1.824  1.3667  0.3600 -2.4509
 1356SOL     OW15700   2.269   1.492   0.635 -0.3563  0.2081  0.1136
 1356SOL    HW115701   2.194   1.441   0.663 -0.8558  1.2201  0.6324
 1356SOL    HW215702   2.224   1.551   0.574  2.6413  2.0868 -0.3185
 1357SOL     OW15703   2.743   0.821   6.778 -0.3665 -0.2463 -0.0957
 1357SOL    HW115704   2.656   0.840   6.744  0.2986 -0.1782 -1.7596
 1357SOL    HW215705   2.714   0.746   6.830 -2.2397  0.4576 -0.1223
 1358SOL     OW15706   0.823   0.699   4.576  0.3041  0.3620 -0.7361
 1358SOL    HW115707   0.910   0.677   4.542  0.0591 -3.3012  1.0038
 1358SOL    HW215708   0.857   0.757   4.645 -0.7662 -1.2085  1.1036
 1359SOL     OW15709   1.920   3.477   5.544 -0.4953  0.1886 -0.2308
 1359SOL    HW115710   1.923   3.473   5.449 -0.2184  1.6883 -0.2865
 1359SOL    HW215711   2.000   3.425   5.556 -0.5633  0.5837  1.9486
 1360SOL     OW15712   3.747   1.556   8.529  0.1055  0.1797  0.1239
 1360SOL    HW115713   3.829   1.516   8.558 -1.1515 -2.2438  0.3768
 1360SOL    HW215714   3.677   1.517   8.583 -0.3025  0.0887 -0.4771
 1361SOL     OW15715   0.734   0.557   6.753 -0.2597 -0.7574  0.1772
 1361SOL    HW115716   0.757   0.639   6.709  1.4459 -0.2364  2.0170
 1361SOL    HW215717   0.731   0.495   6.681 -1.2700 -0.0548 -0.3839
 1362SOL     OW15718   1.547   3.183  17.173 -0.5583  0.2273  0.3577
 1362SOL    HW115719   1.458   3.148  17.175 -0.6288  0.3498 -1.2288
 1362SOL    HW215720   1.589   3.125  17.237 -0.2889 -1.3468 -1.2356
 1363SOL     OW15721   4.504   0.929   8.933  0.4620 -0.5577 -0.2423
 1363SOL    HW115722   4.542   0.841   8.933  1.9368  0.0738 -1.1594
 1363SOL    HW215723   4.523   0.954   9.023 -0.3216  0.5439 -0.3840
 1364SOL     OW15724   4.162   4.440   5.869 -0.4420 -0.1300 -0.4594
 1364SOL    HW115725   4.232   4.400   5.817 -0.2819 -1.0525  0.4699
 1364SOL    HW215726   4.201   4.518   5.908 -1.7336  0.3171 -0.0703
 1365SOL     OW15727   1.427   2.442   3.047 -0.2577  0.1120  0.7890
 1365SOL    HW115728   1.473   2.500   2.986 -2.4433  1.6830  0.6650
 1365SOL    HW215729   1.466   2.363   3.010  0.0418  1.8667 -2.6378
 1366SOL     OW15730   3.316   0.630  14.993  0.3042 -0.3567  0.2616
 1366SOL    HW115731   3.295   0.638  14.900 -1.2503 -1.1391  0.5434
 1366SOL    HW215732   3.410   0.617  14.985  0.1963 -0.5435 -0.7398
 1367SOL     OW15733   2.241   1.143   1.439 -0.1110  0.4827  0.2617
 1367SOL    HW115734   2.334   1.158   1.422 -0.4896  0.6517 -1.6183
 1367SOL    HW215735   2.198   1.193   1.371 -0.7965 -2.1706 -1.2554
 1368SOL     OW15736   4.281   2.595  13.607 -0.0677  0.6354 -0.0989
 1368SOL    HW115737   4.231   2.638  13.539 -0.0684 -0.5048 -0.8169
 1368SOL    HW215738   4.325   2.528  13.554 -2.0386 -1.5011  0.9627
 1369SOL     OW15739   4.714   3.640  16.926  0.0269 -0.3735  0.3994
 1369SOL    HW115740   0.046   3.606  16.864 -0.2156 -2.2294  1.1852
 1369SOL    HW215741   4.633   3.628  16.877  1.0425  0.7976 -1.5774
 1370SOL     OW15742   2.354   2.272   5.047  0.3351 -0.3453 -0.1296
 1370SOL    HW115743   2.431   2.330   5.049  0.1638 -0.1501  0.8149
 1370SOL    HW215744   2.294   2.320   4.989 -0.5469 -0.9811  0.2535
 1371SOL     OW15745   3.981   2.008   9.261 -0.1210 -0.6399  0.5813
 1371SOL    HW115746   4.035   2.009   9.340  1.6920 -0.5205 -0.6567
 1371SOL    HW215747   3.905   2.039   9.310  0.3262  1.0742  0.1959
 1372SOL     OW15748   1.366   2.513  13.782  0.6908 -0.3063 -0.1931
 1372SOL    HW115749   1.282   2.497  13.825  2.0539 -1.9619  1.8259
 1372SOL    HW215750   1.343   2.596  13.740 -1.0112  0.1729  1.6724
 1373SOL     OW15751   3.724   2.456   5.437  0.7779 -0.2081 -0.3517
 1373SOL    HW115752   3.690   2.368   5.455 -1.2991  0.3222 -1.5838
 1373SOL    HW215753   3.718   2.505   5.519  2.2934 -1.1772  0.3377
 1374SOL     OW15754   0.747   2.489   5.409  0.0178 -0.2217 -0.3846
 1374SOL    HW115755   0.830   2.535   5.398 -1.4220  2.5027  0.1015
 1374SOL    HW215756   0.686   2.532   5.349  1.7833  2.6248 -0.1329
 1375SOL     OW15757   1.023   4.018   2.896 -0.4683 -0.4938 -0.3163
 1375SOL    HW115758   1.060   4.019   2.808 -1.3387  0.8778 -0.6806
 1375SOL    HW215759   1.102   4.057   2.933 -1.6108 -0.7083  2.3980
 1376SOL     OW15760   3.809   0.722  13.385  0.2286  0.5941 -0.1646
 1376SOL    HW115761   3.878   0.763  13.332  0.4608  0.6107  0.1562
 1376SOL    HW215762   3.869   0.681  13.447 -0.0792 -1.5221 -1.2492
 1377SOL     OW15763   4.526   4.204   6.752 -0.2168 -0.2500 -0.5578
 1377SOL    HW115764   4.497   4.130   6.699 -2.8979 -1.8028  3.0994
 1377SOL    HW215765   4.618   4.201   6.725  0.3686 -0.2555  1.3957
 1378SOL     OW15766   4.275   0.804  12.486  0.0850  0.0202  0.0720
 1378SOL    HW115767   4.370   0.808  12.473 -0.2699  1.8374 -2.0841
 1378SOL    HW215768   4.247   0.748  12.413 -0.3454 -1.1347  1.1260
 1379SOL     OW15769   2.737   2.753   9.383  0.3705  0.5791 -0.0873
 1379SOL    HW115770   2.804   2.723   9.322  1.9680 -2.0663  2.9477
 1379SOL    HW215771   2.696   2.671   9.413 -1.2366  0.3784 -2.8510
 1380SOL     OW15772   3.139   1.386   1.323 -0.2304  0.5261  0.5031
 1380SOL    HW115773   3.093   1.381   1.407 -0.9823 -1.6627 -0.0548
 1380SOL    HW215774   3.132   1.479   1.300 -1.5174 -1.0208 -5.1861
 1381SOL     OW15775   2.841   3.451  14.815 -0.0471 -0.7096  0.2509
 1381SOL    HW115776   2.905   3.500  14.763 -3.1302  1.5630 -1.4155
 1381SOL    HW215777   2.767   3.481  14.762  0.6656  1.9122  0.7391
 1382SOL     OW15778   2.250   3.047   4.684 -0.1159  0.3804  0.6650
 1382SOL    HW115779   2.201   2.970   4.656 -0.0080  0.4943  0.1692
 1382SOL    HW215780   2.204   3.071   4.765 -0.3360  1.1956  0.2961
 1383SOL     OW15781   1.746   0.478   7.656  0.3702  0.2807  0.4039
 1383SOL    HW115782   1.745   0.470   7.561  1.1309 -4.2125  0.7948
 1383SOL    HW215783   1.709   0.566   7.665 -1.1621 -0.3608  0.3689
 1384SOL     OW15784   0.909   0.124   2.099  0.0274 -0.0636 -0.0456
 1384SOL    HW115785   0.874   0.040   2.069 -3.2938  1.3720 -0.1277
 1384SOL    HW215786   1.004   0.116   2.094  0.1533  0.0925  2.0373
 1385SOL     OW15787   2.628   0.466   9.648 -0.3971 -0.2710  0.5887
 1385SOL    HW115788   2.587   0.520   9.716  1.7767  0.7530  1.1047
 1385SOL    HW215789   2.565   0.394   9.647  1.8567 -2.1931 -1.3867
 1386SOL     OW15790   2.094   4.585  17.472  0.1717  0.1315  0.0705
 1386SOL    HW115791   2.100   4.511  17.532  0.8649  0.3178  0.2327
 1386SOL    HW215792   2.010   4.564  17.431  1.5359 -2.0865 -1.6459
 1387SOL     OW15793   3.082   1.293   7.917  0.1427 -0.5125  0.4442
 1387SOL    HW115794   3.160   1.342   7.944 -0.0143 -0.7447  1.3226
 1387SOL    HW215795   3.028   1.321   7.991  1.9318  1.1960  1.1035
 1388SOL     OW15796   4.554   3.756   6.562 -0.3970  0.0346  0.1829
 1388SOL    HW115797   4.599   3.671   6.563  1.0430  0.8097  0.1739
 1388SOL    HW215798   4.613   3.815   6.608  0.0978 -1.2201  1.1724
 1389SOL     OW15799   4.221   3.703   5.447 -0.2926  0.2260  0.7554
 1389SOL    HW115800   4.174   3.727   5.527 -0.6017  0.9117  0.3726
 1389SOL    HW215801   4.290   3.645   5.479  0.9946  1.2772 -0.0964
 1390SOL     OW15802   2.751   2.260   9.253  0.0793 -0.3485 -0.1027
 1390SOL    HW115803   2.813   2.311   9.201 -0.4060 -0.5494 -0.8795
 1390SOL    HW215804   2.699   2.237   9.175 -1.2645  0.3154  0.5877
 1391SOL     OW15805   0.701   0.535   8.456 -0.0022  0.6134 -0.2426
 1391SOL    HW115806   0.772   0.518   8.517 -0.1113 -0.2043 -0.3386
 1391SOL    HW215807   0.754   0.534   8.376  0.8961  0.2169  0.3561
 1392SOL     OW15808   3.223   0.506   7.757 -0.4849 -0.3457  0.3517
 1392SOL    HW115809   3.276   0.572   7.802  0.9691 -1.3288  0.0668
 1392SOL    HW215810   3.247   0.426   7.804  0.0293 -1.9728 -2.7396
 1393SOL     OW15811   2.932   1.130   8.672 -0.0114  0.1519 -0.1637
 1393SOL    HW115812   2.962   1.215   8.703  2.5084 -1.2061  1.0725
 1393SOL    HW215813   2.985   1.067   8.720  2.1207  1.4592 -0.8240
 1394SOL     OW15814   2.940   1.500   1.878 -0.1850 -0.3686  0.1955
 1394SOL    HW115815   2.875   1.554   1.923  0.7057  0.8079  0.0802
 1394SOL    HW215816   3.008   1.567   1.873  0.9065 -1.5899 -1.1251
 1395SOL     OW15817   0.830   3.114   1.989 -0.2654 -0.5035  0.0545
 1395SOL    HW115818   0.807   3.143   1.901  1.3267 -0.2869 -0.2964
 1395SOL    HW215819   0.881   3.192   2.013 -1.8112  0.0904  1.4032
 1396SOL     OW15820   3.726   3.306  14.092 -0.1426 -0.7641  0.1340
 1396SOL    HW115821   3.776   3.243  14.144  2.0756  0.2157 -0.8141
 1396SOL    HW215822   3.785   3.374  14.058 -0.0881 -0.1435  1.4588
 1397SOL     OW15823   1.219   2.784  15.288  0.2182 -0.3505  0.4176
 1397SOL    HW115824   1.241   2.874  15.313  1.3961 -0.1335 -1.4113
 1397SOL    HW215825   1.126   2.789  15.310  0.1940  0.2804  0.1855
 1398SOL     OW15826   0.159   2.539   4.938 -0.2499 -0.7819 -0.0479
 1398SOL    HW115827   0.064   2.555   4.940 -0.3030 -1.3621  2.7645
 1398SOL    HW215828   0.157   2.451   4.976 -2.0579  0.0595  1.8313
 1399SOL     OW15829   2.903   0.865  11.538 -0.0319  0.0442 -0.0906
 1399SOL    HW115830   2.928   0.933  11.476 -0.3634  0.0044 -0.2709
 1399SOL    HW215831   2.935   0.908  11.617 -0.0309  1.5864 -0.9358
 1400SOL     OW15832   1.366   1.695  17.092  0.4178 -0.3828  0.3362
 1400SOL    HW115833   1.374   1.649  17.008  0.4983 -2.1296  1.2976
 1400SOL    HW215834   1.304   1.765  17.074  0.0065 -0.8102  0.0842
 1401SOL     OW15835   2.053   3.416   4.468 -1.0097 -0.2660 -0.1335
 1401SOL    HW115836   2.074   3.498   4.513  1.2341 -1.8482  1.7290
 1401SOL    HW215837   2.137   3.392   4.430 -0.9311 -1.2897  0.6814
 1402SOL     OW15838   3.635   2.572  14.223  0.6340 -0.1186 -0.4195
 1402SOL    HW115839   3.540   2.564  14.214  0.3748  1.0661  1.3192
 1402SOL    HW215840   3.641   2.668  14.225 -2.3345  0.0645  0.4090
 1403SOL     OW15841   2.954   4.671   4.553 -0.1237  0.5863  0.2991
 1403SOL    HW115842   3.008   0.018   4.555 -0.2928  0.7079  0.0815
 1403SOL    HW215843   3.013   4.610   4.510 -0.6495 -1.0687  1.9338
 1404SOL     OW15844   3.579   1.969   1.595  1.2297 -0.2315 -0.0887
 1404SOL    HW115845   3.534   1.977   1.511 -1.5001 -1.7948  1.2172
 1404SOL    HW215846   3.669   1.977   1.563  1.0178 -0.1403 -0.6673
 1405SOL     OW15847   2.428   0.356  12.590 -0.4566 -0.0597 -0.0313
 1405SOL    HW115848   2.387   0.297  12.654  0.0580  0.6198  0.9208
 1405SOL    HW215849   2.354   0.363  12.529  1.6335  1.5708 -2.3884
 1406SOL     OW15850   2.131   0.271   7.477  0.0197  0.1658 -0.3477
 1406SOL    HW115851   2.083   0.308   7.552  0.2641  1.1334 -0.6744
 1406SOL    HW215852   2.091   0.320   7.406 -0.2479 -0.9294 -0.9490
 1407SOL     OW15853   0.836   3.133   4.396  0.5170 -0.0834  0.3441
 1407SOL    HW115854   0.839   3.225   4.367  1.4324 -0.0722  0.4429
 1407SOL    HW215855   0.851   3.090   4.312  2.7475  0.4764  0.4444
 1408SOL     OW15856   2.924   2.994   7.339 -0.0444 -0.4409 -0.1696
 1408SOL    HW115857   2.921   3.040   7.423  1.2964  1.8238 -1.3750
 1408SOL    HW215858   2.833   3.010   7.313 -0.4964  0.6222  2.0560
 1409SOL     OW15859   0.878   0.944   2.723 -0.3290  0.8067 -0.2219
 1409SOL    HW115860   0.962   0.979   2.753  0.9679 -1.3643 -1.3396
 1409SOL    HW215861   0.809   0.975   2.782  1.5228  1.0048  1.8221
 1410SOL     OW15862   2.859   0.568   3.865 -0.2580  0.0140 -0.3445
 1410SOL    HW115863   2.891   0.507   3.799 -1.1051 -1.8275  0.9666
 1410SOL    HW215864   2.932   0.597   3.920  0.0927 -0.7752 -0.4041
 1411SOL     OW15865   0.700   2.002  16.409 -0.1664  0.0018 -0.9793
 1411SOL    HW115866   0.720   2.089  16.373  4.1940 -0.0313  1.3153
 1411SOL    HW215867   0.631   1.978  16.348  0.3666 -1.0643 -1.1551
 1412SOL     OW15868   3.738   1.951   1.940 -0.1267  0.2274  0.2805
 1412SOL    HW115869   3.753   1.951   1.845  2.3029 -1.4089  0.6704
 1412SOL    HW215870   3.644   1.966   1.943 -0.4692 -1.3717 -2.5043
 1413SOL     OW15871   4.665   4.169   1.830 -0.0818  0.4448 -0.0474
 1413SOL    HW115872   4.684   4.104   1.899  1.2173  0.4602 -0.3931
 1413SOL    HW215873   4.591   4.136   1.780 -0.3878  0.7143  0.2319
 1414SOL     OW15874   3.596   0.607  14.911 -0.2944  0.0559  0.0309
 1414SOL    HW115875   3.673   0.613  14.855  1.1597 -0.6358  1.9677
 1414SOL    HW215876   3.597   0.692  14.956 -0.2719  0.1405 -0.1315
 1415SOL     OW15877   3.410   3.228  12.703  0.0509 -0.3032 -0.4022
 1415SOL    HW115878   3.506   3.231  12.703  0.0129  0.9401 -2.0852
 1415SOL    HW215879   3.396   3.205  12.795 -1.0849  0.0424 -0.4874
 1416SOL     OW15880   3.088   0.287   0.043  0.9167 -0.2959  0.3846
 1416SOL    HW115881   3.134   0.204   0.047 -0.5024 -0.9999  1.9133
 1416SOL    HW215882   3.036   0.264   0.120  2.5494 -1.4291  1.1257
 1417SOL     OW15883   3.804   2.431  10.813 -0.3723 -0.7540 -0.0722
 1417SOL    HW115884   3.884   2.447  10.864 -0.3612 -1.0740  0.0117
 1417SOL    HW215885   3.755   2.512  10.829  1.1341  0.6740 -2.7184
 1418SOL     OW15886   2.664   4.500  14.774 -0.2121 -0.0738 -0.4174
 1418SOL    HW115887   2.647   4.572  14.713 -0.2784 -0.1480 -0.4867
 1418SOL    HW215888   2.591   4.514  14.834 -0.7207  0.4769 -1.1602
 1419SOL     OW15889   3.542   1.027   8.167  0.2912 -0.4696 -0.3823
 1419SOL    HW115890   3.575   1.085   8.236 -0.0708 -0.2606 -0.3853
 1419SOL    HW215891   3.599   0.950   8.170  0.6470 -0.2104 -0.4748
 1420SOL     OW15892   4.078   2.413  16.026  0.0051  0.6772 -0.1034
 1420SOL    HW115893   4.060   2.456  15.942  3.1780 -0.7010 -1.4663
 1420SOL    HW215894   4.083   2.490  16.083 -1.1799  0.9870 -0.4004
 1421SOL     OW15895   2.142   0.689   4.158  0.0689  0.3593 -0.2139
 1421SOL    HW115896   2.220   0.701   4.212  0.9323 -2.4207 -0.8416
 1421SOL    HW215897   2.075   0.743   4.198 -0.1203  0.4174 -0.6128
 1422SOL     OW15898   1.090   2.085   5.999 -0.0600 -0.0168 -0.1631
 1422SOL    HW115899   1.023   2.090   5.931  0.5109 -1.1335 -0.8026
 1422SOL    HW215900   1.084   2.175   6.030  1.0467 -0.4249  1.2034
 1423SOL     OW15901   0.017   2.247   2.359 -0.3652 -0.5987  0.3781
 1423SOL    HW115902   0.017   2.154   2.380  0.2681 -0.8823 -0.8568
 1423SOL    HW215903   4.724   2.286   2.442  0.3590  0.1619  0.2424
 1424SOL     OW15904   3.883   1.624   3.295 -0.1099 -0.6189  0.2852
 1424SOL    HW115905   3.919   1.674   3.222  1.3773 -1.0311  0.7274
 1424SOL    HW215906   3.819   1.688   3.324  0.1046  0.2392 -1.1871
 1425SOL     OW15907   3.984   0.391   5.179 -0.2175  0.5355 -0.6356
 1425SOL    HW115908   4.054   0.449   5.150  1.1372 -0.5862  0.3622
 1425SOL    HW215909   3.985   0.321   5.114 -1.4410  1.8750 -2.0851
 1426SOL     OW15910   4.689   3.621   5.760  0.6783 -0.0434 -0.2322
 1426SOL    HW115911   0.027   3.574   5.805 -1.1908 -2.1847  0.4816
 1426SOL    HW215912   4.669   3.547   5.702 -0.2332 -1.4877  1.8969
 1427SOL     OW15913   2.765   0.017   0.081 -0.3789 -0.0146  0.0137
 1427SOL    HW115914   2.832   0.076   0.117  0.2039 -0.5127 -0.2489
 1427SOL    HW215915   2.815   4.678   0.041 -0.5720 -1.2468  1.9848
 1428SOL     OW15916   3.558   1.452   1.683 -0.0548  0.1663 -0.1767
 1428SOL    HW115917   3.616   1.387   1.723  2.1902 -0.1653 -3.9875
 1428SOL    HW215918   3.540   1.513   1.755 -2.6864 -0.4719 -0.2913
 1429SOL     OW15919   4.082   0.157   5.589 -0.3816 -0.5677 -0.4245
 1429SOL    HW115920   4.064   0.128   5.499  2.7458 -0.2439 -1.1445
 1429SOL    HW215921   4.130   0.078   5.614 -1.6083 -1.4775 -0.9064
 1430SOL     OW15922   0.971   3.206   9.864  0.0883  0.4490  0.3813
 1430SOL    HW115923   0.944   3.213   9.772  0.7010 -0.2536  0.1485
 1430SOL    HW215924   0.911   3.142   9.902  0.2537  0.5948  0.8839
 1431SOL     OW15925   3.400   3.286   6.318 -0.3217 -0.0504 -0.2847
 1431SOL    HW115926   3.480   3.236   6.337 -1.0082 -0.2995  1.9296
 1431SOL    HW215927   3.434   3.375   6.331  3.4054 -1.6449  0.7925
 1432SOL     OW15928   3.834   0.607  17.464 -0.1550  0.3598 -0.3486
 1432SOL    HW115929   3.860   0.690  17.505 -2.7150  1.9387 -1.8914
 1432SOL    HW215930   3.752   0.589  17.509 -0.0792  1.2420  0.1408
 1433SOL     OW15931   3.106   2.976   4.910  0.7249  0.3697 -0.0510
 1433SOL    HW115932   3.165   2.906   4.940  0.6279  0.0271 -0.6457
 1433SOL    HW215933   3.131   2.977   4.817 -0.4794 -2.3811 -0.3966
 1434SOL     OW15934   2.517   1.755   5.345  0.7254  0.5546 -0.2063
 1434SOL    HW115935   2.434   1.795   5.318  0.4121  1.1356  1.6369
 1434SOL    HW215936   2.568   1.835   5.335  1.6282  0.1154  0.8768
 1435SOL     OW15937   1.621   0.023   8.669 -0.2853  0.4859  0.0705
 1435SOL    HW115938   1.600   0.035   8.762  1.5945 -1.3270  0.7137
 1435SOL    HW215939   1.662   0.107   8.648  0.9751 -0.1193  0.1289
 1436SOL     OW15940   3.704   3.135   1.921  0.7447  0.4289  0.0742
 1436SOL    HW115941   3.663   3.097   1.999  0.1868 -0.5844 -0.7157
 1436SOL    HW215942   3.779   3.185   1.954  0.7004 -1.2054  2.6474
 1437SOL     OW15943   0.566   3.216  14.016 -0.0238 -0.1243  0.1742
 1437SOL    HW115944   0.587   3.195  13.925  1.0396 -2.2443  0.9182
 1437SOL    HW215945   0.493   3.268  13.981  0.0419  1.6061  2.6062
 1438SOL     OW15946   3.696   4.717   8.629  0.4500  0.1255 -0.2524
 1438SOL    HW115947   3.672   4.690   8.718  0.7854  0.2426 -0.1260
 1438SOL    HW215948   3.761   4.650   8.611 -0.0307 -0.1104 -1.0786
 1439SOL     OW15949   0.524   0.704  10.013 -0.5588 -0.6374 -0.2151
 1439SOL    HW115950   0.611   0.680  10.043  0.2664  2.0689 -0.4586
 1439SOL    HW215951   0.475   0.723  10.094  0.5646  0.0295  0.3122
 1440SOL     OW15952   4.661   0.484  15.943  0.5995 -0.0330  0.0623
 1440SOL    HW115953   4.583   0.501  15.890 -0.6793  0.7803  2.2081
 1440SOL    HW215954   4.685   0.397  15.911 -1.0644 -0.2290 -0.6984
 1441SOL     OW15955   3.865   2.715   2.433 -0.0957  0.1706 -0.0754
 1441SOL    HW115956   3.847   2.645   2.370 -0.4131 -0.3667  0.6067
 1441SOL    HW215957   3.960   2.710   2.440  0.0517 -0.9021 -2.9426
 1442SOL     OW15958   0.645   1.681   9.495 -0.1424 -0.0613 -0.2915
 1442SOL    HW115959   0.705   1.682   9.569 -2.8060 -0.3495  1.8933
 1442SOL    HW215960   0.704   1.726   9.435 -1.7770 -0.4072 -2.1637
 1443SOL     OW15961   2.945   4.296  15.159 -0.2910 -0.5137  0.9722
 1443SOL    HW115962   2.936   4.229  15.227  0.3678 -1.5742  0.0268
 1443SOL    HW215963   2.939   4.232  15.088 -0.1991 -0.4664  0.9228
 1444SOL     OW15964   3.680   1.635  12.494  0.4774 -0.4841  0.4094
 1444SOL    HW115965   3.747   1.575  12.528  0.5560 -0.7156 -0.1418
 1444SOL    HW215966   3.605   1.575  12.494  0.4948 -0.5190 -1.5658
 1445SOL     OW15967   2.519   2.338   8.491 -0.5024 -0.1074 -0.6137
 1445SOL    HW115968   2.575   2.415   8.476 -0.0152 -0.7364 -2.0128
 1445SOL    HW215969   2.500   2.312   8.401 -1.0798  0.3008 -0.6136
 1446SOL     OW15970   2.866   2.824   5.189 -0.4024 -0.3338  0.6561
 1446SOL    HW115971   2.779   2.798   5.159 -0.9992  0.4256  1.7259
 1446SOL    HW215972   2.871   2.916   5.161  1.3050 -0.4426  0.5860
 1447SOL     OW15973   0.423   2.665   9.291  0.0185 -0.2209  0.7050
 1447SOL    HW115974   0.378   2.640   9.372  4.1411 -3.2206  2.0827
 1447SOL    HW215975   0.361   2.725   9.249 -1.0342 -0.9254  1.2547
 1448SOL     OW15976   4.125   4.540  13.933  0.4182  0.4280 -0.4021
 1448SOL    HW115977   4.097   4.598  13.862  0.3530 -0.8189 -1.4005
 1448SOL    HW215978   4.219   4.558  13.935  0.4688  0.0289  0.7559
 1449SOL     OW15979   3.610   2.939   5.378 -0.1790 -0.5661 -0.3677
 1449SOL    HW115980   3.528   2.907   5.343 -0.9403  0.5648  0.3694
 1449SOL    HW215981   3.586   3.029   5.357 -3.6364 -1.9411 -2.2081
 1450SOL     OW15982   2.032   0.553  12.604  0.0393 -0.2441 -0.1542
 1450SOL    HW115983   1.992   0.513  12.682  1.7853  0.8845  1.3097
 1450SOL    HW215984   2.054   0.638  12.643 -3.0927  0.6350 -0.2388
 1451SOL     OW15985   2.233   1.136  16.096  0.0536 -0.3223 -0.0682
 1451SOL    HW115986   2.303   1.114  16.158 -0.3230  1.2114  0.8986
 1451SOL    HW215987   2.284   1.124  16.017 -0.7783  1.2205 -0.8464
 1452SOL     OW15988   2.129   0.516   1.281  0.1479  0.0519 -0.1754
 1452SOL    HW115989   2.180   0.597   1.285  0.2559  0.0858 -2.3355
 1452SOL    HW215990   2.091   0.512   1.193 -1.5614 -0.8081  0.5800
 1453SOL     OW15991   4.660   3.877   6.867 -0.4832 -0.0275  0.5376
 1453SOL    HW115992   4.565   3.865   6.871 -0.2365 -1.6003  1.7136
 1453SOL    HW215993   4.671   3.963   6.908  1.2378 -0.4532  0.9829
 1454SOL     OW15994   2.260   0.713   0.837 -0.4506 -0.0515 -0.9941
 1454SOL    HW115995   2.337   0.739   0.785  0.6601  0.4328  0.9188
 1454SOL    HW215996   2.257   0.619   0.820  0.3978 -0.0063 -1.4088
 1455SOL     OW15997   2.404   4.070   6.972 -0.0714  0.0298 -0.8555
 1455SOL    HW115998   2.333   4.122   6.933  0.8845 -0.0361 -2.6712
 1455SOL    HW215999   2.470   4.076   6.904 -1.0066 -2.4520 -2.0079
 1456SOL     OW16000   2.477   2.722   2.714  0.5068  0.4429 -0.0593
 1456SOL    HW116001   2.431   2.803   2.736 -0.0832 -0.4958  2.1610
 1456SOL    HW216002   2.403   2.672   2.681  0.7885  0.1891 -0.3098
 1457SOL     OW16003   3.905   1.799   2.848 -0.6801 -0.1989 -0.7172
 1457SOL    HW116004   3.936   1.794   2.757  1.1815 -0.2471 -0.0756
 1457SOL    HW216005   3.878   1.709   2.869 -2.5170  0.4896 -0.1401
 1458SOL     OW16006   2.495   3.176   3.895 -0.2368 -0.0872  0.1349
 1458SOL    HW116007   2.412   3.197   3.852  0.3806 -0.4732 -1.2569
 1458SOL    HW216008   2.546   3.247   3.856  1.8335 -1.1790  0.8601
 1459SOL     OW16009   3.045   0.993   4.733 -0.5895 -0.4647  0.1762
 1459SOL    HW116010   2.956   0.987   4.697 -0.7684  0.0097  0.5404
 1459SOL    HW216011   3.059   1.087   4.736 -1.0011 -0.3555 -1.2497
 1460SOL     OW16012   2.088   3.637   7.857  0.1238  0.0907 -0.0557
 1460SOL    HW116013   1.997   3.609   7.853  0.0572  0.2414  0.4093
 1460SOL    HW216014   2.062   3.729   7.855  1.1367  0.3459 -1.5913
 1461SOL     OW16015   1.985   0.924   8.629 -0.1303 -1.0311 -0.2634
 1461SOL    HW116016   2.005   0.946   8.538  2.3642  0.6857  0.7003
 1461SOL    HW216017   2.022   1.003   8.667 -1.5248 -0.1371 -0.7620
 1462SOL     OW16018   1.112   2.042   9.927 -0.2238 -0.5832  0.0565
 1462SOL    HW116019   1.207   2.027   9.926  0.4033  3.3261  0.3308
 1462SOL    HW216020   1.087   2.002   9.843 -1.5943 -0.9266  0.6378
 1463SOL     OW16021   3.606   0.706   2.174 -0.0435 -0.0802 -0.1116
 1463SOL    HW116022   3.555   0.665   2.245  0.9560 -0.8370  0.1708
 1463SOL    HW216023   3.578   0.659   2.096  0.1918 -0.7909  0.2338
 1464SOL     OW16024   4.479   3.259   5.840 -0.5652  0.1234  0.1587
 1464SOL    HW116025   4.558   3.297   5.879 -0.9696 -0.6023  1.7123
 1464SOL    HW216026   4.425   3.275   5.917  0.3489 -1.0918  1.0676
 1465SOL     OW16027   0.840   1.232   4.361  0.4930 -0.3379  0.1272
 1465SOL    HW116028   0.821   1.286   4.284  0.1635 -0.3763  0.1788
 1465SOL    HW216029   0.838   1.149   4.313  1.9162  0.1782 -0.8043
 1466SOL     OW16030   3.955   1.839   7.916 -0.0183  0.2653  0.5000
 1466SOL    HW116031   4.042   1.871   7.942 -0.0184  2.7318 -2.5485
 1466SOL    HW216032   3.919   1.905   7.856 -1.3413  0.1525  1.1606
 1467SOL     OW16033   1.149   1.082  10.616 -0.7382  0.2915  0.0727
 1467SOL    HW116034   1.105   1.048  10.693 -0.6673  0.4564  0.1856
 1467SOL    HW216035   1.238   1.048  10.631 -0.6707 -0.7550 -2.6435
 1468SOL     OW16036   1.791   0.463  10.222 -0.1347  0.0248  0.0808
 1468SOL    HW116037   1.754   0.494  10.305 -3.6193 -2.7771 -0.4168
 1468SOL    HW216038   1.874   0.509  10.234 -0.5102  0.7754 -0.2320
 1469SOL     OW16039   4.450   2.317   2.277  0.0188  0.4038 -0.0504
 1469SOL    HW116040   4.475   2.225   2.268 -0.7654  0.1727  0.1676
 1469SOL    HW216041   4.385   2.328   2.208  0.3664  0.0626 -0.4310
 1470SOL     OW16042   3.925   1.763  11.734  0.5301  0.3617 -0.2178
 1470SOL    HW116043   3.967   1.706  11.669  0.3106  1.0347 -0.9523
 1470SOL    HW216044   3.916   1.846  11.687  0.1061 -0.1343 -1.0176
 1471SOL     OW16045   2.085   4.558   7.372  0.3903 -0.3292 -0.0199
 1471SOL    HW116046   2.130   4.604   7.302 -0.2771  0.0743 -0.1767
 1471SOL    HW216047   2.084   4.618   7.446  3.3196  2.0561 -1.9563
 1472SOL     OW16048   4.238   1.583   7.177 -0.1856  0.3986 -0.0955
 1472SOL    HW116049   4.201   1.568   7.263 -1.0074 -1.8042 -0.8364
 1472SOL    HW216050   4.259   1.676   7.185  0.6892  0.3136 -1.3591
 1473SOL     OW16051   2.087   0.462   2.867 -0.0107  0.3287  0.0902
 1473SOL    HW116052   2.108   0.552   2.893 -0.5886  0.5433 -0.1823
 1473SOL    HW216053   2.059   0.428   2.952  0.0143  0.7780  0.2773
 1474SOL     OW16054   0.629   0.696  13.694 -0.3284  0.1130  0.3242
 1474SOL    HW116055   0.551   0.750  13.683 -1.4294 -1.1806  1.9513
 1474SOL    HW216056   0.652   0.724  13.782  1.4289  0.7757 -0.3376
 1475SOL     OW16057   3.458   0.958  10.166 -0.5287  0.0590  0.6530
 1475SOL    HW116058   3.551   0.974  10.180  0.0739 -1.6296 -1.5222
 1475SOL    HW216059   3.449   0.878  10.218 -1.0156  0.2459  0.8599
 1476SOL     OW16060   0.004   3.293   9.423 -0.2473  0.0524  0.6393
 1476SOL    HW116061   4.681   3.350   9.371 -0.1887 -1.2284 -0.8062
 1476SOL    HW216062   4.697   3.209   9.399  3.5271 -1.3071 -0.9005
 1477SOL     OW16063   0.759   0.386   3.320 -0.3077 -0.0037 -0.0959
 1477SOL    HW116064   0.684   0.336   3.288  0.4277 -1.1114 -0.0939
 1477SOL    HW216065   0.815   0.310   3.334 -2.8728 -1.7906  0.3846
 1478SOL     OW16066   0.162   0.415   0.934 -0.5780 -0.0290 -0.0910
 1478SOL    HW116067   0.244   0.365   0.925  0.9344  2.4279  0.0086
 1478SOL    HW216068   0.193   0.501   0.962 -0.4887  0.5378 -1.9835
 1479SOL     OW16069   3.618   3.612   1.509  0.1378  0.3212  0.4236
 1479SOL    HW116070   3.694   3.652   1.467 -0.3823  2.1526  1.2181
 1479SOL    HW216071   3.612   3.531   1.458  1.8726  0.2983  0.2604
 1480SOL     OW16072   3.147   3.358   6.802  0.0599  0.4915  0.5067
 1480SOL    HW116073   3.230   3.325   6.768 -0.6628  1.1651 -1.9230
 1480SOL    HW216074   3.075   3.322   6.750  1.7004 -0.2335 -1.2803
 1481SOL     OW16075   3.006   3.768   7.144 -0.1149 -0.2250  0.1558
 1481SOL    HW116076   3.065   3.766   7.069  0.3647  0.8146  0.5026
 1481SOL    HW216077   3.035   3.685   7.180  0.7062  0.0426  0.1094
 1482SOL     OW16078   2.637   0.751   7.756  0.3719  0.1800  0.0065
 1482SOL    HW116079   2.730   0.727   7.750  0.3992  0.6835 -1.5382
 1482SOL    HW216080   2.649   0.845   7.747 -0.5378  0.1735 -1.2481
 1483SOL     OW16081   3.883   2.380   0.310 -0.4101 -0.5056 -0.1964
 1483SOL    HW116082   3.877   2.460   0.257 -0.2950 -0.5196 -0.2314
 1483SOL    HW216083   3.822   2.398   0.382 -1.1225  0.3199 -1.0117
 1484SOL     OW16084   1.517   1.244   4.320 -0.5199 -0.6956 -0.0298
 1484SOL    HW116085   1.443   1.301   4.299 -1.4551 -1.2452  1.7028
 1484SOL    HW216086   1.551   1.296   4.393  0.6037 -1.0447 -0.3083
 1485SOL     OW16087   4.376   0.258   7.221  0.0907 -0.1524  0.4567
 1485SOL    HW116088   4.283   0.277   7.207 -0.0511 -0.3752  1.0964
 1485SOL    HW216089   4.407   0.315   7.150 -0.0630  1.3734  1.6242
 1486SOL     OW16090   0.085   2.830   6.340 -0.4200  0.0948  0.6720
 1486SOL    HW116091   0.174   2.855   6.318 -0.2535 -0.6210  0.5146
 1486SOL    HW216092   0.100   2.768   6.411 -1.7728 -0.4531  0.4794
 1487SOL     OW16093   1.235   3.124   7.417  0.6035 -0.1876 -0.1083
 1487SOL    HW116094   1.282   3.062   7.473 -0.0366 -0.7570 -0.2034
 1487SOL    HW216095   1.166   3.148   7.478  0.0077 -1.1682 -0.4046
 1488SOL     OW16096   4.010   1.021   3.018 -0.4749 -0.2274 -0.5091
 1488SOL    HW116097   3.926   0.994   3.056 -0.7496  0.1756 -0.8174
 1488SOL    HW216098   4.066   1.036   3.093  0.0090 -1.2221 -0.6724
 1489SOL     OW16099   2.513   0.584   9.888 -0.0307  0.3858 -0.0572
 1489SOL    HW116100   2.576   0.635   9.940  0.2498  1.9210 -1.8848
 1489SOL    HW216101   2.465   0.537   9.957  0.5959 -1.4215 -0.8602
 1490SOL     OW16102   1.544   0.312  10.219 -0.1351 -0.1193  0.0695
 1490SOL    HW116103   1.618   0.361  10.254 -0.9151  1.5450 -0.5638
 1490SOL    HW216104   1.551   0.319  10.124  0.6794 -3.7229 -0.1253
 1491SOL     OW16105   1.320   2.619   7.960 -0.3253 -0.5757  0.5748
 1491SOL    HW116106   1.256   2.627   8.030  0.3666  2.0449  0.9069
 1491SOL    HW216107   1.400   2.639   8.009  0.2951 -1.6353  0.0113
 1492SOL     OW16108   2.045   4.067  12.005  0.3001  0.4673  0.3572
 1492SOL    HW116109   2.012   4.142  12.056 -1.1539  0.9375 -1.2777
 1492SOL    HW216110   2.036   4.104  11.917  2.4975  0.6649  0.2129
 1493SOL     OW16111   3.847   2.890  15.017  0.3277  0.8846 -0.2475
 1493SOL    HW116112   3.920   2.829  15.002 -0.8559 -0.9104  1.2103
 1493SOL    HW216113   3.880   2.954  15.080  2.2322 -1.4367  1.1552
 1494SOL     OW16114   2.290   2.394   6.683  0.9266  0.4552 -0.1643
 1494SOL    HW116115   2.262   2.447   6.757  2.4198  4.2692 -2.3623
 1494SOL    HW216116   2.231   2.323   6.711  0.9364  0.7610  0.6349
 1495SOL     OW16117   0.505   0.704   9.104  0.2753 -0.0591  0.2966
 1495SOL    HW116118   0.504   0.798   9.122 -0.8493 -0.2601  1.2904
 1495SOL    HW216119   0.599   0.687   9.100  0.1719 -0.1400 -1.7419
 1496SOL     OW16120   1.707   2.751   6.854  0.5272 -0.4766  0.0251
 1496SOL    HW116121   1.620   2.743   6.814  0.2977  0.9187  0.2383
 1496SOL    HW216122   1.693   2.695   6.930 -0.0777  1.5592  1.3936
 1497SOL     OW16123   1.554   1.844   0.998 -0.3093  0.0301 -0.4011
 1497SOL    HW116124   1.555   1.768   1.057 -1.2359 -0.0574 -0.4979
 1497SOL    HW216125   1.586   1.908   1.061 -2.3896  2.7045 -2.0558
 1498SOL     OW16126   4.312   4.370   8.613 -0.7018  0.4293 -0.0925
 1498SOL    HW116127   4.256   4.343   8.685  2.2075 -0.8921  1.6869
 1498SOL    HW216128   4.248   4.423   8.565  0.1362 -0.1846 -1.9026
 1499SOL     OW16129   3.346   0.040   8.708 -0.0601 -0.1911  0.1782
 1499SOL    HW116130   3.281   4.706   8.732  0.6382 -0.8027  0.3957
 1499SOL    HW216131   3.350   0.016   8.616 -0.6140  4.9417 -1.1761
 1500SOL     OW16132   3.755   1.160   7.557  0.0837 -0.5918  0.4481
 1500SOL    HW116133   3.727   1.069   7.548 -1.7073 -0.1514  1.4827
 1500SOL    HW216134   3.673   1.178   7.604 -0.6356 -1.2513 -0.5370
 1501SOL     OW16135   3.824   2.060  11.333  0.2811 -0.2139 -0.2330
 1501SOL    HW116136   3.872   2.139  11.358  1.0973 -0.9183  0.4590
 1501SOL    HW216137   3.785   2.089  11.251  1.0949  0.0289 -0.5395
 1502SOL     OW16138   4.729   3.983  14.499 -0.3830 -0.1650 -0.1268
 1502SOL    HW116139   4.722   4.039  14.421 -0.3506 -0.7301 -0.5365
 1502SOL    HW216140   4.700   3.902  14.456  2.0575 -0.3787 -1.3554
 1503SOL     OW16141   0.745   1.253  11.934 -0.4824  0.1218 -0.2744
 1503SOL    HW116142   0.701   1.299  12.006  1.5804 -0.7312  1.5244
 1503SOL    HW216143   0.756   1.322  11.868  2.0970 -0.0704 -0.0465
 1504SOL     OW16144   2.878   4.672  12.712  0.1149 -0.2303 -0.0985
 1504SOL    HW116145   2.891   4.724  12.633  1.3360 -0.7465 -0.2474
 1504SOL    HW216146   2.839   0.001  12.774 -1.4181 -2.7905  1.5202
 1505SOL     OW16147   2.929   0.131   5.819  0.9500 -0.4062 -0.5822
 1505SOL    HW116148   2.882   0.056   5.855  2.3588  0.2551  2.6659
 1505SOL    HW216149   2.923   0.192   5.893  0.1119 -0.4626 -0.6042
 1506SOL     OW16150   3.666   1.480   0.379 -0.5126 -0.8144  0.0027
 1506SOL    HW116151   3.663   1.506   0.287 -1.6389 -1.3186 -0.0981
 1506SOL    HW216152   3.720   1.551   0.413 -2.0982  0.6368 -0.5483
 1507SOL     OW16153   2.038   1.114   3.065 -0.2668 -0.9898  0.1019
 1507SOL    HW116154   1.971   1.087   3.128  0.1800  0.2530  1.1187
 1507SOL    HW216155   2.013   1.062   2.989  0.4645  0.7397 -1.3189
 1508SOL     OW16156   1.080   2.808  14.650  0.5316 -0.2114  0.3041
 1508SOL    HW116157   1.051   2.740  14.589 -0.5793 -0.4327  1.0794
 1508SOL    HW216158   1.052   2.892  14.613 -1.3550 -1.4198 -0.9805
 1509SOL     OW16159   3.041   2.492  17.257  0.1299 -0.1611 -0.4029
 1509SOL    HW116160   2.992   2.492  17.340  1.4671  0.1790  0.3755
 1509SOL    HW216161   3.088   2.575  17.261  0.4099 -0.3748  0.8656
 1510SOL     OW16162   1.501   2.195   3.690 -0.8370  0.2716  0.2705
 1510SOL    HW116163   1.575   2.201   3.751 -0.1334  0.6375 -0.6057
 1510SOL    HW216164   1.519   2.262   3.625 -0.9471  0.4353  0.4109
 1511SOL     OW16165   2.983   3.404  17.159  0.2529  0.4439 -0.1062
 1511SOL    HW116166   2.897   3.388  17.121 -0.8185  0.6177  2.2665
 1511SOL    HW216167   3.033   3.328  17.128  2.2462  1.1351  1.3869
 1512SOL     OW16168   4.408   1.733  13.272  0.3397 -0.3742  0.3728
 1512SOL    HW116169   4.412   1.751  13.366  0.9562  0.3758  0.2049
 1512SOL    HW216170   4.492   1.690  13.253  0.4038 -0.6970  1.3736
 1513SOL     OW16171   4.160   2.690   2.430  0.2012  0.2782  0.1138
 1513SOL    HW116172   4.187   2.701   2.338  0.0316  1.2390  0.1780
 1513SOL    HW216173   4.150   2.782   2.455 -1.6257 -0.3865  1.7552
 1514SOL     OW16174   1.566   4.008  12.420  0.4653  0.2069 -0.2697
 1514SOL    HW116175   1.618   4.049  12.351  1.3278  0.4290  0.5101
 1514SOL    HW216176   1.578   3.917  12.394 -0.6753 -0.1043  0.2706
 1515SOL     OW16177   0.610   0.883   7.811 -0.0207  0.1863 -0.2960
 1515SOL    HW116178   0.531   0.853   7.766  0.5890 -1.5295 -0.1843
 1515SOL    HW216179   0.678   0.819   7.794  1.1180  1.2161  0.4074
 1516SOL     OW16180   1.250   2.885  16.601 -0.4419 -0.4151  0.5039
 1516SOL    HW116181   1.330   2.833  16.593 -1.1642 -1.1534 -2.0052
 1516SOL    HW216182   1.217   2.879  16.511  3.5089  0.4148 -0.9810
 1517SOL     OW16183   2.006   3.467   3.769 -0.2274 -0.3846 -1.0245
 1517SOL    HW116184   2.067   3.527   3.813 -1.3512  0.1689 -0.2083
 1517SOL    HW216185   2.058   3.390   3.792  1.4949  1.5093  1.4518
 1518SOL     OW16186   3.378   2.537  11.124  0.0803 -0.2863 -0.5515
 1518SOL    HW116187   3.408   2.610  11.179 -0.3621  1.2571 -2.3506
 1518SOL    HW216188   3.330   2.494  11.194 -0.1474  0.3181 -0.3368
 1519SOL     OW16189   3.746   1.567   5.796  0.6615 -0.3084 -0.0358
 1519SOL    HW116190   3.722   1.627   5.725 -1.0609 -1.3521 -0.3320
 1519SOL    HW216191   3.663   1.548   5.840  2.0895  0.0249  2.7739
 1520SOL     OW16192   1.622   0.519   8.518 -0.3240  0.4074  0.2745
 1520SOL    HW116193   1.651   0.503   8.429 -0.3041 -0.4750  0.4431
 1520SOL    HW216194   1.691   0.576   8.554 -0.0100  0.9250 -1.1420
 1521SOL     OW16195   4.351   3.982   2.324  0.2441  0.6475  0.8729
 1521SOL    HW116196   4.434   3.935   2.326 -0.3161 -0.3491  0.6563
 1521SOL    HW216197   4.321   3.971   2.234  0.0352 -0.4952  1.0852
 1522SOL     OW16198   0.895   2.850   4.268 -0.3161 -0.3685  0.3419
 1522SOL    HW116199   0.956   2.921   4.249 -2.2237  0.4470 -2.8487
 1522SOL    HW216200   0.936   2.819   4.348  0.1278 -1.4326 -0.2996
 1523SOL     OW16201   3.074   1.410   7.240 -0.8671 -0.3896  0.2518
 1523SOL    HW116202   3.158   1.455   7.250  1.4190 -4.2410 -1.6466
 1523SOL    HW216203   3.080   1.367   7.155 -0.0413  0.2584 -0.0203
 1524SOL     OW16204   3.464   1.442   3.161  0.4077  0.2762  0.1447
 1524SOL    HW116205   3.392   1.386   3.132 -0.7250  1.2102  1.1580
 1524SOL    HW216206   3.421   1.525   3.141  3.2164  1.6088 -0.3478
 1525SOL     OW16207   3.582   0.738   6.113 -0.1645  0.4913  0.3809
 1525SOL    HW116208   3.648   0.670   6.096 -0.0340  0.7367 -0.1095
 1525SOL    HW216209   3.602   0.778   6.197 -0.0313  2.1869 -0.4713
 1526SOL     OW16210   0.035   2.835   5.180  0.0569  0.3989  0.2403
 1526SOL    HW116211   4.710   2.764   5.207 -0.6439  0.2953 -1.5061
 1526SOL    HW216212   0.001   2.844   5.091 -0.1548 -1.1293  0.1654
 1527SOL     OW16213   2.311   3.669   3.257  0.5971 -0.2519 -0.3877
 1527SOL    HW116214   2.292   3.756   3.223 -1.9789 -0.1319  1.3295
 1527SOL    HW216215   2.291   3.674   3.351  0.2066  1.7463 -0.5810
 1528SOL     OW16216   3.119   0.183   0.605  0.1837 -0.1222 -0.2881
 1528SOL    HW116217   3.033   0.185   0.565  1.7564  1.8869 -3.5647
 1528SOL    HW216218   3.096   0.188   0.698 -0.2042  0.4496 -0.4179
 1529SOL     OW16219   2.036   0.234   6.684  0.2609 -0.1115 -0.5527
 1529SOL    HW116220   2.097   0.308   6.683 -0.6242  0.5946 -1.5194
 1529SOL    HW216221   1.964   0.260   6.627  0.7815  4.3690  0.8613
 1530SOL     OW16222   1.036   2.293   4.614 -0.1611 -0.7744  0.1221
 1530SOL    HW116223   1.070   2.248   4.692  0.5123 -0.8858 -0.2306
 1530SOL    HW216224   1.099   2.259   4.550 -0.3223 -1.8194  0.5074
 1531SOL     OW16225   2.970   2.293   3.954  0.4320 -0.0184  0.0753
 1531SOL    HW116226   3.009   2.247   4.029 -1.6664 -2.0620 -0.1101
 1531SOL    HW216227   3.024   2.372   3.955 -0.0803  0.3191  0.8003
 1532SOL     OW16228   0.257   3.356   8.115  0.5281 -0.0190  0.0845
 1532SOL    HW116229   0.184   3.299   8.092 -1.5290  3.2979 -1.4781
 1532SOL    HW216230   0.289   3.330   8.201 -0.0487 -0.5751  0.1322
 1533SOL     OW16231   3.709   1.332   3.071 -0.4513 -0.4405  0.4130
 1533SOL    HW116232   3.627   1.372   3.099 -0.5379 -0.0860 -0.3395
 1533SOL    HW216233   3.665   1.255   3.034  3.6212 -1.0886 -3.1279
 1534SOL     OW16234   1.624   0.920  16.526 -0.3481 -0.6086  0.4196
 1534SOL    HW116235   1.538   0.912  16.484  0.4648  0.9903 -1.5623
 1534SOL    HW216236   1.682   0.940  16.453 -1.5301 -0.0067 -0.3530
 1535SOL     OW16237   0.108   1.704   4.749 -0.5163 -0.1258  0.2137
 1535SOL    HW116238   0.052   1.781   4.744  1.4355  1.4002  2.2879
 1535SOL    HW216239   0.046   1.632   4.766  0.6584 -0.6729  2.0733
 1536SOL     OW16240   0.895   0.732   6.597  0.2764 -0.2064 -0.3994
 1536SOL    HW116241   0.899   0.767   6.509 -0.1348 -0.6494 -0.5991
 1536SOL    HW216242   0.894   0.813   6.648 -0.9407 -0.3584 -0.1737
 1537SOL     OW16243   1.793   3.911   4.692  0.8652 -0.0824 -0.0716
 1537SOL    HW116244   1.788   3.827   4.737  1.5135 -0.2760 -0.3688
 1537SOL    HW216245   1.697   3.921   4.688  1.0914  1.3520 -1.7309
 1538SOL     OW16246   3.137   2.281   3.671 -0.5587 -0.1766 -0.0744
 1538SOL    HW116247   3.150   2.273   3.766  0.2265 -1.6319 -0.3052
 1538SOL    HW216248   3.152   2.374   3.655 -0.6798 -0.7332 -3.3970
 1539SOL     OW16249   1.805   1.255  16.962  0.2842  0.1277 -0.4187
 1539SOL    HW116250   1.895   1.285  16.953 -0.1391  1.2824 -0.8047
 1539SOL    HW216251   1.806   1.184  16.899 -0.0156 -1.4590  1.3657
 1540SOL     OW16252   1.263   2.083   3.717 -0.4528 -0.0178  0.2346
 1540SOL    HW116253   1.351   2.119   3.713 -0.1641 -1.0057 -2.0390
 1540SOL    HW216254   1.278   2.020   3.787  2.0042 -1.3100 -1.4602
 1541SOL     OW16255   1.152   4.668   1.028 -0.3115  1.2265 -0.0262
 1541SOL    HW116256   1.090   4.620   0.973  1.0475 -0.0006 -0.4760
 1541SOL    HW216257   1.150   4.629   1.116 -1.2303 -0.6085 -0.8561
 1542SOL     OW16258   0.907   3.865   5.476  0.2793 -0.0023 -0.5945
 1542SOL    HW116259   0.891   3.877   5.570 -1.2125  1.6573 -1.0721
 1542SOL    HW216260   0.981   3.803   5.475  1.2246  1.1086  0.1434
 1543SOL     OW16261   0.472   1.779  13.712  0.1176  0.4933 -0.1814
 1543SOL    HW116262   0.427   1.723  13.775  1.1704  1.2762  1.2863
 1543SOL    HW216263   0.555   1.794  13.758  0.4880 -1.7662 -0.1354
 1544SOL     OW16264   0.195   4.260   7.216 -0.0525 -0.3619 -0.6811
 1544SOL    HW116265   0.251   4.184   7.200  0.4981  0.3557 -2.0936
 1544SOL    HW216266   0.202   4.304   7.131 -0.2156  1.0102  0.0202
 1545SOL     OW16267   2.249   3.430   5.324  0.2761 -0.0819 -0.1032
 1545SOL    HW116268   2.334   3.431   5.368 -0.3051 -0.6009  1.0242
 1545SOL    HW216269   2.224   3.521   5.308 -2.4254 -0.7040  0.6643
 1546SOL     OW16270   0.714   3.982   3.235  0.2228  0.0302 -0.3387
 1546SOL    HW116271   0.660   3.957   3.310 -1.1407 -0.7616 -1.5905
 1546SOL    HW216272   0.796   3.989   3.284  0.7739 -0.8861 -1.1541
 1547SOL     OW16273   1.489   0.641   0.476  0.7984 -0.1601  0.3268
 1547SOL    HW116274   1.473   0.714   0.416  1.5958 -0.3169 -0.0745
 1547SOL    HW216275   1.493   0.562   0.422  2.4241  0.8476 -0.9922
 1548SOL     OW16276   3.756   3.847  12.523 -0.4685  0.2313  0.2473
 1548SOL    HW116277   3.791   3.766  12.485 -0.2958  0.8778 -0.9892
 1548SOL    HW216278   3.701   3.818  12.596  2.9208 -0.5231  2.4615
 1549SOL     OW16279   0.981   1.558   3.322 -0.2477  0.5268  0.5382
 1549SOL    HW116280   0.897   1.512   3.315 -0.7986  1.5852  0.1785
 1549SOL    HW216281   0.949   1.639   3.362  1.4606  1.7922 -0.6690
 1550SOL     OW16282   0.351   3.411   6.372 -0.7705  0.1368 -0.0825
 1550SOL    HW116283   0.378   3.499   6.399 -0.1582 -0.2614  0.5890
 1550SOL    HW216284   0.359   3.371   6.458 -0.6515  0.2864 -0.0260
 1551SOL     OW16285   2.072   0.670   5.563 -0.2164 -0.2100 -0.3704
 1551SOL    HW116286   2.119   0.659   5.480  1.6511  1.4136  0.4608
 1551SOL    HW216287   2.009   0.598   5.564 -0.2487 -0.1840 -0.5031
 1552SOL     OW16288   3.167   1.255   6.095  0.6812  0.0655 -0.5247
 1552SOL    HW116289   3.178   1.186   6.030  1.4635 -0.7779  0.4877
 1552SOL    HW216290   3.259   1.282   6.099  0.8795 -0.8459  0.8566
 1553SOL     OW16291   2.685   3.311   6.353 -0.7901  0.0100  0.4432
 1553SOL    HW116292   2.694   3.224   6.313  0.6441  0.1912  0.3527
 1553SOL    HW216293   2.601   3.332   6.312  1.3786  3.8500 -2.0757
 1554SOL     OW16294   2.443   1.931  13.737 -0.1614  0.0458 -0.2887
 1554SOL    HW116295   2.446   2.026  13.741  2.8630 -0.0628 -0.2076
 1554SOL    HW216296   2.408   1.919  13.649 -2.1016  2.1036  0.1947
 1555SOL     OW16297   3.148   0.471   4.753  0.4129  0.4114  0.0620
 1555SOL    HW116298   3.114   0.448   4.839 -0.2759 -0.7044 -0.4967
 1555SOL    HW216299   3.167   0.384   4.717  1.6577  0.4291  0.6978
 1556SOL     OW16300   2.622   3.706  15.461 -0.1654  0.3691 -0.2878
 1556SOL    HW116301   2.707   3.672  15.436  0.1304 -0.1809  1.4331
 1556SOL    HW216302   2.610   3.778  15.399  0.6697 -0.1835 -1.0813
 1557SOL     OW16303   1.601   4.151   1.469 -0.5513 -0.0490  0.2536
 1557SOL    HW116304   1.675   4.118   1.417 -0.4870 -1.7901  1.4407
 1557SOL    HW216305   1.637   4.152   1.558 -0.8298  2.3265  0.3378
 1558SOL     OW16306   3.342   2.200   7.374 -0.3783  0.1913 -0.3256
 1558SOL    HW116307   3.411   2.255   7.412 -1.0874  2.4416 -2.2711
 1558SOL    HW216308   3.267   2.244   7.414 -1.1850 -0.0184 -1.5878
 1559SOL     OW16309   2.827   0.839   7.373  0.6766 -0.3872  0.8256
 1559SOL    HW116310   2.900   0.778   7.377  0.3879 -0.7024  1.2651
 1559SOL    HW216311   2.841   0.870   7.463 -0.7841  2.1522  0.1907
 1560SOL     OW16312   2.245   1.240  13.499 -0.1823  0.4165  0.3438
 1560SOL    HW116313   2.278   1.190  13.573  0.9220 -0.0492 -0.4585
 1560SOL    HW216314   2.164   1.199  13.471  0.8169 -0.8390 -0.7097
 1561SOL     OW16315   1.670   4.652  12.703 -0.5547  0.5192 -0.0136
 1561SOL    HW116316   1.637   0.001  12.741  3.4595  1.8506  0.6761
 1561SOL    HW216317   1.589   4.625  12.659 -1.5402  0.7501  1.6579
 1562SOL     OW16318   4.519   1.910  16.427 -0.2727 -0.8902 -0.0151
 1562SOL    HW116319   4.589   1.975  16.437 -1.0809 -0.2271  1.2714
 1562SOL    HW216320   4.572   1.831  16.440 -2.0788 -2.2597 -0.9634
 1563SOL     OW16321   1.539   3.996   7.189  0.0756 -0.0099 -0.5835
 1563SOL    HW116322   1.615   4.004   7.132  0.0488  1.4384 -0.4265
 1563SOL    HW216323   1.493   3.921   7.151  0.8785  0.0752 -1.7105
 1564SOL     OW16324   4.155   2.128   3.144  0.1510 -0.0939 -0.0015
 1564SOL    HW116325   4.187   2.176   3.068  0.4580 -1.6569 -0.8636
 1564SOL    HW216326   4.236   2.134   3.194  0.9028 -2.5328 -0.9432
 1565SOL     OW16327   2.540   0.269  11.710 -0.3459  0.0723  0.2793
 1565SOL    HW116328   2.510   0.304  11.627  0.3966 -2.0063 -0.8574
 1565SOL    HW216329   2.635   0.283  11.707 -0.5687  1.6057  0.0445
 1566SOL     OW16330   1.989   3.548   8.796  0.4383  0.2719  0.2913
 1566SOL    HW116331   1.956   3.621   8.848 -2.2020 -0.2910 -0.5928
 1566SOL    HW216332   1.919   3.485   8.815  2.2323 -2.1060 -0.8774
 1567SOL     OW16333   3.821   3.801   9.303 -0.0306  0.0615  0.0782
 1567SOL    HW116334   3.796   3.718   9.344  0.0411 -0.3084 -0.6407
 1567SOL    HW216335   3.856   3.858   9.372  0.4318  2.0824 -1.8554
 1568SOL     OW16336   2.024   1.859   3.848  0.1621 -0.3432  0.2234
 1568SOL    HW116337   1.952   1.896   3.797 -1.2922 -1.0034  1.8111
 1568SOL    HW216338   2.096   1.917   3.825  1.4997 -1.4642  1.6180
 1569SOL     OW16339   4.570   2.961  14.643  0.0924  0.5485  0.4878
 1569SOL    HW116340   4.528   2.926  14.722  1.7277  0.4489  1.3184
 1569SOL    HW216341   4.595   2.877  14.605  0.5418  1.2766 -0.8173
 1570SOL     OW16342   4.647   0.422   3.628 -0.0967  0.2788 -0.0587
 1570SOL    HW116343   4.570   0.406   3.574  0.2143 -2.3988  0.3055
 1570SOL    HW216344   4.637   0.515   3.646  1.5781  0.4984 -0.2376
 1571SOL     OW16345   0.457   0.862   0.987  0.2323 -1.1019 -0.3748
 1571SOL    HW116346   0.418   0.917   0.919  0.9560 -0.1923 -0.0506
 1571SOL    HW216347   0.421   0.895   1.069 -0.6151  0.4967 -1.4016
 1572SOL     OW16348   1.392   3.609   6.491  0.0339  0.1722 -0.2190
 1572SOL    HW116349   1.445   3.685   6.514 -0.9580  0.6437  0.5168
 1572SOL    HW216350   1.454   3.554   6.443 -1.0864 -1.5756  0.3410
 1573SOL     OW16351   3.795   1.556   2.538  0.4817 -0.2368 -0.5310
 1573SOL    HW116352   3.889   1.573   2.538  0.5684 -0.7216 -0.9430
 1573SOL    HW216353   3.793   1.479   2.594  1.8565 -0.5494 -0.9230
 1574SOL     OW16354   1.668   4.655  14.864 -0.6347  0.9616 -0.4530
 1574SOL    HW116355   1.651   4.614  14.779  0.5950 -1.3251  0.4097
 1574SOL    HW216356   1.663   4.582  14.925  1.9665  0.5451 -0.7202
 1575SOL     OW16357   4.557   1.538   9.134 -0.2152  0.1431  0.0845
 1575SOL    HW116358   4.462   1.541   9.127 -0.3188  0.5062  1.6141
 1575SOL    HW216359   4.586   1.604   9.070 -3.8201  0.5462 -1.1477
 1576SOL     OW16360   1.994   2.916   1.171 -0.2322 -0.1559 -0.3452
 1576SOL    HW116361   1.976   3.010   1.165  1.5680  0.1782 -0.4305
 1576SOL    HW216362   2.090   2.911   1.166 -0.3174 -1.2570 -0.8573
 1577SOL     OW16363   1.422   4.546   7.538 -0.3771 -0.5954 -0.2730
 1577SOL    HW116364   1.381   4.598   7.469  0.5507  1.1131  0.4396
 1577SOL    HW216365   1.458   4.618   7.591  0.1871  1.2582 -3.1312
 1578SOL     OW16366   1.641   1.026   4.542 -0.3322  0.1790 -0.1710
 1578SOL    HW116367   1.693   1.106   4.537 -0.0063 -0.0373 -0.2321
 1578SOL    HW216368   1.686   0.983   4.615  0.5426  1.4382  0.0438
 1579SOL     OW16369   4.284   1.189   2.835  0.4836 -0.3752 -0.0808
 1579SOL    HW116370   4.189   1.182   2.828  0.4747  0.2762 -0.6625
 1579SOL    HW216371   4.310   1.099   2.852  1.2765  0.5616  3.6891
 1580SOL     OW16372   0.972   3.331   1.992 -0.4359 -0.1751  0.0935
 1580SOL    HW116373   0.910   3.398   2.022 -2.5027 -1.9690 -0.1392
 1580SOL    HW216374   1.019   3.378   1.924 -0.5535  0.4806  0.4612
 1581SOL     OW16375   0.626   3.505   4.347 -0.0478 -0.4298  0.4543
 1581SOL    HW116376   0.586   3.580   4.391 -1.7588  0.4170 -2.5180
 1581SOL    HW216377   0.658   3.460   4.424  2.4731  2.0493  0.8842
 1582SOL     OW16378   4.042   4.016   6.977 -0.4446 -0.4366  0.3361
 1582SOL    HW116379   4.043   3.943   7.039 -3.3193  0.3662  1.3250
 1582SOL    HW216380   4.020   4.084   7.041 -0.9965  0.1038 -0.4296
 1583SOL     OW16381   1.253   0.016   6.095 -0.1779  0.3014  0.6261
 1583SOL    HW116382   1.192   0.088   6.080 -0.5397 -0.6637 -2.6573
 1583SOL    HW216383   1.309   0.049   6.164 -0.4961  2.3820 -0.1198
 1584SOL     OW16384   0.118   2.770  15.463  0.3121 -0.0750 -0.0439
 1584SOL    HW116385   0.147   2.796  15.550 -0.4298  0.1236  0.1460
 1584SOL    HW216386   0.158   2.837  15.408 -0.8403 -0.4151 -1.3126
 1585SOL     OW16387   4.200   3.504   3.063  0.2765 -0.0467 -0.4076
 1585SOL    HW116388   4.184   3.556   3.141 -0.1803 -1.8788  0.7316
 1585SOL    HW216389   4.106   3.492   3.049  0.0581  2.6997 -1.2066
 1586SOL     OW16390   4.068   3.895   4.433 -0.5055  0.3467  0.1879
 1586SOL    HW116391   4.127   3.969   4.417  0.2187  0.0027  1.2521
 1586SOL    HW216392   4.083   3.875   4.525  3.6311 -1.5473 -0.9091
 1587SOL     OW16393   3.438   2.937   5.687 -0.4916 -0.3192 -0.1477
 1587SOL    HW116394   3.414   3.029   5.678 -4.6876 -1.5970 -2.3064
 1587SOL    HW216395   3.530   2.936   5.663 -0.0667  1.2041  1.4549
 1588SOL     OW16396   0.018   4.305   9.453  0.4569 -0.3692 -0.6082
 1588SOL    HW116397   0.050   4.385   9.412 -1.2377  0.0571 -1.1142
 1588SOL    HW216398   0.099   4.253   9.449  0.5868 -0.1489 -0.8567
 1589SOL     OW16399   2.631   1.555  13.084  0.2048  0.4385  0.3112
 1589SOL    HW116400   2.547   1.533  13.123  0.3746 -2.3644 -0.9390
 1589SOL    HW216401   2.692   1.538  13.155 -0.9794 -1.7824  0.7658
 1590SOL     OW16402   2.748   3.129   5.940  0.6794 -0.4117 -0.1346
 1590SOL    HW116403   2.751   3.100   6.031  0.7876  4.1444  1.3187
 1590SOL    HW216404   2.838   3.162   5.941  0.6555 -0.3560  0.1179
 1591SOL     OW16405   3.043   2.052  16.401  0.0542 -0.4082 -0.4628
 1591SOL    HW116406   3.034   2.088  16.312 -0.5950 -1.0463 -0.6552
 1591SOL    HW216407   3.012   2.122  16.458  0.8712 -0.5454  0.1519
 1592SOL     OW16408   2.807   4.249   7.929 -0.0549  0.0050  0.1875
 1592SOL    HW116409   2.834   4.212   7.845 -1.8574 -2.0930  0.5380
 1592SOL    HW216410   2.733   4.192   7.948 -0.8821  1.3090  0.8147
 1593SOL     OW16411   0.180   3.695   6.431 -0.2997  0.0681  1.0056
 1593SOL    HW116412   0.275   3.699   6.434 -0.2554 -1.2776  1.3738
 1593SOL    HW216413   0.160   3.728   6.519 -0.6718  0.8346  0.6343
 1594SOL     OW16414   4.214   1.325   6.082 -0.8516  0.3115  0.3213
 1594SOL    HW116415   4.131   1.356   6.046 -0.4829 -0.7766 -1.5033
 1594SOL    HW216416   4.200   1.230   6.081 -0.7773  0.2934  1.9607
 1595SOL     OW16417   1.369   1.966   9.886 -0.1198  0.1976  0.2314
 1595SOL    HW116418   1.429   2.025   9.931 -0.0940  2.5314 -2.9276
 1595SOL    HW216419   1.427   1.891   9.869  0.5218  0.9913 -1.0273
 1596SOL     OW16420   4.034   1.166   5.587 -0.2288  0.1814 -0.3506
 1596SOL    HW116421   4.115   1.125   5.617  0.3773 -0.8393 -3.4046
 1596SOL    HW216422   3.987   1.157   5.670  1.6651  0.9252  0.8044
 1597SOL     OW16423   3.644   1.716   6.972 -0.8409  0.5961  0.3511
 1597SOL    HW116424   3.618   1.626   6.990 -0.4468  0.5743  0.8297
 1597SOL    HW216425   3.666   1.719   6.878 -2.6891 -1.7078 -0.1532
 1598SOL     OW16426   2.306   2.749   7.498 -0.4358  0.0518 -0.3571
 1598SOL    HW116427   2.346   2.779   7.417 -1.0718 -2.5974 -1.6424
 1598SOL    HW216428   2.235   2.691   7.470 -0.5375  2.0525 -4.1998
 1599SOL     OW16429   1.228   1.476   3.961  0.5262  0.0347  0.2213
 1599SOL    HW116430   1.306   1.530   3.972  2.2722 -2.1248 -1.5929
 1599SOL    HW216431   1.173   1.481   4.039 -0.5228  2.1718 -0.6755
 1600SOL     OW16432   0.937   1.694  16.108  0.2540  0.8211  0.0612
 1600SOL    HW116433   0.921   1.703  16.202 -0.7846  0.7815 -0.1171
 1600SOL    HW216434   0.850   1.697  16.069  0.0673  1.3897  0.5237
 1601SOL     OW16435   3.200   2.122   7.133  0.4738 -0.5748 -0.6093
 1601SOL    HW116436   3.242   2.165   7.207  0.4732  1.3611 -1.7402
 1601SOL    HW216437   3.134   2.185   7.103  0.4519  1.1683  3.0119
 1602SOL     OW16438   1.103   3.203  13.734  0.0479  0.0397 -0.3568
 1602SOL    HW116439   1.139   3.214  13.646 -0.1545  0.5472 -0.3782
 1602SOL    HW216440   1.182   3.240  13.773 -0.5705  0.6458  0.3329
 1603SOL     OW16441   1.140   3.046   1.980 -0.2969  0.2208 -0.2383
 1603SOL    HW116442   1.093   3.032   1.898  1.9156  1.4295 -1.6849
 1603SOL    HW216443   1.128   3.140   1.990 -1.5644 -0.0097  0.4602
 1604SOL     OW16444   3.938   4.302   6.788  0.5634  0.3736 -0.2045
 1604SOL    HW116445   3.999   4.288   6.716 -1.3844 -0.7422 -1.6404
 1604SOL    HW216446   3.854   4.310   6.741 -0.1314 -1.6213  0.6926
 1605SOL     OW16447   2.897   1.313   6.150 -0.3612  0.3606  0.6257
 1605SOL    HW116448   2.986   1.286   6.130 -0.9967 -1.5576  0.4060
 1605SOL    HW216449   2.855   1.229   6.170  1.0790 -0.3578  0.6781
 1606SOL     OW16450   1.173   2.911   5.639  0.3261  0.0871  0.3146
 1606SOL    HW116451   1.212   2.896   5.725  1.2874 -2.1693 -0.5061
 1606SOL    HW216452   1.115   2.981   5.668 -0.8702 -0.1279 -1.5615
 1607SOL     OW16453   0.431   3.693   8.850  0.5196 -0.6966  0.2132
 1607SOL    HW116454   0.360   3.754   8.871  2.4412  0.8318  2.2301
 1607SOL    HW216455   0.398   3.619   8.901 -2.4539  0.0845 -0.5217
 1608SOL     OW16456   3.182   0.429  12.491  0.0225  0.5831 -0.0360
 1608SOL    HW116457   3.195   0.336  12.512 -0.3445 -0.1253 -2.9342
 1608SOL    HW216458   3.110   0.420  12.429  0.7646 -0.2098 -0.7772
 1609SOL     OW16459   4.054   3.884  12.903 -0.2348  0.4484 -0.1867
 1609SOL    HW116460   4.073   3.976  12.886  2.1915  0.0365  0.3010
 1609SOL    HW216461   4.131   3.838  12.870  0.4253  2.6488 -1.7046
 1610SOL     OW16462   4.572   0.677   7.489  0.9748 -0.3974 -0.7882
 1610SOL    HW116463   4.523   0.736   7.546 -0.9365 -0.5093 -2.2837
 1610SOL    HW216464   4.649   0.650   7.539  0.0054 -2.8381 -0.5848
 1611SOL     OW16465   1.598   4.137   4.219 -1.0004  0.4049  0.2683
 1611SOL    HW116466   1.612   4.046   4.194  0.3478  1.1410 -1.5866
 1611SOL    HW216467   1.685   4.177   4.225  0.3226 -2.3101 -1.0435
 1612SOL     OW16468   4.481   0.353   5.852  0.0134 -0.4731 -0.6982
 1612SOL    HW116469   4.430   0.360   5.772 -1.3081  1.8239  0.3657
 1612SOL    HW216470   4.553   0.403   5.814  0.5258  0.4490  1.4484
 1613SOL     OW16471   2.335   0.209   8.518 -0.8494  0.4974  0.1497
 1613SOL    HW116472   2.391   0.226   8.593 -0.2186  0.0376 -0.2245
 1613SOL    HW216473   2.283   0.289   8.524 -2.8440 -0.8505  1.1371
 1614SOL     OW16474   1.461   0.365  17.451 -0.7990 -0.2026 -0.2023
 1614SOL    HW116475   1.482   0.299  17.385  0.0591 -0.2245  0.0932
 1614SOL    HW216476   1.501   0.327  17.530 -0.4781  2.0550  0.7169
 1615SOL     OW16477   3.783   1.486  11.909  0.4460  0.1031 -0.5999
 1615SOL    HW116478   3.796   1.519  11.820 -1.4447 -1.4832 -1.4590
 1615SOL    HW216479   3.822   1.398  11.907  0.0672 -0.0681 -0.4898
 1616SOL     OW16480   4.599   1.156   6.122 -0.0136  0.3102 -0.8236
 1616SOL    HW116481   4.588   1.166   6.217 -0.0841 -0.0103 -0.7991
 1616SOL    HW216482   4.529   1.092   6.106 -0.7626  0.6327  1.1035
 1617SOL     OW16483   0.822   2.179   7.576 -0.5899  0.0509 -0.7729
 1617SOL    HW116484   0.802   2.133   7.494 -0.6532 -2.5144  0.6697
 1617SOL    HW216485   0.798   2.110   7.638 -2.8448  1.2427 -0.3199
 1618SOL     OW16486   4.119   2.307   8.500 -0.2879  0.2784 -0.1131
 1618SOL    HW116487   4.213   2.328   8.493 -0.2753  1.0075  2.2141
 1618SOL    HW216488   4.110   2.282   8.592  0.0899 -0.0472 -0.1618
 1619SOL     OW16489   3.742   0.727   2.823  0.6032 -0.0350 -0.3304
 1619SOL    HW116490   3.650   0.715   2.800  0.8816 -0.9186 -0.9953
 1619SOL    HW216491   3.736   0.741   2.918 -0.9528 -1.5314 -0.2027
 1620SOL     OW16492   0.291   2.893  16.616 -0.4214 -0.0905  0.1298
 1620SOL    HW116493   0.241   2.901  16.535  1.7338  0.4008 -1.1386
 1620SOL    HW216494   0.213   2.884  16.671  0.7287  0.8648  1.9250
 1621SOL     OW16495   3.160   3.303  12.420  0.2364 -0.4025 -0.1045
 1621SOL    HW116496   3.148   3.376  12.480  0.8771  0.0754 -0.5620
 1621SOL    HW216497   3.208   3.344  12.349 -0.0649 -2.9447 -1.7911
 1622SOL     OW16498   1.116   2.950   7.027  0.1382 -0.0180 -0.3765
 1622SOL    HW116499   1.036   2.915   7.067  0.3725  1.9737  1.7915
 1622SOL    HW216500   1.090   3.042   7.019  0.7858  0.3374  1.6495
 1623SOL     OW16501   0.972   2.476  17.534 -0.1119  0.3011  0.0560
 1623SOL    HW116502   0.906   2.472  17.465  0.0489  0.2150 -0.0943
 1623SOL    HW216503   0.990   2.384  17.554 -2.6756 -0.7705 -2.5692
 1624SOL     OW16504   3.393   4.617   9.037  0.6985  0.1481 -0.3906
 1624SOL    HW116505   3.361   4.542   8.986  3.3149 -2.0673  1.2348
 1624SOL    HW216506   3.305   4.653   9.049  0.1419 -1.6462  1.0401
 1625SOL     OW16507   1.984   3.497  16.341  0.3477 -0.2438  0.3728
 1625SOL    HW116508   2.046   3.570  16.336 -2.3621  2.0295 -0.0992
 1625SOL    HW216509   2.042   3.421  16.340  1.5510  0.6596  1.6163
 1626SOL     OW16510   0.284   3.827   8.305  0.4453  0.3160  0.0732
 1626SOL    HW116511   0.300   3.769   8.380 -0.0613  1.1903  0.8634
 1626SOL    HW216512   0.252   3.765   8.239  1.7023 -1.4514  1.0983
 1627SOL     OW16513   0.019   0.174   4.366  0.5973 -0.1930  0.2804
 1627SOL    HW116514   0.068   0.129   4.435  1.0086  0.0928  0.1787
 1627SOL    HW216515   0.023   0.109   4.295 -1.6468 -0.6468  0.5765
 1628SOL     OW16516   2.942   3.329  10.382 -0.1089  0.6887  0.1322
 1628SOL    HW116517   2.982   3.247  10.351 -0.5731  1.0529 -1.3951
 1628SOL    HW216518   3.012   3.384  10.346 -0.5237  0.5182 -0.9271
 1629SOL     OW16519   0.905   0.866  12.075 -0.5139 -0.5398 -0.2756
 1629SOL    HW116520   0.993   0.833  12.091 -0.4441 -0.4894 -0.5514
 1629SOL    HW216521   0.875   0.892  12.162 -1.5312 -3.0362  0.1215
 1630SOL     OW16522   1.518   3.978   4.672  0.1880  0.4358  0.2210
 1630SOL    HW116523   1.532   4.050   4.733  0.9737 -0.2276  0.8334
 1630SOL    HW216524   1.485   4.027   4.597  0.6075  1.4686  0.7169
 1631SOL     OW16525   2.167   4.343   1.314  0.2016 -0.1979  0.0315
 1631SOL    HW116526   2.169   4.248   1.319 -1.6332 -0.2895 -0.6521
 1631SOL    HW216527   2.249   4.362   1.269 -1.2708  0.5140 -2.3563
 1632SOL     OW16528   4.693   0.458   3.050  0.1754 -0.1534 -0.2401
 1632SOL    HW116529   4.689   0.539   2.999  2.0252  0.1883  0.1756
 1632SOL    HW216530   0.030   0.468   3.115  0.1871 -0.6681 -0.1683
 1633SOL     OW16531   2.238   1.843   2.134 -0.0118  0.8323  0.0500
 1633SOL    HW116532   2.239   1.937   2.116  2.9272  0.3533 -2.3546
 1633SOL    HW216533   2.280   1.839   2.220  1.6067 -0.2140 -0.7745
 1634SOL     OW16534   0.406   2.486   2.568 -0.3373 -0.1491  0.1317
 1634SOL    HW116535   0.463   2.554   2.532 -0.5286  0.0311  0.1740
 1634SOL    HW216536   0.374   2.448   2.486 -0.9255  1.4720 -0.3925
 1635SOL     OW16537   4.143   1.629   4.209  0.2391  0.7037 -0.7205
 1635SOL    HW116538   4.206   1.650   4.279  0.4639 -0.2259 -0.6533
 1635SOL    HW216539   4.064   1.612   4.261  0.5901  0.0624 -0.4012
 1636SOL     OW16540   2.973   0.487  17.620 -0.0184  0.2646  0.3445
 1636SOL    HW116541   2.893   0.489  17.673 -0.2822 -2.5155  0.0351
 1636SOL    HW216542   3.026   0.424  17.670 -0.6613  0.9755  1.9393
 1637SOL     OW16543   4.095   3.034   7.816 -0.2495 -0.2108  0.4264
 1637SOL    HW116544   4.139   2.968   7.762  1.8460  0.9170  0.7657
 1637SOL    HW216545   4.005   3.001   7.813 -0.4947  0.4358  0.7581
 1638SOL     OW16546   4.139   0.151   9.048  0.7073 -0.3161 -0.0336
 1638SOL    HW116547   4.137   0.195   9.133  0.4860  1.4025 -0.9128
 1638SOL    HW216548   4.157   0.063   9.079 -1.8243 -0.4571  1.0331
 1639SOL     OW16549   0.060   2.244  10.112 -0.0127 -0.1069 -0.0246
 1639SOL    HW116550   0.126   2.278  10.051 -2.2041  1.1861 -1.6674
 1639SOL    HW216551   0.087   2.153  10.119 -0.4047 -0.1789  0.5413
 1640SOL     OW16552   1.647   3.055   7.539 -0.1299 -0.7481 -0.0389
 1640SOL    HW116553   1.625   3.045   7.631  2.0798 -0.2624  0.5286
 1640SOL    HW216554   1.570   3.012   7.500 -1.4046  1.3254  0.1691
 1641SOL     OW16555   3.993   3.249   1.019  0.2079 -0.4209 -0.0205
 1641SOL    HW116556   3.954   3.247   0.932 -0.5353  0.5113  0.2821
 1641SOL    HW216557   4.035   3.334   1.006 -0.8668 -0.0122 -0.8641
 1642SOL     OW16558   0.607   1.884   9.096 -0.2651  0.1661 -0.2680
 1642SOL    HW116559   0.663   1.912   9.168  0.1536 -2.3564  0.3894
 1642SOL    HW216560   0.578   1.802   9.135  2.1108  0.0721  1.2549
 1643SOL     OW16561   3.951   4.527   1.048 -0.5370 -0.3788 -0.4164
 1643SOL    HW116562   4.001   4.574   1.114 -0.3050  0.7674 -1.4138
 1643SOL    HW216563   4.006   4.461   1.006 -1.4450 -1.9983  0.9368
 1644SOL     OW16564   2.195   4.073  16.042 -0.0983  0.5875 -0.3687
 1644SOL    HW116565   2.219   4.152  16.090 -1.1435  0.1416  0.8735
 1644SOL    HW216566   2.276   4.023  16.029 -1.1235 -2.2741  4.1405
 1645SOL     OW16567   1.405   0.475  15.246 -0.6963 -0.0426  0.4710
 1645SOL    HW116568   1.312   0.495  15.251 -0.5775  0.2545  1.4467
 1645SOL    HW216569   1.399   0.383  15.272 -0.7026  0.2173  1.3924
 1646SOL     OW16570   0.807   4.425  11.387  0.8852  0.1828  0.0147
 1646SOL    HW116571   0.764   4.340  11.395 -2.4042  1.8982  0.7250
 1646SOL    HW216572   0.866   4.428  11.462  1.5135  2.9006 -0.5940
 1647SOL     OW16573   3.486   1.904   4.483  0.2895 -0.4340  0.0520
 1647SOL    HW116574   3.400   1.927   4.518  0.3404 -1.1261  0.6344
 1647SOL    HW216575   3.518   1.871   4.567  0.1259 -0.4593  0.1052
 1648SOL     OW16576   1.046   0.726   1.007  0.6294  0.1480 -0.5772
 1648SOL    HW116577   1.002   0.704   1.089 -2.8819  0.1328 -2.4868
 1648SOL    HW216578   1.020   0.815   0.984  2.2942  1.0371  0.9484
 1649SOL     OW16579   2.484   1.715  12.063  0.3437  0.6184  0.3191
 1649SOL    HW116580   2.412   1.657  12.087 -0.6254  1.7575  0.0949
 1649SOL    HW216581   2.549   1.650  12.035 -2.7165 -2.7176  0.9811
 1650SOL     OW16582   3.594   1.393   3.873 -0.1484  0.1485 -0.4028
 1650SOL    HW116583   3.499   1.382   3.863  0.2052 -2.6694 -0.7533
 1650SOL    HW216584   3.628   1.445   3.800 -0.9609 -0.4617 -1.2220
 1651SOL     OW16585   0.919   2.205   6.573 -0.0153 -0.0760  1.2564
 1651SOL    HW116586   0.968   2.248   6.503  0.4336  2.0363  2.8682
 1651SOL    HW216587   0.873   2.279   6.613 -1.6394  0.6177 -1.8432
 1652SOL     OW16588   0.292   1.238  15.070  0.0941  0.7648 -0.1267
 1652SOL    HW116589   0.247   1.264  14.990  1.6905  0.0451 -1.2426
 1652SOL    HW216590   0.218   1.206  15.122 -0.6413  0.1412 -1.5435
 1653SOL     OW16591   3.934   2.666   8.143  0.5799 -0.4662  0.0378
 1653SOL    HW116592   3.866   2.646   8.207 -0.7960 -0.9454 -1.6011
 1653SOL    HW216593   3.998   2.607   8.182 -0.4106 -1.8253 -0.4260
 1654SOL     OW16594   1.230   0.167  14.577  0.2516  0.5924  0.1126
 1654SOL    HW116595   1.279   0.249  14.571  0.0115  0.6342 -1.2909
 1654SOL    HW216596   1.144   0.194  14.608  0.9416  1.6392  1.1349
 1655SOL     OW16597   1.606   2.724   3.709 -0.2653 -0.1960  0.3375
 1655SOL    HW116598   1.647   2.651   3.663 -0.9754 -0.5443  0.2598
 1655SOL    HW216599   1.513   2.701   3.699 -0.3740  0.1512  0.5528
 1656SOL     OW16600   3.172   2.015   3.658  0.7988  0.7915  0.3857
 1656SOL    HW116601   3.147   2.106   3.644 -2.5441  0.0587  1.5180
 1656SOL    HW216602   3.176   2.018   3.753  0.4121  0.8893  0.3980
 1657SOL     OW16603   0.390   2.033  13.427  0.0105  0.4543 -0.6412
 1657SOL    HW116604   0.320   1.968  13.433  2.8413 -2.4515  1.0740
 1657SOL    HW216605   0.387   2.052  13.333 -1.8734  0.6553 -0.5370
 1658SOL     OW16606   0.772   3.643  15.321 -0.6065 -0.5745 -0.5451
 1658SOL    HW116607   0.712   3.653  15.247 -0.8547 -0.7939 -0.3764
 1658SOL    HW216608   0.718   3.576  15.363  0.4041  0.7323  2.8090
 1659SOL     OW16609   1.795   2.760   2.330 -0.6338 -0.0142  0.2709
 1659SOL    HW116610   1.757   2.673   2.322  0.9373 -0.5662 -1.1725
 1659SOL    HW216611   1.736   2.814   2.278 -0.0649  0.7984  0.4565
 1660SOL     OW16612   4.111   2.820   9.316 -0.1545 -0.1380 -0.0514
 1660SOL    HW116613   4.190   2.768   9.301  0.0225  1.0354 -3.0717
 1660SOL    HW216614   4.107   2.806   9.411 -2.3615  1.8036  0.1381
 1661SOL     OW16615   1.343   0.885   3.552  0.5742 -0.1715 -0.0314
 1661SOL    HW116616   1.328   0.791   3.559  0.3882 -0.2421 -1.3811
 1661SOL    HW216617   1.363   0.888   3.459  0.6953  0.6066  0.0203
 1662SOL     OW16618   4.166   3.346   2.586 -0.2685 -0.0748 -0.2891
 1662SOL    HW116619   4.203   3.314   2.504  1.9424  1.5087  0.0701
 1662SOL    HW216620   4.077   3.312   2.581  0.7463 -2.7080 -0.2894
 1663SOL     OW16621   2.596   1.158   3.118 -0.3576 -0.1517 -0.1786
 1663SOL    HW116622   2.517   1.207   3.143 -0.5666 -1.0324  0.8775
 1663SOL    HW216623   2.556   1.076   3.147  1.4193 -0.4529  1.4060
 1664SOL     OW16624   4.372   2.370   0.418 -0.0065 -0.3560 -0.5518
 1664SOL    HW116625   4.317   2.381   0.495  2.6059 -2.1103  1.5718
 1664SOL    HW216626   4.429   2.299   0.449 -0.9897 -1.2882 -0.8586
 1665SOL     OW16627   3.028   3.267   5.497 -0.0337 -0.1717  0.0758
 1665SOL    HW116628   3.095   3.200   5.491  0.0590  0.0810 -1.7313
 1665SOL    HW216629   3.032   3.293   5.405 -2.3009  0.0408  0.0355
 1666SOL     OW16630   3.953   3.483  10.880 -0.2862  0.2029  0.4684
 1666SOL    HW116631   4.008   3.543  10.930 -0.7927 -0.7233  2.1458
 1666SOL    HW216632   3.946   3.536  10.801 -2.2505 -1.6472 -0.6039
 1667SOL     OW16633   3.404   0.627  17.325 -0.2506 -0.2342  0.5152
 1667SOL    HW116634   3.379   0.617  17.234  0.4672  0.9657  0.1880
 1667SOL    HW216635   3.375   0.716  17.346 -0.1014 -0.2005  0.5731
 1668SOL     OW16636   0.389   3.244  11.076  0.0548  0.0920  0.5521
 1668SOL    HW116637   0.424   3.235  10.987  1.7567 -0.6659  1.3083
 1668SOL    HW216638   0.455   3.295  11.122  0.9807 -1.2884  0.7396
 1669SOL     OW16639   2.123   4.382   3.408  0.2812  0.0241 -0.0873
 1669SOL    HW116640   2.101   4.373   3.315  0.3580  1.9065 -0.2692
 1669SOL    HW216641   2.153   4.473   3.407 -1.0680  0.4394 -2.3867
 1670SOL     OW16642   2.265   1.909   0.066  0.3935  0.1031  0.5521
 1670SOL    HW116643   2.257   1.944  17.706 -1.5090  0.5448  0.8875
 1670SOL    HW216644   2.239   1.817   0.062  5.3181 -1.1700 -1.0203
 1671SOL     OW16645   3.675   3.196   6.328  0.2881  0.0854 -0.0964
 1671SOL    HW116646   3.701   3.105   6.311  3.2272  1.0617 -0.8660
 1671SOL    HW216647   3.708   3.215   6.416  0.3575 -1.0877  0.1342
 1672SOL     OW16648   4.636   1.477  13.555  0.8327 -0.1199 -0.2184
 1672SOL    HW116649   4.619   1.390  13.591 -0.6321 -0.2683 -1.2886
 1672SOL    HW216650   4.713   1.504  13.606  1.3786  1.0519 -1.6542
 1673SOL     OW16651   3.714   0.952   2.175 -0.2923 -0.2896 -0.0101
 1673SOL    HW116652   3.672   0.869   2.198 -0.3545 -0.1462  0.3956
 1673SOL    HW216653   3.646   1.009   2.211  0.4488  2.4567 -2.9537
 1674SOL     OW16654   0.690   3.629   4.705  0.1212 -0.8144  0.2172
 1674SOL    HW116655   0.738   3.551   4.733 -0.4841 -1.0792  0.5246
 1674SOL    HW216656   0.753   3.697   4.682 -2.4307  1.1928 -0.9402
 1675SOL     OW16657   3.472   3.943   9.556 -0.2325 -0.1244 -0.1755
 1675SOL    HW116658   3.505   3.859   9.588  1.2129  1.3503  2.2289
 1675SOL    HW216659   3.510   3.931   9.469  1.1643 -0.1052  0.4318
 1676SOL     OW16660   2.103   2.936   0.414  0.2993  0.0693 -0.2041
 1676SOL    HW116661   2.032   2.997   0.432  0.0243 -0.4598  0.4743
 1676SOL    HW216662   2.062   2.864   0.366  0.1199  0.9221 -1.3139
 1677SOL     OW16663   2.473   4.727   8.289  0.0071  0.3004  0.1153
 1677SOL    HW116664   2.419   0.068   8.260 -0.1278  0.0340 -0.2994
 1677SOL    HW216665   2.502   0.040   8.369  0.6005  0.9854 -0.4892
 1678SOL     OW16666   3.253   1.777   1.574  0.0229  0.6641  0.2018
 1678SOL    HW116667   3.300   1.693   1.578  3.0321  2.3438  0.3873
 1678SOL    HW216668   3.168   1.745   1.542 -0.2418  1.8474 -0.2795
 1679SOL     OW16669   0.452   2.999   2.793  0.0684  0.0873  0.2008
 1679SOL    HW116670   0.532   3.041   2.761  0.7491  0.1913  2.0307
 1679SOL    HW216671   0.460   2.915   2.748  1.2757 -0.8665  2.1608
 1680SOL     OW16672   0.924   1.878   5.280  0.0380 -0.1043  0.2026
 1680SOL    HW116673   0.962   1.851   5.196 -1.2964 -0.8769 -0.1563
 1680SOL    HW216674   0.837   1.901   5.250  0.4645  0.5795 -0.5058
 1681SOL     OW16675   1.478   0.542   0.747 -0.1313  0.1530  0.1771
 1681SOL    HW116676   1.463   0.572   0.657  0.3842 -0.7153 -0.2003
 1681SOL    HW216677   1.396   0.568   0.789  0.3105 -0.6361  1.5046
 1682SOL     OW16678   3.244   3.527   8.579 -0.3712 -0.1131 -0.0971
 1682SOL    HW116679   3.299   3.605   8.576 -1.7515  0.9214  1.5122
 1682SOL    HW216680   3.317   3.469   8.601 -0.2933 -0.0322 -0.1438
 1683SOL     OW16681   4.334   2.906   6.546  0.0953 -0.6366 -0.0906
 1683SOL    HW116682   4.362   2.998   6.554 -0.8861 -0.4844  1.6614
 1683SOL    HW216683   4.293   2.916   6.460  1.5447 -0.2963 -0.7397
 1684SOL     OW16684   4.185   2.228   4.504  0.7428  0.0971  0.2066
 1684SOL    HW116685   4.218   2.276   4.429  0.5408  0.3284  0.2633
 1684SOL    HW216686   4.092   2.249   4.511  1.0731  1.4389  0.5192
 1685SOL     OW16687   0.267   2.653  17.489 -0.5838  0.0813 -0.3103
 1685SOL    HW116688   0.176   2.651  17.460 -0.8909 -0.0527  0.6485
 1685SOL    HW216689   0.274   2.748  17.504 -1.0058 -0.1067  1.0727
 1686SOL     OW16690   3.494   4.062   7.254  0.8980 -0.3311  0.6166
 1686SOL    HW116691   3.438   4.026   7.322 -2.1557  1.1974 -1.1006
 1686SOL    HW216692   3.445   4.069   7.172  3.6045  0.6985 -0.9110
 1687SOL     OW16693   1.939   1.366   4.869  0.0209  0.1889  0.4371
 1687SOL    HW116694   2.010   1.327   4.920  0.3861  0.7314  0.3431
 1687SOL    HW216695   1.900   1.430   4.930  1.3601  0.8204  0.6316
 1688SOL     OW16696   2.886   1.890   2.986  0.5126  0.2912  0.4032
 1688SOL    HW116697   2.968   1.891   3.036 -0.5079 -0.6472  2.0945
 1688SOL    HW216698   2.884   1.983   2.961 -2.4946 -0.0715 -0.6198
 1689SOL     OW16699   2.686   3.464  16.212 -0.4121  0.0638 -0.2389
 1689SOL    HW116700   2.606   3.512  16.193 -1.0405 -1.1013 -0.4701
 1689SOL    HW216701   2.755   3.531  16.210 -0.3248 -0.0809 -1.9685
 1690SOL     OW16702   3.034   3.016   7.060  0.3479  0.0653  0.5915
 1690SOL    HW116703   2.967   3.071   7.019 -1.7712 -3.0408 -0.1346
 1690SOL    HW216704   3.017   3.025   7.154  0.1037  1.6525  0.3980
 1691SOL     OW16705   0.791   0.976   6.646  0.2218  0.0827 -0.1016
 1691SOL    HW116706   0.755   0.962   6.559 -1.5934  2.0899  0.3055
 1691SOL    HW216707   0.719   1.015   6.696  0.7380 -1.1115  1.5999
 1692SOL     OW16708   4.122   1.955   1.305  0.0571 -0.3315  0.0130
 1692SOL    HW116709   4.147   1.980   1.394  0.2014  0.3664 -0.2220
 1692SOL    HW216710   4.152   2.030   1.254  1.3723  0.5677  2.0842
 1693SOL     OW16711   3.173   1.068   5.911 -0.3383  0.2174  0.1743
 1693SOL    HW116712   3.261   1.032   5.897  0.2635  1.3095  1.2697
 1693SOL    HW216713   3.140   1.085   5.822  2.3211  2.3804 -0.3837
 1694SOL     OW16714   2.617   3.049  13.793  0.4490 -0.3273  0.3088
 1694SOL    HW116715   2.684   3.111  13.767 -0.5730  1.5803  2.1551
 1694SOL    HW216716   2.606   2.984  13.724  1.7980 -0.6306  0.3894
 1695SOL     OW16717   2.206   1.323  13.101  0.1769 -0.2390 -0.0031
 1695SOL    HW116718   2.210   1.320  13.005 -0.9196  0.6993 -0.0762
 1695SOL    HW216719   2.198   1.230  13.123  0.1765 -0.7261 -1.9980
 1696SOL     OW16720   2.888   0.487  12.424  0.5257  0.4113 -0.4800
 1696SOL    HW116721   2.800   0.519  12.401  0.3812  0.5981  0.3078
 1696SOL    HW216722   2.868   0.433  12.501 -1.1372  0.0983 -1.1178
 1697SOL     OW16723   0.412   2.530   4.274 -0.8802 -0.2024 -0.0829
 1697SOL    HW116724   0.411   2.576   4.190  0.7282 -0.5224 -0.2709
 1697SOL    HW216725   0.492   2.574   4.304  0.1454 -0.9777 -1.7038
 1698SOL     OW16726   1.832   2.880  11.198 -0.2231  0.1472  0.2741
 1698SOL    HW116727   1.771   2.952  11.216 -1.2174 -1.3728  2.9404
 1698SOL    HW216728   1.775   2.805  11.178  0.3184 -0.2314  0.1664
 1699SOL     OW16729   0.478   0.604  11.441 -0.0126  0.1831 -0.0023
 1699SOL    HW116730   0.417   0.656  11.388 -2.2463 -2.3013  0.1222
 1699SOL    HW216731   0.456   0.631  11.531 -1.0679  0.9718 -0.4999
 1700SOL     OW16732   1.666   3.484  11.234 -0.5899 -0.2309 -0.5239
 1700SOL    HW116733   1.722   3.525  11.167 -0.4090 -0.5344 -0.5573
 1700SOL    HW216734   1.685   3.544  11.306 -0.1806 -1.0238  0.0181
 1701SOL     OW16735   4.319   3.439   2.773  0.0618  0.3273 -0.1523
 1701SOL    HW116736   4.237   3.408   2.736  0.0707 -1.7882  1.6185
 1701SOL    HW216737   4.299   3.450   2.866  0.1874  0.0065 -0.0867
 1702SOL     OW16738   2.614   4.302   4.523 -0.1870 -0.1430  0.4319
 1702SOL    HW116739   2.608   4.397   4.514  0.3865 -0.3024 -1.6729
 1702SOL    HW216740   2.521   4.281   4.527 -0.0665 -1.2660 -3.0109
 1703SOL     OW16741   4.202   3.022  16.849  0.0150 -0.2617  0.3766
 1703SOL    HW116742   4.216   3.116  16.841  1.6779 -0.5685 -0.4119
 1703SOL    HW216743   4.232   3.021  16.940  0.6052  2.9542  0.2081
 1704SOL     OW16744   1.849   4.727   9.279 -0.1024 -0.0021 -0.5462
 1704SOL    HW116745   1.863   4.730   9.184  1.3198  2.2549 -0.2711
 1704SOL    HW216746   1.813   4.639   9.292 -0.7279  0.0213 -2.1016
 1705SOL     OW16747   1.777   4.397   7.356 -0.3644  0.1040 -0.1888
 1705SOL    HW116748   1.770   4.303   7.342 -1.1879  0.1066  0.1915
 1705SOL    HW216749   1.754   4.406   7.449 -0.5011  0.6623 -0.2767
 1706SOL     OW16750   3.937   4.688   7.489  0.3217  0.3213  0.0581
 1706SOL    HW116751   3.870   0.011   7.449  0.7091 -0.1928 -1.3170
 1706SOL    HW216752   3.922   4.702   7.582  1.8576 -2.8196  0.7837
 1707SOL     OW16753   2.516   3.593   0.858  0.3019  0.1426 -0.4308
 1707SOL    HW116754   2.596   3.645   0.855  0.2778  0.2355  0.4520
 1707SOL    HW216755   2.502   3.565   0.767 -1.8420 -1.8515  0.5037
 1708SOL     OW16756   0.532   1.457  15.681 -0.2323  0.0912  0.1660
 1708SOL    HW116757   0.610   1.471  15.734 -0.6316  0.9446  0.5290
 1708SOL    HW216758   0.525   1.363  15.698  1.3203 -0.3148 -1.5485
 1709SOL     OW16759   4.707   0.107   4.814  0.1816 -0.0154 -0.1225
 1709SOL    HW116760   4.724   0.125   4.906 -0.6404 -0.5384  0.1345
 1709SOL    HW216761   0.039   0.039   4.794  0.4870  0.2601 -0.0781
 1710SOL     OW16762   3.215   1.430  11.150 -0.3457  0.1994 -0.1697
 1710SOL    HW116763   3.176   1.342  11.149  1.2672 -0.5011 -0.1202
 1710SOL    HW216764   3.227   1.448  11.243  0.6050  1.4372 -0.5250
 1711SOL     OW16765   3.471   3.949   2.198  0.1528  0.4516 -0.0022
 1711SOL    HW116766   3.393   3.990   2.162  1.7071  1.1281 -2.5900
 1711SOL    HW216767   3.490   3.897   2.120  1.0442  1.7351 -0.6295
 1712SOL     OW16768   1.108   4.513   6.165 -0.0758  0.1675  0.1954
 1712SOL    HW116769   1.160   4.584   6.128 -0.2561  0.0893 -0.2133
 1712SOL    HW216770   1.124   4.533   6.257  0.7203 -1.2232  0.3596
 1713SOL     OW16771   2.059   0.383  17.492  0.6023 -0.3613 -0.2571
 1713SOL    HW116772   2.010   0.358  17.570  2.4028 -2.4014  0.2076
 1713SOL    HW216773   2.021   0.328  17.423 -0.0317  0.0599 -0.2410
 1714SOL     OW16774   0.974   4.136   9.264 -0.3014  0.8112 -0.4650
 1714SOL    HW116775   0.905   4.085   9.222 -0.0718  2.6376 -3.0433
 1714SOL    HW216776   0.978   4.103   9.354 -0.5020 -1.0236 -1.1376
 1715SOL     OW16777   3.188   2.099   2.669  1.0596  0.1124  0.6424
 1715SOL    HW116778   3.200   2.016   2.715 -0.0631 -1.4741 -1.9701
 1715SOL    HW216779   3.253   2.156   2.712  1.0434  1.8133 -1.5908
 1716SOL     OW16780   0.582   3.376   0.179 -0.0737  0.0435  0.3258
 1716SOL    HW116781   0.578   3.436   0.104 -2.5089 -0.9973 -0.3525
 1716SOL    HW216782   0.661   3.325   0.165 -0.2879  0.0666 -0.9478
 1717SOL     OW16783   0.950   2.186  11.937 -0.1452  0.1724  0.4326
 1717SOL    HW116784   0.953   2.264  11.880  0.4032  0.2523  0.5723
 1717SOL    HW216785   0.910   2.116  11.886  0.7240 -0.0223  0.0007
 1718SOL     OW16786   3.573   3.400   2.280 -0.1787 -0.4435 -0.0047
 1718SOL    HW116787   3.558   3.319   2.329  1.4797  0.9202  2.7407
 1718SOL    HW216788   3.501   3.394   2.217 -1.1922  0.6075  1.0651
 1719SOL     OW16789   2.554   0.094  17.555  0.0746  0.0676 -0.4801
 1719SOL    HW116790   2.564   0.018  17.611 -0.3077 -0.0070 -0.5135
 1719SOL    HW216791   2.462   0.093  17.527  0.7697 -1.1698 -2.6464
 1720SOL     OW16792   4.679   0.289  17.509  0.3216  0.1487 -0.3973
 1720SOL    HW116793   4.599   0.251  17.472 -1.3826  0.6852  2.8072
 1720SOL    HW216794   4.720   0.299  17.422  1.1065  1.7827  0.1580
 1721SOL     OW16795   3.045   2.429   9.618  0.1347  0.2873  0.2060
 1721SOL    HW116796   3.015   2.473   9.698  1.2487  1.3721  0.0110
 1721SOL    HW216797   2.988   2.351   9.616 -3.6539  3.0691  0.0830
 1722SOL     OW16798   1.673   4.501   7.117  0.0481 -0.1726 -0.2600
 1722SOL    HW116799   1.749   4.483   7.061  1.2768  0.9014  1.0540
 1722SOL    HW216800   1.702   4.444   7.189 -0.5879  0.4159  0.4669
 1723SOL     OW16801   2.782   0.051  15.715 -0.2325 -0.0269  0.1629
 1723SOL    HW116802   2.729   4.710  15.746  1.2463 -1.4438 -0.6737
 1723SOL    HW216803   2.869   0.013  15.704 -0.5446 -0.5266 -0.5759
 1724SOL     OW16804   3.626   1.107   3.811  0.0351  0.0814 -0.5560
 1724SOL    HW116805   3.700   1.093   3.871  0.2225 -0.1542 -0.8402
 1724SOL    HW216806   3.625   1.202   3.811  0.5602  0.0879 -0.5215
 1725SOL     OW16807   1.739   2.319   8.662  0.7303 -0.1093 -0.1930
 1725SOL    HW116808   1.670   2.385   8.670 -0.0151 -0.9494  0.3179
 1725SOL    HW216809   1.757   2.316   8.568 -1.5849  0.0654 -0.6442
 1726SOL     OW16810   0.809   0.746   4.119  0.0897 -0.1103  0.0402
 1726SOL    HW116811   0.878   0.694   4.079  2.2939  2.7374  0.1498
 1726SOL    HW216812   0.764   0.772   4.039 -0.2847 -0.7322  0.0511
 1727SOL     OW16813   1.713   0.685   5.743 -0.0166  0.3348  0.5284
 1727SOL    HW116814   1.765   0.765   5.753 -1.7022  1.9371 -3.3936
 1727SOL    HW216815   1.725   0.633   5.822  0.5173 -0.2713  0.0568
 1728SOL     OW16816   3.569   3.371   8.622  0.1795  0.2815 -0.4298
 1728SOL    HW116817   3.593   3.461   8.642 -0.1322  0.6897 -1.8970
 1728SOL    HW216818   3.633   3.350   8.554  1.0395  0.7892  0.2285
 1729SOL     OW16819   0.801   0.851   1.886  0.1438 -0.3652 -0.0835
 1729SOL    HW116820   0.713   0.889   1.887  0.5262  0.5279 -0.1582
 1729SOL    HW216821   0.818   0.865   1.793 -0.0999  0.7210  0.0356
 1730SOL     OW16822   2.431   1.920   3.176 -0.6557 -0.5469 -0.1925
 1730SOL    HW116823   2.354   1.973   3.199 -0.5400 -0.4292 -0.0774
 1730SOL    HW216824   2.463   1.904   3.265  0.4460  1.3726 -0.2422
 1731SOL     OW16825   2.177   2.002   3.486 -0.5279 -0.1066 -0.5347
 1731SOL    HW116826   2.121   1.948   3.430  0.3129 -1.5054 -0.0109
 1731SOL    HW216827   2.205   2.068   3.423  1.2593  0.0294  0.4022
 1732SOL     OW16828   3.298   1.289   4.595 -0.6952  0.2216  0.1422
 1732SOL    HW116829   3.212   1.263   4.630  0.8877 -2.9397  1.6188
 1732SOL    HW216830   3.351   1.215   4.623 -2.0396 -0.6653  0.3354
 1733SOL     OW16831   2.816   2.395   8.648 -0.2867 -0.6936 -0.2630
 1733SOL    HW116832   2.822   2.484   8.682  0.3068 -0.4903 -0.8847
 1733SOL    HW216833   2.782   2.412   8.560  0.4540  0.9220 -0.2316
 1734SOL     OW16834   0.924   3.281   9.513 -0.0708  0.1224 -0.2657
 1734SOL    HW116835   0.840   3.235   9.523 -1.2081  1.8971 -1.6734
 1734SOL    HW216836   0.976   3.205   9.488 -1.0308 -1.8692  3.7487
 1735SOL     OW16837   0.552   0.660   7.127 -0.1934 -0.2817 -0.3804
 1735SOL    HW116838   0.614   0.624   7.063 -0.2906 -0.5199 -0.3423
 1735SOL    HW216839   0.487   0.591   7.137  2.2674 -2.0150  3.3572
 1736SOL     OW16840   3.647   0.219   6.898  0.4098 -1.1485  0.1150
 1736SOL    HW116841   3.619   0.294   6.846 -2.3186 -1.6070  0.8697
 1736SOL    HW216842   3.721   0.177   6.855  0.1572  1.1695 -2.5816
 1737SOL     OW16843   3.957   0.670   3.399  0.2922 -0.2639  0.1515
 1737SOL    HW116844   3.872   0.707   3.420  0.6123  1.8752 -2.2152
 1737SOL    HW216845   4.016   0.726   3.450 -0.0786 -0.5594  0.8898
 1738SOL     OW16846   0.864   2.811  13.002 -0.0248  0.0913 -0.1505
 1738SOL    HW116847   0.868   2.751  12.927  0.1494  0.1498 -0.1892
 1738SOL    HW216848   0.864   2.892  12.951 -4.0339 -0.7421 -1.5035
 1739SOL     OW16849   2.319   0.253   5.545 -0.1617 -0.5437  0.5881
 1739SOL    HW116850   2.236   0.245   5.498 -0.1963 -0.9998  0.7258
 1739SOL    HW216851   2.359   0.307   5.477  0.4538  0.5754  1.8301
 1740SOL     OW16852   4.003   2.626   9.184 -0.4888 -0.0187 -0.0629
 1740SOL    HW116853   4.092   2.590   9.183 -0.4385  0.0576  1.2411
 1740SOL    HW216854   4.018   2.715   9.214 -3.1240  1.1583 -2.1824
 1741SOL     OW16855   2.101   1.809  17.345 -0.1834 -0.5160  0.3028
 1741SOL    HW116856   2.026   1.771  17.298 -1.9331  1.2770  1.6508
 1741SOL    HW216857   2.066   1.840  17.429  1.0001  1.2895  0.1309
 1742SOL     OW16858   0.294   0.605   7.637 -0.6089  0.3948 -0.2322
 1742SOL    HW116859   0.354   0.537   7.668  1.2294  0.7859 -2.9183
 1742SOL    HW216860   0.328   0.624   7.549  1.8825 -0.4475  0.5540
 1743SOL     OW16861   4.058   2.035   1.615  0.1921 -0.5483 -0.4579
 1743SOL    HW116862   4.086   2.126   1.608 -0.7011 -0.1763  0.7131
 1743SOL    HW216863   4.148   2.006   1.628  0.8972  1.5529 -0.7251
 1744SOL     OW16864   1.069   2.369   4.909  0.1717  0.1027 -0.2863
 1744SOL    HW116865   1.135   2.364   4.978 -0.4517  0.3380  0.3280
 1744SOL    HW216866   1.092   2.459   4.883 -0.7251  0.6616  0.8567
 1745SOL     OW16867   0.352   0.479   7.166 -0.3942 -0.3213  0.4564
 1745SOL    HW116868   0.342   0.473   7.261  1.5501  1.2885  0.7582
 1745SOL    HW216869   0.295   0.407   7.138 -1.6260  0.1349  1.7793
 1746SOL     OW16870   2.085   0.793  17.326 -0.7724 -0.2096 -0.4739
 1746SOL    HW116871   2.083   0.698  17.319 -1.2638 -0.1990 -0.4747
 1746SOL    HW216872   2.177   0.808  17.301 -0.6874  0.5946  0.3190
 1747SOL     OW16873   0.818   1.840   3.397 -0.1085 -0.0229 -0.1300
 1747SOL    HW116874   0.756   1.902   3.358  1.0849  0.6875 -0.9111
 1747SOL    HW216875   0.773   1.830   3.480  0.7095  0.1743  0.3385
 1748SOL     OW16876   4.383   0.689   7.927  0.0572 -0.3556  0.1999
 1748SOL    HW116877   4.389   0.612   7.984 -0.2333  0.1194  0.8703
 1748SOL    HW216878   4.371   0.758   7.993  3.1675 -0.7468  1.1604
 1749SOL     OW16879   4.296   0.684   0.479 -0.9864  0.4502  0.1893
 1749SOL    HW116880   4.242   0.623   0.428  0.2549  0.1111 -0.7239
 1749SOL    HW216881   4.346   0.630   0.540  1.6416  1.3986 -1.1220
 1750SOL     OW16882   2.790   0.836   3.807 -0.5519  0.1271  0.0281
 1750SOL    HW116883   2.812   0.745   3.828  1.6203  0.8949  1.1178
 1750SOL    HW216884   2.694   0.839   3.801 -0.5732  0.1959  0.4259
 1751SOL     OW16885   3.062   3.966  11.252  0.7684  0.5772 -0.5379
 1751SOL    HW116886   3.063   3.870  11.244  0.4804  0.6834 -1.7095
 1751SOL    HW216887   2.971   3.988  11.231  0.4486  0.6151  0.8349
 1752SOL     OW16888   3.215   4.640   0.651 -0.2295 -0.6178  0.0467
 1752SOL    HW116889   3.186   4.614   0.563 -2.5553  0.4118  0.5169
 1752SOL    HW216890   3.224   0.003   0.642  0.1149 -0.6131  0.4387
 1753SOL     OW16891   2.893   3.063   9.306 -0.0512  0.1658 -0.3581
 1753SOL    HW116892   2.899   3.027   9.395 -1.4001  0.8972  0.0359
 1753SOL    HW216893   2.975   3.108   9.286 -0.6668  1.2882 -0.3415
 1754SOL     OW16894   4.000   1.475   6.501 -0.1791 -0.1570  0.2312
 1754SOL    HW116895   4.050   1.438   6.574 -0.7246  1.0950  1.2581
 1754SOL    HW216896   3.983   1.567   6.522 -0.0561  0.2368 -1.4112
 1755SOL     OW16897   2.754   1.801   5.683 -0.0580 -0.3008 -0.2331
 1755SOL    HW116898   2.695   1.872   5.657 -0.0353 -0.5950 -1.0642
 1755SOL    HW216899   2.771   1.827   5.774  0.5445  1.0595 -0.7389
 1756SOL     OW16900   1.743   3.007   2.880  0.1986  0.1151 -0.5580
 1756SOL    HW116901   1.665   2.955   2.898  0.6211 -0.1292  0.5483
 1756SOL    HW216902   1.802   2.976   2.948 -0.4501 -0.6053 -0.3225
 1757SOL     OW16903   4.241   3.173   6.698 -0.1945 -0.3102  0.4468
 1757SOL    HW116904   4.313   3.189   6.637  0.1684 -2.5955  0.2696
 1757SOL    HW216905   4.196   3.093   6.672  0.4645 -0.2256 -0.9194
 1758SOL     OW16906   3.823   2.050  11.960 -0.4114  0.1645  0.2860
 1758SOL    HW116907   3.768   1.981  11.924 -0.7944  1.0463 -0.8311
 1758SOL    HW216908   3.839   2.110  11.887 -0.0432 -0.6294 -0.2916
 1759SOL     OW16909   1.013   0.184   6.156  0.1738  0.2058 -0.3216
 1759SOL    HW116910   0.943   0.225   6.104 -0.0680  0.5693  0.2960
 1759SOL    HW216911   0.972   0.107   6.194  0.1918 -0.3053 -1.3296
 1760SOL     OW16912   2.975   1.359   6.975 -0.6525  0.3506  0.2352
 1760SOL    HW116913   3.049   1.326   6.924  1.4758  3.5640  1.2365
 1760SOL    HW216914   2.911   1.298   6.938  0.3772 -0.7628  0.2639
 1761SOL     OW16915   1.455   1.940  14.743 -0.3284  0.0527  0.6664
 1761SOL    HW116916   1.471   1.994  14.666 -1.4965  0.2655  0.5693
 1761SOL    HW216917   1.507   1.974  14.816  0.3984  2.0293 -0.7741
 1762SOL     OW16918   3.356   3.209   7.936 -0.0425  0.2220 -0.4435
 1762SOL    HW116919   3.400   3.186   8.018 -2.0593  0.4086  0.6743
 1762SOL    HW216920   3.316   3.294   7.952  0.3638  0.3793 -0.2501
 1763SOL     OW16921   4.450   0.794  11.317 -0.4262  0.2200  0.1213
 1763SOL    HW116922   4.413   0.833  11.238  0.7906  0.1612 -0.4821
 1763SOL    HW216923   4.424   0.855  11.386 -1.5458 -1.3594  1.0777
 1764SOL     OW16924   3.521   1.915   8.913 -0.6678 -0.0386 -0.6684
 1764SOL    HW116925   3.508   1.901   9.007 -0.4607 -0.3629 -0.6906
 1764SOL    HW216926   3.578   1.840   8.900  0.3196  0.6784 -0.4996
 1765SOL     OW16927   0.984   1.605   5.367 -0.1399 -0.5913 -0.1572
 1765SOL    HW116928   0.954   1.694   5.350 -0.1140  0.0268  2.9976
 1765SOL    HW216929   0.915   1.577   5.428 -0.4436 -1.3330 -0.8386
 1766SOL     OW16930   0.896   0.884   4.746  0.1556  0.0257  0.4985
 1766SOL    HW116931   0.860   0.936   4.817  2.4475  1.9740  0.2238
 1766SOL    HW216932   0.987   0.892   4.774  0.6637 -0.1959 -1.0637
 1767SOL     OW16933   0.843   2.721  11.824  0.9150 -0.0741  0.0317
 1767SOL    HW116934   0.824   2.737  11.916  1.0696 -0.7912  0.1830
 1767SOL    HW216935   0.933   2.755  11.823  0.9094 -0.0759 -1.1394
 1768SOL     OW16936   0.073   3.101   8.377 -0.2663  0.5149  0.2418
 1768SOL    HW116937   0.164   3.071   8.377 -0.5726 -0.3831 -1.5495
 1768SOL    HW216938   0.061   3.111   8.472  2.2237 -0.3610  0.6464
 1769SOL     OW16939   2.355   4.302  17.043  0.1392  0.4105 -0.3195
 1769SOL    HW116940   2.436   4.251  17.045 -1.2787 -1.8752 -0.3850
 1769SOL    HW216941   2.387   4.391  17.059  4.0158 -1.0643  0.1874
 1770SOL     OW16942   0.894   0.636  16.717 -0.7032  0.0713 -0.5055
 1770SOL    HW116943   0.984   0.654  16.743 -0.9084 -0.7036  0.7271
 1770SOL    HW216944   0.894   0.675  16.629  1.1338  1.1447 -0.0356
 1771SOL     OW16945   1.863   0.311  15.886  0.9262 -0.4754  0.1994
 1771SOL    HW116946   1.942   0.262  15.908  3.0365  2.6256 -0.4923
 1771SOL    HW216947   1.914   0.376  15.837 -0.7617  1.8045  1.4648
 1772SOL     OW16948   0.174   1.013   7.891 -0.5427  0.7672  0.2085
 1772SOL    HW116949   0.160   0.931   7.937  0.7099  0.0287 -0.7317
 1772SOL    HW216950   0.216   1.062   7.962  0.5643 -0.5904  0.4921
 1773SOL     OW16951   4.327   1.089  15.410  0.0744  0.0309 -0.6771
 1773SOL    HW116952   4.263   1.157  15.386 -1.3876 -0.9678  0.4425
 1773SOL    HW216953   4.301   1.071  15.500 -1.4085  2.5540 -0.6126
 1774SOL     OW16954   2.214   0.074   2.845 -0.0501 -0.0095  0.5246
 1774SOL    HW116955   2.141   0.058   2.905 -0.6586  2.1758  0.3784
 1774SOL    HW216956   2.289   0.058   2.903  0.4490  0.6436  0.0564
 1775SOL     OW16957   2.183   2.976  14.373  0.0747  0.3371  0.1092
 1775SOL    HW116958   2.218   3.064  14.389  0.3177  0.3837 -0.6674
 1775SOL    HW216959   2.213   2.957  14.284 -0.4856 -0.8448  0.1841
 1776SOL     OW16960   4.608   1.889   0.521  0.1549  0.3460 -0.4241
 1776SOL    HW116961   4.700   1.884   0.497 -0.3063 -1.7307 -1.7035
 1776SOL    HW216962   4.578   1.798   0.523 -0.6934  0.6165 -1.0116
 1777SOL     OW16963   0.005   0.304   8.018  0.0579 -0.0429 -0.2881
 1777SOL    HW116964   0.083   0.360   8.023  0.8128 -0.9321 -2.1744
 1777SOL    HW216965   0.006   0.261   8.104 -2.4947  2.1711  0.8507
 1778SOL     OW16966   4.554   0.085   0.185  0.5468  0.1422  0.2762
 1778SOL    HW116967   4.646   0.105   0.167  0.0995  0.6123 -1.5135
 1778SOL    HW216968   4.523   0.060   0.098  0.3537 -0.7743  0.6079
 1779SOL     OW16969   0.047   4.256   2.577  0.2130  0.1393  0.0020
 1779SOL    HW116970   0.044   4.265   2.672  1.0974 -1.7140  0.2069
 1779SOL    HW216971   4.697   4.209   2.565 -0.5165  1.7042 -1.1241
 1780SOL     OW16972   2.138   1.678  17.660 -0.1038 -0.2298 -0.0136
 1780SOL    HW116973   2.143   1.642  17.572  0.6893 -2.4602  0.9448
 1780SOL    HW216974   2.059   1.730  17.645 -1.9610 -3.6447 -2.2502
 1781SOL     OW16975   1.032   3.063   4.174 -0.5586  0.1896  1.0074
 1781SOL    HW116976   0.976   3.099   4.105 -0.3386  0.1244  0.7918
 1781SOL    HW216977   1.112   3.116   4.171  0.5047 -1.3959  0.9515
 1782SOL     OW16978   4.470   0.195   2.733  0.2947  0.1907  0.2135
 1782SOL    HW116979   4.381   0.208   2.765  0.2652  1.7750 -0.4808
 1782SOL    HW216980   4.524   0.223   2.808  0.6194  0.5875 -0.1618
 1783SOL     OW16981   3.272   2.508  14.920  0.1474  0.0606 -0.5318
 1783SOL    HW116982   3.211   2.512  14.846 -2.1558 -0.9230  1.3279
 1783SOL    HW216983   3.360   2.520  14.885  0.5269 -0.0048  0.4157
 1784SOL     OW16984   3.112   3.516   6.136  0.1428  0.0850  0.0063
 1784SOL    HW116985   3.080   3.603   6.159  0.5762 -0.3235  2.1237
 1784SOL    HW216986   3.101   3.474   6.221  0.8392  0.4477  0.2762
 1785SOL     OW16987   3.559   3.795  11.683  0.1826  0.3941 -0.0904
 1785SOL    HW116988   3.627   3.796  11.751  0.9021 -1.5323 -0.7711
 1785SOL    HW216989   3.555   3.883  11.647  0.1590  0.8187  0.9378
 1786SOL     OW16990   1.633   1.153   8.583 -0.2456 -0.9040  0.6938
 1786SOL    HW116991   1.693   1.188   8.649  0.7028 -0.8462 -0.2013
 1786SOL    HW216992   1.615   1.237   8.540  2.5141  0.4067  2.0765
 1787SOL     OW16993   4.427   2.061   8.051  0.6800 -1.0473 -0.4585
 1787SOL    HW116994   4.447   1.986   8.106  0.2713  0.1037  1.2419
 1787SOL    HW216995   4.335   2.040   8.034  0.3126  0.1075  0.1230
 1788SOL     OW16996   4.612   0.212   2.980  0.3253  0.4495  0.1770
 1788SOL    HW116997   4.606   0.162   3.062  0.4582  0.7956  0.3989
 1788SOL    HW216998   4.636   0.299   3.013  0.0156  0.5894  0.0297
 1789SOL     OW16999   2.195   1.943  16.024 -0.2360 -0.0719 -0.9499
 1789SOL    HW117000   2.129   1.873  16.028 -0.8002  0.6119  1.9896
 1789SOL    HW217001   2.134   2.011  15.998  0.8088  1.0722 -0.3812
 1790SOL     OW17002   4.431   4.333  14.652 -0.0334  0.1410  0.0728
 1790SOL    HW117003   4.468   4.284  14.725  0.5555  0.1403 -0.2256
 1790SOL    HW217004   4.341   4.352  14.678  0.0441 -0.7348  0.9666
 1791SOL     OW17005   0.521   2.992   4.256  0.7797  0.1529 -0.3518
 1791SOL    HW117006   0.456   2.945   4.309  1.7100  0.9521  1.4757
 1791SOL    HW217007   0.588   3.003   4.323 -0.2050  2.4270  0.2725
 1792SOL     OW17008   2.189   1.915   4.124  0.0587 -0.1957  0.2140
 1792SOL    HW117009   2.173   2.003   4.091  1.6371  0.7643  1.9903
 1792SOL    HW217010   2.193   1.866   4.042 -0.7832  0.5930 -0.3001
 1793SOL     OW17011   3.806   3.511   6.075 -0.4307  0.4796  0.0082
 1793SOL    HW117012   3.796   3.605   6.088  0.8229  0.3476  1.8094
 1793SOL    HW217013   3.896   3.498   6.106 -0.4751 -1.3982 -0.6372
 1794SOL     OW17014   3.356   0.305   9.860 -0.3323  0.4136  0.1557
 1794SOL    HW117015   3.296   0.256   9.804 -1.0767  0.8106  0.6165
 1794SOL    HW217016   3.335   0.255   9.939  0.2378 -2.1693 -1.3365
 1795SOL     OW17017   0.016   3.507  13.542  0.1301  0.4899 -0.0054
 1795SOL    HW117018   0.051   3.572  13.604 -0.5463 -0.1818  1.0785
 1795SOL    HW217019   4.731   3.434  13.601  1.0991  0.4019  0.1600
 1796SOL     OW17020   1.542   3.273   4.705  0.1746 -0.2536 -0.1533
 1796SOL    HW117021   1.513   3.345   4.650  0.9914  0.2662  0.0903
 1796SOL    HW217022   1.458   3.229   4.719 -0.3533  0.7454 -0.1962
 1797SOL     OW17023   2.453   2.937   6.488 -0.1257 -0.2646  0.5773
 1797SOL    HW117024   2.539   2.965   6.519  0.2957  0.0254 -0.8422
 1797SOL    HW217025   2.474   2.852   6.449 -2.1570  0.2635 -1.6823
 1798SOL     OW17026   2.947   0.628   4.607 -0.7034 -0.1981  0.1296
 1798SOL    HW117027   2.995   0.582   4.539 -0.5773 -1.5425  1.1264
 1798SOL    HW217028   2.895   0.691   4.558  0.6868 -0.7482 -2.0128
 1799SOL     OW17029   0.866   4.465   2.852  0.2689 -0.1552 -0.1275
 1799SOL    HW117030   0.862   4.411   2.931 -1.1245  1.9854  1.2609
 1799SOL    HW217031   0.937   4.417   2.810  1.7863  2.1395 -0.1775
 1800SOL     OW17032   3.396   2.116   5.421  0.1076 -0.0521  0.2023
 1800SOL    HW117033   3.415   2.117   5.515 -2.9272  0.2950  0.8178
 1800SOL    HW217034   3.363   2.205   5.422  2.9001  0.9885  0.7113
 1801SOL     OW17035   4.665   4.209  14.300  0.4708  0.0898  0.0495
 1801SOL    HW117036   4.639   4.208  14.209 -0.9237 -1.3157  0.4727
 1801SOL    HW217037   4.589   4.252  14.340  0.4288 -0.3652  0.4589
 1802SOL     OW17038   0.486   1.206   9.118  0.3691  0.3625 -0.0105
 1802SOL    HW117039   0.400   1.241   9.093 -0.9032 -0.9074  2.6279
 1802SOL    HW217040   0.534   1.286   9.139 -0.6656  1.0097 -0.0874
 1803SOL     OW17041   1.937   0.718   0.231 -0.3575  0.1558 -0.3038
 1803SOL    HW117042   2.023   0.677   0.227  0.9381  2.8875 -0.3083
 1803SOL    HW217043   1.926   0.798   0.179  1.6023 -0.1390 -1.1521
 1804SOL     OW17044   3.393   2.857   4.364 -0.0820 -0.5436  0.0887
 1804SOL    HW117045   3.450   2.816   4.428 -0.0201 -1.3669 -0.4895
 1804SOL    HW217046   3.423   2.948   4.356 -0.4945 -0.4861 -0.8903
 1805SOL     OW17047   3.134   0.377  16.918  0.2247 -0.1570 -0.1908
 1805SOL    HW117048   3.222   0.404  16.944 -0.5215  0.1387  1.9631
 1805SOL    HW217049   3.142   0.380  16.822 -0.5434 -2.2518 -0.3172
 1806SOL     OW17050   1.435   1.827   4.261  0.2119 -0.2699  0.3334
 1806SOL    HW117051   1.410   1.900   4.204  0.5648 -1.0107 -0.7740
 1806SOL    HW217052   1.506   1.854   4.319 -0.9529  2.0119  0.6677
 1807SOL     OW17053   0.190   1.916  15.954  0.0548  0.0022 -0.2229
 1807SOL    HW117054   0.174   1.982  16.021  0.7981 -0.9794  0.9225
 1807SOL    HW217055   0.176   1.954  15.867 -0.4377 -1.7977 -0.9376
 1808SOL     OW17056   1.510   3.944  17.129  0.0839 -0.5168 -0.4896
 1808SOL    HW117057   1.425   3.901  17.122 -0.7567  0.6660  2.0407
 1808SOL    HW217058   1.567   3.873  17.160 -2.5421 -1.2732  2.6388
 1809SOL     OW17059   2.203   1.319  14.373  0.2070  0.2823 -0.1761
 1809SOL    HW117060   2.228   1.370  14.451 -0.7452 -1.5323  1.3288
 1809SOL    HW217061   2.154   1.382  14.320  2.0663  2.5465  0.8112
 1810SOL     OW17062   4.048   0.099   6.443 -0.4321  0.0098 -0.2462
 1810SOL    HW117063   4.098   0.136   6.515 -0.2734 -0.4075 -0.1385
 1810SOL    HW217064   3.982   0.036   6.473 -0.8631 -0.5665 -2.3746
 1811SOL     OW17065   4.603   0.035   1.448 -0.5396 -0.4158 -0.1316
 1811SOL    HW117066   4.640   0.070   1.530 -1.9144 -3.2951  1.7278
 1811SOL    HW217067   4.536   0.099   1.429 -1.9810 -2.3635 -1.6044
 1812SOL     OW17068   2.109   4.313  17.161  0.4637 -0.4384 -0.9771
 1812SOL    HW117069   2.102   4.406  17.141 -1.1000 -0.3622 -0.1027
 1812SOL    HW217070   2.196   4.283  17.134  1.2592  0.1541  0.9150
 1813SOL     OW17071   3.597   4.309   2.320 -0.1116 -0.2583  0.0308
 1813SOL    HW117072   3.643   4.389   2.346  2.2128 -1.4561 -0.3707
 1813SOL    HW217073   3.631   4.295   2.232 -4.0002  1.1363 -1.6960
 1814SOL     OW17074   3.830   2.833  11.485  0.1954  0.1563  0.1955
 1814SOL    HW117075   3.740   2.822  11.514 -0.1270  0.6663 -0.6156
 1814SOL    HW217076   3.828   2.922  11.449  2.3787  0.1579  0.0663
 1815SOL     OW17077   3.802   4.419  10.771  0.5853 -0.0855  0.1787
 1815SOL    HW117078   3.865   4.366  10.723  0.0518 -0.8341  0.2931
 1815SOL    HW217079   3.720   4.376  10.748  0.3194  0.6950 -0.3426
 1816SOL     OW17080   3.544   0.495  16.662  0.4587  0.2270 -0.2045
 1816SOL    HW117081   3.461   0.458  16.630  0.2070 -0.0957  0.7972
 1816SOL    HW217082   3.601   0.449  16.600  0.9110 -1.3049  1.3448
 1817SOL     OW17083   1.393   2.716  16.440  0.1562 -0.5510  0.0867
 1817SOL    HW117084   1.444   2.718  16.360  0.5563 -1.1365  0.3311
 1817SOL    HW217085   1.457   2.761  16.496 -1.1830  0.2674  0.9979
 1818SOL     OW17086   0.894   0.488  10.311 -0.1757  0.6899 -0.2176
 1818SOL    HW117087   0.912   0.396  10.288 -0.0167  0.3449  1.2962
 1818SOL    HW217088   0.835   0.466  10.383  1.3022 -0.7161  0.5817
 1819SOL     OW17089   2.135   1.268  14.911 -0.2125  0.4145 -0.6841
 1819SOL    HW117090   2.053   1.311  14.891 -1.2091 -1.2629 -0.2242
 1819SOL    HW217091   2.174   1.260  14.824 -0.5052 -0.5955 -0.7286
 1820SOL     OW17092   1.361   4.491   0.869 -0.0326  0.0826  0.2334
 1820SOL    HW117093   1.397   4.423   0.926  0.9738  0.3870 -0.0428
 1820SOL    HW217094   1.285   4.440   0.840  1.5379 -1.2269 -1.6051
 1821SOL     OW17095   0.866   1.644   5.661  0.7280 -0.5754 -0.5051
 1821SOL    HW117096   0.843   1.737   5.661  0.9739 -0.5126 -2.7096
 1821SOL    HW217097   0.958   1.654   5.686  0.6713 -1.0140 -0.1423
 1822SOL     OW17098   4.440   0.877   6.886  0.0030  0.6689 -0.6768
 1822SOL    HW117099   4.509   0.934   6.918 -0.2047 -0.1508  1.2172
 1822SOL    HW217100   4.368   0.940   6.874 -0.5685 -0.2369 -2.0175
 1823SOL     OW17101   4.394   0.890   0.046 -0.3502  0.1355 -0.5672
 1823SOL    HW117102   4.426   0.935   0.124 -0.0568 -0.4925 -0.3300
 1823SOL    HW217103   4.385   0.797   0.066 -0.6732  0.2190 -0.3077
 1824SOL     OW17104   3.619   3.359   7.397 -0.0967  0.1228  0.0647
 1824SOL    HW117105   3.701   3.342   7.444 -0.8404 -1.9374  0.6088
 1824SOL    HW217106   3.609   3.454   7.389  0.3148  0.4598  3.5264
 1825SOL     OW17107   0.399   1.605  11.009 -0.0914 -0.0109  0.3491
 1825SOL    HW117108   0.358   1.632  11.091  2.1204  1.6294  0.9149
 1825SOL    HW217109   0.450   1.531  11.042 -1.3556 -0.1521  2.0087
 1826SOL     OW17110   2.561   3.148   7.010 -0.2496 -0.2274 -0.1666
 1826SOL    HW117111   2.609   3.228   6.987 -2.2650 -0.1442 -4.0643
 1826SOL    HW217112   2.573   3.153   7.105 -0.8383 -2.9775  0.0492
 1827SOL     OW17113   1.181   0.026   5.239 -0.4152 -0.5697  0.1550
 1827SOL    HW117114   1.136   0.035   5.155 -1.2235 -0.1967  0.6265
 1827SOL    HW217115   1.264   4.717   5.213 -0.4257  0.6362 -1.7655
 1828SOL     OW17116   3.410   0.496   3.662 -0.1542  0.5268 -0.0177
 1828SOL    HW117117   3.375   0.436   3.728  0.1541 -0.5362 -0.8290
 1828SOL    HW217118   3.395   0.578   3.710 -0.3644 -0.7885  2.1588
 1829SOL     OW17119   3.239   0.768  11.422 -0.2578  0.6460  0.2890
 1829SOL    HW117120   3.326   0.765  11.462  0.4574  0.8043 -1.2279
 1829SOL    HW217121   3.243   0.682  11.380  2.9721  0.6122  0.6661
 1830SOL     OW17122   0.755   3.806   0.700 -0.5337  0.1833 -0.2314
 1830SOL    HW117123   0.827   3.769   0.650 -1.8883 -0.8189 -1.4370
 1830SOL    HW217124   0.801   3.839   0.778 -0.7879 -2.5115  1.0695
 1831SOL     OW17125   0.172   1.355   7.843 -0.1561 -0.2097  0.5043
 1831SOL    HW117126   0.184   1.265   7.874  0.4369 -0.1449  0.4767
 1831SOL    HW217127   0.103   1.358   7.777  2.0444  0.3845 -1.8037
 1832SOL     OW17128   1.571   0.303   1.892  0.1195  0.0402  0.5610
 1832SOL    HW117129   1.616   0.232   1.847 -1.9903 -1.5774  1.0175
 1832SOL    HW217130   1.510   0.332   1.824  0.2175  1.5075  1.0971
 1833SOL     OW17131   0.563   4.695   6.058 -0.0545 -1.1836 -0.6237
 1833SOL    HW117132   0.614   4.621   6.090  2.8314  1.8462  1.6990
 1833SOL    HW217133   0.589   0.035   6.115 -0.6633 -1.6284  0.2200
 1834SOL     OW17134   0.262   2.371   5.465  0.4913 -0.4284  0.4094
 1834SOL    HW117135   0.244   2.427   5.540 -3.4566 -0.1761 -0.7318
 1834SOL    HW217136   0.349   2.393   5.431 -0.0544  0.3903 -0.4769
 1835SOL     OW17137   3.440   2.759   6.621  0.2542 -0.3702 -0.1966
 1835SOL    HW117138   3.427   2.680   6.674  1.7695  1.2484  2.5722
 1835SOL    HW217139   3.460   2.725   6.534  0.1408 -0.5175 -0.1650
 1836SOL     OW17140   1.327   4.256   9.648  0.1594  0.4125 -0.4754
 1836SOL    HW117141   1.302   4.298   9.730 -2.3625  1.0513 -1.5946
 1836SOL    HW217142   1.383   4.190   9.689 -1.5465 -2.3565 -2.6120
 1837SOL     OW17143   4.556   0.887  15.066 -0.3180  0.7730 -0.0271
 1837SOL    HW117144   4.538   0.980  15.083  0.9652  0.7979  1.1582
 1837SOL    HW217145   4.621   0.861  15.131 -0.4044  2.1238  0.5966
 1838SOL     OW17146   3.977   1.786   2.344  0.1311  0.2141 -0.2779
 1838SOL    HW117147   3.902   1.836   2.312 -0.9299 -1.2127 -0.0598
 1838SOL    HW217148   4.016   1.752   2.264 -0.2045  0.0264 -0.3635
 1839SOL     OW17149   1.849   0.219  14.169  1.3584  0.2832 -0.4926
 1839SOL    HW117150   1.888   0.262  14.093  0.9560 -1.9994 -2.0236
 1839SOL    HW217151   1.775   0.280  14.177  0.2795 -0.9175 -1.2222
 1840SOL     OW17152   0.622   3.223  14.296  0.1309  0.0114  0.4751
 1840SOL    HW117153   0.578   3.215  14.211  0.5397  3.1863 -0.0208
 1840SOL    HW217154   0.545   3.224  14.353 -1.4529  0.4677 -1.6633
 1841SOL     OW17155   1.683   3.972  13.305  0.0242 -0.0841  1.3052
 1841SOL    HW117156   1.762   3.951  13.355 -0.3997 -0.2788  1.8994
 1841SOL    HW217157   1.668   4.060  13.339  0.3925  0.9713 -1.2590
 1842SOL     OW17158   1.600   0.072   5.601  0.7726 -0.5407  0.6910
 1842SOL    HW117159   1.632   0.058   5.512  3.5489  0.3109  1.5685
 1842SOL    HW217160   1.526   0.011   5.609 -0.7152  1.0394 -1.1239
 1843SOL     OW17161   1.180   1.728  17.553 -0.3684 -0.1681 -0.0936
 1843SOL    HW117162   1.089   1.700  17.539 -0.1926 -0.2889 -0.9757
 1843SOL    HW217163   1.164   1.820  17.571  0.5147  0.1350 -0.9070
 1844SOL     OW17164   2.001   0.862  11.794  0.6118  0.5406 -0.0167
 1844SOL    HW117165   2.087   0.826  11.773 -0.0023 -0.8703 -0.1186
 1844SOL    HW217166   2.017   0.899  11.881 -1.6430  0.7400  0.3124
 1845SOL     OW17167   2.171   2.248   8.771 -0.0635  0.4861  0.4593
 1845SOL    HW117168   2.080   2.258   8.797  0.5469  0.0946  2.7294
 1845SOL    HW217169   2.196   2.341   8.767  0.0093  0.3723 -1.9781
 1846SOL     OW17170   0.646   4.580   1.245 -0.6480 -0.1538 -0.5480
 1846SOL    HW117171   0.692   4.535   1.316 -1.4675  1.7493  1.1883
 1846SOL    HW217172   0.667   4.671   1.265 -1.2465 -0.2067  0.3552
 1847SOL     OW17173   2.635   4.094  13.598  0.4206  0.1777 -0.7300
 1847SOL    HW117174   2.540   4.085  13.599  0.3578  0.7487 -1.3760
 1847SOL    HW217175   2.653   4.051  13.514 -1.7197  0.0034 -1.1036
 1848SOL     OW17176   4.227   3.853  12.075  0.0149 -0.2968 -0.7205
 1848SOL    HW117177   4.199   3.876  12.164  2.2975 -1.6773  0.3674
 1848SOL    HW217178   4.316   3.822  12.091 -0.8499 -1.3113  2.1310
 1849SOL     OW17179   2.303   1.562   7.695 -0.4347 -0.0362 -0.4845
 1849SOL    HW117180   2.210   1.573   7.676  0.1627  1.5801 -2.4945
 1849SOL    HW217181   2.341   1.643   7.660  0.7485 -1.2683 -2.0421
 1850SOL     OW17182   2.437   1.000  11.464 -0.5670 -0.5308 -0.0440
 1850SOL    HW117183   2.440   1.013  11.559 -0.3575  1.4732 -0.3229
 1850SOL    HW217184   2.525   1.029  11.440 -0.5496 -0.8216 -0.3325
 1851SOL     OW17185   1.718   2.912   7.231 -0.1706  0.0512 -1.3508
 1851SOL    HW117186   1.784   2.845   7.211 -0.1288  0.0791 -1.3049
 1851SOL    HW217187   1.709   2.957   7.147 -2.9956 -1.0208 -1.6092
 1852SOL     OW17188   3.573   0.531  10.983 -0.0465  0.7699 -0.1461
 1852SOL    HW117189   3.614   0.564  11.063  1.9131 -0.1733 -0.7664
 1852SOL    HW217190   3.606   0.442  10.993  1.2380  1.2875  0.2636
 1853SOL     OW17191   3.484   3.203   3.397  0.0249 -0.6573 -0.3852
 1853SOL    HW117192   3.490   3.298   3.394  0.9002 -0.7741 -2.5375
 1853SOL    HW217193   3.389   3.198   3.391  0.0474 -1.3471 -0.2071
 1854SOL     OW17194   0.117   2.475   8.457  0.6491 -0.1327  0.2515
 1854SOL    HW117195   0.190   2.532   8.481  1.0335 -0.2708 -0.5886
 1854SOL    HW217196   0.144   2.392   8.497 -1.9014 -0.2766  1.7122
 1855SOL     OW17197   2.733   4.663   8.647  0.2981 -0.1836 -0.0659
 1855SOL    HW117198   2.793   4.685   8.718 -2.1568  3.6147  0.8135
 1855SOL    HW217199   2.801   4.631   8.588 -0.0381  1.0224 -1.1325
 1856SOL     OW17200   4.073   4.041   3.360  0.5494  0.0036  0.0591
 1856SOL    HW117201   4.045   4.110   3.301 -0.8424  0.3553  1.1164
 1856SOL    HW217202   4.160   4.036   3.319 -0.1302  0.5337 -1.4026
 1857SOL     OW17203   1.758   1.865   0.785 -0.2086 -0.4143  0.5520
 1857SOL    HW117204   1.811   1.908   0.853 -0.6266  2.1550 -0.7720
 1857SOL    HW217205   1.672   1.880   0.825 -0.2512 -0.3326  0.4292
 1858SOL     OW17206   3.723   4.727   7.978 -0.0460 -0.3337 -0.3231
 1858SOL    HW117207   3.658   4.661   8.000 -0.4155  0.9877  2.6252
 1858SOL    HW217208   3.776   4.721   8.058  2.5167  0.9430 -1.9284
 1859SOL     OW17209   0.270   1.739   3.809  0.3003 -0.3523 -0.8354
 1859SOL    HW117210   0.342   1.802   3.799 -0.3545  0.7950  1.6555
 1859SOL    HW217211   0.235   1.783   3.887  0.7243 -0.2309 -0.7129
 1860SOL     OW17212   1.163   1.518   7.235  0.0868  0.2602  0.8834
 1860SOL    HW117213   1.187   1.562   7.153  3.4970 -0.0120  1.7115
 1860SOL    HW217214   1.096   1.584   7.253  3.2796  2.3095  5.3071
 1861SOL     OW17215   3.052   1.395   1.638  0.5374  0.2601 -0.0444
 1861SOL    HW117216   3.007   1.356   1.713 -0.7912  1.2175 -0.3455
 1861SOL    HW217217   3.144   1.371   1.646  0.5752  0.7174  0.8718
 1862SOL     OW17218   1.368   3.293   3.304  0.3756  0.0511 -0.4398
 1862SOL    HW117219   1.429   3.315   3.374 -0.2708 -2.4238  0.8970
 1862SOL    HW217220   1.432   3.280   3.233 -0.0271 -2.1783 -0.4065
 1863SOL     OW17221   3.327   2.601  11.566 -0.1367 -0.7714 -0.2631
 1863SOL    HW117222   3.302   2.508  11.570  1.7822 -1.2359  1.0476
 1863SOL    HW217223   3.248   2.636  11.525  0.4169  0.7283 -0.0524
 1864SOL     OW17224   4.282   1.532   9.364 -0.0229 -0.1139 -0.6860
 1864SOL    HW117225   4.377   1.521   9.358  0.0711  0.3879 -0.1915
 1864SOL    HW217226   4.255   1.440   9.356 -2.4581  0.5927 -0.3373
 1865SOL     OW17227   3.483   3.351   4.508 -0.1641  0.3647  0.4108
 1865SOL    HW117228   3.556   3.369   4.449  0.7141 -0.1574  1.3299
 1865SOL    HW217229   3.521   3.295   4.576 -0.6786 -0.1304  0.2895
 1866SOL     OW17230   2.033   2.793   8.103 -0.1352 -0.3105 -0.0992
 1866SOL    HW117231   1.949   2.748   8.113  0.1622 -0.1411  3.1945
 1866SOL    HW217232   1.999   2.882   8.096  0.8330  0.1196  0.8260
 1867SOL     OW17233   4.667   0.004   6.457 -0.5412  0.0027  0.3289
 1867SOL    HW117234   4.648   0.003   6.364 -0.6054 -0.2505  0.3441
 1867SOL    HW217235   4.592   0.051   6.494 -0.8347  0.2000 -0.5267
 1868SOL     OW17236   1.217   1.067   6.301 -0.0208  0.0981 -0.4755
 1868SOL    HW117237   1.131   1.031   6.284  0.0133 -0.6433  0.9459
 1868SOL    HW217238   1.218   1.080   6.396 -0.6177  1.0517 -0.6005
 1869SOL     OW17239   1.684   2.136  12.024  0.2876  0.1569  0.0460
 1869SOL    HW117240   1.613   2.165  12.082 -0.1512  0.5201 -0.6854
 1869SOL    HW217241   1.672   2.196  11.951 -0.3924  0.6430  0.5512
 1870SOL     OW17242   2.989   2.008   8.902 -0.1366 -0.7853 -0.0301
 1870SOL    HW117243   3.050   2.049   8.841  0.9253 -3.2107 -0.6314
 1870SOL    HW217244   2.915   2.068   8.899  0.0482 -0.5503  0.0441
 1871SOL     OW17245   4.034   2.846  12.923 -0.4847 -0.0622  0.3525
 1871SOL    HW117246   4.081   2.820  12.844  0.6129 -0.5047  1.1508
 1871SOL    HW217247   3.990   2.763  12.940 -1.1856  0.3289  0.4611
 1872SOL     OW17248   2.306   1.270  15.585  0.5878 -0.2768  0.2458
 1872SOL    HW117249   2.242   1.340  15.573  1.2795 -0.1734 -2.9422
 1872SOL    HW217250   2.310   1.256  15.490  1.7753 -0.3761  0.3016
 1873SOL     OW17251   0.695   1.618   4.511  0.2658  0.3204  0.1014
 1873SOL    HW117252   0.713   1.527   4.534 -2.5695 -0.6944 -1.7213
 1873SOL    HW217253   0.785   1.649   4.515 -0.3153  2.0137  0.4566
 1874SOL     OW17254   2.009   0.800   6.823 -0.5884  0.2026  0.3057
 1874SOL    HW117255   1.961   0.761   6.897  1.0475 -0.8164  0.8186
 1874SOL    HW217256   1.944   0.865   6.796  0.5378  0.1639 -2.4802
 1875SOL     OW17257   2.024   2.563   8.659  0.3121 -0.4006  0.2062
 1875SOL    HW117258   1.934   2.560   8.627 -0.0155  0.6320  1.0694
 1875SOL    HW217259   2.065   2.498   8.602  1.6336 -0.1708  0.8937
 1876SOL     OW17260   0.485   4.489  15.572  0.1340  0.0217  0.1418
 1876SOL    HW117261   0.577   4.510  15.554  0.5458 -1.0030  1.0273
 1876SOL    HW217262   0.468   4.550  15.644 -0.8761  0.3636 -0.3882
 1877SOL     OW17263   0.112   2.353   3.101  0.3637  0.1092  0.3633
 1877SOL    HW117264   0.130   2.292   3.030  1.8846 -1.3391  1.9958
 1877SOL    HW217265   0.042   2.404   3.061 -0.9226 -2.4461 -0.6218
 1878SOL     OW17266   1.218   4.182   7.746  0.2855  0.2193  0.3016
 1878SOL    HW117267   1.229   4.092   7.713 -1.3605  0.2427 -0.3253
 1878SOL    HW217268   1.279   4.178   7.820 -2.7137 -1.4172  2.7053
 1879SOL     OW17269   0.664   0.980   6.377  0.1028  0.4180 -0.2718
 1879SOL    HW117270   0.572   0.982   6.348 -0.3145 -0.4104  0.9790
 1879SOL    HW217271   0.685   1.066   6.342  1.0395 -0.0373 -0.8178
 1880SOL     OW17272   2.856   3.736   8.491 -0.2595  0.0719  0.4373
 1880SOL    HW117273   2.816   3.814   8.530 -0.3976  0.4055 -0.3757
 1880SOL    HW217274   2.780   3.681   8.471 -0.1459  0.0130  0.1704
 1881SOL     OW17275   3.082   2.852   6.514  0.1330  0.2209  0.1294
 1881SOL    HW117276   3.117   2.765   6.530  2.1258  1.0952  0.5718
 1881SOL    HW217277   2.993   2.825   6.494  0.4864 -1.8970  1.3998
 1882SOL     OW17278   1.620   1.288   3.395  0.2141  0.1065 -0.5462
 1882SOL    HW117279   1.570   1.233   3.335  0.1026 -0.5597  0.1551
 1882SOL    HW217280   1.570   1.369   3.386 -1.6040 -1.2091 -2.1783
 1883SOL     OW17281   2.218   2.076   9.885  0.3406 -0.0287 -0.1100
 1883SOL    HW117282   2.216   1.990   9.927 -2.3400  1.1333  2.0648
 1883SOL    HW217283   2.309   2.065   9.855 -0.1133  0.8576 -1.7834
 1884SOL     OW17284   2.382   3.454   7.464  0.2091  0.3724  0.3098
 1884SOL    HW117285   2.303   3.405   7.441  0.4710  1.1976 -2.3492
 1884SOL    HW217286   2.376   3.501   7.547  2.6707 -0.0969  0.7433
 1885SOL     OW17287   2.350   3.638   8.291 -0.0221  0.4089 -0.7827
 1885SOL    HW117288   2.309   3.705   8.236 -1.6555 -0.2301 -0.3641
 1885SOL    HW217289   2.273   3.618   8.345  0.6053 -1.1324 -0.4436
 1886SOL     OW17290   0.223   2.331  10.658 -0.2756 -0.3641  0.1486
 1886SOL    HW117291   0.300   2.371  10.618 -1.5336  0.0883 -1.7914
 1886SOL    HW217292   0.160   2.351  10.589  2.2141 -0.9931 -2.2846
 1887SOL     OW17293   3.530   1.710   9.542  0.1521  0.3462 -0.3999
 1887SOL    HW117294   3.545   1.737   9.632  1.5428  1.9899 -1.1346
 1887SOL    HW217295   3.437   1.685   9.537 -0.0131  0.9568 -0.3212
 1888SOL     OW17296   0.391   1.122  12.095  0.1952 -0.4080  0.1071
 1888SOL    HW117297   0.442   1.119  12.014  1.9066  1.4085  1.1426
 1888SOL    HW217298   0.357   1.211  12.099  0.2768 -0.3891  0.4159
 1889SOL     OW17299   0.983   3.033   7.323  0.3035  0.3866 -0.3244
 1889SOL    HW117300   1.060   3.062   7.371  1.3589 -0.8327 -1.2937
 1889SOL    HW217301   0.950   2.967   7.385  0.9117 -1.2246 -1.6951
 1890SOL     OW17302   1.903   1.341   5.279  0.1418  0.3481  0.1306
 1890SOL    HW117303   1.907   1.400   5.354 -1.0283 -0.4720  0.8342
 1890SOL    HW217304   1.831   1.381   5.232  0.3205 -0.0071 -0.4539
 1891SOL     OW17305   0.992   1.023  15.607 -0.7884 -0.3746 -0.3334
 1891SOL    HW117306   1.011   1.046  15.516 -0.4057 -2.4506 -0.7833
 1891SOL    HW217307   0.898   1.042  15.613 -1.2295 -2.0791 -1.6765
 1892SOL     OW17308   0.465   1.524  15.969 -0.0284  0.1150  0.4316
 1892SOL    HW117309   0.391   1.560  16.019  1.1162  0.4121  1.9322
 1892SOL    HW217310   0.472   1.430  15.988 -1.3336  0.3473  2.1128
 1893SOL     OW17311   2.746   3.732   0.897 -0.4778  0.0504 -0.0998
 1893SOL    HW117312   2.796   3.813   0.905 -1.4377  0.6353 -0.0276
 1893SOL    HW217313   2.796   3.685   0.830  0.4121  0.9690 -0.0855
 1894SOL     OW17314   4.427   3.726   2.816  0.3555 -0.2363 -0.4153
 1894SOL    HW117315   4.445   3.642   2.859  0.9256  0.4222  0.6211
 1894SOL    HW217316   4.432   3.706   2.723 -2.7753  1.3865 -0.9204
 1895SOL     OW17317   2.543   0.357   5.153  0.3486 -0.0887  0.1592
 1895SOL    HW117318   2.470   0.348   5.091 -1.0010  1.5677  1.4982
 1895SOL    HW217319   2.492   0.391   5.227 -0.4674  0.5707 -0.6964
 1896SOL     OW17320   0.425   2.252   7.961  0.3764 -0.4820 -0.2376
 1896SOL    HW117321   0.464   2.266   7.874  0.7279 -0.2926 -0.0513
 1896SOL    HW217322   0.333   2.271   7.947 -0.1464 -2.5570  0.4215
 1897SOL     OW17323   3.651   0.161   4.304 -0.3796  0.3022 -0.1937
 1897SOL    HW117324   3.562   0.193   4.291  0.2928  1.2673 -2.5286
 1897SOL    HW217325   3.647   0.087   4.244 -0.3070 -1.6770  2.2346
 1898SOL     OW17326   0.477   2.780   8.053  0.4423  0.4418  0.1077
 1898SOL    HW117327   0.541   2.803   7.985  0.5132  0.6461  0.2419
 1898SOL    HW217328   0.409   2.846   8.036  0.5684  0.0840 -1.8291
 1899SOL     OW17329   0.858   2.092  13.670  0.1306  0.0748  0.4572
 1899SOL    HW117330   0.775   2.045  13.671 -0.1182  0.4800 -1.3935
 1899SOL    HW217331   0.912   2.019  13.640 -0.5807  0.4314 -1.6812
 1900SOL     OW17332   3.621   1.484   6.217 -0.1535 -0.4645  0.0960
 1900SOL    HW117333   3.672   1.500   6.296 -0.7876 -0.8222  0.5772
 1900SOL    HW217334   3.674   1.523   6.147 -1.1745  0.9511  0.1049
 1901SOL     OW17335   2.741   3.836   8.955 -0.2913 -0.6305 -0.5399
 1901SOL    HW117336   2.705   3.903   9.012  0.0909  0.1326 -1.1883
 1901SOL    HW217337   2.818   3.805   9.004 -0.1403  3.1605  1.5914
 1902SOL     OW17338   0.071   3.697   2.291  0.1627  0.1850  0.0361
 1902SOL    HW117339   0.055   3.611   2.330 -0.2447  0.1755 -0.1582
 1902SOL    HW217340   0.136   3.674   2.224 -1.7187  2.6143 -2.5894
 1903SOL     OW17341   3.325   0.137   3.721  0.0390  0.1564  1.7782
 1903SOL    HW117342   3.405   0.085   3.734 -0.0869 -0.7395 -0.9561
 1903SOL    HW217343   3.293   0.119   3.633  2.8450 -1.8853  1.1490
 1904SOL     OW17344   4.700   3.958   2.013 -0.1661 -0.1614  0.6916
 1904SOL    HW117345   0.057   3.923   2.007 -0.0054 -0.0272  2.4277
 1904SOL    HW217346   4.660   3.889   2.067 -2.8732 -0.2569 -1.4434
 1905SOL     OW17347   0.710   3.467  14.340 -0.3532  0.6650  0.0525
 1905SOL    HW117348   0.702   3.469  14.435  1.1093  1.2631  0.1640
 1905SOL    HW217349   0.674   3.380  14.323  1.0429 -0.0703  0.8896
 1906SOL     OW17350   2.089   2.814   4.686 -0.1450  0.1158 -0.1161
 1906SOL    HW117351   2.062   2.814   4.778 -1.1833  0.7256 -0.4278
 1906SOL    HW217352   2.119   2.723   4.687  0.0505  0.1903  0.9886
 1907SOL     OW17353   2.693   4.244  11.296  0.1888  0.1253  0.6085
 1907SOL    HW117354   2.788   4.257  11.293 -0.0088  2.2173  3.1383
 1907SOL    HW217355   2.679   4.297  11.218 -2.7300 -0.2912  0.8732
 1908SOL     OW17356   3.112   4.495   2.576  0.1174  0.6333  0.5152
 1908SOL    HW117357   3.086   4.537   2.658  0.8864  2.5845 -0.2396
 1908SOL    HW217358   3.195   4.454   2.599 -0.1350  0.2909  0.8069
 1909SOL     OW17359   1.286   1.980   5.818 -0.3698  0.1549  0.2727
 1909SOL    HW117360   1.198   1.943   5.830  0.1304 -1.0060  0.4205
 1909SOL    HW217361   1.258   2.062   5.777 -1.3559 -0.6306 -0.6409
 1910SOL     OW17362   0.574   2.647   2.403 -0.1736 -0.2640 -0.3362
 1910SOL    HW117363   0.621   2.723   2.370  0.3039 -0.1642  0.5637
 1910SOL    HW217364   0.603   2.565   2.362  1.1682  0.1119 -0.1498
 1911SOL     OW17365   0.568   3.650   3.794 -0.0984  0.7241  0.7480
 1911SOL    HW117366   0.609   3.586   3.851 -0.4424 -1.3436 -1.3373
 1911SOL    HW217367   0.639   3.713   3.780  0.3957 -0.0525 -0.2338
 1912SOL     OW17368   0.262   0.330   0.238 -0.4132  0.8922 -0.6240
 1912SOL    HW117369   0.269   0.235   0.228 -1.6407  0.6717  0.6167
 1912SOL    HW217370   0.192   0.340   0.302  1.3120  2.1494  1.0798
 1913SOL     OW17371   3.769   2.044   7.428  0.0371 -0.1495 -0.3818
 1913SOL    HW117372   3.697   1.991   7.394 -0.5425  1.4506 -1.6372
 1913SOL    HW217373   3.840   2.016   7.370  1.9195  2.3140  0.7334
 1914SOL     OW17374   3.552   4.494   3.161 -0.4212 -0.2698  0.6203
 1914SOL    HW117375   3.587   4.580   3.186  0.9139 -0.7636  0.4397
 1914SOL    HW217376   3.595   4.478   3.077  0.2798 -0.8082  1.0862
 1915SOL     OW17377   3.571   1.108   3.015  0.3241 -0.0408  0.2503
 1915SOL    HW117378   3.614   1.023   3.022 -3.3429 -1.5265  4.3605
 1915SOL    HW217379   3.516   1.093   2.938  1.1055 -3.9463  0.4599
 1916SOL     OW17380   4.577   2.082   5.189 -0.0312  0.4575 -0.1687
 1916SOL    HW117381   4.490   2.054   5.159 -0.2296  0.1522  0.6955
 1916SOL    HW217382   4.600   2.160   5.139  0.0408  0.1012 -0.6989
 1917SOL     OW17383   1.124   3.903   9.215 -0.0369  0.5545  0.3787
 1917SOL    HW117384   1.093   3.950   9.293 -0.2161  0.6225  0.2661
 1917SOL    HW217385   1.051   3.841   9.206  0.2100  0.3173 -0.0154
 1918SOL     OW17386   0.673   2.645   8.218  0.6675 -0.0354 -0.0606
 1918SOL    HW117387   0.734   2.715   8.240 -0.8837  2.0456 -2.2579
 1918SOL    HW217388   0.609   2.690   8.161  0.2349 -0.1831  0.3068
 1919SOL     OW17389   4.465   4.033   5.498 -0.3340 -0.6452  0.0552
 1919SOL    HW117390   4.498   4.120   5.477  0.1552 -0.2860  2.2865
 1919SOL    HW217391   4.401   4.017   5.428 -1.6593  1.9603  0.6871
 1920SOL     OW17392   3.233   1.508  14.532 -0.1689  0.0688  0.4053
 1920SOL    HW117393   3.264   1.593  14.501  1.6326 -0.4778  0.7354
 1920SOL    HW217394   3.252   1.457  14.453 -0.0366  1.4222 -0.4470
 1921SOL     OW17395   4.420   1.302  10.437  0.3188 -0.9806 -0.6014
 1921SOL    HW117396   4.414   1.290  10.342  0.8861  2.6580 -1.0712
 1921SOL    HW217397   4.353   1.365  10.461 -0.9049 -2.1061 -1.0829
 1922SOL     OW17398   1.500   2.171   2.415  0.3218 -0.2269  0.2723
 1922SOL    HW117399   1.495   2.079   2.389 -1.0717  0.8976 -3.3594
 1922SOL    HW217400   1.593   2.192   2.409  0.0447  1.1896  0.8354
 1923SOL     OW17401   1.096   4.337   4.803  0.1941  0.8496 -0.4466
 1923SOL    HW117402   1.115   4.246   4.779 -0.4671  0.7188 -0.4856
 1923SOL    HW217403   1.159   4.396   4.763  0.6777  0.7746  0.1929
 1924SOL     OW17404   4.486   0.798  10.551 -0.4214  0.1719 -0.2089
 1924SOL    HW117405   4.415   0.862  10.559 -0.1854  0.4351 -0.2299
 1924SOL    HW217406   4.555   0.848  10.506 -0.4773 -0.5008 -1.0517
 1925SOL     OW17407   1.329   2.634   6.065 -0.3621  0.5963 -0.0187
 1925SOL    HW117408   1.363   2.582   6.138 -1.3165  1.1192  0.7991
 1925SOL    HW217409   1.409   2.666   6.024  0.4380 -0.8974  0.3729
 1926SOL     OW17410   2.369   3.088   7.715  0.0867  0.2837  0.2032
 1926SOL    HW117411   2.337   3.093   7.805 -0.2736  0.4233  0.0657
 1926SOL    HW217412   2.409   3.175   7.706  0.4629  0.1265  0.3551
 1927SOL     OW17413   1.634   2.460  12.256 -0.0918  0.3366  0.0524
 1927SOL    HW117414   1.577   2.535  12.271 -1.0499  0.1082 -2.4738
 1927SOL    HW217415   1.704   2.495  12.312 -1.3859  0.6004  1.4938
 1928SOL     OW17416   2.113   2.502   5.405 -0.3219  0.2443 -0.5826
 1928SOL    HW117417   2.087   2.594   5.404  1.4492  0.7572  4.3305
 1928SOL    HW217418   2.052   2.467   5.470 -1.0668 -2.6531 -2.7935
 1929SOL     OW17419   2.515   0.182   5.750  0.0603 -0.4629 -0.4807
 1929SOL    HW117420   2.538   0.271   5.777  0.6722 -1.5682  2.5917
 1929SOL    HW217421   2.440   0.211   5.697  1.1005  0.7601 -1.3042
 1930SOL     OW17422   4.284   1.387   5.695 -0.1685 -0.1786  0.5472
 1930SOL    HW117423   4.305   1.465   5.746 -0.8946  0.9943 -0.9446
 1930SOL    HW217424   4.331   1.313   5.733 -1.6234 -0.6676  1.3895
 1931SOL     OW17425   1.083   4.335   9.096  0.0660 -0.5432 -0.1717
 1931SOL    HW117426   0.995   4.369   9.080 -0.4284 -0.3114  2.9852
 1931SOL    HW217427   1.050   4.262   9.148  1.1145 -1.5769 -0.9745
 1932SOL     OW17428   3.817   3.754   6.476  0.1546 -0.0928  0.9440
 1932SOL    HW117429   3.831   3.824   6.412  1.6775 -1.7874 -0.5681
 1932SOL    HW217430   3.902   3.713   6.489 -0.3603 -0.9100  1.7034
 1933SOL     OW17431   0.167   3.234   7.643 -0.3423  0.1440  0.8457
 1933SOL    HW117432   0.231   3.188   7.588 -0.9641  0.7691 -0.4027
 1933SOL    HW217433   0.108   3.275   7.580  1.4687 -0.6017 -1.3658
 1934SOL     OW17434   3.273   1.294   7.611 -0.2439 -0.6514 -0.1935
 1934SOL    HW117435   3.318   1.315   7.529  0.5055 -1.2715  0.0522
 1934SOL    HW217436   3.230   1.375   7.637 -1.1166 -1.1335 -0.1322
 1935SOL     OW17437   2.515   2.075  10.812 -0.0633  0.0327  0.3862
 1935SOL    HW117438   2.514   1.983  10.836 -0.5801 -0.8547 -3.0650
 1935SOL    HW217439   2.441   2.075  10.752  0.0775 -0.2766  0.2107
 1936SOL     OW17440   3.529   3.760   4.080 -0.1239  0.4374  0.0876
 1936SOL    HW117441   3.434   3.774   4.079  0.0409  1.6175  1.7539
 1936SOL    HW217442   3.528   3.672   4.118  2.6243  0.0661 -0.7198
 1937SOL     OW17443   0.756   1.597   7.379 -0.1714 -0.1869 -0.0059
 1937SOL    HW117444   0.720   1.519   7.339  2.2188 -0.7660 -1.0558
 1937SOL    HW217445   0.736   1.598   7.472 -0.7805 -1.4273 -0.1234
 1938SOL     OW17446   0.007   3.881   1.393 -0.0014 -0.0121 -0.3249
 1938SOL    HW117447   4.670   3.905   1.454 -2.1244 -2.9808 -1.5858
 1938SOL    HW217448   0.025   3.788   1.408 -1.5445 -0.7156 -2.7922
 1939SOL     OW17449   0.441   3.330  12.265  0.2855  0.4667 -0.4040
 1939SOL    HW117450   0.533   3.312  12.280  0.4083  1.4919  0.0991
 1939SOL    HW217451   0.444   3.419  12.229  1.6627 -0.0497 -1.5400
 1940SOL     OW17452   4.049   4.380   3.437  0.2150  0.3979  0.7821
 1940SOL    HW117453   4.016   4.400   3.524 -0.9363  1.0568  0.1859
 1940SOL    HW217454   4.120   4.316   3.448 -1.3294 -1.1635  1.5023
 1941SOL     OW17455   3.650   3.679  12.121  0.3621 -0.2682 -0.6182
 1941SOL    HW117456   3.708   3.641  12.054  1.2888  0.9422 -0.4992
 1941SOL    HW217457   3.638   3.602  12.178  0.0836  0.6781  0.6031
 1942SOL     OW17458   1.497   4.304   5.760 -0.3372 -0.6825  0.4578
 1942SOL    HW117459   1.459   4.271   5.842 -4.0656 -2.4153 -1.9922
 1942SOL    HW217460   1.444   4.253   5.698 -2.2538  0.2723  1.3167
 1943SOL     OW17461   0.709   1.085  16.011 -0.2837  0.1636  0.0523
 1943SOL    HW117462   0.794   1.104  16.051  0.9826  1.8862 -3.4872
 1943SOL    HW217463   0.685   1.006  16.061  0.6599  0.6213  1.2320
 1944SOL     OW17464   0.033   3.313   3.932 -0.2542 -0.2146  0.8418
 1944SOL    HW117465   0.084   3.286   4.009  1.6120  1.4410  0.2001
 1944SOL    HW217466   4.722   3.233   3.904  1.8807 -0.8663 -0.5924
 1945SOL     OW17467   2.959   2.157   8.160  0.4011  0.1439  0.1713
 1945SOL    HW117468   3.012   2.198   8.229  1.9408  0.2158 -1.0594
 1945SOL    HW217469   2.891   2.221   8.138 -0.7308 -0.8203  0.8163
 1946SOL     OW17470   2.721   2.190   5.919 -0.4184  0.6558 -0.3676
 1946SOL    HW117471   2.754   2.200   6.008  0.6214  3.2007 -1.0259
 1946SOL    HW217472   2.628   2.173   5.930 -0.1877  0.0170  0.5122
 1947SOL     OW17473   0.871   0.086   5.264  0.1041  0.9949 -0.0064
 1947SOL    HW117474   0.864   0.182   5.258 -2.6346  0.6958 -1.9118
 1947SOL    HW217475   0.917   0.070   5.181 -2.3264 -0.7305 -1.0157
 1948SOL     OW17476   1.716   3.408   2.239  0.4649 -0.5205 -0.2207
 1948SOL    HW117477   1.724   3.493   2.281 -0.3103  0.2330 -1.6101
 1948SOL    HW217478   1.719   3.435   2.148 -0.9566  1.3686  0.3033
 1949SOL     OW17479   0.182   3.529  13.974 -0.2793 -0.2598  0.5572
 1949SOL    HW117480   0.105   3.553  14.026 -0.4682 -1.6528  0.9025
 1949SOL    HW217481   0.145   3.451  13.932 -0.1217 -0.0464  0.0198
 1950SOL     OW17482   4.576   1.833   3.308  0.1013 -0.3321 -0.4511
 1950SOL    HW117483   4.630   1.800   3.380  1.1707  0.4567 -0.9081
 1950SOL    HW217484   4.579   1.926   3.334  2.7430 -0.1971 -1.3181
 1951SOL     OW17485   1.013   1.706  11.825 -0.7928 -0.1622 -0.1019
 1951SOL    HW117486   0.971   1.634  11.872  0.5744 -1.2043 -0.4969
 1951SOL    HW217487   1.090   1.728  11.877 -0.7185  0.5621 -0.5218
 1952SOL     OW17488   3.584   1.633  15.697 -0.0636  0.0990 -0.2912
 1952SOL    HW117489   3.637   1.709  15.719 -1.6713  0.6209  1.7645
 1952SOL    HW217490   3.514   1.642  15.761  0.2205  1.9025 -0.2481
 1953SOL     OW17491   2.037   4.167  17.386  0.2031 -0.4840  0.3226
 1953SOL    HW117492   2.059   4.207  17.302 -2.9761  1.2780  0.3056
 1953SOL    HW217493   1.957   4.215  17.408 -0.5626 -2.2293  1.3609
 1954SOL     OW17494   3.258   3.089   2.040  0.2044 -0.6475  0.9293
 1954SOL    HW117495   3.288   3.078   1.950 -2.4640 -1.4841  0.1424
 1954SOL    HW217496   3.164   3.085   2.026  0.3064  0.3998 -0.1023
 1955SOL     OW17497   1.801   0.283   8.047 -0.3422 -0.4049  0.1578
 1955SOL    HW117498   1.769   0.263   8.135 -1.5511 -0.4520 -0.2922
 1955SOL    HW217499   1.754   0.365   8.032  0.9274  0.5366  1.2802
 1956SOL     OW17500   4.406   4.505  12.276  0.3677  0.1299  0.1157
 1956SOL    HW117501   4.347   4.549  12.215  1.9052  2.9035  0.6191
 1956SOL    HW217502   4.482   4.490  12.219 -0.2153 -0.1471 -0.5858
 1957SOL     OW17503   4.180   4.625  10.332 -0.5736  0.5758  0.2102
 1957SOL    HW117504   4.128   4.566  10.277  1.5090 -0.9262 -0.1182
 1957SOL    HW217505   4.215   4.686  10.267  0.9218  0.9679  1.3924
 1958SOL     OW17506   1.171   0.661   0.281  0.5056  0.1858 -0.1768
 1958SOL    HW117507   1.198   0.617   0.362 -2.1962  0.4540  0.8805
 1958SOL    HW217508   1.212   0.745   0.303  0.1351  0.5204 -0.7755
 1959SOL     OW17509   2.189   1.558  14.034  0.2087 -0.3791  0.4829
 1959SOL    HW117510   2.275   1.540  14.072  0.7618 -0.1197 -0.6520
 1959SOL    HW217511   2.150   1.472  14.050 -0.1386 -0.4213 -0.6092
 1960SOL     OW17512   3.396   3.638   3.187  0.5344  0.1682  0.0154
 1960SOL    HW117513   3.442   3.632   3.103 -0.4367 -0.0181 -0.5128
 1960SOL    HW217514   3.376   3.731   3.184 -1.7736 -0.3728 -1.6738
 1961SOL     OW17515   1.744   3.594  11.448  0.4422 -0.2255 -0.1144
 1961SOL    HW117516   1.675   3.570  11.510 -1.5281 -1.1789 -2.6874
 1961SOL    HW217517   1.817   3.540  11.480  0.9258  0.4247 -0.1159
 1962SOL     OW17518   0.382   1.782   6.577 -0.0497  0.5714 -0.0800
 1962SOL    HW117519   0.449   1.729   6.621 -0.4626 -0.4448 -0.6827
 1962SOL    HW217520   0.436   1.856   6.547  1.6596 -0.7583 -0.2997
 1963SOL     OW17521   1.905   3.017  12.679  0.0879 -0.0185 -0.4304
 1963SOL    HW117522   1.975   3.006  12.744  0.8263  1.0260 -1.0608
 1963SOL    HW217523   1.900   3.112  12.679 -1.9711 -0.1381  0.8516
 1964SOL     OW17524   4.575   3.938   1.593  0.1105 -0.0967  0.4755
 1964SOL    HW117525   4.541   4.026   1.574 -0.4855  0.0478  2.2234
 1964SOL    HW217526   4.494   3.908   1.634 -1.3430  1.4514 -1.2610
 1965SOL     OW17527   4.207   3.609   4.291  0.0091  0.2786  0.2743
 1965SOL    HW117528   4.219   3.687   4.238  1.0108  1.8600  2.8301
 1965SOL    HW217529   4.253   3.623   4.374  0.9214  0.2223 -0.2266
 1966SOL     OW17530   0.389   4.128   7.892 -0.2326 -0.1426 -0.1388
 1966SOL    HW117531   0.392   4.198   7.958  4.4175 -1.3572  1.0084
 1966SOL    HW217532   0.437   4.058   7.938  0.3426 -0.2409 -0.8847
 1967SOL     OW17533   3.364   2.135   8.908 -0.1490 -0.4819 -0.5002
 1967SOL    HW117534   3.429   2.067   8.891  1.3847  0.5446  1.3028
 1967SOL    HW217535   3.385   2.205   8.845  1.1046  1.0740  1.6597
 1968SOL     OW17536   3.022   2.600  13.406 -0.0891 -0.1944  0.0283
 1968SOL    HW117537   3.095   2.561  13.358  2.0596  4.4684 -0.4831
 1968SOL    HW217538   3.068   2.629  13.485 -0.0200 -1.2168  0.3630
 1969SOL     OW17539   0.829   0.357   5.355  0.1227  0.0951 -0.1317
 1969SOL    HW117540   0.913   0.401   5.348 -0.5949  1.0099 -2.8042
 1969SOL    HW217541   0.792   0.408   5.427  2.6734  2.4340 -0.5011
 1970SOL     OW17542   2.002   2.422   5.149 -0.1302  0.4638  0.0684
 1970SOL    HW117543   1.997   2.379   5.235 -2.2160  2.0505  0.7421
 1970SOL    HW217544   2.010   2.514   5.173  1.8974  0.3424 -0.1373
 1971SOL     OW17545   1.018   0.727   5.075 -0.2943 -0.2244 -0.0315
 1971SOL    HW117546   0.927   0.735   5.103  0.0915  1.9175  0.6064
 1971SOL    HW217547   1.032   0.812   5.033  0.0157 -0.4919 -0.4542
 1972SOL     OW17548   3.162   1.356   4.962  0.7074 -0.2422 -0.4589
 1972SOL    HW117549   3.147   1.399   4.878 -0.2239 -0.8719 -0.6193
 1972SOL    HW217550   3.115   1.273   4.947  0.4457  0.2014 -2.0876
 1973SOL     OW17551   0.008   4.615  17.556  0.0988  0.3408  0.2276
 1973SOL    HW117552   0.058   4.558  17.497  0.6067  0.5823  0.4259
 1973SOL    HW217553   4.665   4.560  17.577  2.0885 -2.1453  0.9192
 1974SOL     OW17554   1.743   1.710   3.470 -0.1924  0.1169 -0.4707
 1974SOL    HW117555   1.723   1.787   3.416 -1.2299 -1.2905 -2.0698
 1974SOL    HW217556   1.656   1.676   3.487  0.1947 -0.9105 -0.5232
 1975SOL     OW17557   1.740   4.305   6.194 -0.4915  0.3318 -0.1127
 1975SOL    HW117558   1.740   4.373   6.126 -0.8578 -0.1751 -0.6163
 1975SOL    HW217559   1.732   4.373   6.261 -0.0958  0.5056 -0.2360
 1976SOL     OW17560   4.659   1.268   9.892  0.2020  0.0464 -0.1316
 1976SOL    HW117561   4.590   1.266   9.826 -1.0616 -0.3678  1.2136
 1976SOL    HW217562   4.652   1.360   9.915  0.5420  0.2680 -0.9331
 1977SOL     OW17563   2.582   2.954  16.863  0.2477  0.3732 -0.4058
 1977SOL    HW117564   2.570   2.909  16.947  0.3495  3.0702  1.0436
 1977SOL    HW217565   2.499   2.933  16.820  0.1758  0.3867 -0.2727
 1978SOL     OW17566   0.809   1.765   9.263 -0.0663  0.2933 -0.2818
 1978SOL    HW117567   0.901   1.791   9.252 -0.7213  2.4622 -0.6962
 1978SOL    HW217568   0.818   1.684   9.214  2.5227  1.0277 -1.0459
 1979SOL     OW17569   2.492   0.961   6.183 -0.2903 -1.0275  0.4998
 1979SOL    HW117570   2.459   1.048   6.161  1.5767 -0.3036  0.6157
 1979SOL    HW217571   2.461   0.946   6.273 -1.1418  2.1786  0.7482
 1980SOL     OW17572   1.986   3.321   2.133  0.1235  0.3296  0.1953
 1980SOL    HW117573   1.951   3.410   2.131 -0.8154 -0.0939 -2.4135
 1980SOL    HW217574   1.956   3.302   2.222 -0.8875  1.2193  0.0410
 1981SOL     OW17575   1.915   2.824  15.849  0.7050 -1.0732  0.1390
 1981SOL    HW117576   1.885   2.750  15.796 -0.0986 -0.1107 -0.7414
 1981SOL    HW217577   2.006   2.802  15.870 -0.1010 -2.5588  2.0310
 1982SOL     OW17578   1.733   1.079   6.226  0.3258 -0.1844 -0.0848
 1982SOL    HW117579   1.768   1.041   6.146  0.3531 -1.2880  0.4554
 1982SOL    HW217580   1.683   1.004   6.259  0.0772 -0.4649 -1.0978
 1983SOL     OW17581   1.781   1.259   4.490  0.0516  0.2104 -0.1513
 1983SOL    HW117582   1.724   1.324   4.449 -0.1504  0.5179  0.6178
 1983SOL    HW217583   1.848   1.319   4.520  0.5730 -0.6589  0.4421
 1984SOL     OW17584   3.816   3.127   8.040 -0.6484 -0.6899  0.1897
 1984SOL    HW117585   3.839   3.045   8.083 -0.7011 -0.0723  1.4038
 1984SOL    HW217586   3.805   3.094   7.951 -0.3811  1.5055 -0.6461
 1985SOL     OW17587   0.246   1.492   8.625  0.3932  0.3932  0.0375
 1985SOL    HW117588   0.235   1.515   8.717 -0.6118 -0.0140  0.0160
 1985SOL    HW217589   0.314   1.553   8.596 -0.1867  1.5570  1.1689
 1986SOL     OW17590   2.146   3.423  13.874 -0.2639 -0.7150 -0.3623
 1986SOL    HW117591   2.228   3.435  13.826  0.3090  2.5125  1.4329
 1986SOL    HW217592   2.113   3.513  13.882 -0.3705 -0.6893 -1.0773
 1987SOL     OW17593   2.185   1.073  10.966 -0.0777  0.1579  0.4088
 1987SOL    HW117594   2.151   1.134  11.032  0.1633 -2.2832  2.8070
 1987SOL    HW217595   2.107   1.018  10.953 -0.1408 -0.4344  3.2902
 1988SOL     OW17596   3.509   3.344  16.579  0.2673 -0.1919 -0.0122
 1988SOL    HW117597   3.447   3.363  16.649 -0.3361 -0.0079 -0.5891
 1988SOL    HW217598   3.575   3.409  16.602  0.4053 -0.6642  0.9053
 1989SOL     OW17599   1.590   4.239   7.990 -0.4638 -0.2535 -0.1622
 1989SOL    HW117600   1.641   4.303   8.039 -1.3964  0.3140  0.0699
 1989SOL    HW217601   1.597   4.276   7.902  0.4446  1.4898  0.6418
 1990SOL     OW17602   3.455   2.017   1.941 -0.2518 -1.2063  0.5974
 1990SOL    HW117603   3.431   2.069   2.018  3.6013 -2.1286  2.4072
 1990SOL    HW217604   3.481   2.092   1.887  0.2455 -1.5290  0.3892
 1991SOL     OW17605   1.143   3.788   4.029  0.6524 -0.3587 -0.0114
 1991SOL    HW117606   1.098   3.746   3.956 -0.2799  1.8525 -0.7060
 1991SOL    HW217607   1.178   3.708   4.069  0.0229 -1.9115 -2.5568
 1992SOL     OW17608   0.274   0.060   0.134  0.0174  0.2866 -0.8497
 1992SOL    HW117609   0.328   0.010   0.073 -0.4338 -0.8743 -0.3000
 1992SOL    HW217610   0.203   0.085   0.075 -1.1291 -0.2592  0.2822
 1993SOL     OW17611   2.932   4.467   5.312  0.1456 -0.3675  0.4710
 1993SOL    HW117612   2.867   4.510   5.256  0.4287 -0.1980  0.2731
 1993SOL    HW217613   2.978   4.535   5.361  0.8249 -1.3448  1.1759
 1994SOL     OW17614   2.285   0.758   1.267  0.7758 -0.1540  0.4970
 1994SOL    HW117615   2.332   0.776   1.185  0.9816  1.2376  0.9194
 1994SOL    HW217616   2.352   0.784   1.330  0.8011 -0.7556  0.7231
 1995SOL     OW17617   4.335   2.722  15.042  0.4713  0.5298 -0.3949
 1995SOL    HW117618   4.246   2.686  15.043  1.4824 -1.9343  1.2735
 1995SOL    HW217619   4.319   2.801  15.094  1.1513 -0.1584  0.8631
 1996SOL     OW17620   0.984   2.071   4.150 -0.1748 -0.2241  0.8105
 1996SOL    HW117621   0.898   2.035   4.172 -0.2589 -2.4414 -3.0749
 1996SOL    HW217622   0.996   2.030   4.064 -0.4594  1.0191  0.1903
 1997SOL     OW17623   0.406   0.822   8.188  0.6721 -0.5827  0.1695
 1997SOL    HW117624   0.402   0.849   8.280  1.3388 -0.9736  0.3137
 1997SOL    HW217625   0.465   0.891   8.159  0.3596 -0.5078 -0.2893
 1998SOL     OW17626   2.371   2.664   5.845 -0.2114  0.0708 -0.5707
 1998SOL    HW117627   2.380   2.700   5.933  0.4282 -2.2013  0.2830
 1998SOL    HW217628   2.402   2.574   5.856 -1.9943 -0.5619 -0.6165
 1999SOL     OW17629   2.064   1.787   6.896 -0.5203  0.4866 -0.1309
 1999SOL    HW117630   2.094   1.875   6.873 -0.5114  0.3799 -0.5218
 1999SOL    HW217631   1.976   1.775   6.861  0.8227  0.3715 -3.4519
 2000SOL     OW17632   0.798   1.268   2.323 -0.3297  0.2701  0.4027
 2000SOL    HW117633   0.752   1.299   2.401 -1.0743  0.2939 -0.0491
 2000SOL    HW217634   0.771   1.178   2.308 -1.1190  0.3728  1.1921
 2001SOL     OW17635   4.609   1.950   1.635  0.5808  0.2398 -1.0488
 2001SOL    HW117636   4.685   1.895   1.617 -1.1759 -1.6616 -2.6275
 2001SOL    HW217637   4.651   2.014   1.692  3.1879 -1.9465 -0.5013
 2002SOL     OW17638   0.139   4.254   4.269  0.0658  0.3198 -0.4568
 2002SOL    HW117639   0.133   4.332   4.215  2.2476  0.0458 -1.0914
 2002SOL    HW217640   0.230   4.230   4.253  0.9746  3.7827 -0.4726
 2003SOL     OW17641   3.099   0.810  11.142  0.2687  0.0588  0.5356
 2003SOL    HW117642   3.195   0.811  11.137  0.2102  1.7743 -0.3117
 2003SOL    HW217643   3.094   0.796  11.236 -3.4786  0.1150  0.3278
 2004SOL     OW17644   2.007   0.614   1.754  0.7675  0.2202  0.0612
 2004SOL    HW117645   1.924   0.652   1.783 -0.0543 -0.0920 -1.8962
 2004SOL    HW217646   2.072   0.633   1.823  0.7856 -0.7532  0.3116
 2005SOL     OW17647   4.368   0.872   8.156  0.1623  0.7764  0.3987
 2005SOL    HW117648   4.421   0.949   8.175 -2.4114  3.2465 -2.4031
 2005SOL    HW217649   4.282   0.904   8.183 -0.6923 -0.9861 -0.2597
 2006SOL     OW17650   2.078   0.234  14.331 -0.2509  0.8503 -0.1884
 2006SOL    HW117651   2.000   0.244  14.276 -0.7553 -2.1889 -0.0479
 2006SOL    HW217652   2.042   0.169  14.392  1.8910  1.7429  2.0203
 2007SOL     OW17653   2.572   3.397   8.563 -0.6175  0.0442 -0.6081
 2007SOL    HW117654   2.617   3.472   8.601  2.8580 -1.6811 -1.3321
 2007SOL    HW217655   2.554   3.435   8.477  1.1389  0.5049 -0.7697
 2008SOL     OW17656   3.192   3.706   4.457  0.5759  0.0432 -0.2136
 2008SOL    HW117657   3.253   3.684   4.387  3.1949  0.5915  1.8810
 2008SOL    HW217658   3.230   3.786   4.493  0.9181  0.7431 -2.1665
 2009SOL     OW17659   2.267   4.630   3.775  0.4362  0.1311 -0.0541
 2009SOL    HW117660   2.293   4.697   3.838 -0.5320  0.1084  0.3730
 2009SOL    HW217661   2.192   4.595   3.824 -0.2309  1.0566 -0.4159
 2010SOL     OW17662   0.216   0.939   2.411  0.4038 -0.4952  0.5445
 2010SOL    HW117663   0.258   0.926   2.496  0.2305  0.1986  0.7369
 2010SOL    HW217664   0.140   0.885   2.431 -0.3456 -0.4183 -2.1631
 2011SOL     OW17665   1.166   1.032   3.721 -0.2524  0.6101  0.0574
 2011SOL    HW117666   1.208   1.084   3.790 -2.4382  0.8848  1.1589
 2011SOL    HW217667   1.236   0.994   3.667 -0.4679 -0.7725  0.7507
 2012SOL     OW17668   1.493   2.208   4.215 -0.8354 -0.2615  0.9459
 2012SOL    HW117669   1.410   2.159   4.210 -0.7396 -0.6033  2.5784
 2012SOL    HW217670   1.463   2.298   4.227 -0.3549 -0.0277  0.4063
 2013SOL     OW17671   4.068   0.187   3.264  0.4549 -0.0186 -0.6089
 2013SOL    HW117672   3.999   0.177   3.198  0.9469  1.0303 -1.2623
 2013SOL    HW217673   4.142   0.153   3.214  1.6316  0.0207  1.1031
 2014SOL     OW17674   3.908   4.271   3.146 -0.4376  0.3719  0.3366
 2014SOL    HW117675   3.839   4.208   3.167  2.2280 -2.7803 -0.3449
 2014SOL    HW217676   3.878   4.353   3.185 -2.1164 -0.0492 -0.0620
 2015SOL     OW17677   0.768   0.370  10.546 -0.2524 -0.0079 -0.1412
 2015SOL    HW117678   0.783   0.452  10.594  1.7056 -0.2256 -0.3878
 2015SOL    HW217679   0.682   0.355  10.584  0.3273 -1.8724  0.4364
 2016SOL     OW17680   2.870   3.467   2.937  0.1061 -0.2166 -0.7227
 2016SOL    HW117681   2.781   3.436   2.948 -0.1568  0.8559  0.1382
 2016SOL    HW217682   2.857   3.558   2.965 -0.9697 -0.8404  0.7832
 2017SOL     OW17683   3.552   2.509  14.817 -0.1243 -0.1470 -0.9486
 2017SOL    HW117684   3.567   2.432  14.763 -0.0418  0.2194 -1.4475
 2017SOL    HW217685   3.641   2.538  14.835  0.2998 -1.7799 -0.4436
 2018SOL     OW17686   0.456   2.276   3.373 -0.3237 -0.3564  0.0015
 2018SOL    HW117687   0.509   2.263   3.295  1.8873  0.8365  1.2800
 2018SOL    HW217688   0.427   2.367   3.366 -0.6963 -0.3576  1.5540
 2019SOL     OW17689   0.012   0.115   1.691  0.9742 -0.1260  0.3402
 2019SOL    HW117690   0.087   0.072   1.732  2.3632  0.9418 -1.0842
 2019SOL    HW217691   0.038   0.207   1.694 -0.3674  0.2985 -0.8162
 2020SOL     OW17692   1.179   1.378  14.517  0.1433  0.3228 -0.0342
 2020SOL    HW117693   1.159   1.286  14.532  2.7446 -0.0691  1.0842
 2020SOL    HW217694   1.269   1.400  14.544 -0.0574 -0.4653  1.2972
 2021SOL     OW17695   2.270   1.214   8.565  0.5132  0.1688 -0.6456
 2021SOL    HW117696   2.328   1.286   8.540 -0.9800  1.7083  0.3558
 2021SOL    HW217697   2.187   1.249   8.532  0.8522  0.5879 -1.0623
 2022SOL     OW17698   4.516   3.641   4.920 -0.0041  0.0530  0.0809
 2022SOL    HW117699   4.470   3.560   4.896  0.0612  0.5279 -1.6257
 2022SOL    HW217700   4.524   3.693   4.840 -0.7411 -2.3231 -1.5388
 2023SOL     OW17701   2.046   1.289   5.670  0.5095 -0.8156  0.1521
 2023SOL    HW117702   2.089   1.210   5.703  2.0300 -0.9039 -2.1056
 2023SOL    HW217703   2.067   1.285   5.577  3.0772  1.4284  0.6532
 2024SOL     OW17704   1.525   0.334   6.825  0.2143 -1.2431  0.1295
 2024SOL    HW117705   1.456   0.269   6.808 -0.0074 -0.0320 -3.5978
 2024SOL    HW217706   1.595   0.287   6.870  0.0631 -0.5315  1.0990
 2025SOL     OW17707   1.281   4.146  13.757 -0.5617  0.1078  0.1395
 2025SOL    HW117708   1.234   4.063  13.766 -2.4197  1.1401  0.0391
 2025SOL    HW217709   1.221   4.208  13.799 -2.8741 -1.0408 -1.4638
 2026SOL     OW17710   0.162   1.081   8.884 -0.0278 -0.1905 -0.3756
 2026SOL    HW117711   0.172   1.001   8.833  0.6034 -1.4985  1.7942
 2026SOL    HW217712   0.101   1.136   8.835 -0.3587 -0.5007 -0.3134
 2027SOL     OW17713   3.516   0.586   9.146 -0.5229 -0.2926  0.5700
 2027SOL    HW117714   3.500   0.589   9.240 -0.4873  0.6853  0.5479
 2027SOL    HW217715   3.476   0.505   9.115  0.9920 -1.3745  1.4479
 2028SOL     OW17716   3.440   1.376   7.373  0.3322  0.4665  0.0780
 2028SOL    HW117717   3.529   1.362   7.405  0.3559  0.2782 -0.0722
 2028SOL    HW217718   3.424   1.287   7.343  1.1451  0.5423 -0.5756
 2029SOL     OW17719   2.501   1.046   6.723 -0.3602 -0.0579 -0.2650
 2029SOL    HW117720   2.446   0.981   6.679 -2.1833  0.5787  1.1169
 2029SOL    HW217721   2.507   1.107   6.649 -0.4892  0.6479  0.3072
 2030SOL     OW17722   0.589   4.532   7.911  0.2430 -0.2169  0.8863
 2030SOL    HW117723   0.681   4.526   7.937  1.1843 -0.3025 -2.4609
 2030SOL    HW217724   0.584   4.627   7.904  0.6349 -0.2870 -0.4638
 2031SOL     OW17725   4.100   4.405  10.676  0.5169  0.3898 -0.1733
 2031SOL    HW117726   4.190   4.436  10.660  0.9504  0.2320  1.9422
 2031SOL    HW217727   4.072   4.480  10.729  1.1410  0.3563  0.2142
 2032SOL     OW17728   4.675   3.755  13.888 -0.2886  0.2682 -0.3290
 2032SOL    HW117729   4.650   3.834  13.936  0.4982  0.9239 -0.9933
 2032SOL    HW217730   4.671   3.686  13.954 -2.7017 -0.3341 -1.1266
 2033SOL     OW17731   3.938   0.312  10.302 -0.5538 -0.4210 -0.0693
 2033SOL    HW117732   3.860   0.358  10.335  0.2516  1.9260 -1.3990
 2033SOL    HW217733   3.999   0.334  10.372  0.5049 -0.0861 -1.1069
 2034SOL     OW17734   0.632   3.004   7.307  0.7642 -0.8592  0.0433
 2034SOL    HW117735   0.566   2.935   7.317 -1.8514  1.2236 -2.9270
 2034SOL    HW217736   0.577   3.058   7.250  2.8863  0.7888 -0.4056
 2035SOL     OW17737   0.623   1.126  13.829 -0.0730  0.2455 -0.1389
 2035SOL    HW117738   0.562   1.167  13.768  1.9250 -0.7512 -2.7744
 2035SOL    HW217739   0.602   1.178  13.907 -0.6354 -1.4979  0.8772
 2036SOL     OW17740   0.958   2.421  17.102  0.6653 -0.1213  0.4588
 2036SOL    HW117741   1.037   2.430  17.156  0.4450  1.8208  0.4270
 2036SOL    HW217742   0.935   2.328  17.101  0.9183 -0.1745 -0.2698
 2037SOL     OW17743   2.365   0.168   7.918  0.3008 -0.0195 -0.2146
 2037SOL    HW117744   2.416   0.236   7.874 -1.0758 -0.3538 -2.3407
 2037SOL    HW217745   2.336   0.215   7.996  0.7304  0.5145 -0.3731
 2038SOL     OW17746   3.418   2.593   1.663  0.0224 -0.4822 -0.6213
 2038SOL    HW117747   3.477   2.658   1.701  2.2667 -2.0409 -1.4881
 2038SOL    HW217748   3.393   2.655   1.595  1.2781  2.1161  1.2916
 2039SOL     OW17749   3.588   0.436   8.466  0.4604  0.0106  0.2256
 2039SOL    HW117750   3.587   0.508   8.403 -0.2207 -1.3696 -1.3107
 2039SOL    HW217751   3.678   0.406   8.455  0.2717 -0.5714  0.3141
 2040SOL     OW17752   0.848   0.133   7.959 -0.1683  0.5988 -0.0157
 2040SOL    HW117753   0.935   0.161   7.931  0.9853 -0.4592  2.5032
 2040SOL    HW217754   0.835   0.176   8.044 -0.7369 -1.1114  0.7625
 2041SOL     OW17755   1.003   2.315   5.592 -0.4103  0.4547  0.8338
 2041SOL    HW117756   1.059   2.315   5.515 -0.3535  0.1697  0.8744
 2041SOL    HW217757   0.972   2.406   5.586 -0.1392  0.5934  1.4861
 2042SOL     OW17758   3.573   1.529  12.074  0.2171  0.1494  0.0492
 2042SOL    HW117759   3.572   1.622  12.098 -0.2852  0.0202  0.5147
 2042SOL    HW217760   3.645   1.511  12.013 -2.6459 -1.4558 -2.8219
 2043SOL     OW17761   1.974   2.887  10.312  0.4768 -0.5066 -0.3516
 2043SOL    HW117762   2.002   2.868  10.402  0.6514 -1.3917 -0.5983
 2043SOL    HW217763   1.996   2.980  10.313 -1.1838 -0.1211  1.5088
 2044SOL     OW17764   2.133   0.572   5.289  0.5048 -0.2642 -0.5679
 2044SOL    HW117765   2.125   0.643   5.225  1.1228 -0.0391 -0.3902
 2044SOL    HW217766   2.039   0.553   5.296  0.7796 -1.4005 -0.0160
 2045SOL     OW17767   3.538   2.800   8.078  0.4588 -0.2017  0.7575
 2045SOL    HW117768   3.518   2.881   8.031 -0.3460  0.2338  1.8524
 2045SOL    HW217769   3.572   2.750   8.003  1.8917  0.3741  1.0186
 2046SOL     OW17770   0.601   4.332  14.707  0.0204 -0.4367  0.0688
 2046SOL    HW117771   0.536   4.330  14.637  0.4017 -0.1655 -0.2926
 2046SOL    HW217772   0.564   4.405  14.757 -1.1649 -1.8320  1.2313
 2047SOL     OW17773   1.480   4.265   2.004  0.0825 -0.2748 -0.1101
 2047SOL    HW117774   1.516   4.353   2.003  1.4906 -0.8256  1.9029
 2047SOL    HW217775   1.560   4.213   1.995  0.2818  0.1858 -0.9898
 2048SOL     OW17776   3.275   3.476   7.985  0.3915 -0.5614  0.2079
 2048SOL    HW117777   3.193   3.480   8.035  0.4180 -1.0245  0.2857
 2048SOL    HW217778   3.335   3.521   8.046  0.0290  0.1833  0.0208
 2049SOL     OW17779   1.876   3.376  14.143 -0.1212  0.3717  0.1460
 2049SOL    HW117780   1.792   3.331  14.138  0.0194  0.1311 -0.1208
 2049SOL    HW217781   1.907   3.354  14.055  3.1275  0.7429  1.1817
 2050SOL     OW17782   3.929   1.505  12.311  0.1848  0.2878  0.3842
 2050SOL    HW117783   3.912   1.472  12.399  2.1261  0.1425  0.7243
 2050SOL    HW217784   3.847   1.553  12.303  0.8559  1.7939  2.5089
 2051SOL     OW17785   2.852   2.506  14.513 -0.2467  0.1561 -0.2783
 2051SOL    HW117786   2.870   2.426  14.463  1.2869  0.1131  0.3309
 2051SOL    HW217787   2.807   2.480  14.593 -0.7249 -0.4778 -0.7558
 2052SOL     OW17788   0.377   4.445   0.553 -0.0513 -0.0223 -0.3157
 2052SOL    HW117789   0.318   4.380   0.590 -1.7269  0.2536 -2.5028
 2052SOL    HW217790   0.322   4.517   0.522 -1.1601 -1.8089 -2.4579
 2053SOL     OW17791   4.482   4.276   8.111  0.1482 -0.1696 -0.4575
 2053SOL    HW117792   4.466   4.364   8.146 -2.4808 -1.0636  0.5808
 2053SOL    HW217793   4.441   4.218   8.175  1.1864  0.5462  0.8484
 2054SOL     OW17794   3.524   0.683   7.367 -0.0859  0.6133 -0.1803
 2054SOL    HW117795   3.450   0.695   7.427 -0.7946  0.7947 -1.0996
 2054SOL    HW217796   3.535   0.588   7.363 -2.2611  0.3296  0.5200
 2055SOL     OW17797   3.940   1.685  15.872 -0.1486  0.1188  0.0512
 2055SOL    HW117798   3.989   1.737  15.808 -2.4742 -0.2462 -2.0309
 2055SOL    HW217799   3.853   1.713  15.845  1.0456  3.8999  0.1309
 2056SOL     OW17800   4.353   1.627  10.419  0.0783  0.4708 -0.3561
 2056SOL    HW117801   4.400   1.592  10.494 -0.8507 -1.2587 -0.5897
 2056SOL    HW217802   4.282   1.563  10.423 -1.4311  2.2467  1.1010
 2057SOL     OW17803   4.417   0.202   1.357  0.1622 -0.3162  0.1449
 2057SOL    HW117804   4.325   0.177   1.358  0.2850 -0.7635 -0.0055
 2057SOL    HW217805   4.408   0.278   1.299  1.4009  1.0739  1.7552
 2058SOL     OW17806   3.730   3.579   9.430  0.6472 -0.3158 -0.0939
 2058SOL    HW117807   3.684   3.601   9.511 -0.5496 -1.5008 -0.4586
 2058SOL    HW217808   3.770   3.495   9.456  1.2724  0.1381  0.4205
 2059SOL     OW17809   3.724   2.719  14.533  0.0058  0.1525 -0.0736
 2059SOL    HW117810   3.760   2.793  14.483 -0.3940  0.4525  0.0900
 2059SOL    HW217811   3.641   2.754  14.565  0.2930  0.5730  0.2159
 2060SOL     OW17812   1.806   3.837   0.896  0.4340  0.5199  0.0006
 2060SOL    HW117813   1.760   3.823   0.979  0.5584 -1.5489 -0.2776
 2060SOL    HW217814   1.833   3.929   0.900  0.5449  0.4254  1.4050
 2061SOL     OW17815   0.810   0.385  16.526  0.7000  0.2830 -0.0743
 2061SOL    HW117816   0.812   0.478  16.505 -1.2534  1.1968  3.8043
 2061SOL    HW217817   0.786   0.350  16.440  2.4650 -0.4672 -0.2690
 2062SOL     OW17818   4.554   1.520  17.266  0.5139  0.4802 -0.0952
 2062SOL    HW117819   4.630   1.558  17.221  1.1744  0.1821  0.7547
 2062SOL    HW217820   4.557   1.560  17.353 -1.1901 -1.5779  0.9039
 2063SOL     OW17821   3.106   3.068   8.987 -0.0054  0.2808  0.2543
 2063SOL    HW117822   3.107   3.046   9.080  0.3195  0.2549  0.2418
 2063SOL    HW217823   3.100   3.162   9.006 -0.4793  0.6611 -1.7617
 2064SOL     OW17824   1.249   2.074   4.246 -0.4951  0.0335 -0.0588
 2064SOL    HW117825   1.256   2.071   4.341 -0.5031 -0.4751 -0.0747
 2064SOL    HW217826   1.155   2.059   4.242 -0.4329 -0.3219 -0.2245
 2065SOL     OW17827   1.845   3.635   6.327 -0.0216  0.2308  0.2731
 2065SOL    HW117828   1.895   3.670   6.400 -0.4282  1.1099  0.1269
 2065SOL    HW217829   1.839   3.707   6.265  0.0110 -0.5298 -0.6157
 2066SOL     OW17830   0.970   1.707   7.259  0.4334  0.5676  1.0362
 2066SOL    HW117831   0.994   1.772   7.325  2.0260  0.0718  0.9309
 2066SOL    HW217832   0.888   1.670   7.293  0.4201  0.7466  1.2012
 2067SOL     OW17833   1.400   4.603   2.451 -0.0949 -0.0031  0.4384
 2067SOL    HW117834   1.466   4.671   2.462 -0.3696  0.1295  1.2565
 2067SOL    HW217835   1.437   4.539   2.512 -0.5781 -0.8823 -0.1813
 2068SOL     OW17836   1.508   2.760  17.437  0.2216  0.5380  0.1595
 2068SOL    HW117837   1.549   2.751  17.351  0.8152  1.4776  0.3483
 2068SOL    HW217838   1.419   2.784  17.411  0.0572  0.1762  0.3885
 2069SOL     OW17839   1.185   4.648   9.908 -0.2327 -0.6472 -0.5328
 2069SOL    HW117840   1.191   4.646  10.003  0.0355 -2.9686 -0.5878
 2069SOL    HW217841   1.181   4.554   9.888  0.0507 -0.7479 -0.0989
 2070SOL     OW17842   3.621   4.573   1.660  0.3461 -0.4494  0.0977
 2070SOL    HW117843   3.639   4.566   1.567 -2.3818 -1.4512 -0.3478
 2070SOL    HW217844   3.708   4.545   1.690  1.1268 -0.5008 -2.2521
 2071SOL     OW17845   3.744   2.772   6.685  0.2934  0.2264 -0.4697
 2071SOL    HW117846   3.760   2.844   6.624 -1.5150  2.7704  2.0540
 2071SOL    HW217847   3.648   2.767   6.686  0.2719  0.5374 -1.0551
 2072SOL     OW17848   1.154   3.750   4.861  0.3608  0.0879 -0.4818
 2072SOL    HW117849   1.211   3.675   4.879  0.2352  0.3914  1.2061
 2072SOL    HW217850   1.129   3.741   4.769 -1.5658  2.2593 -0.1572
 2073SOL     OW17851   1.687   0.607  17.639 -0.3807 -0.3314  1.0213
 2073SOL    HW117852   1.765   0.660  17.656 -1.1871  0.3897  2.4739
 2073SOL    HW217853   1.719   0.522  17.669 -0.5976 -0.7049  0.1929
 2074SOL     OW17854   2.357   3.552  10.379  0.1931 -0.4633  0.1552
 2074SOL    HW117855   2.342   3.520  10.468  1.2203 -0.4851  0.3231
 2074SOL    HW217856   2.441   3.595  10.397 -0.2543 -0.3950  2.0934
 2075SOL     OW17857   1.167   1.477  11.161  0.3067 -0.3328 -0.1701
 2075SOL    HW117858   1.095   1.415  11.151 -0.8035  1.1131 -1.0899
 2075SOL    HW217859   1.226   1.433  11.223 -0.7432 -0.5691  0.6516
 2076SOL     OW17860   2.043   0.930   7.920  0.1040  0.4033  0.6857
 2076SOL    HW117861   2.080   0.917   7.833 -2.2971 -1.9235  0.0096
 2076SOL    HW217862   2.001   1.015   7.910  0.5594  0.6126  0.5597
 2077SOL     OW17863   3.691   4.546  16.834 -0.1162  0.4464  0.3061
 2077SOL    HW117864   3.725   4.476  16.778 -2.0008 -0.0637 -0.1962
 2077SOL    HW217865   3.610   4.573  16.792  0.7412 -0.7715 -2.1019
 2078SOL     OW17866   3.848   2.934   7.824  0.1016 -0.5078 -0.6736
 2078SOL    HW117867   3.834   2.848   7.865  2.1358 -1.1449 -1.3297
 2078SOL    HW217868   3.809   2.924   7.737  0.7942  1.2065 -1.1892
 2079SOL     OW17869   0.351   2.866  14.446 -0.7151 -0.2387  0.5331
 2079SOL    HW117870   0.292   2.937  14.471  0.8743  1.9154 -1.7680
 2079SOL    HW217871   0.327   2.858  14.353 -0.7265  0.5608  0.4645
 2080SOL     OW17872   3.990   2.794  10.422  0.0236 -0.1810 -0.5751
 2080SOL    HW117873   3.996   2.707  10.382 -1.9588 -1.4629  1.8988
 2080SOL    HW217874   4.076   2.809  10.460 -0.2022 -1.1721  0.3262
 2081SOL     OW17875   3.315   3.492   5.186  0.3428  0.0538 -0.0541
 2081SOL    HW117876   3.312   3.491   5.090 -0.5872 -0.3678 -0.0215
 2081SOL    HW217877   3.404   3.473   5.215  1.1495  4.1374  0.0860
 2082SOL     OW17878   1.408   4.695   9.171 -0.0017  0.0907  0.2659
 2082SOL    HW117879   1.386   4.637   9.244  1.9434 -1.5955 -0.4898
 2082SOL    HW217880   1.350   4.650   9.110  0.8902  0.9237 -1.1872
 2083SOL     OW17881   0.325   3.457   0.330 -0.7013  0.3578 -0.5932
 2083SOL    HW117882   0.398   3.463   0.269 -0.7918  0.1622 -0.7199
 2083SOL    HW217883   0.362   3.490   0.412  1.8931 -0.0934 -1.5814
 2084SOL     OW17884   2.446   2.052  10.165  0.2379 -0.1760  0.1370
 2084SOL    HW117885   2.540   2.069  10.165  0.4932 -1.5860 -0.3196
 2084SOL    HW217886   2.430   2.019  10.077  1.8565  1.0327 -0.6162
 2085SOL     OW17887   2.576   2.971   8.727  0.3775 -0.0781  0.2810
 2085SOL    HW117888   2.656   2.982   8.779  0.3492 -0.9624  0.5168
 2085SOL    HW217889   2.525   3.029   8.784 -1.5716 -1.4749 -0.0202
 2086SOL     OW17890   3.757   1.147   9.607  0.2008  0.1119 -0.1792
 2086SOL    HW117891   3.825   1.081   9.597  0.3251  0.6408 -2.9595
 2086SOL    HW217892   3.687   1.094   9.644  0.5627  0.3073  0.7877
 2087SOL     OW17893   1.284   3.262   2.822  0.1553 -0.1105  0.3218
 2087SOL    HW117894   1.356   3.248   2.884  0.6073  1.0348  0.0652
 2087SOL    HW217895   1.213   3.275   2.884 -0.3649  6.2547 -1.6421
 2088SOL     OW17896   4.326   1.028  10.582  0.0585  0.1419  0.1253
 2088SOL    HW117897   4.339   1.101  10.521  0.6312 -0.0950 -0.0393
 2088SOL    HW217898   4.236   1.047  10.607  0.2918  1.7320 -0.2329
 2089SOL     OW17899   1.005   1.251  11.172 -0.3078  0.4217 -0.1449
 2089SOL    HW117900   0.931   1.248  11.112 -0.8920  0.6336  0.5554
 2089SOL    HW217901   0.967   1.242  11.260 -0.9985 -0.4372 -0.5382
 2090SOL     OW17902   2.539   2.473  17.148 -0.3815 -0.4964  0.4008
 2090SOL    HW117903   2.594   2.507  17.219  0.5475 -1.2163  0.0176
 2090SOL    HW217904   2.601   2.481  17.076  0.4184 -0.7094  1.0787
 2091SOL     OW17905   0.141   3.472  11.615 -0.0169  0.2381 -0.0610
 2091SOL    HW117906   0.135   3.407  11.686 -1.1459 -0.1053 -0.4816
 2091SOL    HW217907   0.175   3.429  11.537 -0.9300 -0.6998  0.0634
 2092SOL     OW17908   4.075   2.230   0.187  0.7609  1.0655 -0.5715
 2092SOL    HW117909   4.049   2.138   0.188  0.6174  1.1117  1.5304
 2092SOL    HW217910   4.002   2.272   0.234  0.9873  1.4238 -0.5388
 2093SOL     OW17911   4.194   0.768   4.508  0.6092 -0.1609 -0.3680
 2093SOL    HW117912   4.117   0.773   4.451 -1.3821 -1.5267  2.2043
 2093SOL    HW217913   4.208   0.863   4.511 -0.5517  0.1122 -3.0829
 2094SOL     OW17914   1.344   4.632  14.543 -0.4911  0.2793  0.1828
 2094SOL    HW117915   1.402   4.693  14.497 -0.4490  0.0660 -0.0535
 2094SOL    HW217916   1.311   4.678  14.619  1.1949  2.7543 -0.5857
 2095SOL     OW17917   3.479   4.163   1.923  0.0862 -0.4070  0.3004
 2095SOL    HW117918   3.551   4.103   1.903 -0.6458 -1.6369  1.2941
 2095SOL    HW217919   3.459   4.206   1.839  1.4885 -0.7303 -0.1965
 2096SOL     OW17920   0.570   2.237   0.261  0.2018  0.0414  0.2074
 2096SOL    HW117921   0.502   2.298   0.234 -0.0019 -0.3138 -0.0804
 2096SOL    HW217922   0.631   2.223   0.189  2.0660  1.0658  1.5894
 2097SOL     OW17923   2.457   3.276   4.619 -0.3454 -0.7638  0.4289
 2097SOL    HW117924   2.534   3.331   4.603 -0.0481 -1.8243 -1.8798
 2097SOL    HW217925   2.412   3.321   4.690  1.7179 -0.1904  1.3774
 2098SOL     OW17926   3.493   0.479  16.203  0.4853 -0.2014 -0.0438
 2098SOL    HW117927   3.434   0.554  16.209 -0.9109 -1.1807 -1.5735
 2098SOL    HW217928   3.430   0.411  16.182  1.5800 -1.4368  0.6803
 2099SOL     OW17929   0.920   2.934   3.862  0.3974 -0.5072 -0.2049
 2099SOL    HW117930   0.843   2.929   3.919  1.4316  1.6192  1.3520
 2099SOL    HW217931   0.975   2.858   3.883 -0.1694 -0.6528  0.7765
 2100SOL     OW17932   0.976   4.192   2.028 -0.6473  0.2037 -0.4566
 2100SOL    HW117933   1.069   4.212   2.018 -0.9521  0.9689 -1.8244
 2100SOL    HW217934   0.959   4.145   1.947  1.5067  0.6384 -1.1650
 2101SOL     OW17935   4.679   4.626   4.274  0.4242 -0.1642  0.3521
 2101SOL    HW117936   4.722   4.556   4.225 -0.8559 -2.2719  2.2312
 2101SOL    HW217937   4.642   4.574   4.345 -0.6810  1.3454  0.8798
 2102SOL     OW17938   2.053   0.262  16.238 -0.4517  0.3226 -0.3024
 2102SOL    HW117939   2.095   0.329  16.184 -0.2157  0.7117  0.3590
 2102SOL    HW217940   2.025   0.202  16.169  0.0368 -0.3056  0.0425
 2103SOL     OW17941   4.201   1.680  12.150 -0.1937  0.0118 -0.3950
 2103SOL    HW117942   4.143   1.704  12.078  0.8449 -0.9163 -1.5667
 2103SOL    HW217943   4.145   1.712  12.220  0.4214 -0.2837  0.2348
 2104SOL     OW17944   0.424   4.308   9.237  0.0555 -0.0802 -0.1666
 2104SOL    HW117945   0.438   4.220   9.270  1.8919  0.0504 -0.5425
 2104SOL    HW217946   0.364   4.340   9.304  0.2733 -2.4393  1.1209
 2105SOL     OW17947   1.091   1.528   4.176 -0.1375  0.0243  0.0107
 2105SOL    HW117948   1.002   1.502   4.197  1.2758 -1.8518  3.6902
 2105SOL    HW217949   1.096   1.606   4.231  3.0236 -0.2781  0.1907
 2106SOL     OW17950   1.923   3.041   8.028 -0.1472 -0.8415 -0.0513
 2106SOL    HW117951   1.829   3.055   8.041  0.0029 -2.8271  3.1415
 2106SOL    HW217952   1.928   3.057   7.934 -3.3666  4.0082  0.5981
 2107SOL     OW17953   2.941   0.867   7.983  0.3433  0.1532 -0.4335
 2107SOL    HW117954   3.023   0.866   7.932  0.6780  0.6266  0.0989
 2107SOL    HW217955   2.891   0.947   7.970  1.2879  0.7936 -0.1245
 2108SOL     OW17956   2.402   0.255   6.479 -0.1976 -0.6955 -0.0148
 2108SOL    HW117957   2.335   0.269   6.412  0.4231 -2.3546 -0.9809
 2108SOL    HW217958   2.482   0.302   6.454 -0.4051  0.2268  1.0818
 2109SOL     OW17959   0.106   0.116   8.797 -0.5052  0.2349 -0.2651
 2109SOL    HW117960   0.126   0.199   8.840  0.0567 -0.5694  1.0460
 2109SOL    HW217961   0.126   0.053   8.866 -0.3642  0.6939  0.1093
 2110SOL     OW17962   0.828   0.342  17.464 -0.1992  0.0602 -0.4669
 2110SOL    HW117963   0.865   0.359  17.378  0.2378  2.5852  0.2317
 2110SOL    HW217964   0.902   0.304  17.511 -0.5496  0.9030  0.7670
 2111SOL     OW17965   0.088   3.607   1.465  0.4790 -0.4285 -0.1288
 2111SOL    HW117966   0.144   3.546   1.512  0.1802 -0.8730 -0.3447
 2111SOL    HW217967   0.014   3.599   1.524  0.7015 -1.0096  0.0634
 2112SOL     OW17968   0.130   4.633   3.765  0.3442 -0.1245 -0.0293
 2112SOL    HW117969   0.190   4.706   3.780 -1.6824  0.9350  2.8563
 2112SOL    HW217970   0.049   4.684   3.760  0.1593 -0.2489  1.9514
 2113SOL     OW17971   0.649   0.811   3.236  0.5777  0.3177  0.0095
 2113SOL    HW117972   0.726   0.832   3.183  0.6736 -1.1281 -0.4236
 2113SOL    HW217973   0.690   0.747   3.294 -0.4968  1.0718  1.6215
 2114SOL     OW17974   2.159   0.134   4.783  0.3153  0.2585  0.6741
 2114SOL    HW117975   2.139   0.224   4.807 -0.3876 -0.3685  2.3952
 2114SOL    HW217976   2.073   0.093   4.778  0.9429 -1.2728  2.2714
 2115SOL     OW17977   3.280   3.965   2.692  0.0888 -0.2376  0.1439
 2115SOL    HW117978   3.328   4.047   2.689 -1.6792  0.8038  0.5910
 2115SOL    HW217979   3.323   3.919   2.619  0.9987  0.9141 -0.0501
 2116SOL     OW17980   4.425   1.820   5.002 -0.4201  0.7474  0.2583
 2116SOL    HW117981   4.335   1.803   5.031 -0.1547  1.3389  1.4276
 2116SOL    HW217982   4.428   1.914   5.020  0.4532 -0.0314  4.1241
 2117SOL     OW17983   4.502   2.162   3.642  0.3187  0.0602 -0.3874
 2117SOL    HW117984   4.541   2.080   3.610 -1.1068 -0.7830  0.0712
 2117SOL    HW217985   4.415   2.164   3.604  0.1221 -1.3696 -0.0170
 2118SOL     OW17986   3.326   1.470   4.085  0.0173 -0.2247 -0.1679
 2118SOL    HW117987   3.268   1.440   4.155  1.7228  0.3569  1.5106
 2118SOL    HW217988   3.293   1.556   4.060  2.4816  0.4974 -0.8987
 2119SOL     OW17989   2.667   1.449   8.418  0.6222  0.3194 -0.4190
 2119SOL    HW117990   2.725   1.375   8.400 -0.6682 -0.3706 -1.8162
 2119SOL    HW217991   2.733   1.516   8.406  1.2587 -0.3652 -0.7694
 2120SOL     OW17992   3.969   2.487   1.974 -0.1843  0.6814 -0.0910
 2120SOL    HW117993   3.945   2.508   1.884 -1.3464 -1.8640 -0.3863
 2120SOL    HW217994   3.963   2.392   1.972  1.0516  0.6364 -1.7717
 2121SOL     OW17995   1.683   1.262   3.054  0.4481 -0.1106  0.3168
 2121SOL    HW117996   1.753   1.258   3.120  0.1316  2.4644  0.8384
 2121SOL    HW217997   1.624   1.194   3.087  0.8219  0.1842  1.6037
 2122SOL     OW17998   0.078   3.026  13.304 -0.2232  0.5200  0.4938
 2122SOL    HW117999   0.130   3.035  13.383  0.1623  3.0873 -0.0579
 2122SOL    HW218000   0.008   3.079  13.341 -1.9345 -1.6396  0.3719
 2123SOL     OW18001   1.259   1.937   8.256  0.2407 -0.5024 -0.1414
 2123SOL    HW118002   1.220   1.883   8.187  1.7427 -1.2706 -0.3883
 2123SOL    HW218003   1.298   1.868   8.309  0.4156 -1.2637 -1.2502
 2124SOL     OW18004   1.486   0.863   6.687  0.1702  0.0352  0.7787
 2124SOL    HW118005   1.391   0.860   6.695  0.1086  1.6119  0.7363
 2124SOL    HW218006   1.497   0.768   6.683 -0.4707 -0.0749  1.6844
 2125SOL     OW18007   1.275   1.084   0.295 -0.1331 -0.0891  0.0396
 2125SOL    HW118008   1.288   1.143   0.368  3.2643  0.5929 -1.1430
 2125SOL    HW218009   1.197   1.035   0.322  0.0174 -0.6023 -0.4384
 2126SOL     OW18010   4.378   2.221   1.755 -0.0269  0.0004  0.4999
 2126SOL    HW118011   4.423   2.244   1.835 -0.3684 -2.1263  1.3103
 2126SOL    HW218012   4.319   2.295   1.741  0.5496  0.4854  0.6609
 2127SOL     OW18013   4.611   3.121  13.905  0.3074 -0.4740 -0.0207
 2127SOL    HW118014   4.536   3.143  13.959 -1.7678 -1.3024 -2.5581
 2127SOL    HW218015   4.558   3.085  13.834  3.3369  1.7090 -3.4096
 2128SOL     OW18016   3.563   4.003   4.289  0.6427  0.2261 -0.2306
 2128SOL    HW118017   3.553   3.923   4.237 -0.8518  1.8995 -2.5376
 2128SOL    HW218018   3.657   4.016   4.287  0.4058  2.0039  0.0885
 2129SOL     OW18019   1.247   0.257   4.623  0.3054 -0.0011 -0.5314
 2129SOL    HW118020   1.252   0.223   4.534  0.6148 -0.5482 -0.3062
 2129SOL    HW218021   1.338   0.252   4.652  0.5328  0.2542 -1.2150
 2130SOL     OW18022   4.618   4.639   9.935  0.1814  0.4862  0.7247
 2130SOL    HW118023   4.582   4.582  10.002 -0.4342  0.5722  0.4627
 2130SOL    HW218024   4.682   4.575   9.903 -1.6344 -0.9480 -0.0065
 2131SOL     OW18025   0.128   0.337   4.765 -0.0390 -0.0434 -0.2666
 2131SOL    HW118026   0.069   0.261   4.759 -0.2446  0.1849 -1.2078
 2131SOL    HW218027   0.183   0.304   4.835 -0.0006 -1.7812 -1.1209
 2132SOL     OW18028   2.687   2.227   7.684 -0.0837 -0.0614  0.0031
 2132SOL    HW118029   2.746   2.278   7.739 -1.3529 -0.9145  2.1155
 2132SOL    HW218030   2.724   2.247   7.597 -0.1936 -0.9462 -0.2457
 2133SOL     OW18031   3.428   4.438   8.240 -0.4203  0.4067  0.2208
 2133SOL    HW118032   3.457   4.475   8.157  0.1939  1.7400  1.0278
 2133SOL    HW218033   3.482   4.490   8.300  0.4449 -0.4241  0.1744
 2134SOL     OW18034   2.804   2.360   8.027  0.0021 -0.2467 -0.5063
 2134SOL    HW118035   2.873   2.351   7.961 -0.8965  0.0044 -1.4707
 2134SOL    HW218036   2.788   2.454   8.023 -0.5871 -0.4029 -1.6277
 2135SOL     OW18037   1.554   3.691   6.193 -0.0073  0.0144  0.6407
 2135SOL    HW118038   1.565   3.614   6.248 -1.6718  0.0330  1.0250
 2135SOL    HW218039   1.641   3.702   6.155  0.3131 -2.4039  0.6596
 2136SOL     OW18040   4.149   3.586   6.805 -0.1452  0.2447  0.0874
 2136SOL    HW118041   4.150   3.680   6.784  0.0244 -0.1760 -1.8012
 2136SOL    HW218042   4.110   3.590   6.893 -1.5720 -1.1258 -0.4841
 2137SOL     OW18043   2.095   1.946  13.825 -0.0706 -0.4927 -1.0837
 2137SOL    HW118044   2.142   2.001  13.887  1.4207 -0.4715 -2.2402
 2137SOL    HW218045   2.160   1.887  13.785  0.5060 -0.1389 -0.6659
 2138SOL     OW18046   4.437   2.174  13.665  0.2080 -0.8394 -0.0053
 2138SOL    HW118047   4.498   2.104  13.646  0.2159 -0.2925 -1.9436
 2138SOL    HW218048   4.366   2.159  13.603  0.4331  0.0011 -0.4690
 2139SOL     OW18049   0.719   0.346   2.422 -0.6224 -0.2234  0.5620
 2139SOL    HW118050   0.752   0.257   2.430  0.2995  0.1034  0.4171
 2139SOL    HW218051   0.701   0.349   2.328 -0.7831 -1.4073  0.5593
 2140SOL     OW18052   1.510   4.725   1.843 -0.6788  0.2830 -0.0775
 2140SOL    HW118053   1.512   4.637   1.805  1.6376  0.6494 -0.8200
 2140SOL    HW218054   1.602   0.010   1.826 -1.0535  2.0631 -0.2576
 2141SOL     OW18055   3.878   2.080  12.232  0.1075 -0.4320 -0.4744
 2141SOL    HW118056   3.892   1.996  12.276 -0.1297  0.2159  0.8356
 2141SOL    HW218057   3.891   2.056  12.140  1.4177 -1.8877  0.0831
 2142SOL     OW18058   2.443   1.463   4.755 -0.2177  0.4353  0.4295
 2142SOL    HW118059   2.396   1.383   4.781  1.4584 -0.8697 -0.5950
 2142SOL    HW218060   2.389   1.535   4.786 -0.7882 -0.1182  0.7274
 2143SOL     OW18061   4.668   4.156   2.225 -0.2849 -0.4140  0.2482
 2143SOL    HW118062   4.709   4.093   2.284 -2.9320 -2.8325 -0.4682
 2143SOL    HW218063   4.643   4.100   2.152  0.6760 -0.3224 -0.1365
 2144SOL     OW18064   0.643   0.976   8.730  0.1556 -0.1590  0.1555
 2144SOL    HW118065   0.703   0.996   8.801 -0.3759 -0.5778  0.7227
 2144SOL    HW218066   0.575   1.038   8.756 -1.4917 -1.8372 -0.1359
 2145SOL     OW18067   3.912   2.699  13.274  0.1540 -0.3240  0.5940
 2145SOL    HW118068   3.838   2.664  13.225  1.4086 -0.0340 -1.4985
 2145SOL    HW218069   3.864   2.762  13.328 -0.3196 -0.7724  0.7020
 2146SOL     OW18070   4.262   3.346   5.539 -0.1994 -0.1623 -0.0064
 2146SOL    HW118071   4.271   3.293   5.459  1.1273 -1.4039  0.9419
 2146SOL    HW218072   4.334   3.409   5.550  0.0567 -0.2886 -0.9502
 2147SOL     OW18073   3.701   1.691  14.753  0.1396  0.4806  0.5128
 2147SOL    HW118074   3.641   1.755  14.790 -1.6258  0.5924 -2.5212
 2147SOL    HW218075   3.737   1.738  14.678  0.5388  0.4987  0.7137
 2148SOL     OW18076   0.302   0.220   6.346  0.0540  0.1819 -0.6149
 2148SOL    HW118077   0.272   0.141   6.300 -0.4231 -0.7320  1.2963
 2148SOL    HW218078   0.298   0.277   6.269  1.7879  0.9090 -0.1512
 2149SOL     OW18079   1.055   3.084   5.035 -0.9026  0.6138 -0.6078
 2149SOL    HW118080   1.130   3.141   5.018  0.1645 -0.3301  0.9874
 2149SOL    HW218081   1.097   3.021   5.093  0.1064  0.5151 -1.4582
 2150SOL     OW18082   0.697   2.665   7.882 -0.1484  0.5188  0.5377
 2150SOL    HW118083   0.705   2.575   7.913 -0.8008 -0.4778 -2.1910
 2150SOL    HW218084   0.603   2.662   7.865 -0.4403  0.6480  2.1849
 2151SOL     OW18085   3.500   0.892  16.039 -0.0702 -0.4743 -0.3025
 2151SOL    HW118086   3.578   0.914  15.988 -1.0020  0.1851 -1.4495
 2151SOL    HW218087   3.532   0.908  16.128 -2.7887 -0.6366  0.7051
 2152SOL     OW18088   1.393   1.107  17.154 -0.2823  0.1762 -0.0067
 2152SOL    HW118089   1.458   1.072  17.093  1.1802  2.1791  0.3782
 2152SOL    HW218090   1.323   1.153  17.108 -1.3529 -1.9389 -0.4971
 2153SOL     OW18091   1.681   0.739  12.727  0.0890  1.1241  0.1475
 2153SOL    HW118092   1.594   0.773  12.745 -0.3818 -0.9878  1.8046
 2153SOL    HW218093   1.700   0.703  12.814  1.9384  0.2575 -0.6134
 2154SOL     OW18094   0.569   2.288   4.266 -0.2888 -0.1514  0.1966
 2154SOL    HW118095   0.624   2.291   4.344  0.6340 -2.8598 -0.3700
 2154SOL    HW218096   0.505   2.359   4.275  0.3099  0.1914  1.7156
 2155SOL     OW18097   1.652   0.646   2.537  0.3353 -0.0081 -0.1959
 2155SOL    HW118098   1.729   0.606   2.498  0.1330 -0.3584 -0.2388
 2155SOL    HW218099   1.638   0.582   2.607 -1.6469  0.1128 -0.4821
 2156SOL     OW18100   2.429   3.989   6.069  0.6469 -0.0961 -0.4012
 2156SOL    HW118101   2.372   3.967   6.142  0.7634 -0.9902 -0.5891
 2156SOL    HW218102   2.373   4.046   6.015 -1.8699 -0.0347  2.2400
 2157SOL     OW18103   3.181   3.275   2.509 -0.0012 -0.0224 -0.5223
 2157SOL    HW118104   3.235   3.195   2.507 -0.6248 -0.4911  1.3373
 2157SOL    HW218105   3.246   3.338   2.539 -0.7016  0.3220  0.2364
 2158SOL     OW18106   2.495   0.834   3.784 -0.9947  0.2071  0.1320
 2158SOL    HW118107   2.459   0.906   3.835  2.6664  1.5885  0.7484
 2158SOL    HW218108   2.452   0.849   3.699 -0.2618  0.2179 -0.2343
 2159SOL     OW18109   1.585   3.347   0.212  0.7273 -0.2478  0.2713
 2159SOL    HW118110   1.557   3.292   0.285  1.0144 -1.0410 -0.2077
 2159SOL    HW218111   1.646   3.284   0.173  1.2508  0.8929 -0.7604
 2160SOL     OW18112   0.463   1.365   2.330 -0.2842  0.3971 -1.0234
 2160SOL    HW118113   0.444   1.278   2.297 -0.6640 -0.1871  0.7098
 2160SOL    HW218114   0.497   1.328   2.412 -0.5534 -0.8387 -1.4688
 2161SOL     OW18115   3.830   1.959   1.502 -0.1487 -0.3275  0.1577
 2161SOL    HW118116   3.915   1.999   1.520  0.2192 -0.3643 -1.4438
 2161SOL    HW218117   3.829   1.897   1.574 -1.1184  2.9735  2.9658
 2162SOL     OW18118   2.298   2.890  12.684 -0.1091 -0.5518  0.3100
 2162SOL    HW118119   2.387   2.922  12.675  0.0879 -0.4430  2.7711
 2162SOL    HW218120   2.323   2.813  12.734  1.4748 -0.8639 -0.9793
 2163SOL     OW18121   4.300   1.009   3.515  0.0190 -0.3263 -0.2157
 2163SOL    HW118122   4.392   0.996   3.491 -0.1204  1.1328 -1.5439
 2163SOL    HW218123   4.319   1.079   3.576 -0.7563  0.8914 -1.3731
 2164SOL     OW18124   1.955   1.363   9.691  0.0209 -0.1299 -0.2578
 2164SOL    HW118125   1.977   1.431   9.628  0.4994 -1.0543 -1.0861
 2164SOL    HW218126   1.976   1.417   9.767  0.2173 -0.6216  0.0360
 2165SOL     OW18127   0.402   3.142   3.256 -0.4327  0.4473  0.6403
 2165SOL    HW118128   0.339   3.184   3.314 -1.9129  0.9305 -1.2983
 2165SOL    HW218129   0.371   3.158   3.167 -0.8698 -1.1774  0.4932
 2166SOL     OW18130   1.489   4.242   8.700  0.0631 -0.4765  0.6557
 2166SOL    HW118131   1.559   4.234   8.635  2.6166 -2.2315  3.5989
 2166SOL    HW218132   1.466   4.333   8.682 -0.6800 -0.3307  2.3236
 2167SOL     OW18133   4.688   0.398  13.169  0.3061 -0.5003  0.1332
 2167SOL    HW118134   4.623   0.455  13.208 -1.0369 -2.6720  1.0893
 2167SOL    HW218135   4.666   0.316  13.214 -1.9959 -0.6902 -1.3326
 2168SOL     OW18136   2.211   0.884   4.831  0.4753 -0.0020 -0.2592
 2168SOL    HW118137   2.275   0.813   4.822  1.7142  1.0584  0.1658
 2168SOL    HW218138   2.268   0.939   4.884  0.7365 -1.9450  1.4947
 2169SOL     OW18139   3.983   0.739   7.673 -0.4150  0.9472 -0.2653
 2169SOL    HW118140   4.026   0.660   7.641 -0.0188  0.8282  0.5785
 2169SOL    HW218141   4.009   0.734   7.765  1.0058 -0.7079 -0.7500
 2170SOL     OW18142   2.070   2.798   2.349 -0.4934 -0.5066 -0.6073
 2170SOL    HW118143   2.037   2.879   2.388  0.0493 -0.5012 -0.1517
 2170SOL    HW218144   1.980   2.773   2.330 -0.2164 -0.0156 -2.5345
 2171SOL     OW18145   3.204   3.399  10.311 -0.0266 -0.0623 -0.1754
 2171SOL    HW118146   3.175   3.323  10.261 -1.5164  1.4418 -1.5725
 2171SOL    HW218147   3.232   3.347  10.387  0.4366  1.2288  0.5315
 2172SOL     OW18148   1.249   0.685   3.098 -0.0968  0.4525 -0.0166
 2172SOL    HW118149   1.210   0.768   3.071  0.3711  0.9052  0.6829
 2172SOL    HW218150   1.286   0.662   3.013 -0.7980  2.4989 -0.8871
 2173SOL     OW18151   2.185   4.454   7.874  0.0464 -0.2705 -0.6658
 2173SOL    HW118152   2.261   4.507   7.849  1.1026 -1.5376 -0.1422
 2173SOL    HW218153   2.154   4.512   7.944  2.0360 -0.0418  0.0272
 2174SOL     OW18154   3.178   1.586  15.423  0.6810  0.6193 -0.5348
 2174SOL    HW118155   3.128   1.563  15.501  0.3426 -0.1965 -0.9956
 2174SOL    HW218156   3.249   1.640  15.459  0.6557  0.9764 -1.0212
 2175SOL     OW18157   3.546   4.330   3.532 -0.5454  0.1239  0.3168
 2175SOL    HW118158   3.484   4.379   3.478 -0.6376 -2.8497 -2.2942
 2175SOL    HW218159   3.620   4.388   3.512  0.1135 -1.5337 -2.1057
 2176SOL     OW18160   1.391   3.844  17.485  0.3606 -0.8806  0.1672
 2176SOL    HW118161   1.300   3.849  17.516  0.0730 -1.9321 -0.5274
 2176SOL    HW218162   1.386   3.751  17.466  1.0887 -0.3724 -2.4451
 2177SOL     OW18163   0.542   3.836   1.663 -0.6812  0.7637 -0.5239
 2177SOL    HW118164   0.525   3.780   1.588  0.2543  0.4992 -0.5414
 2177SOL    HW218165   0.559   3.774   1.735 -0.8896 -0.5812 -1.6397
 2178SOL     OW18166   3.757   1.915   2.220  0.5754  0.5058  0.3785
 2178SOL    HW118167   3.736   2.001   2.257  0.4543 -0.0296  1.5804
 2178SOL    HW218168   3.777   1.933   2.129  0.0321 -0.1794  0.1230
 2179SOL     OW18169   2.231   2.947   5.113 -0.0647  0.0932 -0.5860
 2179SOL    HW118170   2.145   2.957   5.072 -0.2114 -0.9281 -0.5025
 2179SOL    HW218171   2.253   3.037   5.138  1.1318 -0.0107 -1.2730
 2180SOL     OW18172   2.051   0.763   6.552 -0.4779  0.2887 -0.5825
 2180SOL    HW118173   2.003   0.843   6.529 -0.6322  0.5324  0.5730
 2180SOL    HW218174   2.046   0.745   6.646  0.0178 -1.0566 -0.8165
 2181SOL     OW18175   0.169   3.250   8.596 -0.0732  0.1568 -0.3557
 2181SOL    HW118176   0.077   3.227   8.610 -0.4527  2.5791  1.1091
 2181SOL    HW218177   0.214   3.170   8.622  1.9296  1.1247 -0.8809
 2182SOL     OW18178   0.533   0.808   4.661 -0.2922  0.3907  0.3902
 2182SOL    HW118179   0.524   0.742   4.592  1.2950  0.5829  0.0060
 2182SOL    HW218180   0.602   0.766   4.712 -0.0965  1.5569  1.0632
 2183SOL     OW18181   2.823   0.702   4.969  0.2320  0.2643 -0.0318
 2183SOL    HW118182   2.843   0.637   5.035 -0.9277 -0.0820 -0.0197
 2183SOL    HW218183   2.910   0.727   4.939  1.5239 -3.0711  1.0012
 2184SOL     OW18184   3.455   1.887   7.045 -0.6797 -0.2807 -0.2877
 2184SOL    HW118185   3.371   1.841   7.040  0.3564 -2.0970 -0.7977
 2184SOL    HW218186   3.516   1.826   7.003  0.8491  1.3648 -0.4384
 2185SOL     OW18187   2.601   2.773   5.106 -0.0023  0.7867 -0.3702
 2185SOL    HW118188   2.537   2.780   5.177  0.1975  0.9701 -0.2106
 2185SOL    HW218189   2.554   2.781   5.022 -0.1157  1.2598 -0.2620
 2186SOL     OW18190   0.639   3.580   6.831  0.7849  0.2532  0.1333
 2186SOL    HW118191   0.684   3.506   6.791 -1.5544 -2.0865  1.8794
 2186SOL    HW218192   0.589   3.519   6.885  0.1416  0.2729 -0.4505
 2187SOL     OW18193   4.493   3.411  15.222 -0.9595 -0.0286  0.7515
 2187SOL    HW118194   4.588   3.401  15.215 -1.1815 -0.3142 -1.8796
 2187SOL    HW218195   4.450   3.399  15.137  0.2414  0.5366  0.0647
 2188SOL     OW18196   1.101   1.851   1.867 -0.1672 -0.2906  0.6501
 2188SOL    HW118197   1.047   1.772   1.869 -1.0598  0.2667 -1.3133
 2188SOL    HW218198   1.045   1.922   1.836  1.8910  0.6069 -0.9774
 2189SOL     OW18199   4.156   0.255   8.282  0.5568  0.0104  0.2973
 2189SOL    HW118200   4.190   0.329   8.332 -0.8340 -0.6370  2.1888
 2189SOL    HW218201   4.233   0.245   8.227 -0.0140 -0.3253 -0.4387
 2190SOL     OW18202   3.251   0.464  17.543  0.6048  0.2953  0.5321
 2190SOL    HW118203   3.170   0.478  17.494  0.7698  1.7623  0.6819
 2190SOL    HW218204   3.248   0.516  17.623  0.3581 -0.1332  0.8012
 2191SOL     OW18205   1.753   2.251   2.378  0.1645 -0.0481 -0.2484
 2191SOL    HW118206   1.846   2.228   2.389  0.1523 -0.0592 -0.1694
 2191SOL    HW218207   1.751   2.326   2.319  0.0094 -0.6718 -1.0460
 2192SOL     OW18208   2.250   2.596  16.757  0.3265  0.0777  0.4817
 2192SOL    HW118209   2.285   2.642  16.834 -0.4986  0.6133  0.5272
 2192SOL    HW218210   2.328   2.577  16.705 -0.0661  1.7603 -0.7247
 2193SOL     OW18211   2.042   3.105   8.396  0.1673  0.0021  0.9746
 2193SOL    HW118212   2.094   3.088   8.317 -0.4389 -2.2188  1.0586
 2193SOL    HW218213   2.001   3.019   8.402  1.3500 -0.6289  0.0305
 2194SOL     OW18214   1.263   3.300   3.735  0.3680  0.1882  0.1700
 2194SOL    HW118215   1.227   3.256   3.812  1.6722 -1.7854 -0.3580
 2194SOL    HW218216   1.356   3.276   3.739  0.4462  0.3019 -0.8441
 2195SOL     OW18217   1.573   1.503   6.353  0.3180  0.1405  0.6320
 2195SOL    HW118218   1.609   1.482   6.267 -4.0591 -0.1003 -1.1360
 2195SOL    HW218219   1.569   1.598   6.345  1.9223  0.0941 -0.6548
 2196SOL     OW18220   3.207   4.188  15.853 -0.0930  0.8823  0.0649
 2196SOL    HW118221   3.205   4.177  15.948  1.0290  1.8727  0.2003
 2196SOL    HW218222   3.249   4.274  15.843 -0.4729  0.7954 -2.2664
 2197SOL     OW18223   0.413   0.127   5.318 -0.0031 -0.3645  0.2917
 2197SOL    HW118224   0.333   0.157   5.277  0.3700  1.5462  0.9640
 2197SOL    HW218225   0.421   0.032   5.305 -1.8103 -0.2248 -1.7723
 2198SOL     OW18226   3.930   1.663   9.220  0.0436  0.7694  0.4711
 2198SOL    HW118227   3.941   1.600   9.149 -1.0788 -1.2248  2.0725
 2198SOL    HW218228   3.835   1.658   9.229  0.0098  0.6071  0.0315
 2199SOL     OW18229   2.650   2.914   1.466  0.1437  0.1914 -0.1832
 2199SOL    HW118230   2.712   2.977   1.429  0.0931 -0.5422 -1.5159
 2199SOL    HW218231   2.662   2.937   1.558 -0.5789 -0.0850 -0.0139
 2200SOL     OW18232   4.066   3.261  10.592 -0.0285 -0.2666 -0.5814
 2200SOL    HW118233   4.089   3.347  10.555  0.9389  0.3704  1.5040
 2200SOL    HW218234   4.149   3.214  10.591  2.3313  3.8434 -0.2493
 2201SOL     OW18235   0.776   2.371   6.741 -0.6723 -0.0881 -1.1022
 2201SOL    HW118236   0.693   2.324   6.751 -0.3065 -0.8829 -1.8266
 2201SOL    HW218237   0.742   2.452   6.778 -0.3671 -1.4695  2.1993
 2202SOL     OW18238   3.327   3.290   7.343 -0.6153 -0.0765  0.3295
 2202SOL    HW118239   3.417   3.310   7.315 -1.1781  1.5064 -0.3558
 2202SOL    HW218240   3.282   3.319   7.263  0.7244 -1.8450 -1.0608
 2203SOL     OW18241   3.162   1.396   3.364 -0.0144 -0.1923  0.1922
 2203SOL    HW118242   3.091   1.331   3.363 -0.6384  0.5040 -1.4284
 2203SOL    HW218243   3.150   1.443   3.282 -1.1044 -0.2812  0.2971
 2204SOL     OW18244   0.657   0.325   5.787  0.2221 -0.6148  0.1844
 2204SOL    HW118245   0.665   0.252   5.725  1.1001 -1.0700  0.8378
 2204SOL    HW218246   0.676   0.399   5.728 -0.1388 -0.2339  0.5450
 2205SOL     OW18247   4.614   3.440   7.781  0.1158  0.7033 -0.3422
 2205SOL    HW118248   4.658   3.523   7.761 -0.9141  0.6313 -2.9204
 2205SOL    HW218249   4.622   3.438   7.877 -1.4699 -1.3510 -0.2588
 2206SOL     OW18250   0.335   0.583   6.430 -0.0285 -0.1041  0.5750
 2206SOL    HW118251   0.351   0.513   6.493  1.0632  0.1853  0.6245
 2206SOL    HW218252   0.324   0.652   6.495 -2.8814  0.4955 -0.5651
 2207SOL     OW18253   4.428   0.519   0.649 -0.4112  0.3841  0.5262
 2207SOL    HW118254   4.511   0.504   0.694  0.5049 -0.7550 -1.5535
 2207SOL    HW218255   4.414   0.426   0.634  2.5646 -0.1917  1.4411
 2208SOL     OW18256   1.505   0.161   1.582 -0.3748  0.2626 -0.1334
 2208SOL    HW118257   1.538   0.249   1.567  1.4937  0.0592  2.7846
 2208SOL    HW218258   1.433   0.170   1.645  1.0074  0.7372  1.3812
 2209SOL     OW18259   0.973   4.611   3.257  0.0447  0.2198 -0.2913
 2209SOL    HW118260   1.000   4.539   3.314  0.3364  0.3793 -0.2262
 2209SOL    HW218261   0.898   4.567   3.220  0.3662  1.0507 -1.9240
 2210SOL     OW18262   3.206   3.445   6.418 -0.4580  0.3213 -0.2039
 2210SOL    HW118263   3.124   3.405   6.447 -1.5447  3.3376  0.8313
 2210SOL    HW218264   3.247   3.370   6.374  0.6293  0.1735  1.0707
 2211SOL     OW18265   2.212   2.763   8.716  0.3808 -0.0445  0.3822
 2211SOL    HW118266   2.148   2.695   8.696 -1.1140  1.2550  0.6914
 2211SOL    HW218267   2.238   2.732   8.803  1.0934 -0.7430 -0.0842
 2212SOL     OW18268   2.912   0.944   7.616  0.6992 -0.3480 -0.1211
 2212SOL    HW118269   2.840   1.007   7.619  1.7309  0.9431 -3.0247
 2212SOL    HW218270   2.975   1.005   7.655  2.4851  0.4209 -4.2403
 2213SOL     OW18271   3.637   1.039   3.522  0.0343 -0.0953  0.0882
 2213SOL    HW118272   3.625   1.073   3.610  0.3739  1.3881 -0.4388
 2213SOL    HW218273   3.555   1.025   3.474 -0.6464  2.8549  0.4116
 2214SOL     OW18274   4.662   3.779   3.985  0.0831 -0.0219 -0.1268
 2214SOL    HW118275   4.719   3.811   4.055 -0.5539 -1.6275  1.1080
 2214SOL    HW218276   4.653   3.687   4.007 -0.7652  0.6774  2.4237
 2215SOL     OW18277   2.818   1.199   1.558  0.0268 -0.2443  0.1102
 2215SOL    HW118278   2.837   1.293   1.557 -3.7028  0.5144  1.0077
 2215SOL    HW218279   2.856   1.185   1.644  0.6104 -2.1319 -0.4699
 2216SOL     OW18280   0.338   4.129   1.137 -0.1006  0.3529  0.0019
 2216SOL    HW118281   0.302   4.205   1.091 -0.6969 -0.1816 -0.4181
 2216SOL    HW218282   0.382   4.083   1.065 -3.2130 -2.6691  0.0415
 2217SOL     OW18283   2.844   3.160   1.785 -0.2451  0.4068 -0.5800
 2217SOL    HW118284   2.884   3.195   1.864 -1.0233 -2.3391  0.9926
 2217SOL    HW218285   2.901   3.088   1.759  1.0636  1.3678 -0.3990
 2218SOL     OW18286   4.086   4.434   9.138  0.4674 -0.1553  1.0166
 2218SOL    HW118287   4.034   4.354   9.135 -0.1448  0.2268  1.2909
 2218SOL    HW218288   4.014   4.491   9.110  0.2086 -0.8652  0.2153
 2219SOL     OW18289   3.510   2.112   6.175 -0.1993  0.7282 -0.3062
 2219SOL    HW118290   3.581   2.164   6.212  1.4689 -0.3917 -1.9771
 2219SOL    HW218291   3.443   2.138   6.239  0.3419  1.4283 -0.0254
 2220SOL     OW18292   2.618   2.522   9.388  0.2492 -0.7858  0.2643
 2220SOL    HW118293   2.660   2.442   9.355  0.6926 -1.0651  1.5149
 2220SOL    HW218294   2.543   2.527   9.329  0.1278 -0.8713  0.4114
 2221SOL     OW18295   4.465   1.534   2.140 -0.3261  0.3910  0.0052
 2221SOL    HW118296   4.545   1.490   2.111 -0.9797 -1.2186  0.6178
 2221SOL    HW218297   4.471   1.499   2.228 -0.4774  1.2501  0.3575
 2222SOL     OW18298   0.725   0.957  12.313 -0.1376 -0.4246 -0.0135
 2222SOL    HW118299   0.785   1.026  12.285 -2.1968  0.3893 -2.4693
 2222SOL    HW218300   0.780   0.903  12.369  2.3156 -0.2197 -2.2515
 2223SOL     OW18301   2.069   2.990   8.972  0.0554 -0.5579 -0.5797
 2223SOL    HW118302   2.037   3.080   8.982  0.2497 -0.5798  0.1955
 2223SOL    HW218303   2.149   3.007   8.921  0.3054  0.1293  0.0428
 2224SOL     OW18304   2.586   3.224   9.538  0.4196 -0.4827  0.0943
 2224SOL    HW118305   2.607   3.133   9.562 -0.7444 -0.4138  1.3578
 2224SOL    HW218306   2.561   3.229   9.446 -0.4285 -1.5266  0.2559
 2225SOL     OW18307   0.880   2.835   7.158  0.3522  0.2037  0.1342
 2225SOL    HW118308   0.901   2.915   7.206  1.9257  0.6254 -1.2262
 2225SOL    HW218309   0.803   2.862   7.108 -0.0284  0.0236  0.6278
 2226SOL     OW18310   1.500   3.587   1.816 -0.4152 -0.0912 -0.3473
 2226SOL    HW118311   1.436   3.525   1.850 -0.4643  0.5201  0.6722
 2226SOL    HW218312   1.581   3.573   1.866 -2.2121 -0.1711  2.5515
 2227SOL     OW18313   3.649   2.501   8.899 -0.1727  0.2473  0.2777
 2227SOL    HW118314   3.688   2.588   8.891 -0.6756  0.2482 -2.2715
 2227SOL    HW218315   3.718   2.471   8.958  0.2789  0.8096  0.0347
 2228SOL     OW18316   2.354   4.435   6.000  0.1191  0.3881 -0.5667
 2228SOL    HW118317   2.414   4.504   5.971  0.5499  0.7342  1.1401
 2228SOL    HW218318   2.289   4.440   5.930 -2.5730 -1.4412  1.8184
 2229SOL     OW18319   0.889   1.237   6.605 -0.2722 -0.2891  0.1815
 2229SOL    HW118320   0.864   1.240   6.513 -0.2521 -0.5014  0.1706
 2229SOL    HW218321   0.872   1.147   6.632  0.6556 -0.5874 -0.2036
 2230SOL     OW18322   1.054   1.655   8.353  0.0445 -0.1763  0.4284
 2230SOL    HW118323   1.112   1.593   8.399 -0.1612 -1.1292 -0.5945
 2230SOL    HW218324   0.973   1.653   8.403 -1.2405 -1.7914 -1.7130
 2231SOL     OW18325   1.274   0.993   7.680 -0.7132  0.2302  0.4361
 2231SOL    HW118326   1.355   0.999   7.730  0.3202  1.6453 -1.3963
 2231SOL    HW218327   1.220   0.971   7.756 -1.2443 -1.5926 -0.4809
 2232SOL     OW18328   2.495   2.022   8.506  0.0518  0.4896  0.0136
 2232SOL    HW118329   2.425   2.021   8.571  0.0239 -3.9558 -0.1000
 2232SOL    HW218330   2.496   2.115   8.482 -0.1223  0.4504 -0.1445
 2233SOL     OW18331   4.055   0.734  10.583 -0.4241 -0.2666  0.5211
 2233SOL    HW118332   4.080   0.821  10.614 -0.4112 -0.2987  0.5995
 2233SOL    HW218333   3.963   0.736  10.611 -0.5220 -0.7278  0.2353
 2234SOL     OW18334   4.122   3.107   2.190 -0.3610  0.5472  0.5748
 2234SOL    HW118335   4.176   3.055   2.130 -0.6204  0.8547  0.0695
 2234SOL    HW218336   4.049   3.047   2.180 -0.7310  0.6625  2.5884
 2235SOL     OW18337   0.657   1.465   5.612  0.4563 -0.2575  0.0830
 2235SOL    HW118338   0.742   1.509   5.612  0.7076 -0.7229 -2.4482
 2235SOL    HW218339   0.663   1.413   5.692 -0.5072 -2.3155 -1.1612
 2236SOL     OW18340   0.086   0.231   2.486 -0.3710 -0.3477  0.1090
 2236SOL    HW118341   0.162   0.280   2.455 -1.2983 -0.2915 -2.1428
 2236SOL    HW218342   0.094   0.141   2.454  2.9233  0.1648 -0.5347
 2237SOL     OW18343   2.503   1.330  10.236  0.1048 -0.6093  0.1250
 2237SOL    HW118344   2.425   1.353  10.287  0.1513  0.3921 -0.2547
 2237SOL    HW218345   2.566   1.316  10.306  2.3429 -1.6267 -2.0707
 2238SOL     OW18346   3.330   4.483   4.921  0.1758  0.3071 -0.8598
 2238SOL    HW118347   3.353   4.395   4.951  0.6730  0.5037 -0.6545
 2238SOL    HW218348   3.236   4.490   4.936  0.3307 -1.2821  0.8251
 2239SOL     OW18349   2.942   2.840  17.692  0.3712  0.1769 -0.2866
 2239SOL    HW118350   3.021   2.825   0.014 -0.6168 -1.6789  0.7154
 2239SOL    HW218351   2.982   2.821  17.607 -0.6451  1.6188 -1.0891
 2240SOL     OW18352   0.723   0.048  10.221  0.1360 -0.4908  0.5301
 2240SOL    HW118353   0.638   0.065  10.260 -0.1189 -2.2783  0.7179
 2240SOL    HW218354   0.772   0.087  10.294 -1.2956 -1.6461  2.0953
 2241SOL     OW18355   3.115   1.112   7.720  0.1223 -0.0870  0.1498
 2241SOL    HW118356   3.175   1.154   7.658  2.5574 -1.4129  1.6214
 2241SOL    HW218357   3.100   1.180   7.785  0.4857 -1.2393  1.4185
 2242SOL     OW18358   1.669   3.805  17.508 -0.1555  0.7682  0.7003
 2242SOL    HW118359   1.575   3.819  17.498  0.3856  1.4636 -3.3532
 2242SOL    HW218360   1.692   3.847  17.425 -0.9475  0.9735  0.5891
 2243SOL     OW18361   2.443   2.241   5.574  0.1958 -0.5427 -0.0284
 2243SOL    HW118362   2.534   2.262   5.552 -0.1621 -0.4767 -1.4620
 2243SOL    HW218363   2.421   2.332   5.595  0.8784  0.0652 -1.9083
 2244SOL     OW18364   1.860   0.304   9.985  0.0835 -0.3702  0.4266
 2244SOL    HW118365   1.770   0.273   9.976 -0.5103  0.5344  3.2890
 2244SOL    HW218366   1.856   0.349  10.069  0.7497 -1.8030  1.2305
 2245SOL     OW18367   2.022   1.126   3.402 -0.2236  0.9676  0.4933
 2245SOL    HW118368   1.955   1.186   3.436  0.1225  1.1540  0.8415
 2245SOL    HW218369   1.983   1.066   3.338  1.8568 -1.6939  1.7210
 2246SOL     OW18370   0.319   4.013   3.813 -0.2228 -0.0245  0.1410
 2246SOL    HW118371   0.348   4.095   3.852 -2.7191  0.9722 -0.1082
 2246SOL    HW218372   0.315   3.959   3.892 -1.0984  1.4326  1.1052
 2247SOL     OW18373   4.675   1.959  12.385 -0.4687  0.0994 -0.2439
 2247SOL    HW118374   4.710   1.920  12.305 -0.3899 -2.8519  1.2538
 2247SOL    HW218375   0.010   2.025  12.403  0.6171 -0.1854 -3.3038
 2248SOL     OW18376   0.569   1.525   4.069 -0.6230 -0.6650 -0.3677
 2248SOL    HW118377   0.558   1.587   4.141 -0.2190  1.5067 -2.1804
 2248SOL    HW218378   0.504   1.459   4.091 -0.1967 -0.2072  2.2299
 2249SOL     OW18379   2.006   0.078  16.053 -0.4074  0.6803  0.3438
 2249SOL    HW118380   2.002   0.077  15.958  0.6483 -0.3538  0.3128
 2249SOL    HW218381   2.033   4.722  16.076 -0.1308  0.8678  0.7550
 2250SOL     OW18382   0.144   4.135   8.145 -0.4401  0.1258 -0.9802
 2250SOL    HW118383   0.082   4.122   8.217  0.3109 -0.7081 -0.4922
 2250SOL    HW218384   0.178   4.219   8.176 -2.2348  0.4620  0.1580
 2251SOL     OW18385   3.422   0.184   6.424  0.6664 -0.1429  0.8079
 2251SOL    HW118386   3.442   0.211   6.334  2.4624  3.1954  2.2276
 2251SOL    HW218387   3.501   0.151   6.466  0.2684 -1.4299  0.5613
 2252SOL     OW18388   3.580   2.868   3.626 -0.6696 -0.6647  0.1134
 2252SOL    HW118389   3.633   2.811   3.682  0.1012 -1.3434 -1.3047
 2252SOL    HW218390   3.500   2.818   3.610  0.1368 -2.6404  2.2013
 2253SOL     OW18391   0.527   4.534   8.854  0.3000  0.0313  0.2103
 2253SOL    HW118392   0.545   4.561   8.944  1.3980  1.5835 -0.4632
 2253SOL    HW218393   0.487   4.448   8.866 -0.7477  0.7501  1.8425
 2254SOL     OW18394   2.188   4.115   7.622  0.4680  0.7780 -0.6400
 2254SOL    HW118395   2.195   4.208   7.602 -0.6074  0.5519 -2.0703
 2254SOL    HW218396   2.112   4.082   7.575 -1.0951  0.9117  1.7999
 2255SOL     OW18397   1.837   3.982   9.333 -0.1455 -0.0438  0.1373
 2255SOL    HW118398   1.906   4.048   9.341 -2.2441  2.2441 -0.4005
 2255SOL    HW218399   1.757   4.034   9.323 -0.0747 -0.3524 -2.2604
 2256SOL     OW18400   0.450   1.673  16.956  0.2398 -0.0789 -0.5085
 2256SOL    HW118401   0.481   1.584  16.944  3.3110  0.5863  2.8411
 2256SOL    HW218402   0.524   1.727  16.984 -0.5723  0.6048  0.3341
 2257SOL     OW18403   3.815   0.767  15.285 -0.3992  0.7229  0.0330
 2257SOL    HW118404   3.740   0.818  15.253 -1.8041 -1.2607  0.1168
 2257SOL    HW218405   3.890   0.825  15.278  1.5121 -1.6751  0.5349
 2258SOL     OW18406   4.517   1.365   0.892 -0.0729  0.1644  0.4424
 2258SOL    HW118407   4.438   1.401   0.933  0.3025  0.5314  0.8453
 2258SOL    HW218408   4.482   1.319   0.816 -0.9772  0.5175  0.6348
 2259SOL     OW18409   3.832   2.040   2.941 -0.3053 -0.0794 -0.3329
 2259SOL    HW118410   3.829   1.949   2.913  0.9048  0.2756 -1.5829
 2259SOL    HW218411   3.742   2.074   2.936 -0.0882  0.5372 -0.1017
 2260SOL     OW18412   0.982   0.321   4.686 -0.3370  1.0468  0.4227
 2260SOL    HW118413   1.075   0.299   4.679 -0.7244 -0.5192  0.2617
 2260SOL    HW218414   0.983   0.395   4.748 -1.7401  0.0092  1.6752
 2261SOL     OW18415   0.657   1.786   3.987 -0.3201  0.7037  0.3371
 2261SOL    HW118416   0.672   1.695   3.964 -3.9597  0.4260 -0.8392
 2261SOL    HW218417   0.570   1.778   4.026 -1.9516  1.4632 -3.1493
 2262SOL     OW18418   3.125   0.468   4.436  0.0393 -0.0064 -0.5678
 2262SOL    HW118419   3.199   0.411   4.457  0.6905  1.1631  0.2704
 2262SOL    HW218420   3.165   0.532   4.377  0.8994 -0.0343 -0.0200
 2263SOL     OW18421   2.314   2.911   4.286  0.3843 -0.5415  0.4385
 2263SOL    HW118422   2.277   2.997   4.308 -0.1999 -1.3889  2.7371
 2263SOL    HW218423   2.332   2.910   4.192 -1.1494 -0.5701  0.1446
 2264SOL     OW18424   2.188   3.156   4.178 -0.3357  0.3039  0.3580
 2264SOL    HW118425   2.196   3.188   4.268  0.7894 -0.8460  0.6728
 2264SOL    HW218426   2.159   3.238   4.139 -1.5542 -1.0255 -1.5104
 2265SOL     OW18427   1.785   4.501   6.839 -0.4093 -0.5707 -0.4580
 2265SOL    HW118428   1.826   4.469   6.759  0.6096  1.4873 -0.7699
 2265SOL    HW218429   1.834   4.580   6.863 -0.4879  0.2762 -3.0855
 2266SOL     OW18430   3.890   1.831   5.125  0.5623 -0.1937  0.4025
 2266SOL    HW118431   3.847   1.748   5.146  1.8212 -0.1189  3.3052
 2266SOL    HW218432   3.857   1.834   5.036 -0.4898  1.0124  0.8341
 2267SOL     OW18433   3.838   3.419   7.050  0.5046 -0.6912 -0.1370
 2267SOL    HW118434   3.859   3.510   7.030 -4.6308  1.2252  3.2269
 2267SOL    HW218435   3.864   3.417   7.142 -1.5822  2.0806  0.5352
 2268SOL     OW18436   3.709   1.665  16.129  0.3628  0.3202  0.0885
 2268SOL    HW118437   3.668   1.621  16.204  1.2297 -0.6576 -0.0151
 2268SOL    HW218438   3.785   1.690  16.182  0.1312  3.3839 -1.0278
 2269SOL     OW18439   2.292   1.478  17.474 -0.5286 -0.0979 -0.0291
 2269SOL    HW118440   2.364   1.540  17.463  0.7928 -1.8174 -1.0534
 2269SOL    HW218441   2.268   1.469  17.381  0.4018 -2.7764 -0.0096
 2270SOL     OW18442   1.555   0.257   7.533  0.2734  0.2427 -0.4243
 2270SOL    HW118443   1.545   0.233   7.441  0.2952  1.5016 -0.7556
 2270SOL    HW218444   1.644   0.229   7.555  0.7800  0.8706 -1.6983
 2271SOL     OW18445   0.716   4.152   6.374 -0.2531  0.2505 -0.2046
 2271SOL    HW118446   0.645   4.153   6.439  0.5021  3.0083  0.6044
 2271SOL    HW218447   0.713   4.057   6.367  0.5633  0.3136 -1.3605
 2272SOL     OW18448   3.792   2.951   3.475 -0.5234 -0.0567  0.5921
 2272SOL    HW118449   3.709   2.930   3.519 -1.8570 -0.7148 -2.2336
 2272SOL    HW218450   3.840   2.999   3.542 -0.4467  0.4244  0.1904
 2273SOL     OW18451   0.384   2.314  16.402 -0.3231 -0.0989  0.1771
 2273SOL    HW118452   0.317   2.245  16.403  0.2304 -0.6633 -1.4866
 2273SOL    HW218453   0.411   2.333  16.491 -0.3939 -0.2332  0.2274
 2274SOL     OW18454   3.825   1.570   0.750  0.3292 -0.7595 -0.4726
 2274SOL    HW118455   3.800   1.535   0.836  2.4368 -1.4525 -0.1397
 2274SOL    HW218456   3.750   1.627   0.730 -1.3970 -2.5919  0.6876
 2275SOL     OW18457   4.411   1.027   8.680  0.1587 -0.2323 -0.8555
 2275SOL    HW118458   4.432   0.980   8.761  0.9582 -0.5553 -1.2518
 2275SOL    HW218459   4.496   1.046   8.640  0.8397 -1.2721  0.1029
 2276SOL     OW18460   0.196   4.038   5.422  0.5243 -0.2253  0.1651
 2276SOL    HW118461   0.148   3.961   5.450  0.7047 -0.7225 -0.9011
 2276SOL    HW218462   0.115   4.084   5.399  1.7098  3.4422  3.2555
 2277SOL     OW18463   2.295   4.598   4.659 -0.7389 -0.1870 -0.2953
 2277SOL    HW118464   2.303   4.513   4.702 -0.3283  0.3589  0.6955
 2277SOL    HW218465   2.367   4.604   4.596 -1.6300 -3.1724 -1.5997
 2278SOL     OW18466   1.274   0.328   2.186  0.0980  0.2210  0.5999
 2278SOL    HW118467   1.244   0.419   2.187 -2.7606 -0.6983 -0.5590
 2278SOL    HW218468   1.214   0.301   2.256 -3.3027  0.7694 -2.0856
 2279SOL     OW18469   2.973   4.390   8.644 -0.5946 -0.0941  0.1654
 2279SOL    HW118470   2.894   4.345   8.675 -0.0195 -2.0116 -1.1690
 2279SOL    HW218471   3.015   4.331   8.581  0.9083  2.1707 -0.9656
 2280SOL     OW18472   2.467   1.522  12.366  0.1628 -0.1520 -0.5521
 2280SOL    HW118473   2.519   1.486  12.295  1.5172  1.1358 -0.2170
 2280SOL    HW218474   2.376   1.520  12.335 -0.2206  0.2894  0.5338
 2281SOL     OW18475   2.632   3.577   5.602 -0.1870 -0.2237  0.3017
 2281SOL    HW118476   2.687   3.509   5.641 -2.1742 -0.7813  2.0831
 2281SOL    HW218477   2.663   3.575   5.512 -0.5694  4.3816  0.0943
 2282SOL     OW18478   1.070   4.077  14.383 -0.3706 -0.5952 -0.3982
 2282SOL    HW118479   1.008   4.113  14.319 -0.2850  4.1218  2.1413
 2282SOL    HW218480   1.060   4.141  14.454  1.3558  0.2857 -0.9616
 2283SOL     OW18481   1.449   2.064  10.460  0.4471 -0.3951 -0.3716
 2283SOL    HW118482   1.385   2.030  10.523 -0.1441  2.6904  0.6753
 2283SOL    HW218483   1.394   2.134  10.424  0.6173 -0.3557 -0.5544
 2284SOL     OW18484   1.345   3.997   2.061  0.6882 -0.3007 -0.4087
 2284SOL    HW118485   1.347   4.053   1.983 -2.3572  0.5784  0.1329
 2284SOL    HW218486   1.435   3.984   2.090  0.5269 -1.4828 -0.4545
 2285SOL     OW18487   2.716   2.279   5.141 -0.8063  0.4300  0.4209
 2285SOL    HW118488   2.689   2.369   5.124  0.7997  1.2177  2.0021
 2285SOL    HW218489   2.759   2.285   5.226 -3.3580  0.0919  1.7328
 2286SOL     OW18490   0.494   2.793   1.054  0.3072  0.0043 -0.2821
 2286SOL    HW118491   0.411   2.784   1.101  0.1585 -2.4647 -0.9993
 2286SOL    HW218492   0.511   2.701   1.032  2.9248  0.8345 -1.6031
 2287SOL     OW18493   4.196   4.265   8.856 -0.1834 -0.5952 -0.2430
 2287SOL    HW118494   4.216   4.251   8.949 -0.5561 -0.1607 -0.0964
 2287SOL    HW218495   4.136   4.339   8.863  1.6513  0.8398  0.1395
 2288SOL     OW18496   3.540   2.727   2.742  0.5556 -0.1343 -0.2306
 2288SOL    HW118497   3.553   2.675   2.663 -0.0789 -1.0365  0.2617
 2288SOL    HW218498   3.630   2.751   2.762 -0.1517  0.1929  2.5708
 2289SOL     OW18499   2.191   0.318  16.704 -0.2508 -0.2163 -0.1656
 2289SOL    HW118500   2.147   0.338  16.786 -1.5812  0.1961 -0.9912
 2289SOL    HW218501   2.267   0.268  16.733  0.5863  1.0914 -0.0692
 2290SOL     OW18502   3.655   0.285  10.995 -0.4120 -0.0379  0.2847
 2290SOL    HW118503   3.709   0.302  11.073  0.7229 -0.1312 -0.4783
 2290SOL    HW218504   3.585   0.232  11.034 -0.0202 -0.6369  0.1855
 2291SOL     OW18505   3.238   0.079  12.938 -0.0184 -0.0731  0.1362
 2291SOL    HW118506   3.229   0.010  13.004  0.9370 -0.0404  0.2937
 2291SOL    HW218507   3.221   0.021  12.863 -0.1887 -1.0679  0.9516
 2292SOL     OW18508   0.065   0.435   0.397 -0.4517  0.1422  0.9028
 2292SOL    HW118509   0.084   0.364   0.459 -0.7482 -0.6216  0.1159
 2292SOL    HW218510   4.702   0.430   0.402 -0.6014  2.4660  0.2604
 2293SOL     OW18511   2.392   0.470   2.436  0.1827 -0.8182 -0.4868
 2293SOL    HW118512   2.474   0.500   2.397 -1.5969  0.6634 -3.1196
 2293SOL    HW218513   2.388   0.379   2.409  0.9035 -0.7233 -0.8988
 2294SOL     OW18514   0.834   3.507   8.572 -0.4089  0.3840  0.0306
 2294SOL    HW118515   0.786   3.458   8.505 -0.7196 -1.2890  1.4902
 2294SOL    HW218516   0.759   3.556   8.605  0.1105 -0.2056  2.0630
 2295SOL     OW18517   3.697   2.217   6.390  0.0295  0.1072  0.5705
 2295SOL    HW118518   3.675   2.133   6.431  1.4440 -0.4647  0.1718
 2295SOL    HW218519   3.790   2.216   6.368 -0.3357  0.1309 -1.0295
 2296SOL     OW18520   4.465   4.253   9.727 -0.7408  0.1098 -0.4222
 2296SOL    HW118521   4.533   4.320   9.716 -1.0858  0.4830 -0.3056
 2296SOL    HW218522   4.456   4.245   9.822  1.7596  2.6078  0.0126
 2297SOL     OW18523   2.636   0.834  17.352 -0.4667 -0.5109 -0.3236
 2297SOL    HW118524   2.697   0.781  17.403 -2.1828  0.0634  2.2984
 2297SOL    HW218525   2.673   0.831  17.263 -0.8322  0.6225 -0.5095
 2298SOL     OW18526   3.801   4.008  12.871 -0.3488  0.2445 -0.2751
 2298SOL    HW118527   3.797   4.065  12.794  0.8068  1.3723  0.5018
 2298SOL    HW218528   3.887   3.967  12.876 -0.3391  0.2935 -0.0640
 2299SOL     OW18529   3.933   2.385   6.291  0.7317  0.3861 -0.1271
 2299SOL    HW118530   3.927   2.450   6.361 -2.8198 -0.9834  0.8381
 2299SOL    HW218531   3.856   2.410   6.240  0.3910 -1.6284 -0.6193
 2300SOL     OW18532   1.123   2.738   9.275  0.4775 -0.0128 -0.8801
 2300SOL    HW118533   1.054   2.792   9.312 -0.8853 -0.7136 -2.3812
 2300SOL    HW218534   1.067   2.671   9.234  0.6238 -0.2581 -0.6786
 2301SOL     OW18535   2.067   3.087   4.887 -0.3380 -0.2055  0.3015
 2301SOL    HW118536   2.016   3.111   4.810 -0.3735  2.5433  1.1801
 2301SOL    HW218537   2.009   3.031   4.937  1.1063 -1.2254  0.8354
 2302SOL     OW18538   4.447   4.530  15.368  0.2204 -0.0631 -0.2008
 2302SOL    HW118539   4.503   4.482  15.307  1.0365  1.8428 -0.9694
 2302SOL    HW218540   4.489   4.615  15.378  1.0695 -0.7335  1.8918
 2303SOL     OW18541   0.114   2.014   0.421 -0.9924  0.0032 -0.4326
 2303SOL    HW118542   0.094   2.019   0.327 -2.0885  3.6609 -0.0116
 2303SOL    HW218543   0.084   2.094   0.464  3.2431  1.0889  0.4842
 2304SOL     OW18544   3.495   1.540   2.607  0.6839  0.0840 -0.4807
 2304SOL    HW118545   3.444   1.510   2.532  1.2519  1.1916 -1.3092
 2304SOL    HW218546   3.572   1.484   2.607 -0.0460 -0.9172 -2.5145
 2305SOL     OW18547   0.843   1.323   3.852 -0.2767 -0.1723 -0.1706
 2305SOL    HW118548   0.900   1.317   3.775  0.2935 -1.7780  0.3727
 2305SOL    HW218549   0.811   1.233   3.855 -0.5211 -0.1319 -1.4606
 2306SOL     OW18550   2.209   4.469  15.552  0.1195  0.0096  0.6052
 2306SOL    HW118551   2.242   4.555  15.525  2.6568 -0.8229  1.0292
 2306SOL    HW218552   2.273   4.458  15.623  2.3752  0.9761 -1.2616
 2307SOL     OW18553   3.149   4.572   5.925  0.2267 -0.2304  0.5980
 2307SOL    HW118554   3.068   4.606   5.963 -0.4380  0.1095 -1.1285
 2307SOL    HW218555   3.213   4.612   5.984  1.1793 -1.5722  0.4780
 2308SOL     OW18556   1.828   1.240   6.546  0.2971  0.4370  0.0802
 2308SOL    HW118557   1.812   1.303   6.475 -0.9064  1.1010  0.9259
 2308SOL    HW218558   1.893   1.289   6.596  2.1416 -1.1803 -0.7510
 2309SOL     OW18559   4.231   4.591  17.579 -0.0522  0.3441 -0.0220
 2309SOL    HW118560   4.221   4.541  17.660  1.1952  1.1277  0.6136
 2309SOL    HW218561   4.326   4.593  17.575 -0.1216  2.7598 -0.0816
 2310SOL     OW18562   3.541   1.650  11.757 -0.4408  0.4671  0.0396
 2310SOL    HW118563   3.487   1.601  11.820  1.7450  0.5594  1.9761
 2310SOL    HW218564   3.569   1.725  11.810  0.3177 -1.3337  2.1777
 2311SOL     OW18565   3.846   1.009   7.963 -0.5066  0.3717  0.3444
 2311SOL    HW118566   3.817   0.968   7.882 -0.2892  2.3528 -0.7176
 2311SOL    HW218567   3.815   1.098   7.945  2.8675  1.3561 -0.6367
 2312SOL     OW18568   2.473   1.923  17.331 -0.7012 -0.4476  0.2305
 2312SOL    HW118569   2.526   2.002  17.323 -1.0172 -0.3188 -0.5580
 2312SOL    HW218570   2.414   1.931  17.256 -2.2203  1.5029  1.6599
 2313SOL     OW18571   0.511   0.302   7.400 -0.9274  0.6463 -0.4751
 2313SOL    HW118572   0.501   0.322   7.493 -1.6519  1.1453 -0.6600
 2313SOL    HW218573   0.596   0.338   7.376 -1.1209  1.6098  0.2678
 2314SOL     OW18574   3.110   3.964   9.334 -0.2541  0.3100 -0.6923
 2314SOL    HW118575   3.150   3.918   9.260 -1.2055  0.5022 -1.3274
 2314SOL    HW218576   3.129   4.054   9.309 -3.1667  0.9662 -0.5219
 2315SOL     OW18577   2.785   0.290   2.944 -0.5721  0.0267  0.3625
 2315SOL    HW118578   2.757   0.315   2.856  2.6184 -3.1217 -1.5315
 2315SOL    HW218579   2.711   0.316   2.999  0.5607  0.3038  1.7711
 2316SOL     OW18580   4.114   0.791   1.831  0.0537 -0.1051  0.3418
 2316SOL    HW118581   4.145   0.878   1.804  0.6727  0.0187  1.4476
 2316SOL    HW218582   4.129   0.735   1.755 -1.2976 -2.4702  1.8329
 2317SOL     OW18583   4.713   4.610   7.405  0.2514  0.7086  0.0222
 2317SOL    HW118584   4.719   4.533   7.460 -3.5428  0.7738  0.5004
 2317SOL    HW218585   4.640   4.657   7.446  1.0505 -0.5707  2.9002
 2318SOL     OW18586   2.611   4.190   7.660  0.3319 -0.3539  0.2095
 2318SOL    HW118587   2.580   4.275   7.693  0.0948  0.0349 -1.0239
 2318SOL    HW218588   2.547   4.130   7.697  2.4594 -2.4973  0.3846
 2319SOL     OW18589   2.057   1.702  16.071  0.1503  0.1590 -0.2969
 2319SOL    HW118590   1.996   1.652  16.126  0.3635  0.5564  0.2980
 2319SOL    HW218591   2.075   1.642  15.999 -0.4469  0.4339 -0.6793
 2320SOL     OW18592   3.416   3.840   2.435  0.2565 -0.6022  0.1659
 2320SOL    HW118593   3.437   3.892   2.358  0.9831 -2.6342 -1.0274
 2320SOL    HW218594   3.379   3.764   2.391  2.5914 -2.0812  0.6930
 2321SOL     OW18595   2.796   1.005  13.994 -0.3683 -0.3969  0.0087
 2321SOL    HW118596   2.781   0.937  13.929  1.0821 -1.8493  1.1931
 2321SOL    HW218597   2.883   0.995  14.033 -0.7019 -2.2963  0.2562
 2322SOL     OW18598   2.536   0.003   5.281 -1.1609  0.5568 -0.0087
 2322SOL    HW118599   2.619   0.041   5.253 -0.9172 -1.2637 -1.7224
 2322SOL    HW218600   2.476   0.072   5.252 -2.3386  0.5811  2.4380
 2323SOL     OW18601   2.102   3.275   2.891  0.2158 -0.5153  0.3190
 2323SOL    HW118602   2.075   3.195   2.845  0.3616  0.9401 -2.3396
 2323SOL    HW218603   2.196   3.262   2.878  0.5503 -0.1448  2.4420
 2324SOL     OW18604   4.313   1.846   7.208  0.5307  0.4871 -0.0118
 2324SOL    HW118605   4.354   1.926   7.176 -1.0216  0.9209 -0.9241
 2324SOL    HW218606   4.388   1.790   7.227 -0.6093 -1.1295 -0.2278
 2325SOL     OW18607   3.296   3.647   7.353 -0.0046 -0.2183  0.3817
 2325SOL    HW118608   3.261   3.605   7.431 -0.4597 -0.5877 -0.0190
 2325SOL    HW218609   3.221   3.633   7.295 -0.5500  2.6990  0.4073
 2326SOL     OW18610   3.030   0.022   6.273 -0.0645 -0.0604  0.7043
 2326SOL    HW118611   3.082   0.040   6.195 -1.6287  1.0589 -0.0786
 2326SOL    HW218612   3.095   4.728   6.338  0.7675 -0.2870 -0.2171
 2327SOL     OW18613   1.632   3.883   4.122  0.0584 -0.7671  0.1713
 2327SOL    HW118614   1.651   3.811   4.182 -2.0854 -1.1777  0.3507
 2327SOL    HW218615   1.692   3.861   4.051 -0.2245 -0.3435 -0.1942
 2328SOL     OW18616   1.343   4.517   9.370  0.2467  0.3201 -0.1440
 2328SOL    HW118617   1.330   4.422   9.367 -1.2756  0.5495 -0.5170
 2328SOL    HW218618   1.259   4.553   9.396  1.4011  1.4986  2.0125
 2329SOL     OW18619   3.344   2.648   4.624  0.0951  0.3422  0.3782
 2329SOL    HW118620   3.323   2.728   4.671  2.3203  0.5320  1.0339
 2329SOL    HW218621   3.275   2.630   4.560 -0.7544 -0.2680  1.4664
 2330SOL     OW18622   4.156   3.136   3.467 -0.0374 -0.0606  0.2046
 2330SOL    HW118623   4.182   3.112   3.556  1.8435 -1.3582 -0.7045
 2330SOL    HW218624   4.215   3.206   3.440  1.2623 -0.5490  1.7811
 2331SOL     OW18625   0.766   1.505   7.861  0.7806 -0.4636  0.0963
 2331SOL    HW118626   0.856   1.478   7.876  0.0156 -2.0504  1.8798
 2331SOL    HW218627   0.746   1.564   7.934  0.3520 -2.2310  1.4184
 2332SOL     OW18628   0.654   1.225   4.810  0.2120 -0.6286 -0.3446
 2332SOL    HW118629   0.575   1.266   4.844  1.0674 -0.4883  1.5168
 2332SOL    HW218630   0.632   1.161   4.743 -0.3822 -0.8404  0.0578
 2333SOL     OW18631   1.928   1.872  13.178  0.4222 -0.1523 -0.7227
 2333SOL    HW118632   1.881   1.900  13.099 -0.4485 -0.5623 -0.3551
 2333SOL    HW218633   1.912   1.947  13.235  3.3629  1.7695 -2.4247
 2334SOL     OW18634   3.675   1.995   5.833  0.4764 -0.9083  0.0032
 2334SOL    HW118635   3.756   1.943   5.828 -1.7145 -4.3702  0.6604
 2334SOL    HW218636   3.654   1.975   5.925  1.5729 -1.5083  0.1281
 2335SOL     OW18637   1.205   3.401   5.490 -0.4548  0.3610  0.6722
 2335SOL    HW118638   1.235   3.318   5.454 -2.4499 -1.0977  2.4154
 2335SOL    HW218639   1.279   3.438   5.539  0.7320 -0.4686 -0.4910
 2336SOL     OW18640   3.192   2.947  17.142  0.1807 -0.4283  0.1893
 2336SOL    HW118641   3.284   2.957  17.118 -0.3858  0.5057 -1.5855
 2336SOL    HW218642   3.145   3.028  17.124 -0.6708 -0.4413  2.4149
 2337SOL     OW18643   2.408   0.690   4.826  0.2669  0.1389 -0.5103
 2337SOL    HW118644   2.415   0.607   4.780  1.3298 -0.3974  0.6236
 2337SOL    HW218645   2.480   0.685   4.889 -0.7700 -0.2398  0.6470
 2338SOL     OW18646   2.308   4.690   1.329  0.3279  0.0657  0.2845
 2338SOL    HW118647   2.300   0.040   1.281  1.9990 -0.4129 -0.8015
 2338SOL    HW218648   2.251   4.698   1.406 -2.7204  0.7263 -2.0307
 2339SOL     OW18649   1.985   2.074   5.605 -0.2124  0.1548 -0.4772
 2339SOL    HW118650   1.984   2.105   5.695  0.0149  1.1072 -0.8082
 2339SOL    HW218651   1.981   2.153   5.551 -2.2147 -0.0302 -0.5991
 2340SOL     OW18652   3.721   3.804   6.096 -0.3024 -0.4519  0.1003
 2340SOL    HW118653   3.807   3.841   6.076 -1.0936  1.4737  0.3081
 2340SOL    HW218654   3.685   3.883   6.136  1.5866  1.2541 -1.5403
 2341SOL     OW18655   2.469   0.796  16.203  0.0206  0.0972  0.2620
 2341SOL    HW118656   2.381   0.777  16.171  0.0896  0.1185  0.0589
 2341SOL    HW218657   2.472   0.890  16.219  0.3974  0.5028 -2.1868
 2342SOL     OW18658   3.589   1.993   8.650  0.0398  0.2744  0.1426
 2342SOL    HW118659   3.566   1.958   8.736  0.1574  1.3889  0.6326
 2342SOL    HW218660   3.663   1.933   8.643  0.9403  1.4128 -0.1511
 2343SOL     OW18661   2.597   0.319  16.618 -0.0460  0.5284 -0.5148
 2343SOL    HW118662   2.548   0.349  16.542  0.8832  1.5597 -0.7211
 2343SOL    HW218663   2.541   0.259  16.667  0.0782  1.6900  1.0745
 2344SOL     OW18664   1.617   1.933   3.339 -0.7409 -0.0422 -0.5156
 2344SOL    HW118665   1.531   1.892   3.338 -1.5199  1.5710  0.1719
 2344SOL    HW218666   1.631   1.965   3.249  0.3552  2.1150  0.4294
 2345SOL     OW18667   2.150   4.032   0.510  0.2833 -0.2136  0.2685
 2345SOL    HW118668   2.095   4.076   0.574  0.2820  1.8108 -1.1234
 2345SOL    HW218669   2.225   4.091   0.502  0.4140 -0.3704  0.3551
 2346SOL     OW18670   0.137   3.820  13.183  0.0485 -0.1519 -0.0246
 2346SOL    HW118671   0.201   3.862  13.125  1.9581  0.8501  2.7988
 2346SOL    HW218672   0.124   3.734  13.143 -2.4539 -0.2130  0.9563
 2347SOL     OW18673   3.354   3.278   6.636 -0.1239 -0.4867 -0.2326
 2347SOL    HW118674   3.343   3.183   6.631  1.4651 -0.6830 -0.2194
 2347SOL    HW218675   3.355   3.298   6.542 -2.1763 -1.2073 -0.3995
 2348SOL     OW18676   1.487   1.622  14.845 -1.2501 -0.2591 -0.1266
 2348SOL    HW118677   1.483   1.649  14.937  1.6421 -0.0722 -0.0438
 2348SOL    HW218678   1.546   1.683  14.802 -1.9787 -0.4961 -1.4686
 2349SOL     OW18679   0.325   3.630   5.586  0.4754  0.8934 -0.2114
 2349SOL    HW118680   0.411   3.633   5.543  0.7320  1.7726  0.3640
 2349SOL    HW218681   0.350   3.606   5.675  3.4841  1.3052 -0.9453
 2350SOL     OW18682   2.336   2.346   7.471  0.0317 -0.1719 -0.1603
 2350SOL    HW118683   2.392   2.402   7.524  0.8592  0.5719 -1.8390
 2350SOL    HW218684   2.391   2.275   7.439 -2.0755 -0.9743 -2.0304
 2351SOL     OW18685   0.792   1.366   3.026 -0.0175  0.1233 -0.7756
 2351SOL    HW118686   0.797   1.351   3.121 -3.3895 -1.4604 -0.8501
 2351SOL    HW218687   0.855   1.436   3.010 -0.2962  1.0085  1.8997
 2352SOL     OW18688   4.360   4.277   5.748 -0.3664  0.4058  0.1386
 2352SOL    HW118689   4.317   4.192   5.740 -3.3387  2.1645 -2.5660
 2352SOL    HW218690   4.450   4.258   5.724 -1.1020  0.6869 -2.8228
 2353SOL     OW18691   1.441   0.837   8.746  0.4600 -0.4020  0.2516
 2353SOL    HW118692   1.401   0.750   8.745  1.7728 -1.0127  0.0253
 2353SOL    HW218693   1.502   0.829   8.819 -0.3022 -0.0785  0.9213
 2354SOL     OW18694   2.459   1.236  12.953 -0.2057 -0.4605 -0.2464
 2354SOL    HW118695   2.472   1.261  13.045  0.3056 -2.7089  0.2946
 2354SOL    HW218696   2.548   1.247  12.920  0.0344 -1.0999  0.1788
 2355SOL     OW18697   0.780   0.534   7.011  0.8184  0.1738  0.5490
 2355SOL    HW118698   0.845   0.600   7.036  0.0560  1.3243 -0.5055
 2355SOL    HW218699   0.786   0.540   6.916 -1.6435  0.9689  0.4624
 2356SOL     OW18700   4.331   2.791   3.208  0.3686  0.0336 -0.0374
 2356SOL    HW118701   4.309   2.883   3.201  0.4430  0.1332  0.9799
 2356SOL    HW218702   4.375   2.789   3.293 -0.6529  0.8086  0.5000
 2357SOL     OW18703   4.615   1.594  13.124 -0.1309  0.0295  0.3160
 2357SOL    HW118704   4.595   1.597  13.031 -1.9294 -0.9981  0.6768
 2357SOL    HW218705   4.675   1.667  13.135  0.2747 -0.6598  2.7233
 2358SOL     OW18706   0.722   1.076  10.256  0.3266  0.4603  0.0674
 2358SOL    HW118707   0.753   0.986  10.253 -1.2855 -0.1862  2.7083
 2358SOL    HW218708   0.671   1.082  10.175  2.8061  0.9514 -1.4243
 2359SOL     OW18709   2.051   0.082   2.526 -0.6043 -0.1256 -0.1171
 2359SOL    HW118710   2.055   0.147   2.596 -0.1698  0.2389 -0.4781
 2359SOL    HW218711   2.109   0.118   2.458 -1.0549 -1.5932 -1.2623
 2360SOL     OW18712   2.309   2.653  13.437 -0.3906 -0.2761 -0.8932
 2360SOL    HW118713   2.280   2.741  13.457 -0.3561 -1.0430  2.5966
 2360SOL    HW218714   2.387   2.641  13.492 -1.4173  0.1419  0.6394
 2361SOL     OW18715   3.185   4.594  13.097 -0.4415  0.3500  0.5530
 2361SOL    HW118716   3.128   4.556  13.030 -0.4958  2.2458 -0.4723
 2361SOL    HW218717   3.153   4.550  13.176 -2.7717  0.6396 -0.2098
 2362SOL     OW18718   0.006   1.716   3.480 -0.3338 -0.3242 -0.3479
 2362SOL    HW118719   0.018   1.773   3.556  0.8056  0.3635 -1.0370
 2362SOL    HW218720   0.050   1.637   3.512 -0.2216 -0.3853 -0.6519
 2363SOL     OW18721   1.125   2.624   4.820 -0.2830  0.0733  0.5293
 2363SOL    HW118722   1.204   2.644   4.771 -0.7081  0.1799 -0.1152
 2363SOL    HW218723   1.069   2.620   4.742  1.4668  0.2359 -0.7339
 2364SOL     OW18724   4.639   1.874   4.840 -0.0215  0.3805 -0.1858
 2364SOL    HW118725   4.594   1.954   4.868 -1.6922 -1.7957  3.2624
 2364SOL    HW218726   4.569   1.810   4.855 -0.2466  1.0645  1.6672
 2365SOL     OW18727   1.861   1.666   2.703  1.1682  0.6320  0.0979
 2365SOL    HW118728   1.814   1.674   2.620  1.9911  0.7537 -0.3523
 2365SOL    HW218729   1.951   1.687   2.679  1.0466  0.8218 -0.1894
 2366SOL     OW18730   1.553   4.411   2.929 -0.3617 -0.2747 -0.5894
 2366SOL    HW118731   1.599   4.369   2.857  0.9477 -1.2439  0.8148
 2366SOL    HW218732   1.550   4.338   2.991 -0.1168  0.9917  0.9330
 2367SOL     OW18733   1.801   0.883   6.008  0.0532  0.0622  0.3575
 2367SOL    HW118734   1.810   0.800   6.056 -1.9126 -0.9736 -1.0158
 2367SOL    HW218735   1.892   0.892   5.980  0.4143 -0.6003  1.3371
 2368SOL     OW18736   3.364   2.628   3.960  0.6207  0.6277  0.4580
 2368SOL    HW118737   3.413   2.624   4.042  1.2279 -0.7506  0.0289
 2368SOL    HW218738   3.388   2.545   3.918 -0.0987  0.6341  0.0437
 2369SOL     OW18739   4.059   1.003   8.797  0.1034 -0.4532 -0.1387
 2369SOL    HW118740   4.059   1.070   8.729 -3.8595  0.2222  0.5720
 2369SOL    HW218741   3.966   0.996   8.815 -0.1347 -0.9261 -1.5597
 2370SOL     OW18742   4.044   4.238   0.260 -0.2988  0.2766  0.3166
 2370SOL    HW118743   4.047   4.276   0.172 -1.8605 -1.0113 -0.2998
 2370SOL    HW218744   3.951   4.249   0.278 -0.5725 -1.3188 -0.0938
 2371SOL     OW18745   0.800   0.811  16.900  0.1363  0.0147  0.1110
 2371SOL    HW118746   0.858   0.866  16.848 -0.5073 -0.4715 -1.1323
 2371SOL    HW218747   0.786   0.739  16.839 -0.7461  0.5298 -0.2964
 2372SOL     OW18748   3.781   1.484  15.559 -0.0534 -0.0195 -0.7257
 2372SOL    HW118749   3.705   1.513  15.610  0.0743 -1.0903  0.0882
 2372SOL    HW218750   3.801   1.397  15.594 -2.8923  0.5171  2.2065
 2373SOL     OW18751   2.728   3.400  10.584 -0.1276 -0.0464  0.4437
 2373SOL    HW118752   2.695   3.490  10.582  0.3047  0.0924 -0.6166
 2373SOL    HW218753   2.796   3.396  10.516 -1.9149  0.4732 -1.3816
 2374SOL     OW18754   2.021   0.098   0.590 -0.2698 -0.7781 -0.2357
 2374SOL    HW118755   1.945   0.082   0.534  0.7018  1.2300 -2.1013
 2374SOL    HW218756   1.979   0.076   0.673  1.3312 -1.9718  0.2557
 2375SOL     OW18757   4.593   0.612   6.450 -0.1295  0.8713 -0.1223
 2375SOL    HW118758   4.668   0.554   6.462 -0.7400  0.2551  0.7010
 2375SOL    HW218759   4.568   0.626   6.541  1.1808  0.3919  0.3167
 2376SOL     OW18760   0.836   4.442   4.024  0.1996  0.1374  0.5428
 2376SOL    HW118761   0.848   4.524   4.071 -0.7256  0.6788 -0.1692
 2376SOL    HW218762   0.908   4.448   3.962  0.0064 -0.1534  0.2900
 2377SOL     OW18763   2.038   1.367   6.972  0.1798 -0.2691  0.1614
 2377SOL    HW118764   1.979   1.330   7.037 -1.1693  1.6929  0.0692
 2377SOL    HW218765   2.081   1.284   6.953  1.0021  0.9626 -3.3581
 2378SOL     OW18766   3.198   0.880  10.740  0.5766  0.0085  0.7670
 2378SOL    HW118767   3.245   0.904  10.820 -1.7730  1.5159  1.6828
 2378SOL    HW218768   3.254   0.921  10.674  0.4962  0.7082  1.1328
 2379SOL     OW18769   1.334   4.388   3.524  0.6865 -0.0232 -0.4318
 2379SOL    HW118770   1.287   4.385   3.608  1.1639 -2.3053 -0.2288
 2379SOL    HW218771   1.426   4.407   3.543  0.1414  2.7736 -0.6255
 2380SOL     OW18772   1.176   4.208   6.369  0.5498 -0.3246 -0.5754
 2380SOL    HW118773   1.222   4.258   6.301 -2.3650  0.7767 -1.7195
 2380SOL    HW218774   1.158   4.279   6.430 -0.9954  0.2353 -1.6813
 2381SOL     OW18775   3.303   0.459   3.411 -0.5095 -0.0969 -0.6286
 2381SOL    HW118776   3.352   0.383   3.381 -0.3944 -0.6403  0.8889
 2381SOL    HW218777   3.338   0.469   3.500  1.7558 -1.8500 -1.3338
 2382SOL     OW18778   2.892   3.649  16.221  0.0779 -0.6898  0.0134
 2382SOL    HW118779   2.867   3.716  16.157  0.5095 -0.6734 -0.1405
 2382SOL    HW218780   2.931   3.705  16.288 -1.8651  0.4138  0.2310
 2383SOL     OW18781   2.635   3.124  14.461  0.8524  0.3850  0.2586
 2383SOL    HW118782   2.571   3.168  14.519 -1.8533 -0.3592 -2.1778
 2383SOL    HW218783   2.713   3.178  14.469 -0.1535  1.8353  0.3789
 2384SOL     OW18784   0.067   0.511   9.296 -0.0176  0.1609 -0.1091
 2384SOL    HW118785   0.141   0.572   9.300  0.7729 -0.8638  0.7331
 2384SOL    HW218786   4.727   0.567   9.324  1.3077  0.9084  1.8463
 2385SOL     OW18787   2.655   0.494  11.285  0.2510  0.3303  0.1154
 2385SOL    HW118788   2.659   0.585  11.315  0.8281  0.9539 -1.8316
 2385SOL    HW218789   2.744   0.465  11.305  0.7034  1.8155  0.3002
 2386SOL     OW18790   3.941   1.178   5.866  0.2366  0.1005 -0.4965
 2386SOL    HW118791   3.982   1.114   5.923  0.3600  0.3378 -0.3195
 2386SOL    HW218792   3.940   1.258   5.919  1.2553  0.1349 -0.5337
 2387SOL     OW18793   0.525   1.869   3.129  0.3700  0.8759 -0.0087
 2387SOL    HW118794   0.444   1.920   3.124  0.3546  0.8584  0.0545
 2387SOL    HW218795   0.585   1.908   3.193 -1.8620  0.5609  2.3037
 2388SOL     OW18796   2.943   4.218  14.283 -0.4556  0.0790 -0.0158
 2388SOL    HW118797   3.021   4.170  14.255 -1.3631 -0.4728 -1.6201
 2388SOL    HW218798   2.893   4.211  14.202  0.3091  1.4618 -0.6113
 2389SOL     OW18799   3.368   0.291   4.287  0.3622  0.1593  0.3027
 2389SOL    HW118800   3.287   0.244   4.268  0.4210  0.7451 -1.3879
 2389SOL    HW218801   3.358   0.320   4.377 -0.2702 -0.7585  0.5283
 2390SOL     OW18802   2.472   1.560  10.997 -0.0592 -0.4122  0.4287
 2390SOL    HW118803   2.444   1.544  10.908  0.1468 -1.5047  0.5608
 2390SOL    HW218804   2.463   1.477  11.045 -2.0837 -1.8164 -2.4411
 2391SOL     OW18805   3.699   1.480   6.511  0.0709 -0.2247 -0.4945
 2391SOL    HW118806   3.693   1.401   6.565  2.2620 -0.7931 -1.1189
 2391SOL    HW218807   3.782   1.460   6.470  1.3885  0.8508  1.6285
 2392SOL     OW18808   2.490   0.547  12.116  0.7735  0.0904 -0.3293
 2392SOL    HW118809   2.422   0.489  12.150  1.6187 -0.5370  0.3014
 2392SOL    HW218810   2.486   0.530  12.022 -0.6108 -2.2758  0.1521
 2393SOL     OW18811   3.847   4.036   4.297 -0.2501  0.2605  0.2000
 2393SOL    HW118812   3.896   4.045   4.216 -2.2083  2.8500 -0.6983
 2393SOL    HW218813   3.883   3.954   4.332  0.2111  0.6115  0.5570
 2394SOL     OW18814   0.154   0.080  15.096 -0.2496  0.0336 -0.0120
 2394SOL    HW118815   0.084   0.076  15.031  0.9789  2.4666 -1.4731
 2394SOL    HW218816   0.224   0.103  15.035 -0.7190  2.0800  0.2175
 2395SOL     OW18817   3.844   0.982  13.837 -0.1797  0.1541  0.1870
 2395SOL    HW118818   3.915   0.923  13.864  0.9611  1.0412 -0.8694
 2395SOL    HW218819   3.784   0.908  13.837 -2.1250  1.7087  2.2089
 2396SOL     OW18820   2.123   3.453   6.058  0.1640  0.2817 -0.3775
 2396SOL    HW118821   2.122   3.412   6.144 -0.4180  2.1355  0.5032
 2396SOL    HW218822   2.101   3.543   6.083  0.0379  0.0730  0.2681
 2397SOL     OW18823   2.664   1.021   7.717 -0.8661  0.0037  0.0413
 2397SOL    HW118824   2.625   1.060   7.795 -1.2354  2.1087 -1.1909
 2397SOL    HW218825   2.582   1.014   7.667 -1.0695 -0.7331  0.4749
 2398SOL     OW18826   3.787   0.010   6.106 -0.2112  0.1533  0.3180
 2398SOL    HW118827   3.804   4.727   6.013 -2.8784  1.1949 -0.3581
 2398SOL    HW218828   3.852   0.077   6.125  2.9065 -2.5147 -0.9789
 2399SOL     OW18829   1.338   0.219   7.979 -1.0122  0.1514  0.4714
 2399SOL    HW118830   1.322   0.128   8.006 -0.7850 -0.3203 -1.0073
 2399SOL    HW218831   1.366   0.254   8.064  0.9889 -0.9288  0.2516
 2400SOL     OW18832   4.612   2.913   8.635  0.6513 -0.3264  0.3320
 2400SOL    HW118833   4.631   2.821   8.648 -1.8725 -0.7854  0.8674
 2400SOL    HW218834   4.516   2.907   8.638  0.6154  0.0780 -0.0081
 2401SOL     OW18835   1.917   4.225   0.287 -0.0595 -0.7544 -0.3568
 2401SOL    HW118836   1.895   4.286   0.357  0.3602 -0.8886 -0.1069
 2401SOL    HW218837   2.011   4.244   0.282 -0.1436  0.0510  1.0832
 2402SOL     OW18838   1.143   0.006   0.739  0.3440  0.2332 -0.2621
 2402SOL    HW118839   1.064   4.700   0.777 -0.1821 -0.6926 -2.2563
 2402SOL    HW218840   1.128   0.100   0.753  0.8790  0.3344 -0.3855
 2403SOL     OW18841   2.127   1.629   8.214  0.3886  0.0409  0.0834
 2403SOL    HW118842   2.038   1.632   8.248 -0.0671 -2.1122 -0.9555
 2403SOL    HW218843   2.147   1.538   8.237 -0.8617 -0.3483 -0.3577
 2404SOL     OW18844   4.478   1.489   7.345  0.0185  0.2765 -0.6686
 2404SOL    HW118845   4.385   1.472   7.358  0.2035  0.7150  1.1757
 2404SOL    HW218846   4.507   1.421   7.405  2.2791  1.6245 -0.2141
 2405SOL     OW18847   2.741   0.085   9.110  0.3815 -0.0423 -0.5000
 2405SOL    HW118848   2.812   0.142   9.143  1.2825 -1.3819 -0.1133
 2405SOL    HW218849   2.663   0.131   9.140  0.7974 -2.0178  3.6348
 2406SOL     OW18850   0.023   2.367  10.452  0.0299  0.2894  0.2753
 2406SOL    HW118851   4.701   2.297  10.416  0.5839 -0.0660  0.1260
 2406SOL    HW218852   0.041   2.429  10.381 -1.4707 -0.5481 -0.8218
 2407SOL     OW18853   4.169   4.002   0.290 -0.3506  0.3276 -0.1596
 2407SOL    HW118854   4.122   4.084   0.273 -0.9336  0.2733  1.1071
 2407SOL    HW218855   4.106   3.944   0.334  0.3086  0.7335  1.3198
 2408SOL     OW18856   0.830   4.579   8.581  0.2647 -0.5269 -0.6324
 2408SOL    HW118857   0.873   4.516   8.523  1.7704  0.3276 -0.4268
 2408SOL    HW218858   0.767   4.528   8.632  0.6704 -0.0029  0.3904
 2409SOL     OW18859   4.005   2.630  11.595 -0.0223  0.1203 -0.2459
 2409SOL    HW118860   4.075   2.648  11.532  2.2776  2.0424  2.8212
 2409SOL    HW218861   3.960   2.715  11.599  0.6659  0.5305 -1.2682
 2410SOL     OW18862   3.506   1.970   2.435  0.0144 -0.7476  0.0355
 2410SOL    HW118863   3.557   1.922   2.500 -1.1369 -0.5620  1.0754
 2410SOL    HW218864   3.573   2.030   2.402 -1.6843  2.2005  2.0068
 2411SOL     OW18865   2.562   3.216   3.007 -0.0790 -0.6999 -0.0630
 2411SOL    HW118866   2.502   3.279   2.966  0.9170  0.4824  0.2775
 2411SOL    HW218867   2.618   3.280   3.051  1.7151 -1.2237 -1.6387
 2412SOL     OW18868   1.912   3.715   8.980  0.2228 -0.3041  0.2456
 2412SOL    HW118869   1.968   3.793   8.988 -1.8831  1.1909  0.3935
 2412SOL    HW218870   1.830   3.742   9.022  1.3825  0.4928  2.0020
 2413SOL     OW18871   0.959   4.524   7.345 -0.0093  0.4040 -0.8422
 2413SOL    HW118872   0.916   4.522   7.430  1.4735  2.3198 -0.0438
 2413SOL    HW218873   0.924   4.443   7.309  2.1166 -0.0006 -1.9826
 2414SOL     OW18874   1.745   2.212   4.099  0.3941 -0.3058 -0.5037
 2414SOL    HW118875   1.652   2.224   4.120  0.5820 -0.4369  0.3660
 2414SOL    HW218876   1.750   2.127   4.055 -0.0179  1.5050 -4.0649
 2415SOL     OW18877   3.044   4.340   3.094 -0.3560  0.2759 -0.3527
 2415SOL    HW118878   3.007   4.422   3.127 -2.9059 -1.8173  1.9904
 2415SOL    HW218879   3.045   4.284   3.171 -0.9103 -0.0610 -0.5907
 2416SOL     OW18880   1.267   2.112   5.593 -0.2425 -0.4896  0.0199
 2416SOL    HW118881   1.289   2.203   5.576  3.0058 -1.5518 -1.5280
 2416SOL    HW218882   1.187   2.090   5.546 -1.6427  1.1544  1.6472
 2417SOL     OW18883   2.184   3.042   2.187  0.0388  0.0226 -0.1497
 2417SOL    HW118884   2.175   2.965   2.243 -0.4508  1.1948  1.4006
 2417SOL    HW218885   2.238   3.104   2.237 -1.3099  0.9247  0.1905
 2418SOL     OW18886   2.390   1.512  13.179  0.8622  0.3665  0.4444
 2418SOL    HW118887   2.325   1.441  13.174  1.5547 -0.2780  0.6628
 2418SOL    HW218888   2.349   1.578  13.123 -0.9204  0.2587  1.6177
 2419SOL     OW18889   2.248   4.379   2.936  0.4124 -0.4244  0.1361
 2419SOL    HW118890   2.155   4.374   2.918  0.2303  1.9702  0.3582
 2419SOL    HW218891   2.259   4.474   2.928  0.4720 -0.0623  4.3048
 2420SOL     OW18892   2.968   1.602  14.551 -0.0111  0.5653  0.5063
 2420SOL    HW118893   2.953   1.539  14.481 -1.6951  0.4727  0.9320
 2420SOL    HW218894   3.058   1.581  14.574  0.0108  0.3901  0.2571
 2421SOL     OW18895   0.989   2.725   7.765 -0.0052 -0.2965 -0.3104
 2421SOL    HW118896   0.924   2.656   7.771  0.2321 -0.6252 -1.6449
 2421SOL    HW218897   0.964   2.768   7.847  1.0401 -4.0287  1.9966
 2422SOL     OW18898   2.922   0.280   4.601 -0.1073 -0.1375  0.0907
 2422SOL    HW118899   2.897   0.346   4.666  0.7135 -0.7416  1.0107
 2422SOL    HW218900   3.010   0.263   4.632 -0.3383 -2.0339 -0.3260
 2423SOL     OW18901   0.048   0.426   4.318  0.1002 -0.2681  0.1482
 2423SOL    HW118902   0.112   0.446   4.386  0.0247  0.6936 -0.0670
 2423SOL    HW218903   0.012   0.344   4.352 -0.9650  0.3406  0.4867
 2424SOL     OW18904   1.573   1.578   7.552  0.4544 -0.1222  0.3378
 2424SOL    HW118905   1.640   1.523   7.512  0.0220 -1.1196  0.9675
 2424SOL    HW218906   1.592   1.667   7.525 -0.7630  0.4937  1.4969
 2425SOL     OW18907   2.348   1.158   5.317  0.7266  0.3819  0.2256
 2425SOL    HW118908   2.419   1.189   5.373 -0.2861  3.7897 -0.3428
 2425SOL    HW218909   2.374   1.146   5.226 -0.6589  0.4975 -0.1829
 2426SOL     OW18910   1.504   0.134   5.893 -0.1676 -0.2907  0.0482
 2426SOL    HW118911   1.490   0.155   5.801 -2.0918  0.2675  0.4727
 2426SOL    HW218912   1.492   0.039   5.900 -0.1407 -0.2384  0.7618
 2427SOL     OW18913   0.414   2.487   0.965  0.0352 -0.1154  0.4223
 2427SOL    HW118914   0.426   2.458   1.055 -0.7183  1.7448  1.1339
 2427SOL    HW218915   0.474   2.427   0.921 -0.7813 -1.5107  1.1959
 2428SOL     OW18916   4.652   3.891   0.144 -0.2088  0.4332 -0.0644
 2428SOL    HW118917   4.698   3.858   0.221  0.4308 -3.4131 -2.1198
 2428SOL    HW218918   4.577   3.936   0.184 -1.2852 -0.4765 -1.0656
 2429SOL     OW18919   0.873   0.923   3.098 -0.6536  0.1592 -0.6822
 2429SOL    HW118920   0.869   0.953   3.189 -3.1967  1.2966 -1.1947
 2429SOL    HW218921   0.957   0.877   3.102  0.4124  2.2281  0.3004
 2430SOL     OW18922   0.409   3.732   3.215  0.0076  0.1185  0.3904
 2430SOL    HW118923   0.439   3.784   3.290  2.5432  0.8979 -1.1417
 2430SOL    HW218924   0.485   3.734   3.156 -1.1786  4.9755 -0.9286
 2431SOL     OW18925   0.997   1.471  14.682 -0.0976  0.0171  0.1176
 2431SOL    HW118926   1.063   1.440  14.621 -0.2084 -0.3315  0.1767
 2431SOL    HW218927   1.060   1.480  14.753  1.3631 -1.2364 -1.0334
 2432SOL     OW18928   1.785   3.505  17.669 -0.0432  0.3386 -0.4547
 2432SOL    HW118929   1.729   3.582  17.669 -2.2406 -1.2826  2.3445
 2432SOL    HW218930   1.863   3.548  17.633  0.6819 -0.9535 -0.4382
 2433SOL     OW18931   1.373   2.919   2.060 -0.7705 -0.1205 -0.0833
 2433SOL    HW118932   1.289   2.964   2.054 -0.2943  0.6342 -1.1285
 2433SOL    HW218933   1.394   2.895   1.969  1.1696  1.5740 -0.0933
 2434SOL     OW18934   2.885   2.203  17.675 -0.3277 -0.2770 -0.2159
 2434SOL    HW118935   2.861   2.155  17.595  1.4220  0.2292 -1.0406
 2434SOL    HW218936   2.909   2.289  17.640 -0.5823  0.1483  0.6577
 2435SOL     OW18937   2.148   0.416   4.806  0.0700 -0.3906  0.2736
 2435SOL    HW118938   2.060   0.449   4.825  0.0817 -0.8834  1.2240
 2435SOL    HW218939   2.161   0.450   4.718  2.8633 -0.3744  0.6896
 2436SOL     OW18940   1.347   4.283  17.311 -0.4430  0.0051 -0.3361
 2436SOL    HW118941   1.365   4.263  17.219 -1.1860  3.4389 -1.2504
 2436SOL    HW218942   1.422   4.254  17.362 -0.5786 -2.0389 -1.2955
 2437SOL     OW18943   3.920   4.353   5.182 -0.6451  0.2069  0.3457
 2437SOL    HW118944   3.888   4.333   5.270  0.5672 -0.4872  0.6198
 2437SOL    HW218945   3.979   4.424   5.209  0.3150 -1.3425  2.3080
 2438SOL     OW18946   1.359   0.900  16.428 -0.2362  0.5022  0.5379
 2438SOL    HW118947   1.368   0.982  16.379  1.5758  0.4028  0.6825
 2438SOL    HW218948   1.264   0.892  16.420  0.0793 -2.2338 -0.6280
 2439SOL     OW18949   0.885   3.552   9.381 -0.2741 -0.1742 -0.1077
 2439SOL    HW118950   0.804   3.565   9.429 -0.5841 -0.0019 -0.6675
 2439SOL    HW218951   0.913   3.470   9.420 -2.2802 -0.3141  1.0119
 2440SOL     OW18952   3.546   0.800   3.998 -0.4637 -0.1026  0.0702
 2440SOL    HW118953   3.537   0.730   4.062 -4.7826  0.1550 -0.2392
 2440SOL    HW218954   3.495   0.872   4.036 -0.5909 -0.9659  1.5239
 2441SOL     OW18955   1.131   2.847  10.558 -0.2914 -0.1246  0.1071
 2441SOL    HW118956   1.216   2.890  10.563  0.7573 -2.5266  2.9111
 2441SOL    HW218957   1.096   2.896  10.632 -0.0677  0.4074 -0.1364
 2442SOL     OW18958   0.908   2.444  11.811 -0.4136  0.1785  0.2700
 2442SOL    HW118959   0.833   2.406  11.765  0.6593 -0.2538 -1.1059
 2442SOL    HW218960   0.884   2.536  11.816 -4.2477 -0.8769  1.3985
 2443SOL     OW18961   1.189   4.655   4.548  0.4446 -0.4976  0.1022
 2443SOL    HW118962   1.234   0.005   4.567 -2.5102  1.3315 -0.8036
 2443SOL    HW218963   1.101   4.688   4.530 -0.6644 -2.6566  1.5818
 2444SOL     OW18964   1.773   3.971   6.440 -0.5749  0.5309  0.3254
 2444SOL    HW118965   1.736   3.884   6.425 -2.1014  1.1393  0.5810
 2444SOL    HW218966   1.748   3.989   6.531  2.0371 -0.9458  1.3321
 2445SOL     OW18967   4.505   3.771   6.047  0.4147  0.2312  0.0179
 2445SOL    HW118968   4.599   3.782   6.062  0.5655 -2.6761  1.2305
 2445SOL    HW218969   4.481   3.701   6.108  0.3690 -2.8105 -3.4622
 2446SOL     OW18970   1.337   1.902  13.610 -0.1791 -0.4076  0.5553
 2446SOL    HW118971   1.406   1.965  13.629 -1.9018  1.1025  1.7292
 2446SOL    HW218972   1.355   1.872  13.521  1.5163  2.0854  0.0613
 2447SOL     OW18973   2.209   3.019  15.527  0.6777 -0.2882  0.0946
 2447SOL    HW118974   2.219   3.028  15.621  1.9458 -0.3021 -0.0460
 2447SOL    HW218975   2.295   2.991  15.498  0.9758  1.6789 -0.8961
 2448SOL     OW18976   0.886   1.025   4.181  0.6436  0.5947 -0.2976
 2448SOL    HW118977   0.981   1.021   4.192  0.1879 -2.5485  2.5376
 2448SOL    HW218978   0.874   0.931   4.190 -1.6014  0.9584  0.3359
 2449SOL     OW18979   1.822   1.918   4.081  0.6954  0.1303  0.0690
 2449SOL    HW118980   1.840   1.910   4.175 -2.4353 -2.6948  0.4139
 2449SOL    HW218981   1.915   1.912   4.059  0.0586 -1.1516 -2.2632
 2450SOL     OW18982   2.637   1.375   5.930 -0.4151  0.0271  0.0718
 2450SOL    HW118983   2.544   1.382   5.910 -0.7505 -2.1265  0.8615
 2450SOL    HW218984   2.636   1.281   5.946  1.7340  0.3442  1.9771
 2451SOL     OW18985   4.099   1.808   5.336 -0.5720  0.3185  0.2956
 2451SOL    HW118986   4.013   1.789   5.298 -0.7481  1.7645 -0.0146
 2451SOL    HW218987   4.091   1.773   5.425  0.2102 -1.5818 -0.3768
 2452SOL     OW18988   0.421   4.343   8.040 -0.3844  0.3640 -0.0322
 2452SOL    HW118989   0.478   4.419   8.046  1.5731 -1.0891 -0.3382
 2452SOL    HW218990   0.387   4.338   8.130 -0.2405  0.4555  0.0281
 2453SOL     OW18991   4.592   4.003   8.639  1.0245  0.4689 -0.0045
 2453SOL    HW118992   4.579   4.093   8.608  1.3797  1.1931  1.9707
 2453SOL    HW218993   4.543   3.956   8.571 -0.7815  1.6382  0.5069
 2454SOL     OW18994   2.349   3.271   9.667 -0.3336  0.0753 -0.5428
 2454SOL    HW118995   2.417   3.254   9.602 -0.0666  1.0117 -0.5131
 2454SOL    HW218996   2.341   3.189   9.714 -0.4578  0.6266  0.3934
 2455SOL     OW18997   2.323   2.654   4.428  0.3763  0.1378  0.4146
 2455SOL    HW118998   2.343   2.731   4.373 -1.3376 -0.7513 -1.4584
 2455SOL    HW218999   2.229   2.641   4.417  0.4975  1.4041 -2.1470
 2456SOL     OW19000   0.337   2.003   0.566 -0.0216  0.0507 -0.1027
 2456SOL    HW119001   0.272   1.987   0.497 -2.8052  0.8077  2.3501
 2456SOL    HW219002   0.292   1.954   0.634 -3.1358  0.6052 -1.7845
 2457SOL     OW19003   1.144   0.465  15.285 -0.0487  0.1133  0.3396
 2457SOL    HW119004   1.131   0.388  15.229 -1.9380 -0.0385  0.9989
 2457SOL    HW219005   1.058   0.505  15.277 -0.5417 -1.0194 -0.0180
 2458SOL     OW19006   2.560   1.491   0.280  0.4589  0.1685 -0.0192
 2458SOL    HW119007   2.560   1.446   0.195  3.2454 -1.5009  0.8522
 2458SOL    HW219008   2.485   1.454   0.327  0.2434 -0.8950 -1.1912
 2459SOL     OW19009   2.338   0.925   5.932 -0.1447  0.2180 -0.4718
 2459SOL    HW119010   2.417   0.909   5.880 -0.0621 -0.3464 -0.1695
 2459SOL    HW219011   2.354   0.882   6.016  0.1876 -0.1957 -0.7459
 2460SOL     OW19012   2.619   4.672   3.290 -0.2833  0.0707 -0.8586
 2460SOL    HW119013   2.625   4.694   3.383  2.7582  1.2000 -1.3096
 2460SOL    HW219014   2.531   4.635   3.295  0.1874 -0.8732  0.4678
 2461SOL     OW19015   4.445   3.744   5.796  0.7413  0.5031 -0.2641
 2461SOL    HW119016   4.532   3.730   5.757  1.0151 -1.0256  0.9072
 2461SOL    HW219017   4.482   3.756   5.884  0.6176  2.2223 -0.4355
 2462SOL     OW19018   1.993   2.380  11.971  0.3978  0.5103 -0.6413
 2462SOL    HW119019   2.043   2.313  12.016  0.1045  0.4785 -0.3661
 2462SOL    HW219020   1.980   2.353  11.880 -0.3020  0.0788 -0.4151
 2463SOL     OW19021   2.207   0.244  15.581  0.0868 -0.3214  0.2735
 2463SOL    HW119022   2.134   0.271  15.526 -0.0930 -0.7850  0.2824
 2463SOL    HW219023   2.246   0.331  15.588 -0.6078 -0.0769  1.0501
 2464SOL     OW19024   1.514   2.847   5.986  0.1531 -0.3457 -0.5881
 2464SOL    HW119025   1.446   2.895   6.034  0.9863 -0.0989  0.3426
 2464SOL    HW219026   1.571   2.839   6.062 -0.6187  1.8864  0.2329
 2465SOL     OW19027   1.474   0.026   4.572  0.4918  0.4607 -0.2801
 2465SOL    HW119028   1.526   4.682   4.597  0.3338 -0.0791 -1.5735
 2465SOL    HW219029   1.449   0.007   4.481 -4.3941 -0.9143  1.3312
 2466SOL     OW19030   2.217   3.859  13.929 -1.1521  0.1112  0.1662
 2466SOL    HW119031   2.202   3.813  14.011  0.4124  2.1993  1.6186
 2466SOL    HW219032   2.291   3.916  13.951  0.3341 -1.6182 -0.3996
 2467SOL     OW19033   0.023   2.698   3.291  0.0723 -0.1181 -0.0300
 2467SOL    HW119034   4.696   2.635   3.250  0.5460 -0.4804 -0.1490
 2467SOL    HW219035   4.679   2.750   3.318  1.1487  1.6095 -0.2970
 2468SOL     OW19036   1.711   4.587   6.317  0.6624 -0.2968  0.1835
 2468SOL    HW119037   1.796   4.630   6.325  0.8432 -0.5685 -0.3026
 2468SOL    HW219038   1.698   4.595   6.223 -4.7651  0.5943  0.9961
 2469SOL     OW19039   1.296   3.753  17.100 -0.0918  0.5252  0.5272
 2469SOL    HW119040   1.215   3.801  17.114  0.3485  1.1340  0.9546
 2469SOL    HW219041   1.283   3.740  17.006 -0.3729 -2.0714  0.9239
 2470SOL     OW19042   2.019   0.376   4.448  0.3974  0.3188  0.0580
 2470SOL    HW119043   1.972   0.297   4.476 -0.4596  0.8622  0.1506
 2470SOL    HW219044   1.940   0.427   4.428  0.0482 -0.6030 -0.9016
 2471SOL     OW19045   2.372   4.621  17.320  0.3733  0.5696  0.2949
 2471SOL    HW119046   2.291   4.658  17.356  0.8693 -0.4237  2.4580
 2471SOL    HW219047   2.417   4.602  17.402 -1.9552 -0.8077  1.2546
 2472SOL     OW19048   2.410   0.390   3.757 -0.7050  0.0202  0.4006
 2472SOL    HW119049   2.493   0.438   3.748 -0.4721 -0.4698 -0.0606
 2472SOL    HW219050   2.386   0.400   3.849 -0.7135 -1.7141  0.5694
 2473SOL     OW19051   1.950   3.484   2.948  0.0603 -0.8929  0.3503
 2473SOL    HW119052   1.951   3.476   3.044 -0.6788 -0.4146  0.3918
 2473SOL    HW219053   1.989   3.400   2.925 -0.3788 -0.7492 -0.8979
 2474SOL     OW19054   4.156   3.092   5.282 -0.0350 -0.6182 -0.0530
 2474SOL    HW119055   4.231   3.049   5.324  0.8083  0.8506 -0.0530
 2474SOL    HW219056   4.196   3.176   5.258  1.3888 -0.9402  1.1350
 2475SOL     OW19057   0.401   0.228   4.320 -1.2629  0.1893 -0.0945
 2475SOL    HW119058   0.396   0.238   4.415 -0.8196 -0.2211 -0.0256
 2475SOL    HW219059   0.443   0.306   4.283 -1.1299  0.3601  0.4270
 2476SOL     OW19060   3.405   1.728  15.510  0.6209 -0.9335 -0.1065
 2476SOL    HW119061   3.420   1.815  15.545 -3.1597 -0.3981  0.1921
 2476SOL    HW219062   3.475   1.681  15.556 -0.3286 -0.3019  2.0075
 2477SOL     OW19063   4.599   0.900  12.043 -0.5694 -0.3287  0.1165
 2477SOL    HW119064   4.642   0.983  12.062  1.2904 -1.1676 -0.3633
 2477SOL    HW219065   4.536   0.913  11.972  0.4264 -0.0019 -0.7208
 2478SOL     OW19066   3.343   0.543   8.039  0.3365 -0.0416  1.0273
 2478SOL    HW119067   3.351   0.634   8.013 -2.8664  0.7398  2.8342
 2478SOL    HW219068   3.416   0.504   7.990  0.5445  2.4333 -0.5915
 2479SOL     OW19069   1.982   1.883   6.489 -0.5030  0.7296 -0.0041
 2479SOL    HW119070   1.950   1.823   6.422  0.6928  0.0293  0.0565
 2479SOL    HW219071   1.942   1.965   6.460 -1.0648  0.2621 -0.5354
 2480SOL     OW19072   4.016   2.216   5.457 -0.0954  0.3484 -0.4580
 2480SOL    HW119073   4.087   2.253   5.404  1.6041 -1.7431  0.3501
 2480SOL    HW219074   3.973   2.150   5.402  0.9946 -2.2358  1.8173
 2481SOL     OW19075   3.497   0.579   7.765 -0.1844  0.6465 -0.3823
 2481SOL    HW119076   3.562   0.562   7.696 -0.2050  1.3887 -0.5906
 2481SOL    HW219077   3.530   0.665   7.793 -1.0473  1.4574 -1.8819
 2482SOL     OW19078   2.551   0.415   4.758 -0.0861  0.3888 -0.5200
 2482SOL    HW119079   2.531   0.370   4.676  0.3293  1.5220 -1.2340
 2482SOL    HW219080   2.602   0.492   4.736 -1.0868  1.1110 -0.3123
 2483SOL     OW19081   0.468   1.024  15.092 -0.4227 -0.4361 -0.3532
 2483SOL    HW119082   0.516   1.030  15.009  1.0827 -0.3355  0.5169
 2483SOL    HW219083   0.428   1.111  15.099 -0.0611 -0.2008 -1.2316
 2484SOL     OW19084   2.169   3.188   6.579  0.0754 -0.3575  0.0922
 2484SOL    HW119085   2.255   3.181   6.620  0.5277 -0.0347 -0.8062
 2484SOL    HW219086   2.141   3.270   6.619  0.9493 -0.9918  2.0246
 2485SOL     OW19087   4.597   0.987   5.718  0.0442 -0.0207  0.3097
 2485SOL    HW119088   4.529   0.924   5.739  0.9605 -1.1150  0.0001
 2485SOL    HW219089   4.640   0.934   5.651 -0.1919  1.3013 -0.8872
 2486SOL     OW19090   4.711   1.753   7.701  0.3231 -0.0154  0.1264
 2486SOL    HW119091   4.646   1.691   7.732 -1.9053  0.8873 -2.7328
 2486SOL    HW219092   0.015   1.776   7.786 -0.3791 -0.6773  0.5944
 2487SOL     OW19093   3.220   4.381   0.210 -0.1176  0.2420  0.2642
 2487SOL    HW119094   3.163   4.307   0.188 -0.9150  0.2139  2.3624
 2487SOL    HW219095   3.300   4.346   0.169 -0.9239 -1.7637  0.3780
 2488SOL     OW19096   2.840   4.104   2.897  0.1151  0.2774  0.3213
 2488SOL    HW119097   2.829   4.095   2.992 -1.7607 -0.0255  0.0744
 2488SOL    HW219098   2.781   4.040   2.858 -1.1824  0.9552  1.1776
 2489SOL     OW19099   1.034   1.830   3.916 -0.1120 -0.3242  0.0598
 2489SOL    HW119100   1.030   1.828   3.820 -0.0651 -0.7143  0.0647
 2489SOL    HW219101   0.968   1.764   3.932  0.8680 -1.7177 -1.5855
 2490SOL     OW19102   4.328   1.116  11.960  0.0972 -0.3341 -0.3465
 2490SOL    HW119103   4.418   1.145  11.976 -0.4649  1.2643 -0.0149
 2490SOL    HW219104   4.341   1.030  11.921 -0.2723 -0.1441 -0.8980
 2491SOL     OW19105   2.379   3.836  10.830  0.0869 -0.7428  0.1330
 2491SOL    HW119106   2.326   3.836  10.750 -1.0799 -1.4602  0.9087
 2491SOL    HW219107   2.353   3.913  10.882  0.1586 -0.9186  0.4264
 2492SOL     OW19108   1.989   2.171   5.913  0.1356  0.0498  0.2885
 2492SOL    HW119109   1.997   2.174   6.008  2.9523 -1.3892  0.0965
 2492SOL    HW219110   2.068   2.215   5.882  0.4760 -1.9800 -1.6912
 2493SOL     OW19111   1.464   0.261   4.861  0.1759  0.1179  0.9740
 2493SOL    HW119112   1.444   0.351   4.833 -3.0726 -0.9764 -0.2436
 2493SOL    HW219113   1.381   0.239   4.904 -0.3365 -1.5754 -0.9049
 2494SOL     OW19114   3.998   3.311  13.436 -0.0499  0.4764 -0.2354
 2494SOL    HW119115   3.959   3.357  13.361 -1.3033  0.3492  0.3358
 2494SOL    HW219116   4.005   3.227  13.390 -0.2729  1.6280 -2.3884
 2495SOL     OW19117   1.894   2.429   8.047 -0.3372 -0.2052  1.0444
 2495SOL    HW119118   1.925   2.428   7.957 -1.2408  0.1671  0.7258
 2495SOL    HW219119   1.981   2.450   8.081  0.4967  3.2203 -3.1956
 2496SOL     OW19120   2.501   0.048   0.164 -0.4632 -0.2417 -0.0818
 2496SOL    HW119121   2.596   0.044   0.172 -0.4027  0.0368 -0.6469
 2496SOL    HW219122   2.473   4.708   0.108  1.3202  0.0755 -1.3877
 2497SOL     OW19123   0.105   4.312  10.799 -0.1199  0.2156  0.1113
 2497SOL    HW119124   0.112   4.232  10.851 -1.6308 -1.0175 -1.6092
 2497SOL    HW219125   0.111   4.372  10.873 -0.2203  0.2361  0.1020
 2498SOL     OW19126   3.425   2.046   3.875  0.2251  0.0967 -0.2641
 2498SOL    HW119127   3.447   1.962   3.835  1.4079 -1.0441  2.7722
 2498SOL    HW219128   3.508   2.093   3.869  1.5274 -1.7878  2.6658
 2499SOL     OW19129   2.602   1.257   7.179  0.7826  0.3730  0.2677
 2499SOL    HW119130   2.684   1.306   7.185  0.9036  0.2586 -0.4460
 2499SOL    HW219131   2.646   1.172   7.174 -0.5819 -0.2256 -1.7805
 2500SOL     OW19132   3.757   0.114   9.004 -0.4683 -0.0213 -0.1492
 2500SOL    HW119133   3.723   0.202   8.991 -1.0914 -0.7298 -3.2515
 2500SOL    HW219134   3.719   0.080   8.923 -0.8624  2.8774 -1.1566
 2501SOL     OW19135   2.170   2.935  16.647 -0.0966 -0.4650 -0.2135
 2501SOL    HW119136   2.227   2.939  16.724  0.1018  2.3336 -0.5095
 2501SOL    HW219137   2.218   2.867  16.599 -1.5102 -1.0617 -0.7871
 2502SOL     OW19138   4.033   1.261   1.642 -0.0410 -0.0012  0.0268
 2502SOL    HW119139   3.968   1.207   1.595 -0.6150  1.5454 -0.9601
 2502SOL    HW219140   4.113   1.240   1.594  0.0064  1.7881 -0.6758
 2503SOL     OW19141   4.229   0.754   9.314 -0.3973  0.3944 -0.0169
 2503SOL    HW119142   4.182   0.826   9.357  1.0914  1.1039  0.4512
 2503SOL    HW219143   4.313   0.756   9.359  1.2393  1.4971 -3.0882
 2504SOL     OW19144   2.805   3.747  10.435  0.3953 -0.0294 -0.0901
 2504SOL    HW119145   2.790   3.840  10.420  0.0644 -0.2398 -1.0609
 2504SOL    HW219146   2.852   3.721  10.356  0.9285  0.7660 -0.0337
 2505SOL     OW19147   3.582   3.395   5.224  0.3938  0.2422  0.1870
 2505SOL    HW119148   3.649   3.359   5.167 -3.2368 -1.8215 -2.8190
 2505SOL    HW219149   3.628   3.379   5.306  2.1479  2.9667 -0.2747
 2506SOL     OW19150   2.157   0.455  16.086 -0.1871 -0.0027  0.0736
 2506SOL    HW119151   2.181   0.545  16.105  2.4016  0.0706 -3.4756
 2506SOL    HW219152   2.147   0.450  15.990  1.1875 -0.5670 -0.0419
 2507SOL     OW19153   3.012   1.356   3.845  0.8142 -0.4454 -0.0719
 2507SOL    HW119154   2.978   1.273   3.878  1.3244 -0.2463  0.9571
 2507SOL    HW219155   2.981   1.355   3.755  0.8567 -0.7517 -0.0823
 2508SOL     OW19156   0.725   3.872   5.293 -0.7764  0.5151  0.1477
 2508SOL    HW119157   0.727   3.957   5.251  0.7110  1.1388  1.4874
 2508SOL    HW219158   0.789   3.890   5.363  0.4835 -0.2315 -0.8138
 2509SOL     OW19159   0.864   0.915   1.292 -0.0158  0.0793  0.8846
 2509SOL    HW119160   0.909   0.971   1.229  1.1645  0.4128  2.0317
 2509SOL    HW219161   0.875   0.970   1.369  2.0681  2.3964 -1.0598
 2510SOL     OW19162   1.725   1.784  17.445  0.0762  0.7625  0.3720
 2510SOL    HW119163   1.753   1.719  17.510 -2.1879 -1.3937 -0.8220
 2510SOL    HW219164   1.774   1.751  17.370 -1.9724  0.3976 -0.8005
 2511SOL     OW19165   4.096   2.944   2.488  0.5192  0.3232  0.2665
 2511SOL    HW119166   4.010   2.981   2.510  0.7817  1.5442 -0.7658
 2511SOL    HW219167   4.121   3.000   2.415  1.5118 -1.2137 -0.5594
 2512SOL     OW19168   3.090   4.625   9.432 -0.4682  0.3016 -0.4424
 2512SOL    HW119169   3.093   4.645   9.526  0.3861  1.9849 -0.8309
 2512SOL    HW219170   3.124   4.707   9.398  2.3330 -0.7815 -0.2277
 2513SOL     OW19171   2.240   3.448   0.382 -0.3418  0.3580 -0.1980
 2513SOL    HW119172   2.239   3.352   0.392  1.7363  0.3001 -0.6874
 2513SOL    HW219173   2.179   3.464   0.310 -0.6500 -2.3966 -0.5616
 2514SOL     OW19174   3.455   2.266   7.055  0.4225  0.2334  0.1000
 2514SOL    HW119175   3.412   2.349   7.073 -0.2531 -0.0611 -0.1730
 2514SOL    HW219176   3.380   2.206   7.057 -0.3014  1.1542  0.4207
 2515SOL     OW19177   2.193   0.470   6.760  0.0815 -0.0877 -0.4017
 2515SOL    HW119178   2.273   0.506   6.722  0.7417 -1.8490 -0.7169
 2515SOL    HW219179   2.125   0.482   6.693 -0.8321 -1.0718  0.3373
 2516SOL     OW19180   1.461   1.642   1.153 -0.6457 -0.3276  0.1863
 2516SOL    HW119181   1.547   1.605   1.174 -1.0931 -0.6191  1.4651
 2516SOL    HW219182   1.445   1.664   1.245  1.3292 -1.8862  0.9172
 2517SOL     OW19183   1.075   0.092   5.737  0.3953  0.5211 -0.2650
 2517SOL    HW119184   1.065   0.010   5.786  0.9206  0.2172 -0.6634
 2517SOL    HW219185   1.046   0.057   5.653 -1.5545 -2.1965  1.5074
 2518SOL     OW19186   1.335   0.395   2.614 -0.2544  0.4032 -0.6779
 2518SOL    HW119187   1.248   0.364   2.588 -0.0052 -1.0621  0.2438
 2518SOL    HW219188   1.384   0.381   2.532  1.5987  3.2861 -0.0410
 2519SOL     OW19189   2.051   2.091   5.196  0.0789 -0.2125 -0.2565
 2519SOL    HW119190   2.102   2.132   5.266 -0.7793 -0.1457  0.3302
 2519SOL    HW219191   1.965   2.110   5.234 -1.3568 -3.4201 -1.9492
 2520SOL     OW19192   3.715   3.015   9.779 -0.1168 -0.2884  0.7512
 2520SOL    HW119193   3.653   2.963   9.728  0.5519  0.2033 -0.5590
 2520SOL    HW219194   3.760   2.946   9.829  1.9930  0.5476 -0.0009
 2521SOL     OW19195   1.850   4.207  12.836  0.6118  0.3028 -0.1655
 2521SOL    HW119196   1.880   4.298  12.835  0.9966  0.2011  1.3004
 2521SOL    HW219197   1.825   4.184  12.747 -0.4488  0.0591  0.1953
 2522SOL     OW19198   0.152   0.865   5.280 -0.0029  0.2569  0.3795
 2522SOL    HW119199   0.061   0.892   5.275 -0.4629 -1.0598  1.5419
 2522SOL    HW219200   0.159   0.881   5.374  1.8572  0.6778  0.1729
 2523SOL     OW19201   0.158   0.010  11.157  0.1134  0.4616  0.1864
 2523SOL    HW119202   0.128   4.728  11.246  0.6672 -0.0659  0.2832
 2523SOL    HW219203   0.238   4.690  11.156  0.5715  1.1729 -0.9453
 2524SOL     OW19204   4.656   0.811   9.155  0.6477  0.3502  0.2082
 2524SOL    HW119205   4.651   0.725   9.114  1.9390  1.5989 -2.5642
 2524SOL    HW219206   0.010   0.828   9.118  1.0282 -0.8501  0.5386
 2525SOL     OW19207   2.708   3.985   4.163  0.2396 -0.1056 -0.4193
 2525SOL    HW119208   2.768   4.059   4.175 -0.9058  0.4924  1.7607
 2525SOL    HW219209   2.727   3.957   4.074  0.3954 -0.5374 -0.2520
 2526SOL     OW19210   1.412   3.550   9.565  0.2486  0.0486  0.0414
 2526SOL    HW119211   1.333   3.599   9.540 -1.0098 -2.6342 -1.2479
 2526SOL    HW219212   1.389   3.462   9.534 -3.0167  0.8600  0.1845
 2527SOL     OW19213   0.632   1.882   1.715 -0.1906  0.3316 -0.5154
 2527SOL    HW119214   0.690   1.958   1.729 -0.8028  0.7172 -0.0858
 2527SOL    HW219215   0.662   1.870   1.625 -0.5677 -3.4720 -0.0996
 2528SOL     OW19216   1.428   1.192   2.824 -0.0109 -0.2313  0.2794
 2528SOL    HW119217   1.424   1.137   2.746  1.0556 -0.3604  0.3145
 2528SOL    HW219218   1.400   1.134   2.895  1.1938  1.0817  1.8453
 2529SOL     OW19219   3.355   2.830   9.169 -0.0043  0.0295 -0.3745
 2529SOL    HW119220   3.298   2.757   9.145  0.0919  0.6625 -2.6214
 2529SOL    HW219221   3.437   2.781   9.176 -0.4698 -0.9046 -1.4384
 2530SOL     OW19222   0.397   1.113   4.209  0.1411  0.1892 -0.0938
 2530SOL    HW119223   0.329   1.078   4.152 -0.1622 -1.0137  1.0036
 2530SOL    HW219224   0.366   1.203   4.212 -0.6231 -0.0377 -1.2097
 2531SOL     OW19225   3.945   0.404   6.431  0.4341 -0.4354 -0.4256
 2531SOL    HW119226   3.979   0.344   6.497  0.0785  0.5358  0.6330
 2531SOL    HW219227   4.008   0.475   6.426 -1.0821  0.9301 -0.0692
 2532SOL     OW19228   1.606   4.484   1.679  0.1873 -0.1491 -0.6554
 2532SOL    HW119229   1.539   4.535   1.633  1.6114  1.9084 -0.4023
 2532SOL    HW219230   1.605   4.399   1.635  3.4233 -1.0196  0.9471
 2533SOL     OW19231   4.043   1.209   7.119  0.1824  0.2939  0.3032
 2533SOL    HW119232   4.080   1.292   7.149 -1.3578  2.0011 -2.5360
 2533SOL    HW219233   3.958   1.233   7.081  1.2453 -0.1936 -2.3744
 2534SOL     OW19234   2.735   0.271   7.363  0.0659  0.6501  0.4104
 2534SOL    HW119235   2.760   0.295   7.452 -0.4679 -0.4726  0.8613
 2534SOL    HW219236   2.784   0.189   7.355 -1.3376 -0.2071  0.6305
 2535SOL     OW19237   4.540   4.612  10.241  0.6867  0.0321  0.0506
 2535SOL    HW119238   4.627   4.610  10.282  0.1144  0.0664  1.2451
 2535SOL    HW219239   4.531   4.704  10.217  2.8099  0.5461  1.2399
 2536SOL     OW19240   1.647   2.686   5.796 -0.0330  0.8549 -0.8600
 2536SOL    HW119241   1.601   2.762   5.832  2.0946  1.7598 -0.0545
 2536SOL    HW219242   1.667   2.629   5.871 -1.4872  0.3134 -0.8944
 2537SOL     OW19243   0.904   0.621  16.416 -0.0549  0.2478  0.1257
 2537SOL    HW119244   0.875   0.668  16.338  0.1001  0.3010  0.1009
 2537SOL    HW219245   0.996   0.604  16.396 -0.0179 -0.2339  0.6810
 2538SOL     OW19246   2.552   0.929  11.997 -0.0185 -0.0768  0.6304
 2538SOL    HW119247   2.618   0.868  12.030 -0.4711 -1.7543 -1.5781
 2538SOL    HW219248   2.474   0.876  12.009  0.2782 -0.8858 -1.0556
 2539SOL     OW19249   4.189   3.402   0.821  0.2416  0.6424  0.1334
 2539SOL    HW119250   4.135   3.434   0.749 -0.0403  2.5884  1.2094
 2539SOL    HW219251   4.265   3.359   0.780  1.2695  1.5494  1.0831
 2540SOL     OW19252   4.590   3.081   9.341  0.4346  0.0191 -0.0240
 2540SOL    HW119253   4.569   2.993   9.373  0.4205 -0.5868 -1.7303
 2540SOL    HW219254   4.612   3.056   9.251 -1.6740  1.3412 -0.8928
 2541SOL     OW19255   1.829   0.844   1.750  0.3132 -0.5216  0.6370
 2541SOL    HW119256   1.848   0.911   1.685 -0.0798  0.5587  1.6293
 2541SOL    HW219257   1.867   0.885   1.828  3.0468 -3.4144  0.7789
 2542SOL     OW19258   1.980   4.725  11.295  0.4203  0.0648  0.2524
 2542SOL    HW119259   1.912   0.034  11.348  0.0359  0.0809 -0.2555
 2542SOL    HW219260   1.929   4.721  11.214 -2.3051  0.5834  1.9395
 2543SOL     OW19261   2.004   0.095   3.005 -0.2374 -0.1146  0.0081
 2543SOL    HW119262   1.993   0.183   3.041 -2.1179  0.2103 -1.3509
 2543SOL    HW219263   1.960   0.120   2.923 -1.8528 -1.8749  0.3294
 2544SOL     OW19264   2.319   2.949  14.127  0.3278  0.6508 -0.4087
 2544SOL    HW119265   2.249   2.936  14.063 -0.1562 -0.6624  0.3970
 2544SOL    HW219266   2.377   3.009  14.081  1.1880  0.7217  0.7550
 2545SOL     OW19267   2.509   1.744   0.385 -0.5924 -0.2848  0.0419
 2545SOL    HW119268   2.505   1.700   0.470 -0.3245 -1.7216 -0.6824
 2545SOL    HW219269   2.541   1.683   0.319 -0.6317  1.0011 -1.1703
 2546SOL     OW19270   0.585   2.488  12.651  0.0572  0.1025  0.2808
 2546SOL    HW119271   0.646   2.561  12.655 -1.3408  1.3753 -1.3453
 2546SOL    HW219272   0.512   2.525  12.700 -0.8983 -0.3078 -0.8158
 2547SOL     OW19273   4.469   1.542   6.063  0.0399 -0.0386 -0.0984
 2547SOL    HW119274   4.531   1.586   6.122  1.4311  0.0607 -1.6478
 2547SOL    HW219275   4.531   1.523   5.993 -0.5948 -2.2006 -0.0857
 2548SOL     OW19276   0.308   0.182  10.516 -0.0693 -0.1386 -0.2116
 2548SOL    HW119277   0.366   0.118  10.558  3.5203  1.8463 -2.2112
 2548SOL    HW219278   0.262   0.218  10.591  0.6847 -1.2456  0.7927
 2549SOL     OW19279   1.633   3.668   9.866  0.4960 -0.8631  0.0537
 2549SOL    HW119280   1.605   3.586   9.826  0.1819 -0.3764 -0.7283
 2549SOL    HW219281   1.714   3.646   9.911  0.8047 -0.5617 -0.3518
 2550SOL     OW19282   4.666   1.051   8.576 -0.6280  0.2031 -0.3801
 2550SOL    HW119283   0.000   1.120   8.586  1.3952 -1.9106  0.7123
 2550SOL    HW219284   4.712   0.983   8.527 -0.9104 -0.4339  0.2386
 2551SOL     OW19285   1.264   3.900   9.868 -0.3344  0.0440 -0.0050
 2551SOL    HW119286   1.262   3.805   9.855  1.5073 -0.0148  0.1476
 2551SOL    HW219287   1.251   3.925   9.777 -1.6871 -1.1403 -0.1405
 2552SOL     OW19288   1.247   1.017   5.421 -0.0473  0.2795  0.1481
 2552SOL    HW119289   1.323   0.960   5.414  0.9932  1.5193  1.4969
 2552SOL    HW219290   1.195   0.976   5.491  0.3446 -0.8493 -0.2191
 2553SOL     OW19291   4.634   2.810   5.641 -0.1373  0.2579  0.3652
 2553SOL    HW119292   4.619   2.723   5.604  0.3022 -0.0886  0.9926
 2553SOL    HW219293   4.723   2.820   5.606 -0.9090  0.6841 -1.4439
 2554SOL     OW19294   3.398   3.195   3.900  0.4541  0.7096  0.6135
 2554SOL    HW119295   3.487   3.187   3.935  1.4047 -1.6805 -2.3328
 2554SOL    HW219296   3.406   3.146   3.818 -1.1694 -1.5685  1.8099
 2555SOL     OW19297   3.689   2.143   9.732 -0.0633  0.0921  0.4314
 2555SOL    HW119298   3.703   2.052   9.706 -0.5693  0.0199  0.3988
 2555SOL    HW219299   3.704   2.171   9.641 -2.0338  0.2315  0.1487
 2556SOL     OW19300   0.172   2.498   6.224 -0.2120 -0.7695  0.0175
 2556SOL    HW119301   0.122   2.434   6.172 -1.2412  0.6789 -0.7734
 2556SOL    HW219302   0.165   2.588   6.194  0.2224 -0.5574  0.5510
 2557SOL     OW19303   0.775   4.669  16.427 -0.7840  0.1930 -0.0683
 2557SOL    HW119304   0.814   4.587  16.459 -0.0031  1.2096  1.5907
 2557SOL    HW219305   0.794   0.008  16.489 -2.3505  0.8575 -0.3689
 2558SOL     OW19306   2.855   1.933   9.569  0.5261  0.1717  0.4543
 2558SOL    HW119307   2.909   1.974   9.636  1.3289 -0.0585 -0.0512
 2558SOL    HW219308   2.799   2.007   9.546  0.7806 -0.7965 -3.2651
 2559SOL     OW19309   2.598   2.951   5.592  0.0367 -0.4826 -0.0548
 2559SOL    HW119310   2.685   2.958   5.552 -0.1293  3.2174  0.1672
 2559SOL    HW219311   2.589   3.041   5.624  2.2002 -0.7805  1.4123
 2560SOL     OW19312   4.249   3.761   7.716  0.0075 -0.1226 -0.8831
 2560SOL    HW119313   4.179   3.786   7.776 -1.5100 -0.7479 -2.4045
 2560SOL    HW219314   4.266   3.671   7.744 -0.3934  1.1217  3.3337
 2561SOL     OW19315   4.403   4.225   6.999 -0.6133  0.7472  0.3179
 2561SOL    HW119316   4.427   4.209   6.908  0.0939  4.3737 -0.1500
 2561SOL    HW219317   4.472   4.285   7.026  0.0955  0.6837 -1.3529
 2562SOL     OW19318   1.099   3.961  14.065  0.3331  0.0128  0.4109
 2562SOL    HW119319   1.121   3.922  13.980  0.1690  2.6239 -0.8260
 2562SOL    HW219320   1.173   4.019  14.083 -0.1396  0.7189  0.0960
 2563SOL     OW19321   2.935   3.348   6.453  0.0322 -0.0969  0.4474
 2563SOL    HW119322   2.892   3.396   6.524 -1.7848 -1.2299  0.1120
 2563SOL    HW219323   2.855   3.325   6.407  0.7695  2.1325 -1.9907
 2564SOL     OW19324   1.868   1.222   8.730 -0.6558  0.1934 -0.0326
 2564SOL    HW119325   1.922   1.272   8.669  1.4777  1.9716  3.3114
 2564SOL    HW219326   1.934   1.163   8.767 -1.1438 -0.9372 -0.9793
 2565SOL     OW19327   2.958   1.661   1.601 -0.4928 -0.6405 -0.4229
 2565SOL    HW119328   3.005   1.579   1.614  0.6082 -0.0125 -0.4028
 2565SOL    HW219329   2.876   1.637   1.645 -0.4489  0.9174  0.5364
 2566SOL     OW19330   2.265   3.236   8.539 -0.2006 -0.2284 -0.7384
 2566SOL    HW119331   2.228   3.324   8.541  0.2168 -0.0645 -0.1715
 2566SOL    HW219332   2.203   3.198   8.476 -2.7406 -1.9455  2.7732
 2567SOL     OW19333   2.017   0.894   5.753  0.4967 -0.1429  0.6468
 2567SOL    HW119334   2.049   0.828   5.692 -3.4947 -2.6053  1.2432
 2567SOL    HW219335   1.964   0.939   5.687  2.5425  0.2657 -0.6969
 2568SOL     OW19336   0.876   4.560   8.184 -0.6148 -0.5872  0.1277
 2568SOL    HW119337   0.888   4.468   8.205 -2.4123 -0.9178 -0.3187
 2568SOL    HW219338   0.923   4.563   8.101  2.1150  0.9569  1.7301
 2569SOL     OW19339   3.543   1.229  11.677  0.5156 -0.5948 -0.7427
 2569SOL    HW119340   3.494   1.190  11.749 -0.1380  1.1167 -0.2691
 2569SOL    HW219341   3.489   1.222  11.598 -1.9933 -0.6298  1.0135
 2570SOL     OW19342   3.905   0.692   1.969  0.1053  0.1223  0.2245
 2570SOL    HW119343   3.884   0.779   2.003 -0.4705 -0.5617  1.6113
 2570SOL    HW219344   3.981   0.725   1.920 -0.7978  2.5279  0.4595
 2571SOL     OW19345   2.814   0.680  12.656  0.1519 -0.4211 -0.0600
 2571SOL    HW119346   2.907   0.686  12.631  0.2063  0.4309  0.3317
 2571SOL    HW219347   2.796   0.590  12.680  0.7021 -0.8641 -1.2893
 2572SOL     OW19348   1.737   0.788  10.972  0.4640  0.4917  0.2184
 2572SOL    HW119349   1.702   0.743  11.048  2.4680 -1.8808 -0.2675
 2572SOL    HW219350   1.656   0.806  10.925  0.6058  0.1196 -0.1721
 2573SOL     OW19351   3.512   2.099  14.125  0.1256 -0.1240 -0.5093
 2573SOL    HW119352   3.577   2.145  14.178 -0.0175 -0.4874 -0.0204
 2573SOL    HW219353   3.526   2.125  14.034  0.1948 -0.2554 -0.5354
 2574SOL     OW19354   3.165   1.710   9.648  0.3830 -0.5586  0.7558
 2574SOL    HW119355   3.201   1.667   9.571 -0.0847  2.2345 -0.9907
 2574SOL    HW219356   3.081   1.666   9.639 -0.3762  1.3856 -1.4413
 2575SOL     OW19357   4.446   0.429   3.428 -0.2720 -0.3679 -0.2368
 2575SOL    HW119358   4.382   0.365   3.456 -0.7219 -0.1400 -0.7364
 2575SOL    HW219359   4.514   0.381   3.380 -2.1192 -1.4218 -1.8093
 2576SOL     OW19360   3.017   3.555   3.545 -0.6765 -1.2065 -0.0769
 2576SOL    HW119361   3.023   3.647   3.523 -3.4076 -1.1591 -0.6714
 2576SOL    HW219362   3.070   3.514   3.477 -0.7283 -1.3447 -0.0348
 2577SOL     OW19363   0.545   3.618   8.159  0.1184 -0.3526  0.1077
 2577SOL    HW119364   0.490   3.635   8.235 -2.0366  0.6714 -1.6611
 2577SOL    HW219365   0.620   3.673   8.181 -0.9878  0.8865  0.7616
 2578SOL     OW19366   3.326   3.471   3.625 -0.3617 -0.0867 -0.7392
 2578SOL    HW119367   3.271   3.545   3.599 -0.1117  0.5979  0.6855
 2578SOL    HW219368   3.390   3.468   3.554 -2.2934 -0.7832 -2.4534
 2579SOL     OW19369   1.254   3.216  11.372  0.3823  0.2676 -0.0762
 2579SOL    HW119370   1.205   3.166  11.437  0.5292  1.0699  0.6557
 2579SOL    HW219371   1.260   3.150  11.302 -0.8547  2.4833 -2.2567
 2580SOL     OW19372   1.018   0.557  12.290 -0.0034 -0.2802  0.0010
 2580SOL    HW119373   0.931   0.518  12.300  0.4993 -1.0908  1.1593
 2580SOL    HW219374   1.029   0.612  12.368 -2.1156 -0.2532  0.2773
 2581SOL     OW19375   3.422   0.178  11.088 -0.4369 -0.4631  0.3862
 2581SOL    HW119376   3.402   0.118  11.015  0.9858 -0.4580  0.0011
 2581SOL    HW219377   3.340   0.167  11.136  0.5970 -0.7219  2.1028
 2582SOL     OW19378   4.421   0.795   5.756  0.0696  0.6428 -0.4988
 2582SOL    HW119379   4.469   0.724   5.712 -0.6436  0.0195 -0.2578
 2582SOL    HW219380   4.334   0.755   5.753  0.5116 -0.2348 -1.8143
 2583SOL     OW19381   1.864   1.530  16.195  0.1240 -0.2414 -0.3051
 2583SOL    HW119382   1.865   1.545  16.289 -0.0020  0.3046 -0.3894
 2583SOL    HW219383   1.774   1.546  16.165  0.3156  0.9186 -0.2609
 2584SOL     OW19384   1.351   0.225   0.515  0.8027 -0.4967 -1.0569
 2584SOL    HW119385   1.330   0.141   0.474  1.5130 -0.6993 -0.9982
 2584SOL    HW219386   1.338   0.286   0.442  2.6172  0.5030 -0.5455
 2585SOL     OW19387   0.029   1.038   2.892  0.3504  0.0363 -0.2298
 2585SOL    HW119388   0.069   1.108   2.943  1.2547 -0.3859 -0.3490
 2585SOL    HW219389   0.025   0.972   2.962  0.3219  0.7657  0.4463
 2586SOL     OW19390   0.233   3.618   3.366 -0.1313  0.4956  0.3942
 2586SOL    HW119391   0.293   3.663   3.306 -0.6727  1.2779  0.4285
 2586SOL    HW219392   0.271   3.644   3.450 -0.5059  0.9066  0.4389
 2587SOL     OW19393   2.406   3.724   5.540  0.7252  0.5065 -0.1591
 2587SOL    HW119394   2.487   3.679   5.567  1.3489  0.8414 -1.4693
 2587SOL    HW219395   2.406   3.806   5.588 -0.5908  0.3341  0.1105
 2588SOL     OW19396   4.555   0.361  16.663 -0.9352 -0.0720  0.1557
 2588SOL    HW119397   4.495   0.434  16.680  0.6511  1.3561 -0.3936
 2588SOL    HW219398   4.530   0.311  16.741 -1.3317 -1.0210 -0.5825
 2589SOL     OW19399   1.411   3.929   1.525 -0.1350  0.6227 -0.2746
 2589SOL    HW119400   1.456   4.009   1.497 -0.5514  1.3110  1.0497
 2589SOL    HW219401   1.327   3.932   1.479  0.9421  2.0206 -2.1807
 2590SOL     OW19402   0.756   1.093  14.674 -0.3022  0.7291  0.3831
 2590SOL    HW119403   0.672   1.132  14.649 -0.2707  0.5441 -0.0081
 2590SOL    HW219404   0.803   1.085  14.591 -0.7849 -0.5159  0.2359
 2591SOL     OW19405   1.046   1.017   0.600 -0.0179 -0.0268  0.6116
 2591SOL    HW119406   1.094   0.934   0.605 -2.2052 -1.3969 -0.8538
 2591SOL    HW219407   1.105   1.077   0.645  0.2100 -0.8582  1.4210
 2592SOL     OW19408   4.642   2.651  14.623 -0.4975 -0.7632 -0.2333
 2592SOL    HW119409   4.616   2.562  14.647  0.6970 -0.9292  0.4732
 2592SOL    HW219410   4.641   2.695  14.709  0.3483 -0.5135 -0.3498
 2593SOL     OW19411   0.548   1.768   5.561  0.0278  0.0535 -0.1021
 2593SOL    HW119412   0.520   1.678   5.580 -3.3711  1.5128  1.6080
 2593SOL    HW219413   0.633   1.774   5.605 -0.5821  1.2426  0.8783
 2594SOL     OW19414   2.200   2.493   0.627  0.4365  0.1186 -0.0387
 2594SOL    HW119415   2.142   2.567   0.648 -0.1219 -1.3369  3.4649
 2594SOL    HW219416   2.170   2.467   0.540  0.0081  1.6526 -0.3621
 2595SOL     OW19417   2.903   1.262  15.687  0.6359  0.0679 -0.0605
 2595SOL    HW119418   2.871   1.341  15.643  0.0646 -0.1749 -0.0781
 2595SOL    HW219419   2.952   1.218  15.617  0.0692  0.0049 -0.4132
 2596SOL     OW19420   1.737   0.152   1.202 -0.4100 -0.1253 -0.0182
 2596SOL    HW119421   1.824   0.191   1.208  0.3376 -1.7703 -0.0905
 2596SOL    HW219422   1.730   0.112   1.289 -0.8884 -1.2605 -0.5757
 2597SOL     OW19423   1.254   0.718   8.409 -0.1630  0.5825 -0.2376
 2597SOL    HW119424   1.268   0.655   8.480  1.1940  0.0528 -0.9831
 2597SOL    HW219425   1.332   0.703   8.356 -0.8184 -1.1009 -0.7109
 2598SOL     OW19426   4.273   2.533   8.023  0.2168 -0.2311  0.5868
 2598SOL    HW119427   4.277   2.444   8.058 -1.8383 -0.2549  0.7393
 2598SOL    HW219428   4.193   2.519   7.973  0.3049  0.4985  0.2515
 2599SOL     OW19429   1.393   3.615   2.861 -0.2542 -0.3687  0.4281
 2599SOL    HW119430   1.458   3.594   2.927  1.2406  1.2221 -0.5388
 2599SOL    HW219431   1.323   3.640   2.922 -2.5640 -1.7281 -1.6537
 2600SOL     OW19432   2.204   3.367   0.659 -0.0832 -0.1336  0.6825
 2600SOL    HW119433   2.149   3.359   0.582 -1.5164  1.5126  1.5259
 2600SOL    HW219434   2.293   3.343   0.632 -0.3971  0.7433 -1.1581
 2601SOL     OW19435   4.015   0.702   3.111  0.1841  0.3935  0.2608
 2601SOL    HW119436   3.934   0.739   3.077  1.0536  1.6571 -0.4662
 2601SOL    HW219437   4.003   0.718   3.204  1.4094 -0.0473  0.4942
 2602SOL     OW19438   1.860   0.828  17.483 -0.1601 -0.7973  0.0696
 2602SOL    HW119439   1.925   0.826  17.413 -0.5395 -2.1066 -0.2409
 2602SOL    HW219440   1.909   0.856  17.560 -1.8860  0.3147  0.7720
 2603SOL     OW19441   3.672   2.982   9.286  0.5027 -0.6402 -0.3382
 2603SOL    HW119442   3.675   2.926   9.364 -3.6091  0.7645  0.8378
 2603SOL    HW219443   3.761   2.982   9.250  0.8892  0.2025  0.6384
 2604SOL     OW19444   1.089   2.004   7.811  0.2468  0.0126  0.1842
 2604SOL    HW119445   1.027   2.070   7.844  0.5047  0.4407 -0.1960
 2604SOL    HW219446   1.035   1.925   7.817  1.1226 -0.7156 -1.6574
 2605SOL     OW19447   2.010   1.673   4.608  0.3737 -0.5648 -0.1145
 2605SOL    HW119448   2.013   1.714   4.521  1.8837  0.7284  0.5394
 2605SOL    HW219449   1.997   1.752   4.660  1.7428 -1.1642  1.1347
 2606SOL     OW19450   3.909   2.235  16.406  0.3219 -0.6869  0.2467
 2606SOL    HW119451   4.001   2.251  16.384  0.6720 -1.7457  0.8996
 2606SOL    HW219452   3.885   2.314  16.454  0.2260 -0.9496  0.6336
 2607SOL     OW19453   4.304   2.046  16.361  0.3422 -0.6176 -0.2513
 2607SOL    HW119454   4.383   1.992  16.370  1.5896  1.2975  0.3873
 2607SOL    HW219455   4.317   2.110  16.431 -1.2712 -0.7199  0.1443
 2608SOL     OW19456   3.794   1.892  13.836  0.1015  0.0924 -0.1571
 2608SOL    HW119457   3.700   1.877  13.838  0.2966 -1.2942 -1.3834
 2608SOL    HW219458   3.797   1.986  13.823  0.4921  0.0907 -0.0902
 2609SOL     OW19459   3.019   2.226   7.896  0.4236  0.1556  0.5361
 2609SOL    HW119460   2.995   2.160   7.962  2.0608 -0.7653  0.2084
 2609SOL    HW219461   3.078   2.169   7.848  0.9385  0.2841  1.0181
 2610SOL     OW19462   1.451   0.089   0.724 -0.0095  0.0921  0.0559
 2610SOL    HW119463   1.401   0.150   0.669  0.2974 -1.1776 -1.6501
 2610SOL    HW219464   1.540   0.096   0.690 -0.5156 -2.0738 -1.7019
 2611SOL     OW19465   0.305   0.375   1.438 -0.0534 -0.5298  0.0598
 2611SOL    HW119466   0.216   0.395   1.465  0.1409  1.6805 -1.0051
 2611SOL    HW219467   0.287   0.310   1.370 -1.6152  1.7936 -1.6963
 2612SOL     OW19468   2.982   4.497   3.487 -0.5455  0.6595  0.2356
 2612SOL    HW119469   2.999   4.557   3.415 -4.6240  0.1285 -1.1411
 2612SOL    HW219470   2.945   4.422   3.439 -1.1766  0.5740  0.8598
 2613SOL     OW19471   1.545   3.747  10.808 -0.0834  0.5557  0.0620
 2613SOL    HW119472   1.496   3.823  10.776  0.3522 -0.6455 -3.4278
 2613SOL    HW219473   1.612   3.794  10.858  0.3599  0.8649 -0.8243
 2614SOL     OW19474   4.549   1.086   6.409 -0.6421 -0.2551 -0.2557
 2614SOL    HW119475   4.517   1.009   6.456  0.0030 -0.5995 -0.3794
 2614SOL    HW219476   4.589   1.141   6.476 -2.0710 -0.7062  0.9705
 2615SOL     OW19477   0.967   0.069   5.016  0.1288 -0.2129 -0.4059
 2615SOL    HW119478   0.922   0.095   4.935  1.5840  0.9466 -0.8535
 2615SOL    HW219479   0.968   4.707   5.004 -0.1278 -0.2515 -0.1025
 2616SOL     OW19480   4.268   0.537   2.054 -0.7163 -0.9540  0.5256
 2616SOL    HW119481   4.192   0.555   2.110 -0.9185  1.7285 -0.6172
 2616SOL    HW219482   4.218   0.537   1.973 -0.4203  0.0934  0.3411
 2617SOL     OW19483   2.777   4.380   6.807 -0.9435 -0.1038  0.4745
 2617SOL    HW119484   2.705   4.343   6.757  0.2394 -0.7726 -0.7460
 2617SOL    HW219485   2.782   4.328   6.887  0.2949 -0.3271  0.2630
 2618SOL     OW19486   1.036   0.881   7.880  0.2807 -0.0700 -0.0461
 2618SOL    HW119487   1.005   0.971   7.877  0.9620  0.1395 -0.6718
 2618SOL    HW219488   1.051   0.871   7.974 -1.4800  1.1875  0.3748
 2619SOL     OW19489   2.236   3.249   3.757  0.1424 -0.0692  0.0635
 2619SOL    HW119490   2.286   3.328   3.737 -2.0620  0.9644 -1.3975
 2619SOL    HW219491   2.217   3.224   3.666 -0.7804 -0.6730  0.4181
 2620SOL     OW19492   2.804   0.378   3.316 -0.4059  0.0878 -0.1293
 2620SOL    HW119493   2.735   0.376   3.250 -0.6079  3.0297  0.0154
 2620SOL    HW219494   2.878   0.414   3.267  0.6978 -2.0358 -0.0436
 2621SOL     OW19495   1.676   1.632   6.634 -0.7364  0.1553 -0.3237
 2621SOL    HW119496   1.586   1.637   6.665 -0.7760  0.7696 -0.5277
 2621SOL    HW219497   1.667   1.613   6.541  0.9820 -2.6349  0.0770
 2622SOL     OW19498   2.042   1.547   9.497 -0.8090  0.1658 -0.3692
 2622SOL    HW119499   2.069   1.518   9.410 -0.1440  0.6406 -0.3240
 2622SOL    HW219500   2.108   1.611   9.526  0.5586 -0.9173 -1.0758
 2623SOL     OW19501   3.536   2.788   6.127 -0.4816  0.1982  0.3351
 2623SOL    HW119502   3.464   2.829   6.079  0.2724 -1.5739 -2.3570
 2623SOL    HW219503   3.610   2.815   6.072 -2.8552  2.3292 -1.8143
 2624SOL     OW19504   2.389   4.136  12.103 -0.2526  0.7456 -0.7470
 2624SOL    HW119505   2.418   4.088  12.026 -2.1911 -0.5260 -0.6900
 2624SOL    HW219506   2.321   4.192  12.066 -0.1576  0.3493 -1.5076
 2625SOL     OW19507   0.367   0.936  14.737 -0.8580 -0.2877  0.8134
 2625SOL    HW119508   0.461   0.921  14.747 -0.7095 -1.0985 -1.6417
 2625SOL    HW219509   0.361   1.027  14.709  1.4415  0.2929  2.2241
 2626SOL     OW19510   4.364   4.591   6.336  0.0759  0.4287 -0.7978
 2626SOL    HW119511   4.446   4.593   6.287 -0.3847  0.0555 -1.5788
 2626SOL    HW219512   4.314   4.663   6.296  0.4203  0.7261 -0.6929
 2627SOL     OW19513   3.175   0.832   7.793  0.1784 -0.6126 -0.1629
 2627SOL    HW119514   3.175   0.915   7.746 -1.7227 -0.4223  0.1832
 2627SOL    HW219515   3.247   0.836   7.856 -3.1661  0.3111  3.5739
 2628SOL     OW19516   3.778   1.553   3.703 -0.7054  0.5149 -0.0045
 2628SOL    HW119517   3.715   1.509   3.646  0.0246 -2.2740  1.3660
 2628SOL    HW219518   3.854   1.519   3.656 -0.8316  0.2318 -0.0036
 2629SOL     OW19519   1.855   4.731   5.900 -0.3460  0.0925 -0.0875
 2629SOL    HW119520   1.884   4.663   5.838 -1.8311 -0.3414 -0.3080
 2629SOL    HW219521   1.839   0.068   5.836 -0.8372  0.9063  0.9341
 2630SOL     OW19522   3.669   3.166   2.890 -0.1500 -0.0016  0.8995
 2630SOL    HW119523   3.616   3.245   2.881 -0.8790  0.1001  5.7856
 2630SOL    HW219524   3.751   3.203   2.923 -0.9178  1.5226  1.0982
 2631SOL     OW19525   0.774   4.306   6.745  0.0845 -0.2099 -0.6649
 2631SOL    HW119526   0.822   4.384   6.717  0.0292  0.6986  1.7950
 2631SOL    HW219527   0.770   4.337   6.835  1.8642  1.5308 -1.1818
 2632SOL     OW19528   1.964   3.840   1.882 -0.0313  0.1579  0.3758
 2632SOL    HW119529   2.008   3.924   1.888  1.8163 -0.6946 -1.3449
 2632SOL    HW219530   1.969   3.841   1.786 -0.0467  1.9419  0.3922
 2633SOL     OW19531   1.245   3.600   7.321 -0.1722  0.2970  0.3807
 2633SOL    HW119532   1.261   3.573   7.412 -0.1915 -1.5706 -0.1703
 2633SOL    HW219533   1.223   3.513   7.290  0.1094  0.1280  0.6445
 2634SOL     OW19534   1.623   0.411   1.481  0.0077 -0.5749 -0.1534
 2634SOL    HW119535   1.703   0.416   1.428 -0.8522 -0.4304 -1.4303
 2634SOL    HW219536   1.643   0.473   1.552 -0.1086  0.3374 -0.9131
 2635SOL     OW19537   2.986   4.445   7.110 -0.4068  0.3034 -0.4154
 2635SOL    HW119538   3.068   4.426   7.155 -1.9503  0.7367  2.5907
 2635SOL    HW219539   3.002   4.528   7.066  1.5784  0.2686  0.2614
 2636SOL     OW19540   2.324   0.405   4.016  0.1223  0.2440 -0.3694
 2636SOL    HW119541   2.387   0.468   4.051 -0.6166 -1.1372  3.5088
 2636SOL    HW219542   2.333   0.332   4.078  1.3715 -0.0634 -0.9203
 2637SOL     OW19543   0.155   0.988   4.093  0.0427 -0.3822 -0.1604
 2637SOL    HW119544   0.124   1.069   4.052 -2.2328 -1.1416  0.0490
 2637SOL    HW219545   0.070   0.946   4.110  0.1867  0.8646  3.6997
 2638SOL     OW19546   0.010   3.049  13.015 -0.1150  0.4978 -0.2621
 2638SOL    HW119547   0.032   3.062  13.107 -1.9087 -0.3365  0.2923
 2638SOL    HW219548   0.043   2.962  12.991  1.4521  0.6918  1.1167
 2639SOL     OW19549   0.749   3.872  15.022  0.2891  0.4270 -0.1726
 2639SOL    HW119550   0.827   3.890  14.970  1.2185 -0.4657  0.9281
 2639SOL    HW219551   0.744   3.954  15.071 -1.0492  0.3490 -0.1685
 2640SOL     OW19552   2.811   3.302   9.682  0.0578 -0.2865  0.8262
 2640SOL    HW119553   2.884   3.241   9.671  1.5404  1.6259  0.1135
 2640SOL    HW219554   2.756   3.279   9.608  0.0184  1.2194  0.4063
 2641SOL     OW19555   3.184   1.225   6.439  0.2787  0.7142  0.1158
 2641SOL    HW119556   3.162   1.317   6.450 -1.1140  0.5659 -1.4225
 2641SOL    HW219557   3.171   1.203   6.346  3.1828 -0.5899  0.0045
 2642SOL     OW19558   4.242   2.269   5.313 -0.6881 -0.1569  0.6542
 2642SOL    HW119559   4.326   2.274   5.358 -1.8666  0.3190  2.8329
 2642SOL    HW219560   4.258   2.185   5.270 -1.5958  0.5829 -1.1589
 2643SOL     OW19561   4.300   0.688   7.187  0.0824 -0.6608  0.4846
 2643SOL    HW119562   4.292   0.641   7.271 -0.8286  1.3079  1.4984
 2643SOL    HW219563   4.395   0.685   7.178 -0.1063  0.5294 -1.8076
 2644SOL     OW19564   2.275   3.159   5.261  0.0150  0.3126  0.0017
 2644SOL    HW119565   2.258   3.253   5.266 -1.7685 -0.0378  0.3263
 2644SOL    HW219566   2.357   3.152   5.310  0.3641 -0.4790 -0.7138
 2645SOL     OW19567   0.580   3.915   7.730 -0.0521  0.3644 -0.2265
 2645SOL    HW119568   0.586   3.984   7.796 -2.7547 -0.0180  0.4400
 2645SOL    HW219569   0.554   3.965   7.653  0.3574 -0.1905 -0.7251
 2646SOL     OW19570   0.657   4.064   4.567 -0.1612  0.1899 -0.0480
 2646SOL    HW119571   0.673   4.015   4.487 -0.6656 -1.1712  0.6742
 2646SOL    HW219572   0.722   4.039   4.634 -2.8397  0.8921  2.8335
 2647SOL     OW19573   1.639   0.433   7.133  0.0764  0.3266  0.3187
 2647SOL    HW119574   1.620   0.505   7.072  2.9455  0.6351 -0.2074
 2647SOL    HW219575   1.555   0.421   7.178  1.4014 -0.7647  2.4898
 2648SOL     OW19576   3.609   2.720   5.071  0.1391  0.4749  0.1822
 2648SOL    HW119577   3.652   2.636   5.063  1.4778  1.1503  0.3808
 2648SOL    HW219578   3.577   2.715   5.161 -0.1525  0.4120  0.0759
 2649SOL     OW19579   3.548   2.183   1.753 -0.6452 -0.4675  0.0369
 2649SOL    HW119580   3.528   2.115   1.688 -2.8469  0.3752 -0.1560
 2649SOL    HW219581   3.480   2.248   1.738 -0.0632  0.4917  1.5896
 2650SOL     OW19582   3.607   4.240  14.447  0.0394 -0.0351 -0.1567
 2650SOL    HW119583   3.641   4.250  14.358  1.0289  0.2677  0.2558
 2650SOL    HW219584   3.671   4.190  14.498 -0.3811  1.3678  1.7559
 2651SOL     OW19585   3.970   0.213   6.179 -0.2433 -0.5219 -0.8804
 2651SOL    HW119586   4.049   0.197   6.128  0.1445  1.9639 -1.0388
 2651SOL    HW219587   4.005   0.269   6.248 -0.4225 -0.9072 -0.4751
 2652SOL     OW19588   4.706   3.296  13.722 -0.2135  0.2993  0.3160
 2652SOL    HW119589   4.651   3.286  13.800 -0.9529 -0.0592 -0.2566
 2652SOL    HW219590   0.044   3.235  13.742  0.6833  0.6824 -1.6442
 2653SOL     OW19591   0.295   2.300   6.807 -0.1318  0.7111  0.3722
 2653SOL    HW119592   0.278   2.213   6.771  0.2904  1.3847 -1.4675
 2653SOL    HW219593   0.230   2.303   6.878 -0.8835  0.5546 -0.3110
 2654SOL     OW19594   2.471   3.563  11.385  0.5639 -0.2114  0.1922
 2654SOL    HW119595   2.506   3.603  11.465 -0.6609  0.2730  0.4780
 2654SOL    HW219596   2.413   3.500  11.427  1.5399 -0.5538  1.0392
 2655SOL     OW19597   1.971   3.968   2.543  0.3366 -0.4926 -0.2269
 2655SOL    HW119598   1.985   3.950   2.450 -1.4932 -0.8098 -0.4358
 2655SOL    HW219599   1.917   3.895   2.574 -0.1059  0.2133  0.6736
 2656SOL     OW19600   2.630   2.103  11.368  0.2141 -0.9179  0.2518
 2656SOL    HW119601   2.628   2.082  11.461 -1.0209 -0.1635  0.3984
 2656SOL    HW219602   2.579   2.032  11.331 -1.7034  1.0033 -0.8270
 2657SOL     OW19603   0.167   1.828   8.456 -0.3625  0.5749  0.0277
 2657SOL    HW119604   0.085   1.852   8.499  0.0783 -3.2425  2.9984
 2657SOL    HW219605   0.152   1.738   8.428  0.7870  0.2958  0.2984
 2658SOL     OW19606   2.317   3.849   4.439  0.5921  0.0919  0.2513
 2658SOL    HW119607   2.400   3.896   4.447  1.5973 -1.6278 -0.0519
 2658SOL    HW219608   2.285   3.880   4.355  0.6287 -2.1853 -0.6074
 2659SOL     OW19609   1.782   4.677   0.121  0.7555 -0.5400 -0.1749
 2659SOL    HW119610   1.817   4.676   0.032  2.5633  0.5011  0.5266
 2659SOL    HW219611   1.696   4.634   0.118  1.3580 -1.7616 -0.0918
 2660SOL     OW19612   2.302   1.552  16.826 -0.3311  0.1395  0.4700
 2660SOL    HW119613   2.345   1.600  16.897  1.7462  1.1025 -1.4385
 2660SOL    HW219614   2.238   1.617  16.795 -0.2217  0.3715  0.7363
 2661SOL     OW19615   3.175   4.045   1.797  0.0806  0.1474  0.3391
 2661SOL    HW119616   3.190   4.139   1.787 -1.4800  0.3509 -0.0664
 2661SOL    HW219617   3.187   4.025   1.890 -0.6755  0.1974  0.4524
 2662SOL     OW19618   1.508   3.763  11.426  0.1984 -0.0511 -0.4421
 2662SOL    HW119619   1.460   3.686  11.457 -0.9832  0.2481 -1.5453
 2662SOL    HW219620   1.580   3.757  11.488 -1.3552  1.9036  1.5125
 2663SOL     OW19621   2.192   1.651   3.209 -0.0381 -0.3572  0.6142
 2663SOL    HW119622   2.163   1.561   3.194 -0.4355 -0.3239  1.1833
 2663SOL    HW219623   2.280   1.635   3.175 -0.0344 -0.0598  0.4910
 2664SOL     OW19624   3.384   2.486  17.291 -0.1780  0.3377 -0.2759
 2664SOL    HW119625   3.349   2.540  17.363  1.0418  1.1646 -0.2982
 2664SOL    HW219626   3.334   2.527  17.221 -2.0193  0.7661  1.2703
 2665SOL     OW19627   3.991   1.356   5.130  0.2398  0.0106  1.0754
 2665SOL    HW119628   3.950   1.334   5.213 -0.9230 -1.8319  0.0113
 2665SOL    HW219629   3.962   1.302   5.056  1.6960  0.5661  0.0872
 2666SOL     OW19630   1.139   2.132   6.739  0.1430 -0.3197  0.1847
 2666SOL    HW119631   1.192   2.200   6.697 -0.3105 -0.6577 -0.9375
 2666SOL    HW219632   1.050   2.164   6.720 -0.5766 -2.3225  0.1231
 2667SOL     OW19633   0.215   1.733   7.835  0.0466  0.3258 -0.6046
 2667SOL    HW119634   0.278   1.765   7.900 -0.9252  1.7948 -0.3732
 2667SOL    HW219635   0.138   1.748   7.890  0.4560 -0.9414  0.3198
 2668SOL     OW19636   2.238   0.810   1.846 -0.2475  0.1854 -0.1251
 2668SOL    HW119637   2.175   0.880   1.865 -0.1006  0.6938 -1.5655
 2668SOL    HW219638   2.246   0.830   1.753 -2.1403  1.2814 -0.0608
 2669SOL     OW19639   0.727   3.410   1.657 -0.0525  0.6416 -0.2345
 2669SOL    HW119640   0.751   3.324   1.691 -3.1909  0.1096  0.6015
 2669SOL    HW219641   0.730   3.464   1.736 -1.1739 -1.1377  1.0183
 2670SOL     OW19642   4.154   4.089  15.392  0.7889  0.2072 -0.1682
 2670SOL    HW119643   4.079   4.034  15.417  0.1033  1.4506  0.5587
 2670SOL    HW219644   4.222   4.027  15.416  0.2482  0.4356  1.9910
 2671SOL     OW19645   1.677   1.771   3.932  0.4401 -0.1181  0.0560
 2671SOL    HW119646   1.671   1.837   3.863 -0.9485 -0.1621  0.1375
 2671SOL    HW219647   1.726   1.828   3.992 -1.2655  1.0888  0.3342
 2672SOL     OW19648   2.755   0.946   5.541  0.3813  0.1820 -1.0441
 2672SOL    HW119649   2.773   1.028   5.586 -0.8712 -0.4525  0.5729
 2672SOL    HW219650   2.721   0.890   5.610 -0.8862  0.2782 -1.5860
 2673SOL     OW19651   3.888   2.505   6.537  0.9718  0.3550 -0.3086
 2673SOL    HW119652   3.793   2.494   6.531  1.1949 -0.7606 -1.5991
 2673SOL    HW219653   3.890   2.589   6.583  0.0518  1.4103 -2.2082
 2674SOL     OW19654   4.337   2.517  16.779 -0.5343  0.5396 -0.3144
 2674SOL    HW119655   4.364   2.477  16.862 -2.0020  0.4360  0.1264
 2674SOL    HW219656   4.340   2.611  16.796  1.4341  0.6869 -1.5459
 2675SOL     OW19657   3.251   0.756   6.267  0.3932  0.5727 -0.9702
 2675SOL    HW119658   3.230   0.747   6.174  0.3070  0.2725 -0.9230
 2675SOL    HW219659   3.238   0.663   6.288 -1.9338  0.8868 -0.9743
 2676SOL     OW19660   3.371   2.367   1.839  0.2876  0.3250 -0.2267
 2676SOL    HW119661   3.446   2.394   1.892  0.9540 -1.7308 -0.0985
 2676SOL    HW219662   3.357   2.442   1.783 -0.0880 -0.3979 -1.1019
 2677SOL     OW19663   3.875   3.021  13.080  0.0007 -0.1568  0.4644
 2677SOL    HW119664   3.915   2.951  13.029 -0.3459 -1.0884  1.4705
 2677SOL    HW219665   3.897   3.103  13.035  0.2783  0.3677  1.5322
 2678SOL     OW19666   4.711   3.596  15.805 -0.3989  0.7850  1.0393
 2678SOL    HW119667   0.021   3.670  15.761 -0.9376  0.1384 -0.5499
 2678SOL    HW219668   4.685   3.636  15.888 -0.2284  2.5162  0.2715
 2679SOL     OW19669   2.254   3.223   0.906 -0.1662  0.4434  0.5150
 2679SOL    HW119670   2.269   3.289   0.839 -0.4701  0.7425  0.7412
 2679SOL    HW219671   2.254   3.280   0.983 -0.0765 -1.1194  1.6877
 2680SOL     OW19672   1.673   1.655   5.430  0.6175 -0.2278  0.1058
 2680SOL    HW119673   1.649   1.735   5.476 -2.2486 -0.5632 -0.8293
 2680SOL    HW219674   1.769   1.661   5.427  0.6100 -0.1077  0.1035
 2681SOL     OW19675   3.326   2.244  15.668  0.1538 -0.2987 -0.2151
 2681SOL    HW119676   3.390   2.282  15.728 -1.1108  0.6450  0.5537
 2681SOL    HW219677   3.258   2.224  15.732  0.2610 -2.0641 -0.6469
 2682SOL     OW19678   3.237   2.872   8.346  0.4866 -0.1473  0.2048
 2682SOL    HW119679   3.279   2.945   8.300 -0.1777 -0.1619 -0.4403
 2682SOL    HW219680   3.147   2.872   8.311 -0.8182  2.2952  3.5207
 2683SOL     OW19681   2.460   1.953   3.446  0.0083  0.6577 -0.3907
 2683SOL    HW119682   2.379   1.938   3.495 -0.6301 -0.8870 -1.9150
 2683SOL    HW219683   2.530   1.903   3.487 -1.3566  0.0106  1.1599
 2684SOL     OW19684   3.548   0.225   5.797  0.3397 -0.0917 -0.7384
 2684SOL    HW119685   3.561   0.225   5.702  0.9872 -1.1805 -0.6455
 2684SOL    HW219686   3.601   0.299   5.828  0.6350 -0.9182  0.6868
 2685SOL     OW19687   3.841   1.084   4.012 -0.0179 -0.1912  0.0411
 2685SOL    HW119688   3.847   1.086   4.107 -3.2156  1.9662  0.2123
 2685SOL    HW219689   3.850   0.991   3.996 -1.8727 -0.4079  0.2283
 2686SOL     OW19690   1.963   3.097   5.206  0.2855 -0.5920 -0.0988
 2686SOL    HW119691   1.874   3.071   5.230  0.2660 -0.7555 -0.3475
 2686SOL    HW219692   2.019   3.090   5.283 -0.0385 -0.9746  0.1001
 2687SOL     OW19693   4.027   1.177   6.587 -0.1954  0.0721 -0.5028
 2687SOL    HW119694   4.057   1.246   6.647 -0.7518  0.2638 -0.4413
 2687SOL    HW219695   3.933   1.192   6.594 -0.5021 -2.1254 -0.0828
 2688SOL     OW19696   2.864   1.441  12.347  0.2929 -0.3227  0.4851
 2688SOL    HW119697   2.771   1.416  12.342  0.6310 -1.7525  1.5068
 2688SOL    HW219698   2.895   1.383  12.415 -0.0195 -0.3269  0.6259
 2689SOL     OW19699   4.217   2.954   8.037 -0.4926  0.8437  0.0744
 2689SOL    HW119700   4.300   2.933   7.995 -0.8172  1.5976 -0.9431
 2689SOL    HW219701   4.160   2.973   7.963 -2.5195 -0.3409  1.3265
 2690SOL     OW19702   1.047   2.633   4.175 -0.3612 -0.0492  0.2264
 2690SOL    HW119703   1.083   2.629   4.264  3.3617 -2.5011 -1.3790
 2690SOL    HW219704   1.011   2.545   4.162 -0.2662 -0.2150  1.0652
 2691SOL     OW19705   4.356   2.309   0.159  0.3566 -0.1558 -0.3060
 2691SOL    HW119706   4.358   2.337   0.251 -0.2653 -2.2740  0.3693
 2691SOL    HW219707   4.283   2.247   0.170 -1.3717  2.2656  2.1094
 2692SOL     OW19708   3.166   1.870   3.436  0.5899  0.0766 -0.4324
 2692SOL    HW119709   3.157   1.927   3.513  1.5780 -0.2392 -0.0862
 2692SOL    HW219710   3.170   1.783   3.476  0.9406  0.7813  1.0734
 2693SOL     OW19711   0.897   2.873   7.520 -0.4586  0.5043 -0.5418
 2693SOL    HW119712   0.952   2.822   7.580 -0.5046 -0.1688 -1.0771
 2693SOL    HW219713   0.819   2.890   7.574 -0.4891 -1.8885  0.1722
 2694SOL     OW19714   0.166   4.711   4.516  0.5231  0.1124  0.1682
 2694SOL    HW119715   0.119   4.651   4.457  2.8801 -1.8336  0.2799
 2694SOL    HW219716   0.143   4.687   4.606  0.7523 -0.8333 -0.0173
 2695SOL     OW19717   4.562   3.209   3.761 -0.0295  0.2119  0.0739
 2695SOL    HW119718   4.593   3.297   3.740 -0.2973  0.0474 -1.0365
 2695SOL    HW219719   4.473   3.230   3.787  0.1867 -0.6385  1.4901
 2696SOL     OW19720   1.633   3.051   8.510  0.2579  0.2392 -0.0627
 2696SOL    HW119721   1.718   3.076   8.546 -0.3318  0.3371  1.3070
 2696SOL    HW219722   1.650   2.973   8.459  1.1050  0.5039 -0.1799
 2697SOL     OW19723   3.305   1.363   8.084  0.7010 -0.2130 -0.5225
 2697SOL    HW119724   3.347   1.446   8.108 -1.1727 -0.2132  2.7428
 2697SOL    HW219725   3.264   1.338   8.167 -0.7309  0.1030 -1.1181
 2698SOL     OW19726   2.182   0.291   2.689 -0.2182 -0.3438  0.7253
 2698SOL    HW119727   2.157   0.366   2.743  0.9741  0.7636 -0.2794
 2698SOL    HW219728   2.178   0.232   2.764  1.0854 -0.1142  0.9630
 2699SOL     OW19729   0.493   3.121   6.100  0.2487 -0.0988  0.2248
 2699SOL    HW119730   0.575   3.080   6.071 -0.8687 -1.9014 -0.3652
 2699SOL    HW219731   0.508   3.148   6.191 -1.6396  0.1742  0.4569
 2700SOL     OW19732   0.765   0.572   2.552 -0.1296  0.0226  0.1021
 2700SOL    HW119733   0.690   0.574   2.611  0.7029  0.0545  1.1533
 2700SOL    HW219734   0.759   0.481   2.521 -0.0909  1.0203 -2.8794
 2701SOL     OW19735   0.796   2.097   1.789 -0.3099 -0.0003  0.1120
 2701SOL    HW119736   0.796   2.190   1.814 -1.5188  0.4812 -1.6692
 2701SOL    HW219737   0.773   2.059   1.874  1.2561 -0.9812  0.0853
 2702SOL     OW19738   1.675   1.748  14.643  0.4731  0.0845  0.2928
 2702SOL    HW119739   1.673   1.689  14.567  0.0763  0.7528 -0.2084
 2702SOL    HW219740   1.622   1.823  14.616 -0.5067 -0.4026  0.8244
 2703SOL     OW19741   2.983   0.848  13.455  0.7276 -0.1841 -0.1251
 2703SOL    HW119742   2.987   0.837  13.550 -0.8007  2.6332  0.2651
 2703SOL    HW219743   2.945   0.936  13.458 -2.5057 -1.5182 -1.9261
 2704SOL     OW19744   0.277   0.284   2.063  0.1862  0.0769 -0.1537
 2704SOL    HW119745   0.360   0.282   2.016 -0.5596  0.0989 -1.4674
 2704SOL    HW219746   0.315   0.320   2.143 -0.9387 -1.5695  1.1341
 2705SOL     OW19747   4.093   1.818  13.097 -0.1759 -0.4384 -0.0442
 2705SOL    HW119748   4.115   1.748  13.159  1.6133 -0.5173 -0.7704
 2705SOL    HW219749   4.112   1.896  13.150  0.0977 -1.5789  1.5434
 2706SOL     OW19750   2.712   4.258  13.774 -0.0164  0.1040  0.2999
 2706SOL    HW119751   2.744   4.338  13.732 -2.0420  0.9445  0.3538
 2706SOL    HW219752   2.692   4.204  13.697  0.6003  0.8886 -0.4140
 2707SOL     OW19753   0.651   4.179   1.161  0.2119 -0.4113  0.3071
 2707SOL    HW119754   0.585   4.117   1.130 -0.7198  1.4086 -1.3951
 2707SOL    HW219755   0.710   4.189   1.087  1.2032 -1.0192  1.0215
 2708SOL     OW19756   2.740   4.067   6.520 -0.3865  0.1657 -0.5737
 2708SOL    HW119757   2.835   4.071   6.536 -0.0811 -2.6674 -1.7711
 2708SOL    HW219758   2.728   4.003   6.450 -0.6847 -1.7552  1.2647
 2709SOL     OW19759   3.017   0.770   5.194  0.2327 -0.3284 -0.3793
 2709SOL    HW119760   3.041   0.863   5.194  1.0928 -0.5498 -0.3407
 2709SOL    HW219761   3.040   0.744   5.105  1.1117  1.3437 -0.6478
 2710SOL     OW19762   2.453   2.363  12.472 -0.7391  0.7069  0.3980
 2710SOL    HW119763   2.398   2.348  12.395  0.0559 -1.5053  0.2602
 2710SOL    HW219764   2.520   2.295  12.458 -0.7688  0.3698  1.9728
 2711SOL     OW19765   2.185   2.662   0.930 -0.1940  0.2336  0.1712
 2711SOL    HW119766   2.137   2.742   0.907 -1.2063 -0.8427 -1.4341
 2711SOL    HW219767   2.162   2.653   1.023  0.7850 -0.2461  0.3712
 2712SOL     OW19768   4.296   2.579   5.558  0.1470 -0.3364  0.9011
 2712SOL    HW119769   4.252   2.608   5.478 -0.1458  2.4525  2.1022
 2712SOL    HW219770   4.242   2.504   5.585  2.9442 -3.6899 -2.7541
 2713SOL     OW19771   0.871   4.166  12.507 -0.4987  0.1561  0.4586
 2713SOL    HW119772   0.861   4.143  12.415  0.7189  0.4598  0.2554
 2713SOL    HW219773   0.894   4.257  12.486 -2.2716  0.2716 -1.0436
 2714SOL     OW19774   0.730   3.520   5.712  0.2112  0.1898 -0.4093
 2714SOL    HW119775   0.822   3.497   5.697  1.1916  1.8173  2.9954
 2714SOL    HW219776   0.691   3.452   5.767 -0.1924  0.6240 -0.1513
 2715SOL     OW19777   4.669   0.763   1.183  0.0301  0.9464 -0.1201
 2715SOL    HW119778   4.648   0.748   1.091 -0.8293 -0.7165  0.3398
 2715SOL    HW219779   4.613   0.830   1.223 -1.3238 -1.0378  1.2953
 2716SOL     OW19780   3.398   0.440   0.583  0.8943 -1.1453  0.3667
 2716SOL    HW119781   3.477   0.484   0.613 -0.5101  1.4139  0.2540
 2716SOL    HW219782   3.323   0.485   0.622  0.5675 -0.5217 -0.9662
 2717SOL     OW19783   4.104   3.136   9.981 -0.4014  0.1277  0.5620
 2717SOL    HW119784   4.085   3.060  10.035 -1.8452  0.6140  0.7306
 2717SOL    HW219785   4.111   3.202  10.051 -0.8620  0.3855  0.3661
 2718SOL     OW19786   3.342   1.784   2.583 -0.1783 -1.1049 -0.3202
 2718SOL    HW119787   3.387   1.820   2.506  0.8533 -2.6765 -0.4378
 2718SOL    HW219788   3.400   1.712   2.607 -0.1466 -0.4792  1.4618
 2719SOL     OW19789   0.138   4.663   2.417 -0.6019 -0.1479  0.6288
 2719SOL    HW119790   0.179   4.626   2.339 -0.2162  0.9520  0.3139
 2719SOL    HW219791   0.048   4.635   2.403 -0.3842 -1.1345  1.1920
 2720SOL     OW19792   1.184   3.205  11.041  0.4473  0.2580  0.1773
 2720SOL    HW119793   1.138   3.263  10.980 -1.7272 -3.1163 -1.3679
 2720SOL    HW219794   1.270   3.240  11.021  0.4517  1.0504  1.5703
 2721SOL     OW19795   4.270   2.307   8.191  0.1702 -0.8268  0.3078
 2721SOL    HW119796   4.305   2.291   8.279  0.8389 -1.6648 -0.1174
 2721SOL    HW219797   4.274   2.222   8.147  0.8177 -0.9882  0.6848
 2722SOL     OW19798   4.390   3.155  13.401  0.1175  0.5860 -0.4162
 2722SOL    HW119799   4.390   3.243  13.361 -0.9359  0.3238 -0.9985
 2722SOL    HW219800   4.309   3.115  13.368 -0.6597  0.3191  1.8332
 2723SOL     OW19801   3.156   0.538   6.883  0.5519 -0.2711 -0.1019
 2723SOL    HW119802   3.163   0.517   6.790 -1.8840 -1.3241 -0.0528
 2723SOL    HW219803   3.121   0.456   6.917  1.1389 -0.3453  0.3076
 2724SOL     OW19804   4.030   2.266  11.393 -0.3150  0.1290 -0.0610
 2724SOL    HW119805   4.027   2.313  11.476  0.5217  1.5946 -0.8669
 2724SOL    HW219806   4.096   2.318  11.348 -1.5780  2.5773  0.9405
 2725SOL     OW19807   0.970   4.325   0.999  0.1856  0.6771  0.7438
 2725SOL    HW119808   0.888   4.368   0.977 -1.3142 -1.6921  1.7554
 2725SOL    HW219809   0.994   4.281   0.917 -1.3876  0.6541  0.3014
 2726SOL     OW19810   0.616   4.448   8.623 -0.1742  0.3190  0.4523
 2726SOL    HW119811   0.564   4.494   8.558  0.3164  0.4726  0.1655
 2726SOL    HW219812   0.581   4.479   8.706  0.9510  0.7442  0.7679
 2727SOL     OW19813   2.690   0.830  12.201 -0.5303  0.4592  0.0997
 2727SOL    HW119814   2.603   0.804  12.232 -0.6333 -0.5842 -1.0754
 2727SOL    HW219815   2.712   0.893  12.270  0.0326 -0.1375  0.4824
 2728SOL     OW19816   3.675   4.545   3.472 -0.5411 -0.3279 -0.7682
 2728SOL    HW119817   3.733   4.578   3.541 -1.0601 -2.0739  0.4992
 2728SOL    HW219818   3.688   4.614   3.407 -0.3182 -0.6526 -1.0691
 2729SOL     OW19819   4.530   2.849  17.643 -0.4161  0.1656  0.2287
 2729SOL    HW119820   4.438   2.871  17.631 -0.6378 -1.5243 -1.0799
 2729SOL    HW219821   4.519   2.769  17.695  0.6035  0.1245  0.3903
 2730SOL     OW19822   4.637   2.643   8.517  0.5198  0.4356  0.0030
 2730SOL    HW119823   4.701   2.582   8.480 -0.4172 -0.7412  0.3099
 2730SOL    HW219824   4.596   2.679   8.438 -1.3443 -0.3385  0.6102
 2731SOL     OW19825   3.634   1.949   8.202 -0.5655  0.3279 -0.5059
 2731SOL    HW119826   3.562   2.010   8.222 -0.7134 -0.1034  0.2657
 2731SOL    HW219827   3.596   1.908   8.124 -0.0460  0.2148 -0.6946
 2732SOL     OW19828   2.364   4.473  16.284  0.2236 -0.2821 -0.0049
 2732SOL    HW119829   2.424   4.526  16.231 -1.7926 -0.2884 -2.3101
 2732SOL    HW219830   2.295   4.528  16.321  3.7004  2.8544  1.7686
 2733SOL     OW19831   3.840   2.968  10.987  0.2389 -0.0776 -0.0483
 2733SOL    HW119832   3.831   3.056  10.950 -0.1702  0.1406  0.5605
 2733SOL    HW219833   3.816   2.981  11.079  0.4014 -0.5284  0.0587
 2734SOL     OW19834   3.996   4.714   2.075 -0.4082 -0.9315  0.7641
 2734SOL    HW119835   4.078   4.732   2.028 -0.4310  0.0855  1.1050
 2734SOL    HW219836   4.014   4.730   2.168 -1.0472 -0.1106  0.7456
 2735SOL     OW19837   3.020   2.637   6.286  0.2027  0.5912 -0.2917
 2735SOL    HW119838   3.028   2.585   6.206 -0.9781  0.2632 -0.1950
 2735SOL    HW219839   3.107   2.622   6.324 -0.1642  0.0665  0.3203
 2736SOL     OW19840   2.811   4.564   4.173 -0.2446  0.1461 -0.2493
 2736SOL    HW119841   2.781   4.530   4.089  0.0811  2.0411 -1.1457
 2736SOL    HW219842   2.846   4.649   4.147  0.8149  0.0697  0.9626
 2737SOL     OW19843   2.290   1.396   7.914  0.3319  0.5135 -0.2370
 2737SOL    HW119844   2.309   1.461   7.981 -0.7980  1.3435 -0.7281
 2737SOL    HW219845   2.287   1.460   7.844 -0.2629  0.4937 -0.2316
 2738SOL     OW19846   0.016   3.890   8.345 -0.0498  0.5252 -0.1363
 2738SOL    HW119847   0.104   3.882   8.310 -0.0559 -0.0805 -0.0170
 2738SOL    HW219848   0.010   3.974   8.390  0.9331  0.7076 -0.3536
 2739SOL     OW19849   0.295   3.922  14.550  0.3514 -0.0044  0.4614
 2739SOL    HW119850   0.244   3.993  14.590  2.9866  1.1448  1.7846
 2739SOL    HW219851   0.218   3.866  14.541 -0.4737  0.9880  1.3179
 2740SOL     OW19852   3.338   2.448   3.381  0.2068 -0.1992  0.1747
 2740SOL    HW119853   3.291   2.531   3.382 -0.4007 -0.4952 -2.3719
 2740SOL    HW219854   3.419   2.482   3.419 -0.2870  1.4175 -0.2102
 2741SOL     OW19855   0.990   4.612   7.952  0.4043 -0.1243 -0.4810
 2741SOL    HW119856   0.945   4.696   7.963  0.5140 -0.3742  2.0330
 2741SOL    HW219857   1.059   4.631   7.889  0.0128  0.5391 -0.7140
 2742SOL     OW19858   2.054   2.414  14.706  0.1803 -0.1348  0.2711
 2742SOL    HW119859   1.968   2.435  14.742  0.5873 -0.2708  1.3352
 2742SOL    HW219860   2.073   2.337  14.759  2.1390 -0.6145 -1.1197
 2743SOL     OW19861   0.158   2.982   8.636  0.4457  0.0658  0.3318
 2743SOL    HW119862   0.204   2.938   8.707  2.8879  0.3758 -1.0589
 2743SOL    HW219863   0.068   2.956   8.657  0.6680 -2.5433 -1.9421
 2744SOL     OW19864   3.033   2.143   5.606 -0.2456 -0.3340 -0.6290
 2744SOL    HW119865   3.073   2.230   5.617  3.3041 -1.8903 -1.0830
 2744SOL    HW219866   3.046   2.128   5.512 -0.8865 -3.0700 -0.2821
 2745SOL     OW19867   2.017   4.529   2.885  0.0206  0.3448  0.4149
 2745SOL    HW119868   1.940   4.548   2.938 -0.3996 -0.7425  0.1999
 2745SOL    HW219869   1.997   4.555   2.795  1.1540 -2.4130 -0.6462
 2746SOL     OW19870   2.068   4.681   8.041  0.1594  0.0017  0.1805
 2746SOL    HW119871   2.074   0.034   7.998  0.6679  0.5877  1.4172
 2746SOL    HW219872   2.124   4.691   8.118 -0.6407 -0.4065  0.8310
 2747SOL     OW19873   0.785   4.105   2.647  0.1487 -0.1634 -0.8748
 2747SOL    HW119874   0.752   4.015   2.650 -0.6762  0.2351  2.5843
 2747SOL    HW219875   0.783   4.117   2.742  1.7505  0.4459 -0.9196
 2748SOL     OW19876   2.403   3.731   9.076 -0.1679 -0.6384 -0.0806
 2748SOL    HW119877   2.338   3.690   9.018 -2.3420  0.6299  1.4791
 2748SOL    HW219878   2.481   3.676   9.064 -0.1743 -0.3295 -1.5306
 2749SOL     OW19879   3.336   0.641  15.807 -0.0877  0.6028 -0.0477
 2749SOL    HW119880   3.306   0.597  15.727  0.2238  2.1619 -1.0251
 2749SOL    HW219881   3.431   0.645  15.793  0.0545 -1.3169  0.2963
 2750SOL     OW19882   4.603   0.174  13.280 -0.3164  0.1777  0.1374
 2750SOL    HW119883   4.559   0.090  13.267  0.3023 -0.1944  0.4353
 2750SOL    HW219884   4.668   0.144  13.344  0.4179  0.6667 -0.3786
 2751SOL     OW19885   1.432   0.009   6.324  0.0764  0.0478 -0.0771
 2751SOL    HW119886   1.464   0.020   6.414 -2.9198 -2.8040  1.3546
 2751SOL    HW219887   1.499   4.680   6.296  0.7111  1.5460 -1.8403
 2752SOL     OW19888   3.710   4.629   1.114 -0.1922  0.1253  0.1142
 2752SOL    HW119889   3.725   4.698   1.049 -1.4068  0.7110  0.4462
 2752SOL    HW219890   3.796   4.589   1.107  0.0205  0.7876 -1.1761
 2753SOL     OW19891   1.129   3.940  12.649 -0.2226  0.7699  0.3470
 2753SOL    HW119892   1.050   3.953  12.702 -0.4429 -0.4571  0.3148
 2753SOL    HW219893   1.098   3.951  12.559  1.3234  0.7117 -0.1769
 2754SOL     OW19894   1.733   4.146   5.598 -0.0362  0.1863 -0.5624
 2754SOL    HW119895   1.679   4.190   5.533 -0.7445  2.5562  1.6589
 2754SOL    HW219896   1.824   4.158   5.569  0.7703 -0.4077  1.7345
 2755SOL     OW19897   0.757   2.537   4.951 -0.5810  0.1050 -0.3756
 2755SOL    HW119898   0.696   2.551   5.024  0.7227 -2.6346  1.2679
 2755SOL    HW219899   0.726   2.597   4.884  0.4185 -0.2991 -1.1942
 2756SOL     OW19900   3.248   1.520   5.860 -0.6690 -0.5122  0.0588
 2756SOL    HW119901   3.261   1.601   5.909 -1.5304 -0.5220  0.2966
 2756SOL    HW219902   3.328   1.468   5.856 -0.1798  0.5734 -4.3363
 2757SOL     OW19903   0.635   3.353   7.739  0.8363 -0.2643 -0.0157
 2757SOL    HW119904   0.640   3.289   7.668 -0.2020  0.9899 -1.2060
 2757SOL    HW219905   0.564   3.414   7.719  2.9646  2.3135  0.4159
 2758SOL     OW19906   4.459   3.127   2.424 -0.1082  0.4202  0.1194
 2758SOL    HW119907   4.462   3.079   2.507  1.1390  0.8049  0.3019
 2758SOL    HW219908   4.467   3.217   2.456  0.6688 -0.4204  2.3256
 2759SOL     OW19909   4.324   1.211  12.360 -0.7316  0.7954 -0.0719
 2759SOL    HW119910   4.263   1.261  12.306 -1.2296 -1.1984 -1.3525
 2759SOL    HW219911   4.371   1.289  12.390  0.6043  0.8412 -2.2577
 2760SOL     OW19912   1.231   2.582   1.087  0.3675  0.5868  0.1783
 2760SOL    HW119913   1.188   2.571   1.002  2.0390 -1.4823 -0.3774
 2760SOL    HW219914   1.275   2.497   1.085 -0.7923  0.0117 -1.0411
 2761SOL     OW19915   0.672   1.537   3.766  0.3782 -0.1519 -0.1351
 2761SOL    HW119916   0.728   1.476   3.814  0.9152  0.2273 -0.2735
 2761SOL    HW219917   0.584   1.501   3.782  0.7142 -0.4660  1.0463
 2762SOL     OW19918   0.776   0.472   5.002 -0.0623 -0.4920 -0.1393
 2762SOL    HW119919   0.740   0.417   5.071  1.4497 -0.0743  1.0035
 2762SOL    HW219920   0.698   0.523   4.981 -0.1729 -0.9805 -0.8983
 2763SOL     OW19921   1.302   3.945   8.205  0.1279  0.1715  0.6233
 2763SOL    HW119922   1.313   3.900   8.289 -1.5764  1.7061  1.6747
 2763SOL    HW219923   1.207   3.955   8.210  0.2414  1.5368 -0.1166
 2764SOL     OW19924   1.477   1.361  15.226  0.1036  0.8170 -0.3834
 2764SOL    HW119925   1.531   1.399  15.156 -2.0820  0.0105 -2.5116
 2764SOL    HW219926   1.468   1.271  15.196  0.4680  1.2928 -1.9671
 2765SOL     OW19927   4.471   2.819  14.844 -0.7285  0.1912  0.1125
 2765SOL    HW119928   4.454   2.812  14.938  1.8892 -2.0699  0.4193
 2765SOL    HW219929   4.412   2.751  14.812  0.6413 -1.3437  0.8295
 2766SOL     OW19930   3.308   1.469  16.421  0.3867  0.3357 -0.3124
 2766SOL    HW119931   3.237   1.501  16.366  1.0175  2.3492  0.0443
 2766SOL    HW219932   3.387   1.485  16.369  1.2440 -0.2371  0.8161
 2767SOL     OW19933   3.528   3.571   5.774 -0.7075  0.5138  0.0876
 2767SOL    HW119934   3.478   3.524   5.708  3.0664 -1.3490 -1.4117
 2767SOL    HW219935   3.501   3.525   5.853  2.3693 -2.1292 -0.4340
 2768SOL     OW19936   0.535   3.012   7.884  0.4749 -0.4595  0.1144
 2768SOL    HW119937   0.554   3.094   7.929 -2.9775  1.5786 -2.1469
 2768SOL    HW219938   0.445   3.001   7.913  0.1224  0.2033 -0.7484
 2769SOL     OW19939   2.299   4.018   6.304  0.0606 -0.0144  0.0353
 2769SOL    HW119940   2.309   3.933   6.347  1.7754  0.2573  0.1925
 2769SOL    HW219941   2.323   4.077   6.375  2.3716  0.6179 -1.2423
 2770SOL     OW19942   4.158   4.516  11.035 -0.7493  0.1110 -0.2535
 2770SOL    HW119943   4.144   4.574  10.960  0.9777 -0.7386 -1.2179
 2770SOL    HW219944   4.210   4.569  11.095  0.6924 -0.9135 -0.5909
 2771SOL     OW19945   1.885   2.881   5.851  0.2984 -0.0931 -0.1727
 2771SOL    HW119946   1.890   2.952   5.915  1.1634  1.4245 -1.9274
 2771SOL    HW219947   1.960   2.834   5.887  0.5472  0.3881 -0.0725
 2772SOL     OW19948   4.526   0.665   0.905 -0.1524  0.3098  0.3411
 2772SOL    HW119949   4.445   0.624   0.934 -0.3027 -0.8470 -1.7511
 2772SOL    HW219950   4.579   0.587   0.891 -0.8201  0.0071 -0.5184
 2773SOL     OW19951   0.112   3.176   9.021 -0.2300 -0.1657  0.2355
 2773SOL    HW119952   0.018   3.159   9.030 -0.8551  2.3228 -1.6348
 2773SOL    HW219953   0.112   3.272   9.019  1.2040 -0.1412  2.1945
 2774SOL     OW19954   2.257   3.591   8.898 -0.2049 -0.2802 -0.0475
 2774SOL    HW119955   2.177   3.597   8.847 -0.1244 -0.0000 -0.1427
 2774SOL    HW219956   2.288   3.519   8.843 -0.5670 -0.9564  0.6332
 2775SOL     OW19957   3.406   2.990   8.934 -0.0160  0.1205 -0.0225
 2775SOL    HW119958   3.358   2.929   8.990 -2.1662  1.2971 -0.5757
 2775SOL    HW219959   3.419   3.060   8.998  0.3190 -0.1551  0.2089
 2776SOL     OW19960   2.688   1.253  13.865 -0.4924  0.3833  0.4055
 2776SOL    HW119961   2.664   1.333  13.913 -0.9373  1.7274 -2.0576
 2776SOL    HW219962   2.675   1.185  13.931  1.5414  0.2907  0.6921
 2777SOL     OW19963   3.606   1.448  11.069 -0.1569  0.1331  0.1672
 2777SOL    HW119964   3.650   1.396  11.136  1.6992  2.7416  0.9613
 2777SOL    HW219965   3.567   1.515  11.125 -2.4687 -0.7386 -0.4065
 2778SOL     OW19966   2.839   4.190  10.140  0.4563 -0.1779  0.2540
 2778SOL    HW119967   2.886   4.243  10.204  0.0706  0.9702 -0.4196
 2778SOL    HW219968   2.894   4.188  10.061 -1.6941  1.8986 -1.2798
 2779SOL     OW19969   3.120   3.598   7.598 -0.3412 -0.3095  0.6948
 2779SOL    HW119970   3.039   3.641   7.571  0.7065 -0.1319 -2.1251
 2779SOL    HW219971   3.121   3.624   7.690  0.8404  0.7406  0.3878
 2780SOL     OW19972   0.042   0.214   5.960 -0.0852 -0.3684  0.0205
 2780SOL    HW119973   0.015   0.277   6.026 -1.2836 -0.3760 -0.4678
 2780SOL    HW219974   4.693   0.225   5.911 -2.1778 -0.5555  3.5124
 2781SOL     OW19975   1.798   2.618   5.588 -0.1578 -0.4425  0.3784
 2781SOL    HW119976   1.841   2.700   5.562  0.0090 -0.7212 -0.2276
 2781SOL    HW219977   1.756   2.644   5.670 -1.2230  0.3893 -0.4286
 2782SOL     OW19978   3.940   4.037   2.145  0.3219 -0.0853 -0.0111
 2782SOL    HW119979   3.973   3.973   2.082 -0.4237 -1.5846  1.1279
 2782SOL    HW219980   3.982   4.007   2.225  0.3289 -1.9475 -0.7145
 2783SOL     OW19981   1.321   3.266   6.839 -0.5824 -0.0866 -0.1562
 2783SOL    HW119982   1.388   3.332   6.857 -0.3002 -0.5192  0.3759
 2783SOL    HW219983   1.263   3.288   6.912 -1.3526  2.5415 -1.5565
 2784SOL     OW19984   1.849   2.623   4.118  0.0212 -0.7744 -0.2475
 2784SOL    HW119985   1.908   2.690   4.084  0.4466 -0.2588  1.4807
 2784SOL    HW219986   1.821   2.573   4.042  0.6564  1.8040 -2.1730
 2785SOL     OW19987   0.167   3.466   5.425 -0.1462  0.2501 -0.5858
 2785SOL    HW119988   0.191   3.519   5.502  0.4790  1.2934 -1.5041
 2785SOL    HW219989   0.185   3.535   5.361  0.0181 -0.2377 -1.0609
 2786SOL     OW19990   0.654   3.446   9.506  0.4757  0.2987 -0.2403
 2786SOL    HW119991   0.698   3.361   9.510 -0.7248 -0.3640 -0.9615
 2786SOL    HW219992   0.619   3.468   9.593 -0.5126 -0.5706 -0.4045
 2787SOL     OW19993   0.075   0.435   6.505  0.8307 -0.4638  0.2979
 2787SOL    HW119994   0.165   0.466   6.496  1.0518 -0.2256  3.3327
 2787SOL    HW219995   0.095   0.382   6.582 -2.2236  1.0359  2.1093
 2788SOL     OW19996   1.852   4.492   7.915  0.5560  0.4657 -0.0312
 2788SOL    HW119997   1.933   4.516   7.960  0.1697  0.8579  0.4518
 2788SOL    HW219998   1.803   4.573   7.926 -1.8199 -0.8507 -0.9646
 2789SOL     OW19999   4.418   1.153   7.697  0.2212  0.1153 -0.4681
 2789SOL    HW120000   4.336   1.103   7.695 -0.6387  1.5810 -3.2856
 2789SOL    HW220001   4.424   1.175   7.789 -2.7369  1.9648 -0.6913
 2790SOL     OW20002   1.733   4.516  15.501  0.1652 -0.7228  0.6030
 2790SOL    HW120003   1.783   4.447  15.545  1.5330  0.6514  1.2506
 2790SOL    HW220004   1.793   4.588  15.521 -0.0902 -0.4522  0.3889
 2791SOL     OW20005   1.739   3.984   7.382  0.0552  0.5233  0.5338
 2791SOL    HW120006   1.707   3.907   7.428  0.9550 -0.4106 -0.4128
 2791SOL    HW220007   1.676   3.992   7.310  0.4451  1.7776  0.3222
 2792SOL     OW20008   4.671   1.136   3.659 -0.2029  0.5045 -0.3575
 2792SOL    HW120009   4.631   1.223   3.651  0.9903  0.9776 -1.2664
 2792SOL    HW220010   4.638   1.087   3.584 -1.5944  1.1663 -0.1811
 2793SOL     OW20011   2.552   0.306   6.070  0.5191 -0.1207 -0.0782
 2793SOL    HW120012   2.623   0.279   6.127  0.2200 -0.3563  0.1852
 2793SOL    HW220013   2.581   0.312   5.979  2.0908  1.9458  0.5718
 2794SOL     OW20014   1.345   4.624   5.579 -1.0661 -0.1408 -0.4670
 2794SOL    HW120015   1.261   4.662   5.556 -0.1525  2.0228 -0.1818
 2794SOL    HW220016   1.317   4.594   5.665  2.3996  1.0204  1.0693
 2795SOL     OW20017   3.720   3.819  14.852  0.2786 -0.7566 -0.2230
 2795SOL    HW120018   3.809   3.853  14.842 -0.0093 -0.3615 -1.3955
 2795SOL    HW220019   3.680   3.843  14.769 -0.6856  0.0754  0.4809
 2796SOL     OW20020   4.184   4.240   2.563 -0.2283  0.2404  0.4358
 2796SOL    HW120021   4.177   4.335   2.548 -0.0920  0.5075  1.9735
 2796SOL    HW220022   4.092   4.215   2.559 -0.8852  3.2181 -3.4898
 2797SOL     OW20023   2.834   0.391   6.682  0.1996 -0.2679  0.4916
 2797SOL    HW120024   2.914   0.434   6.711  1.3784 -2.5380  0.6210
 2797SOL    HW220025   2.781   0.383   6.761 -2.9296  1.8825 -1.3783
 2798SOL     OW20026   3.933   4.280  12.311  0.1825  0.0324 -0.3664
 2798SOL    HW120027   3.839   4.294  12.316  0.0611 -0.9368  0.1377
 2798SOL    HW220028   3.961   4.236  12.391  1.1407 -0.6272 -1.0552
 2799SOL     OW20029   0.990   1.561   3.000  0.4135  0.0108 -0.3770
 2799SOL    HW120030   1.067   1.519   3.039 -1.3500 -2.4057  0.5191
 2799SOL    HW220031   1.014   1.653   3.001  0.1500  0.0559  1.5699
 2800SOL     OW20032   3.339   1.042   4.698  0.4960  0.4096 -0.2813
 2800SOL    HW120033   3.364   0.999   4.616  0.5180  1.4271 -0.8076
 2800SOL    HW220034   3.278   0.986   4.745 -0.7900  3.2251  1.3596
 2801SOL     OW20035   2.059   1.007   8.382  0.0553  0.1790 -0.9218
 2801SOL    HW120036   2.015   1.076   8.332  0.0244 -1.3785 -3.0683
 2801SOL    HW220037   2.053   0.934   8.319 -1.0761  0.0134 -0.6228
 2802SOL     OW20038   1.986   4.038   8.152 -0.0861  0.3064 -0.4529
 2802SOL    HW120039   1.937   4.103   8.202 -1.7676 -0.8707 -0.5554
 2802SOL    HW220040   2.017   4.081   8.072  1.3142 -0.3395 -0.2693
 2803SOL     OW20041   1.266   1.189   1.483 -0.2322  0.3116  0.2623
 2803SOL    HW120042   1.341   1.132   1.469  1.5739  2.7204  0.2251
 2803SOL    HW220043   1.241   1.177   1.575  0.2045 -0.3493  0.2977
 2804SOL     OW20044   4.175   2.993   4.254  0.7289 -0.2146  0.1929
 2804SOL    HW120045   4.173   3.022   4.163 -0.9853 -2.2900 -0.4534
 2804SOL    HW220046   4.261   2.959   4.277  0.9435  0.6439  0.6425
 2805SOL     OW20047   2.395   3.738   2.950  0.0946  0.2858  0.0632
 2805SOL    HW120048   2.300   3.744   2.952  0.0727 -0.0977  0.1538
 2805SOL    HW220049   2.408   3.667   2.888  0.2693  0.4260 -0.0624
 2806SOL     OW20050   2.460   2.855  15.109 -0.7406 -0.0576  0.7572
 2806SOL    HW120051   2.551   2.881  15.123 -0.6175 -1.3515  2.2492
 2806SOL    HW220052   2.452   2.854  15.013  1.7342  0.7485  0.5505
 2807SOL     OW20053   3.830   2.982   6.212  0.0712 -0.8411 -0.3167
 2807SOL    HW120054   3.799   2.939   6.132 -0.0665  0.1864 -0.8250
 2807SOL    HW220055   3.908   3.027   6.180 -0.6371 -0.4065 -1.4526
 2808SOL     OW20056   2.972   2.357  13.720  0.2438 -0.1055  0.6539
 2808SOL    HW120057   3.008   2.320  13.801  1.6092  1.0470  0.5708
 2808SOL    HW220058   3.027   2.312  13.656 -1.3106  1.6343 -1.8835
 2809SOL     OW20059   4.231   3.953   3.733 -0.0514 -0.1354 -0.1832
 2809SOL    HW120060   4.305   3.918   3.683  0.4563  0.1593  0.3536
 2809SOL    HW220061   4.242   3.906   3.815  0.5991  2.7558  1.3750
 2810SOL     OW20062   4.588   3.480   3.694  0.4107  0.2003  0.5148
 2810SOL    HW120063   4.621   3.484   3.783  2.3058 -1.8234 -0.0851
 2810SOL    HW220064   4.605   3.572   3.673 -1.7172  0.3001 -0.8030
 2811SOL     OW20065   4.726   3.707   3.317 -0.0644 -0.1092 -0.2663
 2811SOL    HW120066   0.074   3.661   3.341 -1.1522 -0.9958  1.7359
 2811SOL    HW220067   0.029   3.760   3.246  1.3878 -0.4535  0.2038
 2812SOL     OW20068   2.993   1.785   2.127 -0.1349 -0.2334 -0.1850
 2812SOL    HW120069   3.043   1.824   2.056 -0.9090  1.1524  0.0340
 2812SOL    HW220070   3.055   1.778   2.199 -1.6492 -0.3221  1.1195
 2813SOL     OW20071   3.228   2.916   2.240  0.0524  0.6539 -1.5753
 2813SOL    HW120072   3.259   2.990   2.188  2.5760  0.9648  0.3563
 2813SOL    HW220073   3.301   2.855   2.230  0.8973  1.4198 -0.0223
 2814SOL     OW20074   1.297   1.020   1.016  0.3268  0.1513 -0.0121
 2814SOL    HW120075   1.309   1.093   1.077 -0.4548 -0.6674  1.1156
 2814SOL    HW220076   1.387   0.987   1.011  0.1712 -0.3062  0.2301
 2815SOL     OW20077   3.602   3.522   6.756 -0.3315 -0.3343 -0.1012
 2815SOL    HW120078   3.660   3.450   6.732  1.7241  0.9420  1.0241
 2815SOL    HW220079   3.630   3.540   6.846 -0.2303 -1.6509  0.1362
 2816SOL     OW20080   4.575   3.004   2.696  0.2568  0.3098  0.0533
 2816SOL    HW120081   4.640   2.987   2.765 -0.4710  1.2421  0.9661
 2816SOL    HW220082   4.562   3.099   2.701 -2.7758 -0.0529 -0.9587
 2817SOL     OW20083   1.112   0.134  12.311 -0.4332  0.4416  0.1471
 2817SOL    HW120084   1.027   0.178  12.318  0.9299  3.1007 -0.2301
 2817SOL    HW220085   1.101   0.070  12.382  0.9662  2.6029  2.2822
 2818SOL     OW20086   2.767   3.989  16.588 -0.1424  0.4818  0.4766
 2818SOL    HW120087   2.718   3.944  16.657 -1.8611 -0.5743 -1.4457
 2818SOL    HW220088   2.702   4.052  16.557  0.6667  0.8479 -0.4766
 2819SOL     OW20089   0.557   3.973  14.705 -0.0742 -0.3329 -0.7723
 2819SOL    HW120090   0.582   4.008  14.620  0.3353 -0.4550 -0.7046
 2819SOL    HW220091   0.466   3.947  14.691 -0.9729  1.1858  2.3123
 2820SOL     OW20092   4.125   2.949  11.240 -0.5902 -0.0024  0.0270
 2820SOL    HW120093   4.058   3.015  11.256  0.0021  0.6049 -0.0066
 2820SOL    HW220094   4.162   2.982  11.158  1.0386 -1.2614  0.2411
 2821SOL     OW20095   4.306   1.466   9.054 -0.0286 -0.6581  0.1548
 2821SOL    HW120096   4.218   1.489   9.085 -0.2078  0.2567 -1.0223
 2821SOL    HW220097   4.285   1.377   9.027  0.6644 -1.5282  2.5026
 2822SOL     OW20098   1.206   1.233   8.899 -0.2663  0.1929  0.4188
 2822SOL    HW120099   1.278   1.170   8.897 -0.1634  0.2844  1.6784
 2822SOL    HW220100   1.132   1.191   8.856 -0.6554 -0.8675  2.1351
 2823SOL     OW20101   2.770   4.196   8.635 -0.0323  0.3064 -0.2622
 2823SOL    HW120102   2.680   4.212   8.665  0.2642  0.9243  0.2820
 2823SOL    HW220103   2.795   4.120   8.687  0.6231  1.8424  1.6409
 2824SOL     OW20104   3.045   4.276   7.448  0.8714 -0.0029  0.0147
 2824SOL    HW120105   3.132   4.308   7.472  1.6787 -0.8437 -1.7925
 2824SOL    HW220106   3.056   4.228   7.366  0.8711  0.9573 -0.5390
 2825SOL     OW20107   2.235   1.406   3.431  0.4122 -0.0254  0.0250
 2825SOL    HW120108   2.154   1.457   3.429 -0.5812 -1.6076  0.3042
 2825SOL    HW220109   2.220   1.338   3.498 -1.1063 -0.6175 -0.9148
 2826SOL     OW20110   3.716   2.602  10.271  0.0280  0.0534  0.3234
 2826SOL    HW120111   3.773   2.646  10.207  2.9553 -2.6501  1.0522
 2826SOL    HW220112   3.749   2.512  10.270 -2.3907 -0.8060 -0.7238
 2827SOL     OW20113   2.628   2.939   9.527 -0.0917 -0.0395  0.9082
 2827SOL    HW120114   2.689   2.871   9.499  2.2505  2.3132  0.2628
 2827SOL    HW220115   2.561   2.922   9.461 -0.1800 -0.7742  1.1868
 2828SOL     OW20116   4.554   3.357   0.887 -0.0838  0.5017  0.7178
 2828SOL    HW120117   4.504   3.415   0.829 -0.8463 -1.4586 -0.5966
 2828SOL    HW220118   4.525   3.400   0.967  0.0047  0.3816  0.8139
 2829SOL     OW20119   1.275   3.888   7.324  0.4135  0.4161 -0.4200
 2829SOL    HW120120   1.362   3.914   7.294  0.6224 -2.4847 -2.3128
 2829SOL    HW220121   1.271   3.795   7.303 -0.1901 -0.3611  3.0995
 2830SOL     OW20122   2.487   2.965   4.074  0.1612  0.9023 -0.5877
 2830SOL    HW120123   2.474   3.038   4.014 -0.8118  1.4687  0.3128
 2830SOL    HW220124   2.540   3.000   4.146  0.4214  1.2181 -0.9348
 2831SOL     OW20125   3.879   2.155   6.076 -0.3102  0.2802 -0.1507
 2831SOL    HW120126   3.867   2.249   6.063  0.0277  0.0000 -2.3640
 2831SOL    HW220127   3.975   2.146   6.078 -0.4215 -1.1151 -1.2623
 2832SOL     OW20128   0.424   2.485  13.961  0.3703 -0.0617  0.0287
 2832SOL    HW120129   0.464   2.487  13.874  1.2191 -0.8465  0.3864
 2832SOL    HW220130   0.501   2.507  14.014  1.1128  0.2677 -1.1798
 2833SOL     OW20131   0.321   4.342   5.433 -0.0758 -0.2429 -0.1086
 2833SOL    HW120132   0.259   4.333   5.506  0.3294  0.0141  0.2697
 2833SOL    HW220133   0.353   4.252   5.427 -0.6206 -0.4882  0.6192
 2834SOL     OW20134   2.633   0.335   3.558  0.3049  0.6450  0.1051
 2834SOL    HW120135   2.622   0.393   3.483 -1.8765  1.0752  0.7509
 2834SOL    HW220136   2.575   0.261   3.539 -1.2592  1.7137  0.7028
 2835SOL     OW20137   4.573   2.254  12.544  0.3942 -0.1079 -0.2676
 2835SOL    HW120138   4.494   2.281  12.496 -1.1354 -1.2400  1.6365
 2835SOL    HW220139   4.581   2.160  12.535 -1.2030 -0.0599 -2.2346
 2836SOL     OW20140   0.626   4.488  17.526  0.1893 -0.1363  0.2588
 2836SOL    HW120141   0.668   4.411  17.487  0.3491 -0.8835  1.9092
 2836SOL    HW220142   0.540   4.484  17.484 -0.0618 -2.9203  1.0184
 2837SOL     OW20143   4.253   0.742   2.984  0.3171 -0.1081 -0.2545
 2837SOL    HW120144   4.312   0.697   3.045 -0.4339 -0.8069 -0.0556
 2837SOL    HW220145   4.169   0.731   3.028  0.7820 -2.1798  0.1278
 2838SOL     OW20146   2.994   0.620  11.679 -0.6440 -0.8941  0.2305
 2838SOL    HW120147   3.048   0.684  11.631 -0.2380 -0.6312  1.0420
 2838SOL    HW220148   2.980   0.676  11.755  2.1966 -0.4570  0.4388
 2839SOL     OW20149   1.528   2.961   9.901  0.2974 -0.1579 -0.4575
 2839SOL    HW120150   1.534   2.981   9.807 -0.8414  0.2191 -0.4415
 2839SOL    HW220151   1.546   2.867   9.900  1.0584 -0.0438  1.9297
 2840SOL     OW20152   0.168   3.425   1.666  0.3229 -0.0747  0.0190
 2840SOL    HW120153   0.191   3.370   1.742  4.1683  0.5437 -0.6702
 2840SOL    HW220154   0.165   3.513   1.704 -1.8857 -0.0816 -0.1657
 2841SOL     OW20155   0.868   2.998  16.974  1.0121 -0.0713  0.7101
 2841SOL    HW120156   0.866   2.945  16.894 -2.5619  0.4586  0.4826
 2841SOL    HW220157   0.960   3.021  16.988  2.1041 -1.7944 -3.4875
 2842SOL     OW20158   0.740   3.307   2.281 -0.3908 -0.3455 -0.3119
 2842SOL    HW120159   0.716   3.326   2.372  1.2023  2.7617 -0.5252
 2842SOL    HW220160   0.778   3.393   2.261 -0.4086  0.5357  3.5173
 2843SOL     OW20161   3.889   0.665   2.378  0.1352 -0.3208  0.1252
 2843SOL    HW120162   3.817   0.602   2.383  1.3536 -1.9151 -2.3423
 2843SOL    HW220163   3.908   0.674   2.472 -0.1969  1.8004 -0.0249
 2844SOL     OW20164   1.093   0.833   6.955  0.2575 -0.1771 -0.1986
 2844SOL    HW120165   1.129   0.809   7.041  2.1538 -0.6943 -1.1401
 2844SOL    HW220166   1.022   0.880   6.998  0.1212 -0.7748  0.2309
 2845SOL     OW20167   4.390   0.994   6.623 -0.1703  0.1325  0.8180
 2845SOL    HW120168   4.299   0.968   6.635  0.1052 -0.8881  0.7156
 2845SOL    HW220169   4.388   1.082   6.658 -0.1999  1.1906 -1.8089
 2846SOL     OW20170   2.152   3.019   3.936  0.1888  0.4257  0.2763
 2846SOL    HW120171   2.185   3.067   4.012 -0.0541  1.5923 -0.3621
 2846SOL    HW220172   2.221   3.037   3.872 -0.5691 -0.9082 -0.9056
 2847SOL     OW20173   3.037   0.069  17.529  0.4249 -0.0066 -0.1929
 2847SOL    HW120174   3.048   0.031  17.616 -0.4021  2.4531  0.9797
 2847SOL    HW220175   2.953   0.113  17.537  0.3188 -0.3992  0.8029
 2848SOL     OW20176   3.231   3.212  13.516 -0.2887 -0.6756 -0.3053
 2848SOL    HW120177   3.239   3.307  13.504  1.5939 -0.8078 -0.0834
 2848SOL    HW220178   3.235   3.207  13.612 -0.4559 -0.5328 -0.2909
 2849SOL     OW20179   1.861   4.386   7.627  0.0018 -0.6090 -0.1339
 2849SOL    HW120180   1.850   4.481   7.633 -2.7444 -0.8241 -1.7968
 2849SOL    HW220181   1.889   4.370   7.717 -0.5989 -0.8067  0.0189
 2850SOL     OW20182   2.698   2.667   4.262 -0.5559 -0.4417  0.2855
 2850SOL    HW120183   2.615   2.620   4.266  0.1277 -1.7187 -0.5675
 2850SOL    HW220184   2.718   2.654   4.169 -4.1800 -2.0446 -0.2597
 2851SOL     OW20185   0.474   0.021   7.473 -0.2545 -0.1230 -0.4090
 2851SOL    HW120186   0.498   0.112   7.456 -0.2580 -0.3357 -1.5751
 2851SOL    HW220187   0.499   0.014   7.565 -0.0612 -1.9441 -0.6086
 2852SOL     OW20188   0.489   3.401   1.865 -0.4857 -0.0537  0.4555
 2852SOL    HW120189   0.398   3.376   1.849 -0.4102 -0.9388  1.3772
 2852SOL    HW220190   0.509   3.370   1.953  0.9824 -0.1608  0.0918
 2853SOL     OW20191   3.555   3.530   6.262 -0.1969 -0.3151 -0.0281
 2853SOL    HW120192   3.626   3.548   6.200  1.0336 -0.3151  1.4092
 2853SOL    HW220193   3.547   3.614   6.307 -0.1181 -0.2920 -0.0571
 2854SOL     OW20194   0.303   3.167  17.397 -0.2193 -0.0791  0.5685
 2854SOL    HW120195   0.316   3.258  17.371  0.3249 -0.0635  0.9094
 2854SOL    HW220196   0.396   3.146  17.392 -0.3722 -1.1231  2.0080
 2855SOL     OW20197   2.964   3.940   6.606  0.2120 -0.4183  0.2310
 2855SOL    HW120198   2.889   3.880   6.600 -0.5906  0.5308  0.7392
 2855SOL    HW220199   3.019   3.884   6.551 -0.6850 -1.3003  0.2145
 2856SOL     OW20200   1.126   3.860  10.768 -0.2479  0.2107 -0.1521
 2856SOL    HW120201   1.179   3.831  10.843 -0.1850  1.0572  0.1334
 2856SOL    HW220202   1.141   3.794  10.702 -0.9489  0.1863 -0.2927
 2857SOL     OW20203   1.201   1.177   0.785 -0.8505  0.5009  0.0153
 2857SOL    HW120204   1.125   1.208   0.833 -0.6916 -1.0327  1.2498
 2857SOL    HW220205   1.244   1.119   0.848  0.5801 -0.4041 -1.7635
 2858SOL     OW20206   0.519   3.522   3.409 -0.2849  0.3705  0.1764
 2858SOL    HW120207   0.452   3.553   3.470  1.1388  3.0366  0.3886
 2858SOL    HW220208   0.595   3.566   3.449 -0.6783 -0.0442  1.3959
 2859SOL     OW20209   0.738   0.144  13.602  0.0707  0.1987 -0.2074
 2859SOL    HW120210   0.785   0.120  13.682  0.6970  1.4286 -0.2037
 2859SOL    HW220211   0.693   0.224  13.630 -1.7080 -1.1796  0.8661
 2860SOL     OW20212   1.398   1.456   2.794 -0.1167 -0.0589  0.1119
 2860SOL    HW120213   1.463   1.476   2.862 -0.7184  2.0184  0.0845
 2860SOL    HW220214   1.385   1.361   2.803 -2.7730  0.3276  0.4251
 2861SOL     OW20215   2.547   1.295   8.137  0.3111 -0.1422  0.3454
 2861SOL    HW120216   2.523   1.333   8.222  1.3601  2.6478 -0.6243
 2861SOL    HW220217   2.642   1.289   8.142  0.4666  0.0313 -2.2906
 2862SOL     OW20218   3.760   4.070   7.272  0.2663 -0.4988 -0.5663
 2862SOL    HW120219   3.673   4.052   7.235 -0.1927  0.5843 -0.0179
 2862SOL    HW220220   3.759   4.166   7.274 -0.2493 -0.4887 -1.1852
 2863SOL     OW20221   3.028   4.204   5.150  0.3193  0.7163  0.5388
 2863SOL    HW120222   2.992   4.243   5.230  0.0654 -2.2428  1.8485
 2863SOL    HW220223   3.101   4.155   5.187  0.1602  1.9154  2.4361
 2864SOL     OW20224   0.852   0.234   4.442 -0.4150 -0.3106  0.1615
 2864SOL    HW120225   0.886   0.267   4.525  0.9071  1.4161 -1.0562
 2864SOL    HW220226   0.783   0.299   4.434  0.0491  0.1637  0.0293
 2865SOL     OW20227   3.970   3.174   5.570 -0.2523  0.0799 -0.2810
 2865SOL    HW120228   4.035   3.198   5.635 -0.7522  1.4286 -0.2871
 2865SOL    HW220229   4.016   3.113   5.512  0.6266  0.0446  0.4688
 2866SOL     OW20230   2.819   0.428   0.944 -0.5368 -0.5531  0.1560
 2866SOL    HW120231   2.724   0.437   0.938 -0.3347 -0.3153 -2.5907
 2866SOL    HW220232   2.845   0.519   0.959  0.1726 -0.6915 -0.1855
 2867SOL     OW20233   2.765   0.252  13.882  0.8245  0.2738  0.0086
 2867SOL    HW120234   2.792   0.208  13.801 -1.5065  0.3950 -0.8518
 2867SOL    HW220235   2.738   0.177  13.934 -0.5015  1.3957  0.9495
 2868SOL     OW20236   1.477   3.799   0.333 -0.1472  0.1896 -0.6549
 2868SOL    HW120237   1.543   3.866   0.317  0.2804 -0.0744  0.0406
 2868SOL    HW220238   1.516   3.713   0.349  0.2874  0.6511  0.6983
 2869SOL     OW20239   3.877   1.389  13.318  0.5623  0.4632 -0.4851
 2869SOL    HW120240   3.828   1.397  13.236  0.8547 -0.4455 -0.7409
 2869SOL    HW220241   3.818   1.428  13.383 -0.4699  2.3856 -2.5633
 2870SOL     OW20242   1.651   0.637   1.628 -0.3105  0.3982  0.2210
 2870SOL    HW120243   1.720   0.703   1.635  0.5807 -0.3879 -1.0892
 2870SOL    HW220244   1.600   0.653   1.707 -0.1849  3.4050 -0.3035
 2871SOL     OW20245   0.072   1.749  15.648 -0.2926 -0.8184  0.3056
 2871SOL    HW120246   0.147   1.706  15.687  0.2530  1.5253  1.8736
 2871SOL    HW220247   0.089   1.840  15.673 -1.6688 -0.4245 -0.1883
 2872SOL     OW20248   4.715   2.558  10.254 -0.0508 -0.2183 -0.2245
 2872SOL    HW120249   0.066   2.519  10.225  0.6452 -0.6504  2.3636
 2872SOL    HW220250   4.642   2.523  10.204  0.2489 -0.8376 -0.2318
 2873SOL     OW20251   3.182   1.670   6.443 -0.1961 -0.0946 -0.0053
 2873SOL    HW120252   3.164   1.634   6.356 -0.3182 -0.1197  0.0297
 2873SOL    HW220253   3.276   1.675   6.428 -0.3886  2.8719 -0.2414
 2874SOL     OW20254   1.629   2.725   3.010  0.8201  0.0749 -0.5819
 2874SOL    HW120255   1.574   2.774   2.948 -0.4030  0.6424  0.9204
 2874SOL    HW220256   1.679   2.667   2.953  1.3607  0.2627 -0.3000
 2875SOL     OW20257   3.097   3.241   4.586 -0.5116 -0.0742  0.1987
 2875SOL    HW120258   3.097   3.145   4.583  1.5131 -0.0530 -0.1614
 2875SOL    HW220259   3.078   3.259   4.679  0.5504  0.5890  0.2832
 2876SOL     OW20260   4.651   2.086   6.936  0.7867 -0.5485 -0.0296
 2876SOL    HW120261   4.676   2.040   7.016  3.0285 -1.3031 -1.1502
 2876SOL    HW220262   4.694   2.031   6.870 -0.7052 -1.0798 -0.5539
 2877SOL     OW20263   1.513   4.545   8.424 -0.2570 -0.6508 -0.8616
 2877SOL    HW120264   1.458   4.518   8.497  1.5565 -2.5685 -0.2026
 2877SOL    HW220265   1.479   4.632   8.402 -2.4885 -0.8633  1.7690
 2878SOL     OW20266   0.177   4.324   6.817  0.2958  0.5196 -0.5706
 2878SOL    HW120267   0.214   4.243   6.782 -0.9911 -0.4719  0.3691
 2878SOL    HW220268   0.242   4.392   6.800  0.0125  0.3882 -2.2044
 2879SOL     OW20269   4.075   1.144   9.574  0.2941 -0.0499 -0.3471
 2879SOL    HW120270   4.097   1.118   9.664  2.4432 -0.9311 -1.1390
 2879SOL    HW220271   4.049   1.235   9.582  0.4165 -0.3063  2.9978
 2880SOL     OW20272   3.065   2.049   9.407 -0.3364  0.2242  0.5688
 2880SOL    HW120273   3.006   1.983   9.444 -0.0122 -0.2986  0.1738
 2880SOL    HW220274   3.038   2.049   9.315 -0.3226  0.6656  0.5681
 2881SOL     OW20275   3.699   1.924   6.106  0.2601 -0.1014  0.8040
 2881SOL    HW120276   3.767   1.991   6.113 -0.4134  0.7826 -1.2958
 2881SOL    HW220277   3.629   1.982   6.135 -0.3363 -1.1966  1.5591
 2882SOL     OW20278   2.113   3.418  15.830  0.3174  0.5901  0.5157
 2882SOL    HW120279   2.201   3.384  15.815 -0.8464 -2.4537  0.6216
 2882SOL    HW220280   2.136   3.503  15.867  3.1718  0.2876 -0.5618
 2883SOL     OW20281   1.055   0.954  16.487 -0.2216  0.5734 -0.1171
 2883SOL    HW120282   1.047   0.896  16.563 -0.8050  1.8807  0.8204
 2883SOL    HW220283   1.118   1.022  16.511 -0.6367  1.2361 -0.8994
 2884SOL     OW20284   1.375   3.535  13.254  0.0942 -0.0754  0.1551
 2884SOL    HW120285   1.361   3.623  13.290 -0.9807 -0.7786  1.4440
 2884SOL    HW220286   1.286   3.506  13.232 -0.1562  1.2612 -0.5783
 2885SOL     OW20287   2.757   0.937  14.521 -0.3223 -0.1629  0.0312
 2885SOL    HW120288   2.778   0.957  14.612 -0.5982 -2.8929  0.6707
 2885SOL    HW220289   2.835   0.885  14.506 -0.9969 -1.0698 -0.3424
 2886SOL     OW20290   3.803   4.337   7.283 -0.4955  0.0502  0.3756
 2886SOL    HW120291   3.798   4.340   7.187  0.1261  0.0257  0.3468
 2886SOL    HW220292   3.876   4.394   7.304  0.4294 -1.6234  1.6809
 2887SOL     OW20293   0.493   2.824   3.056  0.0631  0.2817  0.8155
 2887SOL    HW120294   0.561   2.892   3.056 -0.4550  0.8067  1.3576
 2887SOL    HW220295   0.429   2.866   2.998 -1.2647 -2.0448  0.5975
 2888SOL     OW20296   0.816   1.831   5.979 -0.1533 -0.1227  0.2119
 2888SOL    HW120297   0.766   1.893   5.925 -0.1799  0.1727  0.5691
 2888SOL    HW220298   0.770   1.822   6.063  1.4355  0.0200  1.0998
 2889SOL     OW20299   2.152   4.162   0.946  0.1998  0.2257  0.5197
 2889SOL    HW120300   2.243   4.186   0.930 -0.2319  0.0639 -2.1531
 2889SOL    HW220301   2.142   4.187   1.038 -3.3652  2.0017 -0.3468
 2890SOL     OW20302   3.775   0.141  16.258 -0.3188 -0.4404 -0.1158
 2890SOL    HW120303   3.769   0.080  16.184  1.3206 -1.1497  0.3313
 2890SOL    HW220304   3.683   0.130  16.283 -0.1906 -2.4179 -0.5119
 2891SOL     OW20305   4.345   1.441  17.419 -0.1407  0.0049 -0.4723
 2891SOL    HW120306   4.293   1.370  17.381 -2.6966  1.3259  0.5271
 2891SOL    HW220307   4.399   1.465  17.344 -0.4492  1.1130 -0.3412
 2892SOL     OW20308   3.458   4.628   1.172 -0.1029  0.2953  1.1678
 2892SOL    HW120309   3.547   4.622   1.139 -1.4442  0.9884 -2.5377
 2892SOL    HW220310   3.458   4.709   1.223 -0.6472  0.6382  0.6278
 2893SOL     OW20311   4.501   0.663   1.916  0.0855  0.4208 -0.2938
 2893SOL    HW120312   4.467   0.689   1.831 -0.3713  2.3873  0.4870
 2893SOL    HW220313   4.432   0.641   1.979  0.6483  1.7124  0.7505
 2894SOL     OW20314   1.086   3.241   7.044 -0.0432 -0.5239 -0.4024
 2894SOL    HW120315   1.007   3.247   7.097 -0.2995 -1.1830 -0.7060
 2894SOL    HW220316   1.064   3.304   6.975 -0.6185 -0.2201  0.0563
 2895SOL     OW20317   2.875   0.643   8.260 -0.0696  0.0669 -0.0554
 2895SOL    HW120318   2.881   0.628   8.166 -3.4610  0.9029 -0.3840
 2895SOL    HW220319   2.917   0.560   8.284 -0.6118 -0.6525 -1.6267
 2896SOL     OW20320   3.919   2.295   6.694 -0.2421 -0.4920 -0.2406
 2896SOL    HW120321   3.837   2.331   6.727 -0.3776 -0.5098 -0.5556
 2896SOL    HW220322   3.932   2.370   6.636  0.5094  0.0037  0.5770
 2897SOL     OW20323   4.480   4.509  17.512 -0.2324  0.3976  0.0882
 2897SOL    HW120324   4.514   4.420  17.502  0.2516  0.5323  0.5299
 2897SOL    HW220325   4.501   4.540  17.424  0.0420 -0.1355 -0.0329
 2898SOL     OW20326   0.083   4.558   5.374  0.3620  0.4533  0.1014
 2898SOL    HW120327   0.033   4.588   5.297 -1.0500 -0.0922  0.8071
 2898SOL    HW220328   0.171   4.562   5.336  0.7883 -0.3751  1.0195
 2899SOL     OW20329   0.451   3.847  10.119 -0.2825 -0.0092 -0.3902
 2899SOL    HW120330   0.417   3.906  10.186  0.4490 -0.0435  0.0078
 2899SOL    HW220331   0.409   3.767  10.149 -0.6827  0.5685  0.5915
 2900SOL     OW20332   1.754   0.565   6.110  0.2987 -0.0622  0.5068
 2900SOL    HW120333   1.749   0.587   6.203  3.3496  1.6115  0.2848
 2900SOL    HW220334   1.791   0.477   6.112 -0.6460 -0.4594  0.3330
 2901SOL     OW20335   1.328   4.175   5.924 -0.5623 -0.5055 -0.1417
 2901SOL    HW120336   1.400   4.173   5.986 -1.6355 -0.1816  1.1285
 2901SOL    HW220337   1.332   4.094   5.873  1.6445 -1.4371  1.5191
 2902SOL     OW20338   2.912   1.086   3.891 -0.2091  0.0710 -0.4386
 2902SOL    HW120339   2.910   1.095   3.987 -1.3615 -1.3055 -0.3309
 2902SOL    HW220340   2.885   0.994   3.885 -0.5401 -0.0233  2.3970
 2903SOL     OW20341   3.146   0.357   8.072  0.2330 -0.0637  0.0505
 2903SOL    HW120342   3.185   0.324   7.992 -1.2780 -0.3476 -0.5734
 2903SOL    HW220343   3.196   0.439   8.080 -0.9609  0.4489  2.2871
 2904SOL     OW20344   2.727   0.454   8.673 -0.4745 -0.0117  0.9837
 2904SOL    HW120345   2.821   0.435   8.680 -0.3833 -0.2532 -0.7202
 2904SOL    HW220346   2.730   0.540   8.631 -3.2046  0.6188  2.1549
 2905SOL     OW20347   0.764   1.416   7.610 -0.4053  0.3017  0.3913
 2905SOL    HW120348   0.769   1.428   7.704 -2.1013  1.7855  0.2777
 2905SOL    HW220349   0.853   1.397   7.580 -1.9522 -3.1902 -2.0987
 2906SOL     OW20350   1.127   4.107   7.334  0.1672 -0.4966  0.0940
 2906SOL    HW120351   1.192   4.037   7.343  1.5007  0.6161 -0.9389
 2906SOL    HW220352   1.083   4.078   7.253 -0.3801 -2.5621  1.1053
 2907SOL     OW20353   3.887   1.457  16.062 -0.3201  0.4361 -0.6861
 2907SOL    HW120354   3.950   1.465  16.133  0.5795  1.3710 -1.5911
 2907SOL    HW220355   3.876   1.543  16.021 -0.3419  0.7396 -0.0277
 2908SOL     OW20356   1.414   3.204  13.334 -0.3229 -0.0573  0.5340
 2908SOL    HW120357   1.418   3.269  13.264  0.2386 -1.5134 -0.7771
 2908SOL    HW220358   1.355   3.138  13.298  2.2677 -3.3778  2.3726
 2909SOL     OW20359   3.817   3.752   1.376  0.1939 -0.1803  0.0597
 2909SOL    HW120360   3.875   3.826   1.391  0.3442 -0.8013  2.6228
 2909SOL    HW220361   3.762   3.783   1.305 -1.5385 -0.6095  1.2150
 2910SOL     OW20362   3.049   4.628   3.240 -0.3613 -0.0406  0.4260
 2910SOL    HW120363   3.125   4.659   3.191 -0.2066 -0.1313  0.6115
 2910SOL    HW220364   2.983   4.685   3.201  1.0612  0.3416 -1.4077
 2911SOL     OW20365   1.474   3.818   9.036 -0.3669 -0.3190  0.7597
 2911SOL    HW120366   1.554   3.829   9.088 -0.8564 -0.0710  1.4649
 2911SOL    HW220367   1.490   3.899   8.988  1.3862 -0.4541  1.1052
 2912SOL     OW20368   0.345   1.993  17.455  0.0631  0.0671 -0.3767
 2912SOL    HW120369   0.325   2.082  17.428  1.5830 -0.4891 -3.3861
 2912SOL    HW220370   0.294   1.993  17.535  0.5718  0.0222 -0.0519
 2913SOL     OW20371   4.559   2.470   6.568 -0.9095  0.1891 -0.3197
 2913SOL    HW120372   4.647   2.480   6.533 -0.8082 -1.2914 -0.5085
 2913SOL    HW220373   4.579   2.400   6.630  0.7051  0.5527 -0.4372
 2914SOL     OW20374   1.227   1.375   5.814 -0.0346  0.0029  0.0566
 2914SOL    HW120375   1.253   1.314   5.884  1.7622  1.7034  0.8889
 2914SOL    HW220376   1.308   1.371   5.763 -0.4085  0.6607 -0.5864
 2915SOL     OW20377   2.284   4.137   7.311  0.1759  0.2570  0.1958
 2915SOL    HW120378   2.345   4.205   7.283  0.8965  0.5224  2.4137
 2915SOL    HW220379   2.207   4.191   7.332 -1.5932 -3.0483  2.2147
 2916SOL     OW20380   1.162   3.059   2.293  0.1684  0.6673 -0.3976
 2916SOL    HW120381   1.155   3.087   2.384 -0.7874  1.5988 -0.7544
 2916SOL    HW220382   1.072   3.032   2.276 -0.4368  1.0875  2.2271
 2917SOL     OW20383   3.626   2.562   2.548  0.0580  0.5198 -0.0458
 2917SOL    HW120384   3.696   2.617   2.512  0.3952 -0.0796 -0.2939
 2917SOL    HW220385   3.656   2.475   2.524  0.5062  0.8729 -0.7691
 2918SOL     OW20386   4.510   4.289   0.354  0.1921  0.6151  0.1063
 2918SOL    HW120387   4.521   4.286   0.259 -2.4883  1.1191 -0.2200
 2918SOL    HW220388   4.416   4.307   0.349 -0.0130 -0.5366 -0.3702
 2919SOL     OW20389   4.610   3.640   8.590  0.2976  0.5187  0.1304
 2919SOL    HW120390   4.611   3.560   8.538  0.3308  1.0472 -0.6976
 2919SOL    HW220391   4.526   3.681   8.570 -0.0334 -0.9838 -1.5874
 2920SOL     OW20392   4.338   4.066  12.375 -0.2703 -0.2124  0.4318
 2920SOL    HW120393   4.390   3.986  12.364 -1.1433 -0.8755  1.0299
 2920SOL    HW220394   4.253   4.021  12.378  0.5398 -1.6218  2.2941
 2921SOL     OW20395   1.485   2.826   4.164  0.8764 -0.2534 -0.3787
 2921SOL    HW120396   1.447   2.810   4.250  1.2792  0.1733 -0.1183
 2921SOL    HW220397   1.499   2.738   4.130 -2.2235 -0.8378 -0.1263
 2922SOL     OW20398   0.114   0.757  12.856  0.3276 -0.7591  0.0828
 2922SOL    HW120399   0.103   0.830  12.916 -0.1815 -0.6793 -0.1103
 2922SOL    HW220400   0.195   0.725  12.896 -0.3702  0.3671  2.3789
 2923SOL     OW20401   1.532   3.335   3.535 -0.6513 -0.0458 -0.4802
 2923SOL    HW120402   1.543   3.312   3.627 -0.7019  1.1570 -0.1768
 2923SOL    HW220403   1.596   3.279   3.490  0.1716  1.1124 -0.7396
 2924SOL     OW20404   2.511   0.644   4.434  0.1053  0.0712  0.4655
 2924SOL    HW120405   2.588   0.640   4.378 -0.3881 -1.0467 -0.1200
 2924SOL    HW220406   2.521   0.553   4.461  1.6613 -0.5445 -2.2472
 2925SOL     OW20407   1.253   2.311   1.131 -0.2999 -0.5652 -0.3635
 2925SOL    HW120408   1.170   2.300   1.083 -0.0952  1.1686 -1.1202
 2925SOL    HW220409   1.315   2.263   1.076  0.0396  1.4225 -1.7478
 2926SOL     OW20410   3.517   0.367  17.390 -0.0633 -0.5854  0.1969
 2926SOL    HW120411   3.468   0.348  17.310  0.8355  1.1114 -0.7557
 2926SOL    HW220412   3.486   0.455  17.408  0.4246 -0.0705 -1.5004
 2927SOL     OW20413   0.491   4.119   5.399 -0.3964  0.2658  0.1381
 2927SOL    HW120414   0.561   4.076   5.350  1.0828  0.6508  1.8757
 2927SOL    HW220415   0.474   4.054   5.468 -0.5303  0.2679  0.1069
 2928SOL     OW20416   0.503   0.539   4.210 -0.1794  0.4935  0.4508
 2928SOL    HW120417   0.410   0.554   4.193 -0.4899  0.7860  2.4124
 2928SOL    HW220418   0.519   0.609   4.274  0.7092  0.4229  0.3049
 2929SOL     OW20419   2.250   2.628   3.981 -0.3497 -0.3052  0.3176
 2929SOL    HW120420   2.282   2.560   4.040  0.8364 -0.0706 -0.0498
 2929SOL    HW220421   2.331   2.660   3.941 -1.9405  1.3173 -1.6022
 2930SOL     OW20422   0.165   3.029  16.423 -0.2421  0.2341 -0.3897
 2930SOL    HW120423   0.131   3.101  16.477 -0.8700 -1.5088  1.5297
 2930SOL    HW220424   0.188   3.084  16.348  1.9783  0.5259  0.5064
 2931SOL     OW20425   2.662   1.949   9.117  0.3193 -0.3146  0.1660
 2931SOL    HW120426   2.647   2.040   9.090  0.8189 -0.1107  0.5777
 2931SOL    HW220427   2.594   1.947   9.185  0.6607 -1.7940  0.4508
 2932SOL     OW20428   4.027   4.024   5.471 -0.1953 -0.7298 -0.0480
 2932SOL    HW120429   3.978   3.976   5.537 -0.2734 -1.3592 -0.5676
 2932SOL    HW220430   3.968   4.024   5.396  1.3161  2.5422 -1.2842
 2933SOL     OW20431   2.949   3.263  11.311 -0.1899  0.3093 -0.5692
 2933SOL    HW120432   2.916   3.328  11.249  1.4372 -0.4879 -2.2629
 2933SOL    HW220433   2.874   3.262  11.371  0.2559  0.3115 -0.0078
 2934SOL     OW20434   3.104   4.724   5.067 -0.1209  0.0619 -0.2667
 2934SOL    HW120435   3.060   4.661   5.011  0.3063  0.4661 -1.0545
 2934SOL    HW220436   3.143   4.666   5.132 -0.6267 -0.2391 -0.2314
 2935SOL     OW20437   3.936   3.222  10.888  0.3350  0.3174  0.4269
 2935SOL    HW120438   3.954   3.313  10.910 -2.7410  0.6097  1.7670
 2935SOL    HW220439   3.945   3.228  10.793 -3.2858  0.0178  0.0639
 2936SOL     OW20440   0.151   0.471   8.466  0.4732  0.2166  0.2068
 2936SOL    HW120441   0.183   0.387   8.433 -1.7406 -1.5054  2.3769
 2936SOL    HW220442   0.219   0.491   8.530 -1.5308 -0.1768  2.4867
 2937SOL     OW20443   2.181   0.710  14.016  0.5153 -0.6522 -0.6746
 2937SOL    HW120444   2.154   0.633  14.065  1.3987 -2.4303 -2.9735
 2937SOL    HW220445   2.113   0.714  13.949 -0.8755  1.2489  0.8589
 2938SOL     OW20446   2.710   2.261   3.914  0.7493  0.1328 -0.7660
 2938SOL    HW120447   2.669   2.341   3.880 -3.6941 -1.5699  0.4954
 2938SOL    HW220448   2.801   2.284   3.933  0.8397 -0.5839 -0.3404
 2939SOL     OW20449   3.503   1.034  13.018  0.0711 -0.0174  0.1511
 2939SOL    HW120450   3.494   0.976  12.943  2.2423 -1.3408  0.9089
 2939SOL    HW220451   3.598   1.029  13.024  0.2900  1.5389 -2.3033
 2940SOL     OW20452   0.654   1.051   4.595  0.0354 -0.1665 -0.1205
 2940SOL    HW120453   0.623   0.967   4.631 -0.1311 -0.3490 -0.7000
 2940SOL    HW220454   0.738   1.023   4.559 -0.6501 -1.2875 -0.8652
 2941SOL     OW20455   3.644   4.129   9.083 -0.0645 -0.0391 -0.7229
 2941SOL    HW120456   3.634   4.145   9.177  0.4264 -2.5749 -0.2481
 2941SOL    HW220457   3.739   4.136   9.077  0.0464 -0.4252  0.6636
 2942SOL     OW20458   2.566   4.009   8.286 -0.3608  0.0397  0.2500
 2942SOL    HW120459   2.561   3.949   8.360  0.1057  2.2761  2.1062
 2942SOL    HW220460   2.636   4.070   8.310 -0.1777 -0.3381  0.6638
 2943SOL     OW20461   4.010   1.090   8.519  0.3737 -0.6978  0.5451
 2943SOL    HW120462   3.922   1.118   8.544  1.1748  1.3855  0.9723
 2943SOL    HW220463   4.055   1.174   8.524  0.2102 -0.6112  0.5764
 2944SOL     OW20464   3.897   4.585   4.623  0.7550  0.1388  0.4614
 2944SOL    HW120465   3.821   4.618   4.575 -0.2763 -0.8383  1.4164
 2944SOL    HW220466   3.855   4.572   4.708  0.1115 -0.2431  0.0855
 2945SOL     OW20467   3.635   2.633   7.049  0.2021 -0.4267  0.0137
 2945SOL    HW120468   3.699   2.654   6.981 -0.3987 -1.5313 -0.8952
 2945SOL    HW220469   3.564   2.687   7.014  0.7081  1.8679  2.5540
 2946SOL     OW20470   1.901   0.985   6.432  0.0668  0.1487  0.2530
 2946SOL    HW120471   1.880   1.059   6.489  0.3332  0.9835 -0.7171
 2946SOL    HW220472   1.927   1.031   6.352 -1.1525  0.7507  0.2031
 2947SOL     OW20473   3.037   0.325  12.750 -0.4861  0.6208  0.0481
 2947SOL    HW120474   3.109   0.351  12.808 -0.7430 -0.7393  0.9668
 2947SOL    HW220475   3.079   0.257  12.698 -0.5649  0.8565 -0.3229
 2948SOL     OW20476   0.784   2.971  16.218 -0.1451  0.2409  0.5674
 2948SOL    HW120477   0.704   2.981  16.167  0.5142  0.1474 -0.4898
 2948SOL    HW220478   0.822   2.891  16.181 -0.2971  1.4876 -2.3182
 2949SOL     OW20479   0.305   2.958   8.384  0.0621  0.1351  0.2460
 2949SOL    HW120480   0.289   2.924   8.472  2.3779 -0.3643  0.4603
 2949SOL    HW220481   0.285   2.879   8.332  1.3884  0.2487 -0.4308
 2950SOL     OW20482   3.911   1.603   0.360 -0.3513  0.2404 -0.1982
 2950SOL    HW120483   3.952   1.678   0.403 -0.3447  1.6517 -2.6543
 2950SOL    HW220484   3.858   1.645   0.292 -0.5961  0.1521 -0.0609
 2951SOL     OW20485   2.497   0.282   8.717  0.1498 -0.0001 -0.1822
 2951SOL    HW120486   2.555   0.358   8.716  0.3278 -0.1576 -1.6756
 2951SOL    HW220487   2.499   0.282   8.813 -1.2209 -0.2177 -0.1564
 2952SOL     OW20488   4.282   3.288  10.914 -0.3903  0.1779 -0.1835
 2952SOL    HW120489   4.323   3.339  10.844 -0.3770 -3.3947 -2.7576
 2952SOL    HW220490   4.285   3.354  10.983 -0.5609 -1.3068  1.2476
 2953SOL     OW20491   2.315   1.888   5.828 -0.0142  0.1410  0.0835
 2953SOL    HW120492   2.373   1.831   5.779  1.9645  0.9483  1.4821
 2953SOL    HW220493   2.232   1.882   5.780  0.3360 -1.0138 -0.3823
 2954SOL     OW20494   4.554   3.669   5.310  0.5423 -0.2643 -0.3186
 2954SOL    HW120495   4.519   3.642   5.394  3.6037 -2.0202  0.3912
 2954SOL    HW220496   4.545   3.591   5.255 -2.0435 -3.2528  4.3754
 2955SOL     OW20497   4.289   3.707   6.424 -0.9081  0.3398 -0.5629
 2955SOL    HW120498   4.345   3.670   6.355 -0.6398 -0.0060 -0.1560
 2955SOL    HW220499   4.353   3.752   6.478 -2.1216 -0.6428  1.6768
 2956SOL     OW20500   1.933   0.030  14.725  0.5682  0.4428  0.0436
 2956SOL    HW120501   1.999   4.707  14.766  0.5034  0.3173 -0.0213
 2956SOL    HW220502   1.851   4.723  14.755  0.2372 -0.8645 -2.6312
 2957SOL     OW20503   2.379   0.461   0.140 -0.2618  0.1359  0.3571
 2957SOL    HW120504   2.402   0.371   0.118  0.9102  0.8688 -1.3784
 2957SOL    HW220505   2.311   0.493   0.079  1.2283  1.0402 -0.8383
 2958SOL     OW20506   1.672   2.425  11.997 -0.1804 -0.0679  0.1270
 2958SOL    HW120507   1.664   2.455  12.087 -0.5214 -0.1093  0.1134
 2958SOL    HW220508   1.765   2.443  11.986 -0.0295 -0.5795  0.5606
 2959SOL     OW20509   0.243   4.570  14.667  0.2490  0.0311 -0.2389
 2959SOL    HW120510   0.212   4.644  14.719 -0.5586  0.4379 -1.2999
 2959SOL    HW220511   0.157   4.532  14.645  0.6865 -0.5629 -0.9394
 2960SOL     OW20512   3.551   0.144   1.578 -0.0780 -0.1702  0.2190
 2960SOL    HW120513   3.600   0.222   1.604 -0.2442  0.7781 -2.3898
 2960SOL    HW220514   3.612   0.076   1.605 -0.4011  0.1866  1.8886
 2961SOL     OW20515   3.854   0.205   5.734 -0.3990  0.3346  0.0851
 2961SOL    HW120516   3.937   0.204   5.685  0.5250 -1.0867  1.6821
 2961SOL    HW220517   3.807   0.255   5.667 -0.6715 -1.1894 -0.8647
 2962SOL     OW20518   0.339   2.700  12.098 -0.6461  0.6002 -0.0671
 2962SOL    HW120519   0.362   2.746  12.018 -2.0432  0.7451 -0.3891
 2962SOL    HW220520   0.419   2.679  12.146 -0.5911  2.7446  0.7526
 2963SOL     OW20521   2.487   1.975   5.549  0.1133  0.4134 -0.2206
 2963SOL    HW120522   2.400   1.936   5.541  0.9238 -1.3899 -0.0927
 2963SOL    HW220523   2.466   2.064   5.577 -0.2613 -0.1583  1.2742
 2964SOL     OW20524   3.102   4.259   8.411  0.9450 -0.2821  0.0297
 2964SOL    HW120525   3.126   4.350   8.390  2.1641 -0.8788 -1.1133
 2964SOL    HW220526   3.044   4.244   8.337  2.3061  0.5961 -1.2062
 2965SOL     OW20527   2.227   3.709   2.391  0.2007 -0.5284 -0.6275
 2965SOL    HW120528   2.157   3.667   2.441  0.5826  2.3160  2.2960
 2965SOL    HW220529   2.298   3.653   2.423 -0.0159 -0.2373  0.3573
 2966SOL     OW20530   3.010   0.059   1.076 -0.3526  0.2748  0.9217
 2966SOL    HW120531   2.937   0.063   1.138 -0.7503 -0.8013  0.5221
 2966SOL    HW220532   3.062   4.722   1.117  3.7505  2.4127 -0.6320
 2967SOL     OW20533   3.112   0.453  16.656 -0.3663  0.2109  0.3268
 2967SOL    HW120534   3.094   0.389  16.587  1.0526 -1.3221  1.3964
 2967SOL    HW220535   3.024   0.469  16.689 -0.0436  1.2487  0.6841
 2968SOL     OW20536   3.770   3.649   7.426  0.2785 -0.5542  0.4646
 2968SOL    HW120537   3.823   3.724   7.400  0.6762 -0.6001  1.1618
 2968SOL    HW220538   3.845   3.597   7.453  0.4064 -1.5269 -1.7199
 2969SOL     OW20539   3.078   4.368   4.944 -0.4019  0.4337  0.3587
 2969SOL    HW120540   3.040   4.317   4.872  0.0878  2.1451 -1.0943
 2969SOL    HW220541   3.041   4.318   5.016 -2.2870 -0.0384 -0.9362
 2970SOL     OW20542   0.333   1.864   3.372 -0.7214  0.4071  0.0295
 2970SOL    HW120543   0.267   1.933   3.361 -1.2213 -0.1101 -0.2601
 2970SOL    HW220544   0.412   1.915   3.355  0.4298 -2.1904 -2.6054
 2971SOL     OW20545   0.775   2.779   4.635  0.0556  0.1424  0.0822
 2971SOL    HW120546   0.768   2.830   4.716  0.5742 -1.4844  1.1454
 2971SOL    HW220547   0.861   2.811   4.608 -0.3769  2.8955  1.9154
 2972SOL     OW20548   1.527   1.135   5.492  0.0190 -0.7307  0.7750
 2972SOL    HW120549   1.476   1.196   5.440 -2.7814 -3.7949 -0.0960
 2972SOL    HW220550   1.613   1.169   5.467  0.3737 -0.4328  2.4278
 2973SOL     OW20551   3.243   3.764   5.882  0.3663  0.1707 -0.3073
 2973SOL    HW120552   3.338   3.777   5.887  0.1427  0.8584  2.1874
 2973SOL    HW220553   3.215   3.805   5.964 -0.8409 -0.0752 -0.6050
 2974SOL     OW20554   3.147   1.844   3.133  0.5819 -0.2897 -0.4134
 2974SOL    HW120555   3.149   1.749   3.132 -2.2254 -0.3134 -1.1572
 2974SOL    HW220556   3.148   1.863   3.227 -0.3337 -2.7176  0.0654
 2975SOL     OW20557   3.953   1.652   8.270  0.2097 -0.5482  0.1606
 2975SOL    HW120558   3.860   1.634   8.260  0.0719  0.0354  0.3633
 2975SOL    HW220559   3.947   1.741   8.306  1.2349 -1.6393  3.0281
 2976SOL     OW20560   1.573   3.700   7.763  0.1298  0.5998 -0.3568
 2976SOL    HW120561   1.619   3.769   7.811  0.4549  0.9026 -1.1092
 2976SOL    HW220562   1.485   3.716   7.797 -0.2510  0.4893 -1.3039
 2977SOL     OW20563   1.157   2.874   5.160  0.3313  0.2781  0.2103
 2977SOL    HW120564   1.208   2.863   5.240  1.8453 -2.1436 -1.1065
 2977SOL    HW220565   1.104   2.795   5.171  3.1816 -1.9191 -2.1103
 2978SOL     OW20566   3.979   1.449   0.562 -0.4525  0.2599  0.0481
 2978SOL    HW120567   3.980   1.493   0.477 -1.0132  0.8376  0.3431
 2978SOL    HW220568   3.923   1.510   0.610  0.4631  1.6928 -0.7115
 2979SOL     OW20569   4.323   2.157   5.637 -0.0113 -0.1741 -0.6826
 2979SOL    HW120570   4.396   2.189   5.585 -0.0553  0.4958 -0.3310
 2979SOL    HW220571   4.257   2.226   5.639 -0.8762 -1.0348  0.7782
 2980SOL     OW20572   2.116   3.271  15.447  0.1800  0.0002  0.3800
 2980SOL    HW120573   2.169   3.191  15.445  2.1592  1.3675 -1.1657
 2980SOL    HW220574   2.146   3.313  15.367  0.9621 -0.2098  0.5659
 2981SOL     OW20575   3.806   3.838   4.000 -0.0176 -0.2668  0.2395
 2981SOL    HW120576   3.855   3.827   4.082  1.1685 -1.8268 -0.6739
 2981SOL    HW220577   3.719   3.814   4.031 -0.2888  0.9000  0.4052
 2982SOL     OW20578   0.544   2.115   4.022 -0.0476 -0.3717  0.4849
 2982SOL    HW120579   0.562   2.179   4.092 -2.8198  0.8227  0.0903
 2982SOL    HW220580   0.527   2.178   3.952  1.8456 -1.2864 -0.8078
 2983SOL     OW20581   2.203   0.159  16.483  0.1133  0.1046 -0.3947
 2983SOL    HW120582   2.230   0.239  16.527 -1.7744 -0.4124  1.7166
 2983SOL    HW220583   2.176   0.197  16.400 -0.4756  0.2510 -0.1342
 2984SOL     OW20584   2.147   1.239   4.985 -0.3225 -0.4445  0.2412
 2984SOL    HW120585   2.214   1.303   5.007 -1.2234  0.6621 -0.2352
 2984SOL    HW220586   2.147   1.177   5.058 -1.6001  0.6841  1.2026
 2985SOL     OW20587   2.013   3.134  16.553  0.0261  0.4557  0.1372
 2985SOL    HW120588   2.055   3.141  16.467  1.6638  0.9518  0.9683
 2985SOL    HW220589   2.061   3.058  16.587 -2.5506 -0.8984  0.6917
 2986SOL     OW20590   0.788   4.346   7.010  0.1723 -0.1240 -0.3734
 2986SOL    HW120591   0.736   4.395   7.074  1.7080  0.1822  0.6459
 2986SOL    HW220592   0.858   4.317   7.069 -0.2140 -1.5603 -0.6210
 2987SOL     OW20593   4.055   2.669  12.507  0.1168  0.1910 -0.5670
 2987SOL    HW120594   3.970   2.636  12.479 -0.8309  0.9060  1.4689
 2987SOL    HW220595   4.120   2.654  12.438  0.1380  0.9156 -0.7046
 2988SOL     OW20596   1.970   4.073   5.885 -0.5491 -0.2185 -0.7182
 2988SOL    HW120597   2.016   4.032   5.958 -1.4803  1.2581  0.7007
 2988SOL    HW220598   2.031   4.063   5.812  0.3110 -0.6269  0.0534
 2989SOL     OW20599   2.303   2.960  16.898 -0.4566  0.1249  0.1398
 2989SOL    HW120600   2.233   2.929  16.955 -0.6849  1.3751  0.5303
 2989SOL    HW220601   2.308   3.051  16.927 -0.5253  0.2947 -0.3902
 2990SOL     OW20602   3.480   0.698  17.023 -0.1917 -0.3552 -0.4797
 2990SOL    HW120603   3.538   0.675  17.096 -1.0536 -3.0875 -0.6629
 2990SOL    HW220604   3.522   0.780  16.998 -1.1054 -0.3171 -1.8846
 2991SOL     OW20605   0.805   0.052  15.825  0.1761  0.0871  0.3685
 2991SOL    HW120606   0.863   0.102  15.766 -1.9465  1.1417 -0.8265
 2991SOL    HW220607   0.834   4.700  15.792  1.5701  1.0966 -1.0374
 2992SOL     OW20608   1.616   4.571   6.621 -0.0058  0.3361 -0.1984
 2992SOL    HW120609   1.606   4.540   6.711  1.7897  1.2837  0.3166
 2992SOL    HW220610   1.700   4.532   6.596  1.3671  2.3049  1.3950
 2993SOL     OW20611   3.965   3.080  15.197 -0.1459 -0.0888 -0.3264
 2993SOL    HW120612   3.877   3.102  15.228 -0.2530 -2.1844  0.8155
 2993SOL    HW220613   4.013   3.153  15.238 -0.2402  0.2289 -0.7858
 2994SOL     OW20614   2.936   1.981   7.713  0.6715  0.3624 -0.2074
 2994SOL    HW120615   2.996   1.956   7.642  0.2680 -2.4762  0.4637
 2994SOL    HW220616   2.859   2.016   7.668  1.4945  0.8234 -1.2824
 2995SOL     OW20617   2.627   1.897   7.975  0.1763 -0.1696  0.0893
 2995SOL    HW120618   2.604   1.990   7.977 -1.7940 -0.6541 -0.3423
 2995SOL    HW220619   2.575   1.858   8.046 -0.0105 -0.0871 -0.0006
 2996SOL     OW20620   2.052   2.252   3.639  0.3899  0.1748  0.5282
 2996SOL    HW120621   2.089   2.166   3.620  0.1543 -0.3230  2.2838
 2996SOL    HW220622   2.117   2.305   3.593  1.4887 -3.2205 -1.8352
 2997SOL     OW20623   3.028   1.503   9.247  0.1330  0.2689  0.5250
 2997SOL    HW120624   3.108   1.555   9.255 -0.0338  0.2812  2.1345
 2997SOL    HW220625   2.967   1.551   9.304 -0.4907  0.1532 -0.0489
 2998SOL     OW20626   1.815   3.753   0.213 -0.0392  0.0776 -0.2318
 2998SOL    HW120627   1.776   3.676   0.254  1.0002 -0.3221  0.0072
 2998SOL    HW220628   1.883   3.768   0.279 -1.6440  0.7963  1.2662
 2999SOL     OW20629   0.584   2.297   0.888 -0.0631  0.0864 -0.3040
 2999SOL    HW120630   0.525   2.232   0.850 -0.1541 -0.5291  0.8990
 2999SOL    HW220631   0.631   2.326   0.810  0.4035  0.0958 -0.0170
 3000SOL     OW20632   2.797   4.131  12.599 -0.0169  0.2670 -0.0589
 3000SOL    HW120633   2.782   4.037  12.608 -1.2919  0.5359  0.7274
 3000SOL    HW220634   2.709   4.167  12.584  0.3472  1.9600  1.8367
 3001SOL     OW20635   0.236   2.146   5.735 -0.1421 -0.2473  0.2422
 3001SOL    HW120636   0.268   2.157   5.825  1.7840  0.7709 -0.5565
 3001SOL    HW220637   0.275   2.060   5.721 -0.0231  0.0182 -1.0676
 3002SOL     OW20638   3.102   0.324  15.817 -0.2937 -0.7547 -0.1367
 3002SOL    HW120639   3.026   0.368  15.781 -0.5474  0.3009  1.6906
 3002SOL    HW220640   3.108   0.249  15.757  0.7710  0.2640 -1.2873
 3003SOL     OW20641   1.778   4.282  17.484  1.0022  0.3675 -0.5498
 3003SOL    HW120642   1.692   4.241  17.495  1.4925  0.1222  2.1893
 3003SOL    HW220643   1.795   4.291  17.577 -0.4227  1.1485 -0.3552
 3004SOL     OW20644   0.628   2.907   7.649  0.4312 -0.3380  0.2631
 3004SOL    HW120645   0.591   2.822   7.674 -0.1649 -0.3215 -0.5749
 3004SOL    HW220646   0.615   2.956   7.730  0.7840  0.0439  0.0872
 3005SOL     OW20647   3.292   3.016   2.491 -0.5250 -0.2312 -0.8820
 3005SOL    HW120648   3.220   3.002   2.429 -1.3742  2.4213 -0.4935
 3005SOL    HW220649   3.331   2.928   2.491 -0.6409 -0.2879 -2.8872
 3006SOL     OW20650   1.461   0.747  14.014  0.0745 -0.1059 -0.4317
 3006SOL    HW120651   1.421   0.662  13.997 -4.0900  1.5315  1.1914
 3006SOL    HW220652   1.397   0.794  14.067  1.3473  0.8455  0.2686
 3007SOL     OW20653   2.671   4.204   7.399  0.1775 -0.3472  0.3922
 3007SOL    HW120654   2.766   4.210   7.399  0.1702 -0.3163 -0.6600
 3007SOL    HW220655   2.658   4.205   7.494 -0.7611 -1.2188  0.2754
 3008SOL     OW20656   2.360   3.262   2.786  0.0387  0.3303  0.0300
 3008SOL    HW120657   2.310   3.247   2.706 -0.8077 -2.1375  1.0051
 3008SOL    HW220658   2.443   3.222   2.756 -0.8532 -1.3033 -0.2615
 3009SOL     OW20659   1.947   4.339   2.054  0.2046  0.1684  0.3421
 3009SOL    HW120660   2.026   4.292   2.080 -0.8731 -2.3273 -0.9018
 3009SOL    HW220661   1.967   4.432   2.069  4.8322 -0.6448 -0.8138
 3010SOL     OW20662   1.583   1.850   2.559 -0.5785  0.3008 -0.5783
 3010SOL    HW120663   1.519   1.871   2.627 -1.1150 -1.1545 -0.6273
 3010SOL    HW220664   1.589   1.755   2.568 -1.6162 -0.1171 -4.4911
 3011SOL     OW20665   0.131   0.497   5.005 -0.1796 -0.2472  0.1392
 3011SOL    HW120666   0.133   0.493   4.909  0.9206  0.6920  0.1146
 3011SOL    HW220667   0.100   0.587   5.015  2.3595  0.7514 -0.9312
 3012SOL     OW20668   1.045   4.170   3.932  0.2007 -0.3338 -0.1810
 3012SOL    HW120669   0.977   4.190   3.996 -0.5894  0.9624 -1.4273
 3012SOL    HW220670   1.007   4.097   3.884 -0.5869 -0.8758  1.2484
 3013SOL     OW20671   0.699   4.320   2.501 -0.0144 -0.1656 -0.1737
 3013SOL    HW120672   0.705   4.272   2.418  0.8063 -1.0755  0.4053
 3013SOL    HW220673   0.723   4.251   2.563 -2.2297  1.1022  2.0905
 3014SOL     OW20674   2.327   1.181   6.249 -0.1751 -0.7982 -0.4763
 3014SOL    HW120675   2.345   1.197   6.342  0.0868  1.6338 -0.9483
 3014SOL    HW220676   2.338   1.272   6.221  0.3494 -0.9437 -0.7500
 3015SOL     OW20677   2.505   2.560  14.512  0.0968 -0.2212  0.3096
 3015SOL    HW120678   2.574   2.616  14.478 -0.4383  0.6290  0.6279
 3015SOL    HW220679   2.452   2.614  14.570  0.1834 -0.5750  0.7274
 3016SOL     OW20680   2.662   1.478   6.202  0.2273  0.0361  0.4933
 3016SOL    HW120681   2.735   1.417   6.192  1.1915  0.7455  3.1940
 3016SOL    HW220682   2.627   1.484   6.113  0.8370 -1.3790  0.1587
 3017SOL     OW20683   3.818   1.364   9.466 -0.3504  0.1330  0.0757
 3017SOL    HW120684   3.870   1.311   9.406 -0.6519 -0.3317  0.2248
 3017SOL    HW220685   3.780   1.299   9.525 -1.6173  1.3605  0.6041
 3018SOL     OW20686   3.238   1.083   7.076  0.4878  0.0512 -0.1854
 3018SOL    HW120687   3.260   1.149   7.010 -0.9634 -0.1093 -0.8356
 3018SOL    HW220688   3.143   1.076   7.082  0.5121  1.0180  1.5616
 3019SOL     OW20689   1.979   0.981  12.330  0.7115 -0.3429 -0.1794
 3019SOL    HW120690   1.907   0.956  12.388  0.6990 -0.8349 -0.4054
 3019SOL    HW220691   1.963   1.074  12.316 -1.4898 -0.8481 -1.1222
 3020SOL     OW20692   0.851   4.374  14.440  0.1989  0.2032 -0.2719
 3020SOL    HW120693   0.819   4.463  14.451 -0.6398  0.0917 -1.7553
 3020SOL    HW220694   0.780   4.319  14.406  0.5599 -1.3443  1.4741
 3021SOL     OW20695   4.723   0.159   8.290 -0.3026  0.3913  0.5054
 3021SOL    HW120696   0.038   0.086   8.251  1.1032 -0.0464  3.0191
 3021SOL    HW220697   4.697   0.128   8.377 -2.7924  1.1243  0.0242
 3022SOL     OW20698   3.846   3.190   8.431 -0.1268  0.0483  0.2561
 3022SOL    HW120699   3.937   3.176   8.405 -0.7219  0.5335 -2.0340
 3022SOL    HW220700   3.854   3.282   8.456 -0.2627  0.4561 -1.1930
 3023SOL     OW20701   4.409   1.901   7.786 -0.2265 -0.5573 -0.0909
 3023SOL    HW120702   4.418   1.893   7.881 -0.1186 -2.5422 -0.2771
 3023SOL    HW220703   4.350   1.830   7.763  0.7680 -0.6106 -2.4687
 3024SOL     OW20704   0.592   2.154   2.917 -0.6996  0.3924  0.3716
 3024SOL    HW120705   0.557   2.242   2.904 -0.5413  0.6818  1.9402
 3024SOL    HW220706   0.543   2.098   2.856  1.0795 -1.1747  0.3637
 3025SOL     OW20707   4.072   1.685   9.462  0.4650  0.5929  0.2394
 3025SOL    HW120708   4.009   1.678   9.391 -0.7622 -4.0455  1.8189
 3025SOL    HW220709   4.140   1.632   9.419 -1.2075 -0.6580 -0.8658
 3026SOL     OW20710   1.340   3.594   3.502  0.1540  0.4813  0.6389
 3026SOL    HW120711   1.320   3.624   3.414 -0.7519 -0.6071  0.4764
 3026SOL    HW220712   1.406   3.525   3.493 -1.3225 -0.5810 -1.9371
 3027SOL     OW20713   1.841   4.470  12.821  0.0368 -0.1295  0.1148
 3027SOL    HW120714   1.820   4.523  12.745  0.3089  1.3912  1.0987
 3027SOL    HW220715   1.768   4.487  12.881 -1.0885 -1.4094 -0.8881
 3028SOL     OW20716   3.480   2.387   6.347 -0.3103 -0.0450  0.0272
 3028SOL    HW120717   3.411   2.322   6.353  0.5752 -0.9911 -0.0742
 3028SOL    HW220718   3.546   2.332   6.389 -0.1112  0.7203  0.7117
 3029SOL     OW20719   0.380   2.604  12.820 -0.8583 -0.6803  1.0469
 3029SOL    HW120720   0.381   2.698  12.798 -0.7120 -1.1693 -1.0434
 3029SOL    HW220721   0.318   2.602  12.892 -0.1355 -0.0090  1.6984
 3030SOL     OW20722   1.124   4.349   1.458  0.7183 -0.1592 -0.1496
 3030SOL    HW120723   1.070   4.333   1.380  1.4657 -0.5995 -0.5769
 3030SOL    HW220724   1.064   4.359   1.531  2.1922  0.4046  0.9935
 3031SOL     OW20725   0.652   0.744   5.481 -0.3749 -0.0545  0.2578
 3031SOL    HW120726   0.675   0.774   5.569 -1.0720  1.0278  0.0724
 3031SOL    HW220727   0.733   0.780   5.443 -0.7917  1.8152  1.1203
 3032SOL     OW20728   3.780   0.727  15.560  0.3882 -0.4865  0.0564
 3032SOL    HW120729   3.816   0.722  15.472 -0.6446  2.3718 -0.5217
 3032SOL    HW220730   3.830   0.800  15.596 -0.9130 -0.2827  1.4488
 3033SOL     OW20731   4.234   2.654   6.646  0.5310  0.1383 -0.0314
 3033SOL    HW120732   4.176   2.693   6.580  1.1442 -1.7335 -1.6964
 3033SOL    HW220733   4.304   2.718   6.637  0.4375  0.4234  1.3084
 3034SOL     OW20734   3.914   2.533   4.381  0.3274  0.4858  0.0883
 3034SOL    HW120735   3.998   2.579   4.382  0.2813  0.6071 -1.2154
 3034SOL    HW220736   3.928   2.466   4.448 -0.3079  0.7022  0.4339
 3035SOL     OW20737   1.498   3.489   9.262 -0.3731 -0.1036 -0.3453
 3035SOL    HW120738   1.419   3.543   9.252  0.0778  0.7400  0.6334
 3035SOL    HW220739   1.518   3.506   9.354  2.3273  1.2092 -1.1820
 3036SOL     OW20740   3.933   4.005   2.569  0.0929 -0.0737  0.0751
 3036SOL    HW120741   3.897   4.088   2.602  3.1054  1.8553 -1.4390
 3036SOL    HW220742   3.957   3.964   2.652 -0.8328 -1.4920 -0.3574
 3037SOL     OW20743   2.077   3.004   7.047 -0.6607 -0.1698  0.0367
 3037SOL    HW120744   2.101   2.913   7.066  2.9945  1.2124  1.9959
 3037SOL    HW220745   2.139   3.016   6.975 -0.9451 -2.5812 -0.6094
 3038SOL     OW20746   0.785   1.913   5.672 -0.0641 -0.2813 -0.4085
 3038SOL    HW120747   0.817   1.972   5.740  0.0559 -0.6844 -0.1224
 3038SOL    HW220748   0.799   1.981   5.606 -1.3708  0.8778  0.5021
 3039SOL     OW20749   2.737   2.028   7.256 -0.3702 -0.3964  0.3484
 3039SOL    HW120750   2.714   1.939   7.282 -1.2373 -0.6382 -1.2152
 3039SOL    HW220751   2.826   2.012   7.224 -0.0358 -0.1034  1.1328
 3040SOL     OW20752   3.215   2.505  12.703 -0.3762  0.0946  0.5132
 3040SOL    HW120753   3.247   2.494  12.614  2.6922 -0.1432  1.6389
 3040SOL    HW220754   3.120   2.505  12.697 -0.2834  0.9353 -0.8279
 3041SOL     OW20755   1.653   0.038   3.227 -0.3707 -0.0060  0.0596
 3041SOL    HW120756   1.722   0.104   3.217  2.4145 -3.0171 -0.6987
 3041SOL    HW220757   1.649   0.047   3.322  2.8884 -1.1218  0.3105
 3042SOL     OW20758   4.307   3.515   7.789  0.0182  0.0936  0.0135
 3042SOL    HW120759   4.383   3.471   7.829  0.7878 -0.8407 -2.4437
 3042SOL    HW220760   4.253   3.440   7.764  0.2903 -0.1499  0.1605
 3043SOL     OW20761   3.801   2.771   5.328 -0.1272 -0.0495  0.1930
 3043SOL    HW120762   3.737   2.842   5.325  0.7373  0.5975 -2.5478
 3043SOL    HW220763   3.766   2.729   5.407 -1.0207  2.3390  1.0644
 3044SOL     OW20764   4.661   2.582   8.796  0.1751  0.3126  0.4811
 3044SOL    HW120765   4.718   2.506   8.783 -0.4096 -0.5260  2.7278
 3044SOL    HW220766   4.662   2.610   8.705  2.0283  0.0219  0.4207
 3045SOL     OW20767   1.169   1.516  16.983  0.0085  0.0406 -0.1617
 3045SOL    HW120768   1.183   1.601  17.025  2.3722  0.8324 -2.5268
 3045SOL    HW220769   1.239   1.509  16.918  0.2698  1.3610 -0.0167
 3046SOL     OW20770   3.456   0.716   2.653 -0.0302  0.0116 -0.4300
 3046SOL    HW120771   3.418   0.652   2.592  1.0392  2.0641 -3.2224
 3046SOL    HW220772   3.398   0.707   2.729  1.9991  1.2572  1.2509
 3047SOL     OW20773   0.071   0.010   7.107  0.0571 -0.4886  0.6157
 3047SOL    HW120774   0.117   4.685   7.168  0.7987 -0.4526  0.0877
 3047SOL    HW220775   4.717   0.014   7.147  0.1166 -0.5611  0.7519
 3048SOL     OW20776   4.219   4.299  14.021 -0.1527  0.2455 -0.5130
 3048SOL    HW120777   4.138   4.252  14.043 -0.6833  1.5974  0.4013
 3048SOL    HW220778   4.179   4.362  13.961 -1.3911  0.2713  0.3486
 3049SOL     OW20779   2.472   2.734  15.904  0.4534  0.8044  0.4624
 3049SOL    HW120780   2.442   2.698  15.987  0.3046 -0.0256  0.0443
 3049SOL    HW220781   2.460   2.654  15.853  1.1769  2.1740 -1.8724
 3050SOL     OW20782   2.010   3.609   2.494  0.1323 -0.2124  0.1487
 3050SOL    HW120783   1.925   3.625   2.454 -0.8862 -1.4012  1.8526
 3050SOL    HW220784   1.977   3.603   2.584 -1.2910  0.4182 -0.3330
 3051SOL     OW20785   0.370   0.933   8.440 -0.2598 -0.1115 -0.3056
 3051SOL    HW120786   0.386   0.862   8.502  1.3459  1.2317  0.8007
 3051SOL    HW220787   0.415   1.006   8.482 -0.8577  0.2139 -0.2300
 3052SOL     OW20788   4.152   0.929   3.929  0.2712 -0.2848 -0.1865
 3052SOL    HW120789   4.248   0.919   3.928  0.1251 -1.6928  0.2270
 3052SOL    HW220790   4.161   0.968   4.016 -1.4860  0.8424 -0.5024
 3053SOL     OW20791   2.022   4.136   2.844 -0.6030 -0.1471  0.1923
 3053SOL    HW120792   1.990   4.046   2.833 -0.0074 -0.3594  0.1679
 3053SOL    HW220793   1.945   4.192   2.832 -0.7907 -0.6920 -1.1870
 3054SOL     OW20794   2.398   3.389   8.177 -0.1331 -0.0348 -0.0524
 3054SOL    HW120795   2.405   3.342   8.261  2.9325 -0.6199 -0.6284
 3054SOL    HW220796   2.467   3.451   8.201  2.0065 -1.2818 -2.9311
 3055SOL     OW20797   2.497   4.586   6.381 -0.1268  0.3962  0.5497
 3055SOL    HW120798   2.539   4.595   6.466  1.0940  1.0552 -0.1217
 3055SOL    HW220799   2.573   4.607   6.327 -0.2293 -2.5753 -0.7622
 3056SOL     OW20800   4.281   4.660   3.299 -0.0943  0.2320  0.3304
 3056SOL    HW120801   4.348   4.641   3.233  0.5703  0.2764  0.9948
 3056SOL    HW220802   4.334   4.639   3.376 -1.1520 -1.9786  0.4363
 3057SOL     OW20803   1.932   4.717  12.586  0.2161 -0.3106 -0.2948
 3057SOL    HW120804   1.967   0.074  12.580 -0.3177 -0.2214 -1.9355
 3057SOL    HW220805   1.867   0.002  12.655  1.2927  1.8525  0.1959
 3058SOL     OW20806   0.932   0.845   7.463  0.2798 -0.3793  0.1972
 3058SOL    HW120807   0.942   0.936   7.489  0.4154 -0.7427  1.4550
 3058SOL    HW220808   0.877   0.852   7.385 -0.8463  0.9225  1.1010
 3059SOL     OW20809   1.075   0.095  17.405  0.7613  1.1601  0.2962
 3059SOL    HW120810   1.113   0.143  17.331  1.1250  0.2767 -0.0960
 3059SOL    HW220811   1.073   0.159  17.476  0.6754 -0.9267  2.1769
 3060SOL     OW20812   1.268   2.804   5.414  0.1482 -0.8589 -0.1045
 3060SOL    HW120813   1.235   2.823   5.502  1.1006  1.0918 -0.1495
 3060SOL    HW220814   1.323   2.728   5.433 -0.1013 -0.8481  0.6407
 3061SOL     OW20815   1.029   1.273   3.644  0.7429 -0.7320 -0.3361
 3061SOL    HW120816   1.099   1.220   3.682  0.0270  0.4042  2.5588
 3061SOL    HW220817   1.092   1.333   3.603  0.9731 -1.1407 -0.5907
 3062SOL     OW20818   1.691   4.629   2.527  0.1519 -0.2670  0.2444
 3062SOL    HW120819   1.717   4.680   2.451  3.5190 -0.8511  0.9770
 3062SOL    HW220820   1.740   4.547   2.520 -0.4493 -0.4537 -1.7695
 3063SOL     OW20821   2.047   0.534   6.988  0.2887 -0.1631  0.0754
 3063SOL    HW120822   2.132   0.542   7.029  0.2403  1.6949 -0.2117
 3063SOL    HW220823   2.084   0.498   6.907  0.7154  2.8975 -1.0818
 3064SOL     OW20824   0.186   3.807   9.234  0.3535 -0.5914 -0.4073
 3064SOL    HW120825   0.136   3.820   9.153 -1.1918  1.8217  0.9276
 3064SOL    HW220826   0.120   3.766   9.290  3.7670 -2.4495  2.1715
 3065SOL     OW20827   4.069   0.584   5.385 -0.6615  0.6524 -0.2494
 3065SOL    HW120828   4.051   0.677   5.366 -0.4041  0.5974 -0.7426
 3065SOL    HW220829   3.986   0.550   5.351 -0.8341 -0.6828  1.4847
 3066SOL     OW20830   0.726   1.963   4.168 -0.0345 -0.4601 -0.1550
 3066SOL    HW120831   0.704   1.880   4.127 -1.0204 -0.7335  0.9268
 3066SOL    HW220832   0.672   2.021   4.115 -0.8910  0.6887  1.9533
 3067SOL     OW20833   1.657   0.514   6.523 -0.0473 -0.2316  0.2667
 3067SOL    HW120834   1.693   0.586   6.471  1.6289 -2.0364 -1.0521
 3067SOL    HW220835   1.603   0.477   6.453  1.0658 -2.1876  0.4674
 3068SOL     OW20836   2.372   3.779  15.141 -0.3102 -0.3203 -0.3179
 3068SOL    HW120837   2.386   3.722  15.216 -1.5093  0.3826  0.4440
 3068SOL    HW220838   2.301   3.734  15.096 -0.2319  0.7658 -1.5214
 3069SOL     OW20839   2.661   1.620   7.091 -0.3802 -0.9541 -0.5269
 3069SOL    HW120840   2.623   1.591   7.008 -0.2919  2.1327 -1.6675
 3069SOL    HW220841   2.586   1.604   7.148  0.1830 -0.3414  0.3850
 3070SOL     OW20842   0.462   0.444   9.875 -0.0124  0.3638 -0.0957
 3070SOL    HW120843   0.535   0.489   9.832  1.4890 -1.5841  0.4183
 3070SOL    HW220844   0.424   0.522   9.915  0.9326  0.9485 -0.3409
 3071SOL     OW20845   1.563   3.476   5.001 -0.3379  0.3054  0.0902
 3071SOL    HW120846   1.647   3.513   4.972  0.5623 -0.2952  1.8740
 3071SOL    HW220847   1.596   3.397   5.046 -0.5025 -0.4525 -1.1251
 3072SOL     OW20848   0.991   0.845   9.120  0.1331 -0.1317 -0.7279
 3072SOL    HW120849   1.011   0.822   9.029  1.4934 -0.8606 -0.2401
 3072SOL    HW220850   1.032   0.776   9.170  1.0103  1.7779  1.1649
 3073SOL     OW20851   4.376   2.016  13.195  0.0482  0.2534  0.0213
 3073SOL    HW120852   4.296   2.047  13.237 -0.2047  0.8425 -0.8976
 3073SOL    HW220853   4.367   1.920  13.198 -1.4880  0.3883 -0.3053
 3074SOL     OW20854   3.565   1.657  15.307  0.1446 -0.1369 -0.6562
 3074SOL    HW120855   3.561   1.731  15.246 -1.3189 -1.4705 -2.1443
 3074SOL    HW220856   3.495   1.675  15.370  1.5025  1.8167  0.3079
 3075SOL     OW20857   3.183   0.077  11.180 -0.0765  0.2733 -0.2922
 3075SOL    HW120858   3.125   0.002  11.176 -2.7033  2.2724  0.4892
 3075SOL    HW220859   3.193   0.080  11.275 -2.5219 -1.9991  0.0171
 3076SOL     OW20860   0.552   2.935   9.577  0.9002 -0.3324 -0.0712
 3076SOL    HW120861   0.595   2.895   9.501 -1.1652 -0.8040 -0.9762
 3076SOL    HW220862   0.466   2.952   9.540  1.7363 -0.4237 -2.0715
 3077SOL     OW20863   4.238   2.254   7.707  0.7479  0.5504 -0.2601
 3077SOL    HW120864   4.191   2.171   7.698 -0.2018  0.8558  1.6437
 3077SOL    HW220865   4.168   2.304   7.749  2.0719 -0.4796  3.2383
 3078SOL     OW20866   0.182   2.929  13.768  0.0941 -0.1577  0.1505
 3078SOL    HW120867   0.261   2.896  13.811  0.3587 -1.6799 -1.5211
 3078SOL    HW220868   0.131   2.853  13.740 -0.2231 -0.1407  0.6898
 3079SOL     OW20869   4.308   1.319   4.764  0.2896  0.0534  0.1227
 3079SOL    HW120870   4.290   1.391   4.824 -0.3055 -0.1426  0.1774
 3079SOL    HW220871   4.222   1.304   4.726  1.2806 -0.5219 -1.9160
 3080SOL     OW20872   0.777   2.446   8.585  0.3180  0.0164  1.0149
 3080SOL    HW120873   0.819   2.470   8.667  0.7954 -0.4969  0.9208
 3080SOL    HW220874   0.787   2.526   8.534 -0.2682 -0.4761  0.1249
 3081SOL     OW20875   0.787   2.607   2.119  0.5795 -0.2428  0.1988
 3081SOL    HW120876   0.777   2.538   2.185 -2.4619  1.3313  1.4036
 3081SOL    HW220877   0.783   2.678   2.184  0.1122  1.2258 -1.4508
 3082SOL     OW20878   2.719   0.525  17.684 -0.0649  0.4074 -1.1520
 3082SOL    HW120879   2.723   0.616  17.655 -1.4799  0.9499  0.3408
 3082SOL    HW220880   2.635   0.506  17.643 -1.4233  1.6348  1.0454
 3083SOL     OW20881   3.328   4.567   5.703  0.0646 -0.4623  0.0940
 3083SOL    HW120882   3.267   4.581   5.775  2.0307  0.0554  1.6476
 3083SOL    HW220883   3.410   4.543   5.747  0.0388  0.0980  0.4532
 3084SOL     OW20884   2.994   0.835   4.268  0.0663  0.1693  0.3540
 3084SOL    HW120885   2.955   0.836   4.356 -0.5564  0.8498  0.0642
 3084SOL    HW220886   2.918   0.866   4.219 -0.1255  0.3396  0.7579
 3085SOL     OW20887   2.891   1.833   8.089 -0.5253  0.0893 -0.0211
 3085SOL    HW120888   2.804   1.850   8.054 -0.3840 -2.0067 -1.3984
 3085SOL    HW220889   2.913   1.916   8.130  1.3345  0.1664 -1.1592
 3086SOL     OW20890   1.539   0.288   5.426  0.3353 -0.0009  0.3615
 3086SOL    HW120891   1.535   0.346   5.503  0.5735 -1.5198  1.5094
 3086SOL    HW220892   1.560   0.205   5.469 -1.5702 -0.0505  1.2066
 3087SOL     OW20893   3.264   0.324   7.546  0.3585  0.0812 -0.0898
 3087SOL    HW120894   3.241   0.345   7.636  0.7326  0.4104 -0.0688
 3087SOL    HW220895   3.312   0.406   7.532  2.0024 -1.0924 -1.3912
 3088SOL     OW20896   0.539   1.361   7.925 -0.2295 -0.1368  0.1193
 3088SOL    HW120897   0.561   1.268   7.913  1.1507  0.2216 -0.1094
 3088SOL    HW220898   0.622   1.407   7.911  0.1927 -1.4042 -1.5893
 3089SOL     OW20899   2.188   4.440   5.496 -0.0163 -0.2229  0.4825
 3089SOL    HW120900   2.175   4.346   5.485 -2.2931  0.4109 -2.4419
 3089SOL    HW220901   2.266   4.453   5.442 -0.6130 -1.2308 -0.6288
 3090SOL     OW20902   0.892   0.834   0.114 -0.5115 -0.4343 -0.1077
 3090SOL    HW120903   0.850   0.889   0.048  0.2717  0.1329 -0.1441
 3090SOL    HW220904   0.817   0.814   0.170 -0.2153 -2.0232 -0.2850
 3091SOL     OW20905   2.416   4.434   8.511 -0.1626 -0.0647 -0.0964
 3091SOL    HW120906   2.492   4.448   8.454  1.2482 -1.4587  1.4572
 3091SOL    HW220907   2.374   4.520   8.510  0.5460  0.2405 -2.9941
 3092SOL     OW20908   2.389   0.151  16.753  0.4603  0.4015 -0.1754
 3092SOL    HW120909   2.341   0.075  16.722 -0.0013 -0.2424  2.1430
 3092SOL    HW220910   2.480   0.120  16.759  0.4265  0.5380  1.0099
 3093SOL     OW20911   3.100   3.483   5.856  0.1971  0.2040 -0.0655
 3093SOL    HW120912   3.098   3.509   5.948 -1.3403 -0.2927  0.0550
 3093SOL    HW220913   3.061   3.556   5.807 -1.6490 -1.2590 -0.7841
 3094SOL     OW20914   3.693   0.907  15.869 -0.5483 -0.2331  0.6394
 3094SOL    HW120915   3.635   0.924  15.794  1.7726  0.4646 -0.9886
 3094SOL    HW220916   3.703   0.811  15.864  1.6985 -0.0631  2.1631
 3095SOL     OW20917   0.455   2.883   3.319  0.2147  0.1862  0.8913
 3095SOL    HW120918   0.401   2.842   3.252  1.6711 -0.4606  0.1118
 3095SOL    HW220919   0.446   2.973   3.288  1.5241 -0.0779 -0.2653
 3096SOL     OW20920   1.880   3.232   8.602 -0.5376  0.5253 -0.3578
 3096SOL    HW120921   1.916   3.318   8.584  1.3260 -0.4762 -1.3619
 3096SOL    HW220922   1.929   3.180   8.538  0.0736  0.1066  0.4384
 3097SOL     OW20923   4.462   1.849   8.223 -0.6004 -0.1190  0.0913
 3097SOL    HW120924   4.557   1.857   8.216 -0.6424 -1.0348 -1.6512
 3097SOL    HW220925   4.451   1.758   8.252  0.9621 -0.1352  0.6042
 3098SOL     OW20926   4.023   2.902  10.120  0.3658 -0.5144  0.3108
 3098SOL    HW120927   4.083   2.895  10.194  0.6711 -0.4557  0.0671
 3098SOL    HW220928   3.938   2.905  10.165  0.2717  0.3635  0.0686
 3099SOL     OW20929   4.068   4.637   1.272 -0.1173 -0.5428 -0.2961
 3099SOL    HW120930   4.079   4.728   1.300  1.2460 -0.9745  0.6087
 3099SOL    HW220931   4.159   4.608   1.274  0.8393  2.5340  1.5681
 3100SOL     OW20932   1.716   3.782   9.172  0.1777 -0.3850 -0.5528
 3100SOL    HW120933   1.777   3.822   9.234  1.5355 -0.3613 -1.9107
 3100SOL    HW220934   1.659   3.743   9.238 -0.9055  0.3838 -1.0382
 3101SOL     OW20935   0.439   0.873   9.442 -0.0441  0.1273  0.1958
 3101SOL    HW120936   0.482   0.863   9.527  0.3128  0.5797  0.0660
 3101SOL    HW220937   0.516   0.854   9.390  0.0426  0.8840  0.0490
 3102SOL     OW20938   1.075   3.648   6.551  0.5081 -0.3203 -0.3560
 3102SOL    HW120939   1.111   3.735   6.566 -0.3148 -0.2869  1.4259
 3102SOL    HW220940   1.148   3.599   6.513  0.3936 -1.3561  0.7317
 3103SOL     OW20941   3.475   1.191   7.955  0.2925  0.0428  1.3992
 3103SOL    HW120942   3.415   1.248   8.003  0.7040  0.2854  1.6328
 3103SOL    HW220943   3.516   1.140   8.025  2.1771  1.1813  1.1470
 3104SOL     OW20944   1.302   0.246   8.499  0.2973 -0.4931  0.3388
 3104SOL    HW120945   1.342   0.230   8.585 -1.0099 -1.2308  0.8203
 3104SOL    HW220946   1.296   0.153   8.474 -0.9434 -0.1824 -0.4954
 3105SOL     OW20947   1.023   2.582  10.476  0.9378  0.7606 -0.3248
 3105SOL    HW120948   0.952   2.568  10.414  0.4627  0.8537  0.1986
 3105SOL    HW220949   1.005   2.670  10.509  0.1135 -0.1169  1.5371
 3106SOL     OW20950   0.809   0.337   6.013  0.3486 -0.0498 -0.0774
 3106SOL    HW120951   0.740   0.351   6.077 -0.3907 -1.7164 -0.4928
 3106SOL    HW220952   0.759   0.307   5.936  1.4916 -1.4451 -0.2767
 3107SOL     OW20953   3.812   3.997  10.469 -0.9927  0.5603  0.7395
 3107SOL    HW120954   3.811   4.092  10.456 -1.4781  0.2997 -1.1058
 3107SOL    HW220955   3.718   3.977  10.473 -0.6076 -1.0850  1.6833
 3108SOL     OW20956   2.888   3.917   2.102 -0.0392  0.3169  0.0922
 3108SOL    HW120957   2.839   3.890   2.024 -1.4369  3.0648  0.0199
 3108SOL    HW220958   2.885   4.012   2.086  0.9848  0.2665 -0.3833
 3109SOL     OW20959   3.503   3.512   4.142 -0.0575 -0.1585  0.2831
 3109SOL    HW120960   3.433   3.484   4.084  1.2545  0.4760 -1.6292
 3109SOL    HW220961   3.548   3.431   4.165  0.6708 -0.3400 -1.7701
 3110SOL     OW20962   0.745   4.110  12.747  0.2680 -0.1909 -0.5068
 3110SOL    HW120963   0.776   4.022  12.727 -0.7007 -0.8363  0.8435
 3110SOL    HW220964   0.784   4.159  12.674 -0.2556  0.6981 -0.1884
 3111SOL     OW20965   2.638   2.045   3.040  0.3879  0.0311  0.0527
 3111SOL    HW120966   2.591   2.128   3.035 -0.4759 -0.5823 -2.0883
 3111SOL    HW220967   2.577   1.992   3.091  2.8566 -0.5776  2.3127
 3112SOL     OW20968   4.631   1.957   1.288 -0.5548  0.5243  0.1220
 3112SOL    HW120969   4.656   1.959   1.381  0.8521  0.4287 -0.2636
 3112SOL    HW220970   4.706   1.922   1.240 -0.7959 -0.1072  0.2038
 3113SOL     OW20971   1.474   2.482   4.266 -0.2111  0.1232 -0.1439
 3113SOL    HW120972   1.479   2.519   4.178  0.7026 -2.5887 -1.2397
 3113SOL    HW220973   1.545   2.528   4.310 -0.3988  1.6934 -1.4765
 3114SOL     OW20974   2.311   2.977   2.487 -0.0462  0.1910  0.2376
 3114SOL    HW120975   2.221   2.975   2.456  1.1392  0.3513 -3.2127
 3114SOL    HW220976   2.337   3.057   2.443 -1.7885 -0.2312 -1.5649
 3115SOL     OW20977   2.118   3.352   9.346 -0.4133 -0.0853  0.0327
 3115SOL    HW120978   2.131   3.271   9.396 -2.2017 -0.2267  0.2363
 3115SOL    HW220979   2.165   3.339   9.263 -2.9064  2.4141 -1.7509
 3116SOL     OW20980   2.768   0.139  12.845 -0.4063 -0.1917 -0.6108
 3116SOL    HW120981   2.850   0.189  12.844 -0.9273  0.6484 -1.7445
 3116SOL    HW220982   2.722   0.172  12.922  1.1600 -0.1444  0.3072
 3117SOL     OW20983   3.484   1.800   6.688 -0.2509 -0.3237 -0.1937
 3117SOL    HW120984   3.442   1.723   6.725 -2.3938  0.5974 -0.7288
 3117SOL    HW220985   3.574   1.770   6.702 -1.3399 -2.9705  1.0625
 3118SOL     OW20986   1.443   0.335  14.868  0.2803  0.2355  0.4310
 3118SOL    HW120987   1.466   0.428  14.865 -0.7932  0.4664 -1.0040
 3118SOL    HW220988   1.365   0.336  14.923  0.4351  0.2983  0.6478
 3119SOL     OW20989   2.605   4.162   4.869  0.0162 -0.2359 -0.1982
 3119SOL    HW120990   2.685   4.118   4.899 -0.4083  0.5074  2.0747
 3119SOL    HW220991   2.615   4.245   4.915 -0.1382  0.4482 -1.4176
 3120SOL     OW20992   0.841   3.874  13.964 -0.1417 -0.2903  0.1240
 3120SOL    HW120993   0.928   3.895  13.997 -0.4734  2.0955 -0.5226
 3120SOL    HW220994   0.791   3.945  14.004 -0.9611 -2.2414  2.5780
 3121SOL     OW20995   2.482   1.093   0.213 -0.0510  0.0999  0.1152
 3121SOL    HW120996   2.521   1.018   0.258 -0.0227  0.1223  0.1284
 3121SOL    HW220997   2.474   1.154   0.286  0.8382  1.3770 -0.8591
 3122SOL     OW20998   3.976   0.862   4.380 -0.2355  0.3545 -0.2433
 3122SOL    HW120999   3.888   0.824   4.370 -0.6990  1.9630 -2.1846
 3122SOL    HW221000   3.998   0.840   4.290 -1.8932  0.1553 -0.6137
 3123SOL     OW21001   2.665   2.581  17.346  0.1815 -0.3429 -0.1485
 3123SOL    HW121002   2.681   2.672  17.372  0.6037 -0.4720  0.0375
 3123SOL    HW221003   2.696   2.535  17.423 -1.0279 -1.7095 -0.4921
 3124SOL     OW21004   0.889   1.319   8.370 -0.5104 -0.7942 -0.0418
 3124SOL    HW121005   0.894   1.385   8.439 -0.4248  1.5157 -2.2510
 3124SOL    HW221006   0.897   1.236   8.417 -0.3495 -0.8638 -0.1916
 3125SOL     OW21007   1.279   0.390   4.117  0.0543  0.0312 -0.1540
 3125SOL    HW121008   1.272   0.432   4.031  1.8822 -0.0798 -0.3608
 3125SOL    HW221009   1.262   0.466   4.172 -1.6547 -2.0684  2.2244
 3126SOL     OW21010   1.631   3.766  11.826 -0.2350 -0.1982 -0.4284
 3126SOL    HW121011   1.690   3.830  11.786 -0.1945  0.4072  0.5909
 3126SOL    HW221012   1.547   3.810  11.814 -0.5965 -1.8528 -3.9449
 3127SOL     OW21013   1.640   2.449  13.938  0.0772 -0.2179 -0.0934
 3127SOL    HW121014   1.571   2.443  14.004  1.3738 -0.3813  1.2535
 3127SOL    HW221015   1.622   2.536  13.902 -1.7460 -0.8104 -0.5866
 3128SOL     OW21016   2.659   3.845   8.091  0.5737  0.2545  0.2510
 3128SOL    HW121017   2.642   3.914   8.026 -1.8903  1.7148  2.4693
 3128SOL    HW221018   2.611   3.879   8.166  2.9779 -0.1598  1.9525
 3129SOL     OW21019   2.141   2.458   6.076  0.2749  0.2595 -0.2120
 3129SOL    HW121020   2.069   2.428   6.131 -0.3668  0.3479 -1.0068
 3129SOL    HW221021   2.204   2.482   6.145  0.0698  0.7383 -0.1925
 3130SOL     OW21022   3.095   0.713   4.002  0.5395  0.0154  0.3952
 3130SOL    HW121023   3.070   0.786   4.058  1.1305  1.1276 -0.7784
 3130SOL    HW221024   3.129   0.650   4.065 -1.0444  0.0443  1.2574
 3131SOL     OW21025   1.296   1.264   6.758 -0.5615 -0.1887 -0.1568
 3131SOL    HW121026   1.354   1.220   6.696 -0.3673  1.8389 -1.3943
 3131SOL    HW221027   1.323   1.230   6.844  2.2460  2.1820 -0.0936
 3132SOL     OW21028   0.049   0.904   1.597 -0.3099 -0.0285 -0.0152
 3132SOL    HW121029   4.694   0.925   1.566 -1.3679  0.0350  3.0725
 3132SOL    HW221030   0.027   0.888   1.689  1.0001  0.6293  0.4286
 3133SOL     OW21031   1.124   3.416   3.263  0.1936  0.3140  0.2150
 3133SOL    HW121032   1.114   3.416   3.358 -1.7182  1.9071  0.0132
 3133SOL    HW221033   1.209   3.372   3.258  0.0109 -0.1139  0.8798
 3134SOL     OW21034   2.567   0.882   4.596 -0.2327  0.3005  0.5339
 3134SOL    HW121035   2.542   0.793   4.570 -3.2303  1.8420 -1.9111
 3134SOL    HW221036   2.488   0.932   4.573  0.0047  1.0320  1.2822
 3135SOL     OW21037   4.348   0.404   9.349  0.2809  0.2360 -0.6473
 3135SOL    HW121038   4.351   0.402   9.444  0.3608  0.7563 -0.6435
 3135SOL    HW221039   4.256   0.381   9.339  0.8510 -1.5351 -2.0117
 3136SOL     OW21040   4.496   1.366   4.032  0.6144  0.0174 -0.4130
 3136SOL    HW121041   4.508   1.426   3.959  0.0934  2.4740  1.5049
 3136SOL    HW221042   4.514   1.422   4.108 -0.0185 -1.4061  0.7876
 3137SOL     OW21043   0.521   0.438  16.664  0.1195  0.2573 -0.1045
 3137SOL    HW121044   0.613   0.462  16.649  0.4609 -2.3254 -2.1687
 3137SOL    HW221045   0.484   0.524  16.681 -0.8254  0.2073 -1.9470
 3138SOL     OW21046   3.898   1.066   3.506  0.4168 -0.0724  0.1602
 3138SOL    HW121047   3.922   1.011   3.580  1.1232 -0.3732 -0.2985
 3138SOL    HW221048   3.804   1.054   3.516  0.7140 -2.2791  0.2296
 3139SOL     OW21049   2.293   4.351  16.065  0.1370  0.4424  0.0245
 3139SOL    HW121050   2.212   4.391  16.096  0.3247  1.0350 -0.2436
 3139SOL    HW221051   2.348   4.377  16.139 -0.7051  0.2281  0.7220
 3140SOL     OW21052   4.044   2.956   6.875 -0.4678 -0.0677 -1.0443
 3140SOL    HW121053   4.034   2.999   6.790  1.7203  1.4846 -0.4955
 3140SOL    HW221054   4.027   3.030   6.933 -1.0368 -0.8813 -0.1672
 3141SOL     OW21055   0.475   1.147   8.568  0.7463 -0.6044 -0.3744
 3141SOL    HW121056   0.440   1.180   8.651  2.7308  0.5587 -0.0017
 3141SOL    HW221057   0.558   1.111   8.597  0.1633 -1.6296 -0.0017
 3142SOL     OW21058   2.853   0.239  15.939 -0.3431 -0.0858  0.2418
 3142SOL    HW121059   2.822   0.158  15.899 -0.5830  0.4538 -0.6690
 3142SOL    HW221060   2.876   0.295  15.864  2.0505  1.5465  2.1827
 3143SOL     OW21061   0.712   2.621   6.824 -0.0882  0.2025  0.6226
 3143SOL    HW121062   0.618   2.605   6.820  0.3745 -2.9028  1.8418
 3143SOL    HW221063   0.708   2.715   6.836  0.5178  0.0838  1.6875
 3144SOL     OW21064   1.888   1.020  11.038 -0.9034  0.1248 -0.2084
 3144SOL    HW121065   1.916   1.025  11.130  0.9978  0.4761 -0.7987
 3144SOL    HW221066   1.886   0.926  11.024 -0.0195  0.0757 -0.0077
 3145SOL     OW21067   4.647   1.318  15.926 -0.4962 -0.2759  0.5604
 3145SOL    HW121068   4.644   1.263  15.847  0.5439 -0.0531  0.3718
 3145SOL    HW221069   4.604   1.259  15.988  1.5988 -3.5074 -1.0422
 3146SOL     OW21070   2.334   0.054  12.638  0.0840  0.3279  0.3181
 3146SOL    HW121071   2.398   0.021  12.575 -0.3974  1.2633 -0.6719
 3146SOL    HW221072   2.383   0.087  12.713 -1.1840  0.2040  1.2046
 3147SOL     OW21073   3.234   3.299   4.354  0.3086  0.0417 -0.4573
 3147SOL    HW121074   3.198   3.282   4.441  0.1697 -1.1309 -0.7447
 3147SOL    HW221075   3.326   3.311   4.378 -0.3998  3.0623  0.6738
 3148SOL     OW21076   3.759   1.105  11.191 -0.2885 -0.3658  0.1370
 3148SOL    HW121077   3.719   1.176  11.242 -1.1059 -1.2818  0.7807
 3148SOL    HW221078   3.804   1.155  11.123  0.2744  1.5411  1.9076
 3149SOL     OW21079   3.586   4.625   7.623  0.3850  0.1167 -0.5236
 3149SOL    HW121080   3.495   4.621   7.593  0.0256  0.9030  0.4506
 3149SOL    HW221081   3.613   4.536   7.601  2.9163  1.0201 -1.0083
 3150SOL     OW21082   0.488   4.013  11.508  0.4322  0.3365  0.5141
 3150SOL    HW121083   0.543   4.030  11.584  1.3420 -0.9785  0.1509
 3150SOL    HW221084   0.404   3.997  11.551 -0.6230 -1.3051 -2.1891
 3151SOL     OW21085   0.333   0.167   4.896  0.1129  0.4347 -0.5992
 3151SOL    HW121086   0.384   0.087   4.882  1.3435  0.8071  1.6427
 3151SOL    HW221087   0.349   0.189   4.988 -1.4638  0.3765 -0.3121
 3152SOL     OW21088   3.003   1.993   4.746  0.5149 -0.0602 -0.0368
 3152SOL    HW121089   2.917   1.970   4.711  2.2269 -2.3763 -2.6953
 3152SOL    HW221090   3.048   1.910   4.735  3.3560  1.3903  0.6380
 3153SOL     OW21091   2.709   3.425   4.118  0.1018  0.0907 -0.0648
 3153SOL    HW121092   2.775   3.495   4.122  1.0732 -0.9058  1.9383
 3153SOL    HW221093   2.759   3.356   4.074  1.5197  1.1803 -0.1936
 3154SOL     OW21094   4.464   0.214  15.806 -0.1513 -0.2072  0.2774
 3154SOL    HW121095   4.378   0.170  15.806 -0.1602 -0.1884 -0.4062
 3154SOL    HW221096   4.513   0.165  15.872 -0.6150  3.8324  3.5780
 3155SOL     OW21097   3.843   2.194  11.734  0.2426  0.2419  0.3789
 3155SOL    HW121098   3.922   2.246  11.718  1.3113 -2.3940 -2.7394
 3155SOL    HW221099   3.781   2.267  11.730  0.2716  0.1054 -2.2460
 3156SOL     OW21100   3.413   0.030   2.950 -0.3874 -0.2733 -0.8387
 3156SOL    HW121101   3.442   0.064   2.865 -0.1227  0.2935 -0.5164
 3156SOL    HW221102   3.473   4.689   2.963 -0.3962 -0.1144  0.1003
 3157SOL     OW21103   1.659   3.163   2.673  0.4580  0.5759  0.3109
 3157SOL    HW121104   1.674   3.115   2.755 -0.6430  0.4777  0.4519
 3157SOL    HW221105   1.627   3.088   2.623 -0.4676  0.3642  1.2373
 3158SOL     OW21106   3.097   2.551   3.598  0.3304  0.3380 -0.3190
 3158SOL    HW121107   3.023   2.528   3.541  0.3019 -1.2572  0.3771
 3158SOL    HW221108   3.143   2.612   3.540 -0.7941 -0.9483 -2.5848
 3159SOL     OW21109   1.819   0.526   5.321  0.0391  0.1775 -0.0194
 3159SOL    HW121110   1.739   0.572   5.295 -0.2224 -0.8295 -1.0318
 3159SOL    HW221111   1.834   0.539   5.415 -0.4541  1.7865 -0.1676
 3160SOL     OW21112   1.441   1.463   6.062 -0.6390 -0.8009 -0.0383
 3160SOL    HW121113   1.362   1.514   6.078  0.1625  0.6183 -0.6540
 3160SOL    HW221114   1.419   1.402   5.992  1.7236 -1.3308 -0.3390
 3161SOL     OW21115   1.159   1.248   7.218 -0.0490 -0.5228 -0.1029
 3161SOL    HW121116   1.075   1.230   7.175 -0.9614 -0.4086  1.6342
 3161SOL    HW221117   1.168   1.343   7.214 -2.9900 -0.2998 -1.6356
 3162SOL     OW21118   2.483   0.760   8.429 -0.7276  0.1908 -0.4209
 3162SOL    HW121119   2.521   0.790   8.346 -1.7596 -2.1736 -1.7238
 3162SOL    HW221120   2.405   0.816   8.423 -1.4917 -0.8479 -0.1286
 3163SOL     OW21121   1.914   1.712  13.789 -0.2030  0.6236 -0.3900
 3163SOL    HW121122   1.986   1.752  13.740 -2.4546  1.2054 -3.2428
 3163SOL    HW221123   1.851   1.747  13.726 -0.0737 -0.7217 -1.2600
 3164SOL     OW21124   2.665   1.868   6.690 -0.1655 -0.3817 -0.2308
 3164SOL    HW121125   2.729   1.797   6.690 -0.3750 -0.5733 -0.3895
 3164SOL    HW221126   2.591   1.836   6.638 -2.6711  1.9142  1.9054
 3165SOL     OW21127   2.848   4.620   2.359 -0.1189  0.6530 -0.0203
 3165SOL    HW121128   2.886   4.689   2.413  1.3987  0.5692 -0.9754
 3165SOL    HW221129   2.783   4.579   2.416  1.6878  0.2091  1.7341
 3166SOL     OW21130   0.499   4.516   2.499 -0.3386 -0.4632  0.3768
 3166SOL    HW121131   0.427   4.455   2.514  0.3819 -0.4931  3.6499
 3166SOL    HW221132   0.574   4.456   2.500 -1.0323 -1.3669 -1.5963
 3167SOL     OW21133   0.218   2.354  11.600  0.5176  0.0285  0.2390
 3167SOL    HW121134   0.266   2.325  11.677  0.9196 -1.7171 -0.6449
 3167SOL    HW221135   0.191   2.441  11.630  1.5823 -0.6072  2.9921
 3168SOL     OW21136   0.617   2.603  16.222  0.2876  0.8084 -0.0082
 3168SOL    HW121137   0.615   2.524  16.277 -0.3519  0.8542  0.0358
 3168SOL    HW221138   0.528   2.605  16.186 -0.1919 -1.2104  1.0836
 3169SOL     OW21139   4.050   2.208   4.909  0.4065 -0.1881 -0.0310
 3169SOL    HW121140   3.972   2.188   4.857 -0.6324 -3.7505  2.9400
 3169SOL    HW221141   4.020   2.199   4.999 -1.3851  0.3848 -0.5743
 3170SOL     OW21142   0.832   2.340   8.333  0.0006  0.7836  0.2410
 3170SOL    HW121143   0.817   2.370   8.423 -0.1130  2.4255 -0.3227
 3170SOL    HW221144   0.864   2.421   8.293  0.1995  0.3611 -0.4514
 3171SOL     OW21145   1.408   3.388  12.112 -0.3506 -0.2128 -0.8922
 3171SOL    HW121146   1.431   3.452  12.178  0.8052 -0.5297 -0.9861
 3171SOL    HW221147   1.469   3.421  12.046  2.4153 -3.1909  0.1647
 3172SOL     OW21148   4.439   3.844  13.709  0.1624 -0.2541  0.4918
 3172SOL    HW121149   4.507   3.790  13.750  0.6164 -0.6930 -0.8205
 3172SOL    HW221150   4.493   3.866  13.633  0.2014  1.7784  1.1159
 3173SOL     OW21151   2.091   2.147   8.459  1.1053 -0.0635  0.3227
 3173SOL    HW121152   2.120   2.104   8.378 -2.4987  0.6730 -1.3973
 3173SOL    HW221153   2.151   2.118   8.527  0.2761 -2.2493  0.1230
 3174SOL     OW21154   3.244   0.595  12.995  0.0689 -0.8346 -0.0647
 3174SOL    HW121155   3.230   0.501  12.984 -0.5879 -1.0186  2.3538
 3174SOL    HW221156   3.322   0.590  13.050  1.5082  1.6489 -1.8856
 3175SOL     OW21157   4.239   1.543   7.473  0.2531 -0.1527  0.2510
 3175SOL    HW121158   4.247   1.482   7.546  0.1975  1.0248  1.2478
 3175SOL    HW221159   4.161   1.593   7.497  1.2368  2.2049 -1.5266
 3176SOL     OW21160   2.008   1.719  11.486 -0.0186  0.0238 -0.0075
 3176SOL    HW121161   2.066   1.700  11.559 -0.6286  1.5757  0.8903
 3176SOL    HW221162   1.958   1.640  11.468  1.7338 -1.2453  0.7626
 3177SOL     OW21163   3.137   0.196   5.371  0.2632  0.4589  0.0086
 3177SOL    HW121164   3.185   0.175   5.291 -1.0820 -2.2513 -0.0597
 3177SOL    HW221165   3.126   0.111   5.413  1.1887  0.9194  1.1792
 3178SOL     OW21166   4.133   1.262  15.356 -0.1099  0.4019 -0.1454
 3178SOL    HW121167   4.074   1.213  15.298  1.5211  0.2421 -1.6525
 3178SOL    HW221168   4.147   1.343  15.306 -1.9572  0.7385 -0.1515
 3179SOL     OW21169   1.947   3.602   9.605  0.0410  0.1868 -0.6107
 3179SOL    HW121170   2.036   3.571   9.588  0.1065 -1.4265  2.6098
 3179SOL    HW221171   1.966   3.694   9.626 -0.8004  0.4206 -0.8884
 3180SOL     OW21172   2.915   2.524   4.371 -0.0853  0.4060  0.0585
 3180SOL    HW121173   2.859   2.475   4.432 -0.4114  1.2003  0.3936
 3180SOL    HW221174   2.855   2.576   4.318 -0.2441 -1.0704 -1.1903
 3181SOL     OW21175   3.398   3.835  11.923  0.0067 -0.2644  0.0678
 3181SOL    HW121176   3.449   3.819  11.844 -0.2921 -0.4236 -0.0890
 3181SOL    HW221177   3.326   3.885  11.885 -1.5204 -0.1834  3.0823
 3182SOL     OW21178   3.547   3.850   5.023 -0.4433  0.2289  0.0816
 3182SOL    HW121179   3.483   3.918   5.001  0.8396  0.7845 -1.8884
 3182SOL    HW221180   3.541   3.843   5.119 -0.2780 -0.3704  0.0498
 3183SOL     OW21181   1.042   3.004  10.794 -0.0355  0.9158  0.8954
 3183SOL    HW121182   0.964   3.059  10.783 -0.1808  0.1000 -2.2151
 3183SOL    HW221183   1.078   3.046  10.872  0.9211 -2.0458  2.0357
 3184SOL     OW21184   3.766   4.066  14.557 -0.3002  0.1190 -0.2385
 3184SOL    HW121185   3.844   4.032  14.513 -0.8874 -1.2386 -0.2391
 3184SOL    HW221186   3.725   3.982  14.577 -1.5686  0.9047  0.4943
 3185SOL     OW21187   1.772   0.743   8.378  0.1638 -0.4809  0.3983
 3185SOL    HW121188   1.700   0.777   8.431 -1.5925  0.2406 -2.4828
 3185SOL    HW221189   1.834   0.723   8.449  0.6092  3.4554  1.1187
 3186SOL     OW21190   2.353   4.168   6.532 -0.6203 -0.0391  0.1011
 3186SOL    HW121191   2.318   4.242   6.482  0.8486 -0.0921 -1.0103
 3186SOL    HW221192   2.285   4.160   6.598 -2.0739  1.0890 -1.2685
 3187SOL     OW21193   4.645   1.735   8.956  0.2743 -0.4073 -0.3851
 3187SOL    HW121194   4.693   1.816   8.937 -1.1995  0.7749  0.9726
 3187SOL    HW221195   4.576   1.770   9.011  3.6181  1.9438  2.3261
 3188SOL     OW21196   0.216   1.994  17.682 -0.2306 -0.5744 -0.3488
 3188SOL    HW121197   0.161   2.042   0.015 -0.4125  0.0050 -0.9512
 3188SOL    HW221198   0.195   1.904  17.707  0.1647 -1.0471 -1.7229
 3189SOL     OW21199   2.713   4.493  10.385  0.2516  0.5512 -0.5870
 3189SOL    HW121200   2.798   4.487  10.341 -1.4535 -0.9462 -3.6854
 3189SOL    HW221201   2.672   4.409  10.363 -0.9181  1.3030 -1.2798
 3190SOL     OW21202   1.440   1.785   3.695  0.0416 -0.4954  0.3550
 3190SOL    HW121203   1.360   1.815   3.652  0.1610  2.1358  1.9819
 3190SOL    HW221204   1.429   1.818   3.784 -0.7971 -0.8135  0.3693
 3191SOL     OW21205   3.634   2.704   3.227  0.7190  0.3298 -0.5277
 3191SOL    HW121206   3.656   2.612   3.246 -0.0219  0.2637  0.0282
 3191SOL    HW221207   3.696   2.747   3.285 -1.8544  2.4847  0.6161
 3192SOL     OW21208   4.207   0.957  15.623 -0.3957  0.1518  0.0604
 3192SOL    HW121209   4.122   0.950  15.668 -0.0760 -1.5943  0.4234
 3192SOL    HW221210   4.238   0.867  15.635 -1.0630 -0.3817 -2.2640
 3193SOL     OW21211   2.383   0.136   3.832  0.2346 -0.3855 -0.3244
 3193SOL    HW121212   2.478   0.127   3.840  0.5089  1.1255 -1.9409
 3193SOL    HW221213   2.368   0.222   3.793 -1.5974  0.9076  3.2896
 3194SOL     OW21214   0.835   3.937   0.935 -0.2664  0.5088 -0.3438
 3194SOL    HW121215   0.896   4.010   0.933 -1.5395  1.5912  0.6829
 3194SOL    HW221216   0.851   3.883   1.012 -1.1751  1.0327  0.2059
 3195SOL     OW21217   0.528   0.579   5.120 -0.5247 -0.2792  0.2413
 3195SOL    HW121218   0.558   0.489   5.133 -1.4353 -0.9842 -2.4956
 3195SOL    HW221219   0.475   0.597   5.198 -0.1827  2.5364 -0.1967
 3196SOL     OW21220   0.818   3.517   4.929  0.7339  0.2771  0.4889
 3196SOL    HW121221   0.787   3.475   5.009  1.7895 -0.0195  0.7440
 3196SOL    HW221222   0.833   3.601   4.972 -0.7327  0.4482  0.6798
 3197SOL     OW21223   3.352   1.288  16.624  0.7205  0.0769  0.3518
 3197SOL    HW121224   3.387   1.208  16.584 -3.1468 -1.1090 -0.7493
 3197SOL    HW221225   3.325   1.347  16.553  3.4611  0.1270 -0.6388
 3198SOL     OW21226   1.337   3.095   4.695  0.2214 -1.0236  0.1764
 3198SOL    HW121227   1.276   3.126   4.629 -1.3815 -1.5286  1.4245
 3198SOL    HW221228   1.331   3.001   4.682 -1.4952 -0.8649 -0.1198
 3199SOL     OW21229   4.334   2.792  10.317 -0.2045 -0.1496  0.5690
 3199SOL    HW121230   4.327   2.754  10.230  1.9549 -1.5173  0.9805
 3199SOL    HW221231   4.282   2.870  10.298 -1.6467 -1.4279 -0.6869
 3200SOL     OW21232   0.326   0.290   7.902 -0.2061  0.1626 -0.1462
 3200SOL    HW121233   0.345   0.199   7.924 -0.4362  0.1349 -0.0689
 3200SOL    HW221234   0.304   0.322   7.990 -0.6507 -0.7037  0.0517
 3201SOL     OW21235   0.540   2.306   7.743  0.1364  0.1785  0.0554
 3201SOL    HW121236   0.629   2.326   7.713  0.0769 -2.8421 -2.1295
 3201SOL    HW221237   0.487   2.366   7.690 -2.5051 -1.8983  0.3420
 3202SOL     OW21238   2.933   1.699  12.419  0.4112 -0.9031  0.1288
 3202SOL    HW121239   2.918   1.613  12.380  1.8327 -1.4326  0.7504
 3202SOL    HW221240   2.861   1.707  12.482 -0.2445 -0.8625 -0.6290
 3203SOL     OW21241   0.268   3.632   5.210  0.3282 -0.2699  0.1054
 3203SOL    HW121242   0.323   3.710   5.208 -1.4300  0.9374 -0.9089
 3203SOL    HW221243   0.251   3.610   5.118 -1.5548  0.1558  0.3408
 3204SOL     OW21244   0.699   3.241   1.440  0.0390 -0.0784  0.3658
 3204SOL    HW121245   0.682   3.293   1.519 -1.8708 -0.0944 -0.0458
 3204SOL    HW221246   0.613   3.204   1.419  0.5770  0.8314 -3.2586
 3205SOL     OW21247   2.716   4.611   4.454 -0.6199  0.7237 -0.1106
 3205SOL    HW121248   2.748   4.598   4.364  0.6409  2.5384  0.0964
 3205SOL    HW221249   2.788   4.655   4.499 -0.6232  0.4920  0.1202
 3206SOL     OW21250   0.444   4.270   7.007  0.3029 -0.1365 -0.0501
 3206SOL    HW121251   0.517   4.314   7.050  0.3236  1.3041 -1.5361
 3206SOL    HW221252   0.464   4.286   6.915  0.8907 -1.7820 -0.1978
 3207SOL     OW21253   1.829   1.024   5.621 -0.2658  0.1791 -0.2539
 3207SOL    HW121254   1.817   1.113   5.655  0.0931  0.5438 -1.0734
 3207SOL    HW221255   1.755   1.001   5.564 -2.2656  0.9321  2.0277
 3208SOL     OW21256   1.187   0.760   0.655 -0.4684 -0.3259 -0.1870
 3208SOL    HW121257   1.234   0.736   0.735  1.4652 -0.3095 -1.3153
 3208SOL    HW221258   1.200   0.682   0.601 -0.8105  1.3025 -2.5983
 3209SOL     OW21259   0.772   0.453   3.660  0.5658  0.2947 -0.4489
 3209SOL    HW121260   0.684   0.455   3.696  0.1994 -2.4596 -1.2750
 3209SOL    HW221261   0.791   0.361   3.679 -0.1571  0.5990  1.8402
 3210SOL     OW21262   1.548   2.148   9.688 -0.0697 -0.5703 -0.5444
 3210SOL    HW121263   1.538   2.137   9.783 -0.0951  0.2864 -0.4470
 3210SOL    HW221264   1.512   2.237   9.684 -0.8967 -0.9403 -1.3711
 3211SOL     OW21265   3.790   2.082   1.008  0.1303  0.2713  0.0160
 3211SOL    HW121266   3.708   2.125   1.033  1.3009  1.9667  0.9062
 3211SOL    HW221267   3.798   2.017   1.077 -1.7196  0.5958  0.5529
 3212SOL     OW21268   0.218   2.683   2.474  0.0404 -0.3958 -0.4012
 3212SOL    HW121269   0.229   2.698   2.380 -1.0240 -1.9152 -0.7734
 3212SOL    HW221270   0.135   2.636   2.468 -0.6715  0.7925  0.4152
 3213SOL     OW21271   0.014   2.121   1.790  0.6874  0.5585 -0.3915
 3213SOL    HW121272   4.732   2.212   1.814 -0.0987 -0.4266  2.8203
 3213SOL    HW221273   0.110   2.118   1.787  0.7880  2.5018  1.3781
 3214SOL     OW21274   0.027   0.227   7.475  0.1598 -0.2457 -0.2715
 3214SOL    HW121275   0.035   0.252   7.567 -0.1028  0.2185 -0.3758
 3214SOL    HW221276   0.055   0.136   7.469  1.0596  0.0142 -0.0297
 3215SOL     OW21277   4.467   2.633   3.649  0.1636 -0.0281 -0.0375
 3215SOL    HW121278   4.490   2.541   3.659 -0.5414 -0.0486  1.3947
 3215SOL    HW221279   4.373   2.622   3.633 -0.0582  1.3464  0.3237
 3216SOL     OW21280   1.048   3.699   2.303 -0.1358  0.0582 -0.0233
 3216SOL    HW121281   1.109   3.716   2.231  0.3639 -2.2519 -0.1430
 3216SOL    HW221282   0.994   3.776   2.283 -1.0048 -0.9005 -1.3258
 3217SOL     OW21283   0.470   4.597   0.007  0.3712 -0.0926  0.0301
 3217SOL    HW121284   0.411   4.525   0.027  1.2193 -0.4081  1.4036
 3217SOL    HW221285   0.530   4.555  17.675  0.2773 -1.4856  0.9082
 3218SOL     OW21286   4.072   1.285   4.656  0.0999  0.1569 -0.1670
 3218SOL    HW121287   4.085   1.205   4.606 -1.0911  0.5044 -1.0356
 3218SOL    HW221288   4.044   1.345   4.587  1.9601  0.3564 -0.7533
 3219SOL     OW21289   4.495   0.829   3.114  0.0103 -0.4433 -0.3193
 3219SOL    HW121290   4.466   0.839   3.205 -2.7914  1.5018 -1.4134
 3219SOL    HW221291   4.537   0.743   3.107  0.9526 -0.0742  0.8695
 3220SOL     OW21292   0.345   0.666  15.358 -0.3426 -0.0009  0.8747
 3220SOL    HW121293   0.340   0.655  15.264  0.2983  3.8197  0.4079
 3220SOL    HW221294   0.416   0.730  15.349  2.0823 -2.8978 -0.6710
 3221SOL     OW21295   2.784   1.959   3.350 -0.4736  0.3954 -1.0004
 3221SOL    HW121296   2.792   2.032   3.288  0.5480  1.0573 -0.0858
 3221SOL    HW221297   2.739   1.999   3.425 -2.1695 -2.2534 -0.5943
 3222SOL     OW21298   1.166   0.325   3.456 -0.5791 -0.0127  0.5672
 3222SOL    HW121299   1.211   0.377   3.390  1.6448  0.1446  2.2353
 3222SOL    HW221300   1.086   0.302   3.409 -1.6489  3.2217  0.8047
 3223SOL     OW21301   1.037   3.341   8.570 -0.7393  0.3961 -0.1724
 3223SOL    HW121302   0.957   3.392   8.577 -1.0736 -0.3509  1.5219
 3223SOL    HW221303   1.106   3.407   8.576  0.4013 -0.7052 -1.0429
 3224SOL     OW21304   2.003   3.926   7.531 -0.0042  0.3308  0.4143
 3224SOL    HW121305   1.913   3.946   7.504  0.0492 -0.6179 -0.4319
 3224SOL    HW221306   2.013   3.852   7.471 -1.0515 -0.6224  1.4054
 3225SOL     OW21307   2.283   4.692   8.505 -0.3061  0.0191 -0.1492
 3225SOL    HW121308   2.309   0.050   8.523 -1.3442  0.2790  0.0700
 3225SOL    HW221309   2.190   4.703   8.485  0.5435  0.4620 -3.8443
 3226SOL     OW21310   3.304   1.651  16.672 -0.1343  0.1875  0.2085
 3226SOL    HW121311   3.289   1.667  16.579 -0.5736 -0.4768  0.1655
 3226SOL    HW221312   3.356   1.572  16.661  1.0820  1.2480 -1.7101
 3227SOL     OW21313   3.022   3.985   7.305  0.1278 -0.9962 -0.7269
 3227SOL    HW121314   3.002   3.915   7.243  0.8728 -1.0621 -0.8943
 3227SOL    HW221315   3.080   4.045   7.259 -1.0329  1.8691  1.5559
 3228SOL     OW21316   4.161   0.150   0.427 -0.1479  0.2473 -0.3231
 3228SOL    HW121317   4.251   0.176   0.405  0.6062 -0.4762  1.8554
 3228SOL    HW221318   4.135   0.094   0.355 -0.1002 -1.5133  1.0245
 3229SOL     OW21319   3.062   0.290   6.410 -0.7283  0.5571  0.1411
 3229SOL    HW121320   3.002   0.241   6.467 -1.1557 -0.7028 -1.3806
 3229SOL    HW221321   3.115   0.219   6.374  1.5137  0.6337  3.3232
 3230SOL     OW21322   2.361   0.605   3.321  0.8235 -0.1576  0.2531
 3230SOL    HW121323   2.336   0.520   3.356 -1.5249  1.2605  2.0809
 3230SOL    HW221324   2.274   0.645   3.312  0.6770 -0.2456  1.3122
 3231SOL     OW21325   4.419   3.674   8.061 -0.5235 -0.5046  0.0016
 3231SOL    HW121326   4.473   3.595   8.048  0.4282 -0.1122  1.5106
 3231SOL    HW221327   4.430   3.692   8.155 -2.2051 -2.2521  0.5338
 3232SOL     OW21328   0.871   0.098   3.597  0.2221  0.2070  0.1717
 3232SOL    HW121329   0.777   0.117   3.601 -0.3357 -2.0586 -2.3790
 3232SOL    HW221330   0.900   0.125   3.510 -2.4543  1.5165 -0.3101
 3233SOL     OW21331   4.514   2.417  13.757 -0.2623 -1.0092  0.1676
 3233SOL    HW121332   4.489   2.325  13.747  0.1886 -1.1734  0.5275
 3233SOL    HW221333   4.480   2.454  13.677  2.9365  0.2220 -0.6245
 3234SOL     OW21334   2.331   2.051  17.531  0.0118  0.2708  0.6155
 3234SOL    HW121335   2.395   2.021  17.465  0.3914 -0.4090  1.2799
 3234SOL    HW221336   2.251   2.075  17.485  0.5294  0.7856 -0.0158
 3235SOL     OW21337   1.830   4.338   3.916  0.3532 -0.4442  0.4316
 3235SOL    HW121338   1.749   4.307   3.874  0.0002  2.0542 -0.7074
 3235SOL    HW221339   1.825   4.316   4.009 -0.0630  0.3192  0.5839
 3236SOL     OW21340   1.304   2.495   5.703  0.2086 -0.1729 -0.4222
 3236SOL    HW121341   1.357   2.517   5.626 -0.2660  1.4989 -0.2745
 3236SOL    HW221342   1.365   2.439   5.749  0.0962 -0.8152 -1.0489
 3237SOL     OW21343   3.289   0.344  12.890 -0.3938 -0.4492 -0.5288
 3237SOL    HW121344   3.275   0.253  12.917  2.5054 -0.1443  2.0101
 3237SOL    HW221345   3.382   0.361  12.884 -0.0773 -1.9588 -0.0942
 3238SOL     OW21346   1.999   1.845   3.305  0.5961 -0.2969  0.4328
 3238SOL    HW121347   1.964   1.907   3.241  0.8434  0.1385  0.7108
 3238SOL    HW221348   2.069   1.795   3.263  0.6953 -1.2227  1.7107
 3239SOL     OW21349   2.001   2.628   1.146 -0.5945 -0.4762  0.3055
 3239SOL    HW121350   1.926   2.636   1.088  0.6153 -0.5955 -1.2822
 3239SOL    HW221351   1.968   2.674   1.224 -2.1704 -2.2334  0.6625
 3240SOL     OW21352   1.090   1.338   4.818  0.2005 -0.1011  0.0069
 3240SOL    HW121353   1.044   1.286   4.752 -1.7802  1.4619  0.1637
 3240SOL    HW221354   1.135   1.405   4.766  0.4416 -0.1275  0.1833
 3241SOL     OW21355   0.945   4.002   3.421  0.1972  0.8396  0.4192
 3241SOL    HW121356   0.973   4.048   3.342 -0.9223  1.4035  0.3556
 3241SOL    HW221357   1.015   4.021   3.484  1.5106  0.3665 -0.8903
 3242SOL     OW21358   1.922   0.342   1.788 -0.2085 -0.3660  0.3308
 3242SOL    HW121359   1.953   0.380   1.706 -0.2010  0.6525  0.8042
 3242SOL    HW221360   1.926   0.419   1.845 -1.6527 -0.0946  0.0589
 3243SOL     OW21361   0.105   0.742  12.078 -0.3864  0.2335  0.2061
 3243SOL    HW121362   0.050   0.715  12.151  1.2407 -1.7990  0.6799
 3243SOL    HW221363   0.037   0.794  12.035 -1.6784 -0.1826  1.7699
 3244SOL     OW21364   3.223   0.470   4.060  0.2293 -0.6285 -0.0841
 3244SOL    HW121365   3.285   0.465   4.133 -0.8851 -0.8106  0.8632
 3244SOL    HW221366   3.283   0.427   3.999 -1.3268 -1.8400 -0.7626
 3245SOL     OW21367   0.549   0.962   3.445  0.8045  0.3731 -0.0147
 3245SOL    HW121368   0.526   0.887   3.500 -0.8520  0.7781 -0.1537
 3245SOL    HW221369   0.575   0.926   3.360 -1.4817 -0.3674 -0.4102
 3246SOL     OW21370   1.709   3.427   2.690  0.1133  0.1077  0.2895
 3246SOL    HW121371   1.735   3.335   2.697  0.9675  0.3885  0.8492
 3246SOL    HW221372   1.618   3.419   2.662  0.3320 -2.5063  0.2769
 3247SOL     OW21373   0.919   1.212  14.836 -0.0501 -0.5158  0.1594
 3247SOL    HW121374   0.849   1.155  14.804  0.2404  0.6914 -2.6926
 3247SOL    HW221375   0.899   1.290  14.784  2.5739  1.4106  2.0294
 3248SOL     OW21376   0.779   2.604   7.436 -0.8020 -0.0634  0.6376
 3248SOL    HW121377   0.829   2.685   7.450 -1.4436  0.3927  0.3174
 3248SOL    HW221378   0.840   2.562   7.375 -1.2703  0.4539 -0.1919
 3249SOL     OW21379   1.359   0.912   2.904 -0.7839  0.2294  0.6254
 3249SOL    HW121380   1.337   0.888   2.814 -2.7306 -0.4464  1.2854
 3249SOL    HW221381   1.448   0.878   2.909 -0.3902  1.6247  3.1196
 3250SOL     OW21382   2.626   1.033   8.481  0.0071 -0.5301  0.2706
 3250SOL    HW121383   2.618   0.962   8.544 -1.5966  0.3396  1.0299
 3250SOL    HW221384   2.605   1.101   8.545 -0.8766 -1.4346  0.9419
 3251SOL     OW21385   2.346   2.770  16.523  0.1516 -0.1264 -0.8931
 3251SOL    HW121386   2.430   2.814  16.537  0.3700 -0.1994 -1.9704
 3251SOL    HW221387   2.373   2.682  16.550 -2.1856 -1.0425 -1.4942
 3252SOL     OW21388   0.465   1.366   3.290  0.1669 -0.1964  0.5110
 3252SOL    HW121389   0.442   1.313   3.366  2.4014  0.0363  1.3423
 3252SOL    HW221390   0.441   1.452   3.324  3.1142  0.1453  1.7487
 3253SOL     OW21391   0.500   4.510   1.850  0.2954 -0.3017  0.2509
 3253SOL    HW121392   0.407   4.513   1.871  0.2501 -0.8758  0.1180
 3253SOL    HW221393   0.527   4.600   1.871 -1.1642  0.3194 -0.5493
 3254SOL     OW21394   3.142   3.212   3.664 -0.2487  0.6947 -0.0673
 3254SOL    HW121395   3.218   3.244   3.714  0.8275  0.8080 -1.7715
 3254SOL    HW221396   3.173   3.235   3.576  1.0428 -0.3221  0.1253
 3255SOL     OW21397   2.861   4.387  12.536 -0.3804  0.3594 -0.1467
 3255SOL    HW121398   2.837   4.302  12.573  1.3412  0.5127  1.3585
 3255SOL    HW221399   2.953   4.386  12.562  0.1711 -3.6389 -2.2233
 3256SOL     OW21400   3.763   1.804   8.655 -0.0155 -0.2987  0.4479
 3256SOL    HW121401   3.828   1.775   8.718  0.3238  0.1983  0.3259
 3256SOL    HW221402   3.748   1.731   8.595 -1.4685 -1.1693  1.8685
 3257SOL     OW21403   2.885   0.972   2.697 -0.9763 -0.1558 -0.4567
 3257SOL    HW121404   2.913   1.042   2.755 -2.0820  1.0115 -1.3187
 3257SOL    HW221405   2.930   0.896   2.733  0.6245  1.0879  0.1403
 3258SOL     OW21406   2.037   0.833   0.794 -0.4892  0.4585  0.4720
 3258SOL    HW121407   2.130   0.817   0.808 -0.5300  1.6842  2.1528
 3258SOL    HW221408   2.034   0.822   0.699  2.4754  0.0356  0.4265
 3259SOL     OW21409   0.806   2.123  11.583 -0.8865  0.7565  0.2607
 3259SOL    HW121410   0.845   2.065  11.649  0.0823 -0.5902 -1.4929
 3259SOL    HW221411   0.773   2.059  11.520 -0.3427 -2.0268  2.8140
 3260SOL     OW21412   1.759   1.437   1.664  0.2880 -0.2805 -0.1493
 3260SOL    HW121413   1.736   1.499   1.595 -0.7744  1.4912  1.7902
 3260SOL    HW221414   1.684   1.454   1.722  0.2416 -0.3844 -0.1795
 3261SOL     OW21415   1.434   0.190   2.399  0.1195 -0.3982  0.6079
 3261SOL    HW121416   1.442   0.226   2.311 -0.5198  0.9309  1.0809
 3261SOL    HW221417   1.341   0.191   2.421  0.8747  1.0410  3.7653
 3262SOL     OW21418   1.572   3.763   5.188 -0.6034  1.2559 -0.3401
 3262SOL    HW121419   1.547   3.677   5.219  0.5803  1.2776  0.6908
 3262SOL    HW221420   1.651   3.791   5.235 -1.5996  1.1797  1.3815
 3263SOL     OW21421   3.859   2.522   4.713 -0.4934 -0.4199  0.3689
 3263SOL    HW121422   3.763   2.528   4.715 -0.4477  0.2191  0.4692
 3263SOL    HW221423   3.871   2.446   4.656  2.0329 -0.2749  0.7025
 3264SOL     OW21424   0.384   3.380   4.504 -0.1854 -0.5930  0.0120
 3264SOL    HW121425   0.309   3.439   4.515  0.1801 -0.1656  0.2044
 3264SOL    HW221426   0.448   3.439   4.464 -0.2014  0.8650  2.1070
 3265SOL     OW21427   2.668   3.728   3.431  0.0475 -0.0951 -0.1752
 3265SOL    HW121428   2.738   3.674   3.396 -0.6415 -1.0778 -0.0514
 3265SOL    HW221429   2.620   3.743   3.349  0.6170  0.0186 -0.4901
 3266SOL     OW21430   3.790   4.330   7.012 -0.0197  0.1103 -0.2279
 3266SOL    HW121431   3.841   4.336   6.931 -1.0104 -2.9328 -1.0695
 3266SOL    HW221432   3.743   4.248   7.000  2.1674 -1.3481  1.1973
 3267SOL     OW21433   3.524   0.156  16.373 -0.4844  0.7541  0.3048
 3267SOL    HW121434   3.460   0.129  16.439 -0.1190 -0.3640  0.1951
 3267SOL    HW221435   3.470   0.170  16.295  0.5621  1.3652 -0.3074
 3268SOL     OW21436   2.195   0.575  15.278  0.2837  0.7740  0.0748
 3268SOL    HW121437   2.150   0.491  15.280 -1.1488  1.5433  0.6877
 3268SOL    HW221438   2.209   0.584  15.184  0.0699  3.4692  0.2807
 3269SOL     OW21439   2.845   1.115   7.939 -0.3970  0.3836  0.0164
 3269SOL    HW121440   2.777   1.143   7.878  0.3129  1.2554 -0.3792
 3269SOL    HW221441   2.925   1.166   7.926  0.4283 -0.6068  1.2278
 3270SOL     OW21442   2.181   3.317  16.706  0.1192  0.2512  0.3865
 3270SOL    HW121443   2.100   3.282  16.669 -0.3659 -0.3401  2.0151
 3270SOL    HW221444   2.246   3.292  16.640 -0.5783  2.0212 -0.9626
 3271SOL     OW21445   0.067   1.730   2.222  0.4414 -0.4774  0.1144
 3271SOL    HW121446   0.087   1.662   2.157  0.8105  0.6321 -0.9399
 3271SOL    HW221447   0.093   1.689   2.304  0.1761 -0.8719  0.0035
 3272SOL     OW21448   4.032   1.899   1.889 -0.2301 -0.3225 -0.4945
 3272SOL    HW121449   3.936   1.892   1.887 -0.1702 -1.7808  2.5910
 3272SOL    HW221450   4.053   1.944   1.807 -0.4013 -1.4049 -1.1379
 3273SOL     OW21451   2.679   1.590   7.533  0.5519 -0.3359  0.1125
 3273SOL    HW121452   2.698   1.626   7.619 -0.9987  1.3880 -0.2638
 3273SOL    HW221453   2.746   1.522   7.532  1.8470  0.9465  0.2895
 3274SOL     OW21454   2.781   3.080   6.201 -0.3985  0.1679 -0.0389
 3274SOL    HW121455   2.777   2.993   6.241 -2.3468  0.0891 -0.4284
 3274SOL    HW221456   2.874   3.102   6.192  0.1357 -1.6579  0.9755
 3275SOL     OW21457   3.896   0.925   4.704 -0.5525  0.4544  0.4240
 3275SOL    HW121458   3.883   1.004   4.651 -2.4858 -0.6708 -0.8220
 3275SOL    HW221459   3.985   0.952   4.725 -0.1394 -0.9065  0.4264
 3276SOL     OW21460   2.690   1.967  17.117 -0.1998  0.2962 -0.2952
 3276SOL    HW121461   2.656   1.887  17.157  1.4410  0.3339  1.1580
 3276SOL    HW221462   2.753   1.939  17.050 -1.0813 -1.7650 -0.2446
 3277SOL     OW21463   3.050   0.976   5.633  0.7387  0.5332  0.7680
 3277SOL    HW121464   3.018   0.910   5.571 -0.6520  1.0105  0.9611
 3277SOL    HW221465   2.997   1.052   5.607 -1.1367 -0.7672  0.7607
 3278SOL     OW21466   4.525   2.262   4.475  0.5599 -0.0300 -0.2595
 3278SOL    HW121467   4.613   2.226   4.475  0.3058 -0.6212 -2.1169
 3278SOL    HW221468   4.481   2.201   4.534 -0.6406  2.1942  1.1489
 3279SOL     OW21469   0.649   2.247  16.683 -0.6561  0.1489  0.7599
 3279SOL    HW121470   0.625   2.334  16.651  1.5577  0.5080  0.0471
 3279SOL    HW221471   0.659   2.263  16.777 -0.8109  1.3201  0.5761
 3280SOL     OW21472   0.214   0.365   4.102  0.6757 -0.5402  0.0587
 3280SOL    HW121473   0.170   0.346   4.185  2.3005 -3.6397  0.2009
 3280SOL    HW221474   0.214   0.461   4.102 -1.9744 -0.5382 -1.3994
 3281SOL     OW21475   2.091   3.277  14.271 -0.1595  0.3195 -0.2577
 3281SOL    HW121476   1.999   3.284  14.249 -0.1926  0.9075  0.0554
 3281SOL    HW221477   2.123   3.246  14.186 -1.3065 -0.0263 -0.5630
 3282SOL     OW21478   3.555   4.157   8.449  0.1184  0.3835  0.1269
 3282SOL    HW121479   3.588   4.228   8.393 -0.4362  0.3249 -0.2764
 3282SOL    HW221480   3.477   4.139   8.396  0.6552 -2.0997  0.2081
 3283SOL     OW21481   4.143   3.127   2.905  0.1025  0.0961  0.4725
 3283SOL    HW121482   4.071   3.126   2.968  1.1923  1.5098  1.7535
 3283SOL    HW221483   4.122   3.215   2.872 -0.1523  0.4387  1.5756
 3284SOL     OW21484   2.396   0.459   5.381  0.7816 -0.5879  0.2429
 3284SOL    HW121485   2.433   0.537   5.423  1.0400 -0.4395 -0.2574
 3284SOL    HW221486   2.325   0.495   5.328  0.6215 -1.2273  0.0205
 3285SOL     OW21487   1.202   0.817   6.714 -0.3498 -0.6274  0.5716
 3285SOL    HW121488   1.168   0.735   6.677 -1.3048  0.7211 -1.5540
 3285SOL    HW221489   1.138   0.823   6.786 -1.3603 -1.0453 -0.2961
 3286SOL     OW21490   0.093   0.372   1.830 -0.1100 -0.3252 -0.4351
 3286SOL    HW121491   0.111   0.460   1.862 -0.1860 -0.0793 -1.0682
 3286SOL    HW221492   0.122   0.322   1.907  0.4725  2.8826  1.4213
 3287SOL     OW21493   4.580   1.715   5.572 -0.4224 -0.9044 -0.0793
 3287SOL    HW121494   4.528   1.775   5.519 -2.4719 -0.7509  2.1100
 3287SOL    HW221495   4.662   1.762   5.586 -0.1917 -0.8763 -1.5351
 3288SOL     OW21496   2.990   3.241  14.937 -0.5995 -0.5155  0.0760
 3288SOL    HW121497   3.029   3.185  14.870  0.1089  1.5878 -1.2765
 3288SOL    HW221498   2.920   3.290  14.894 -0.3606 -1.1130 -1.0036
 3289SOL     OW21499   2.489   1.658  17.438 -0.3578  0.6400 -0.1192
 3289SOL    HW121500   2.484   1.737  17.384  0.0660  1.6042  1.2614
 3289SOL    HW221501   2.575   1.648  17.478  0.0932  2.2485 -0.6514
 3290SOL     OW21502   2.389   0.058   1.947 -0.4954  0.0955  0.2825
 3290SOL    HW121503   2.471   0.107   1.953 -0.4349 -0.1778  1.7972
 3290SOL    HW221504   2.331   0.134   1.952  0.5054  0.8691  0.3232
 3291SOL     OW21505   0.969   2.565   4.578  0.3158 -0.0276  0.3158
 3291SOL    HW121506   0.972   2.470   4.596 -2.8047  0.0155  1.1409
 3291SOL    HW221507   0.876   2.587   4.575  0.2993  0.1592  1.9064
 3292SOL     OW21508   2.194   2.025   2.576  0.7042 -0.0381 -0.1537
 3292SOL    HW121509   2.243   2.041   2.658  0.0152 -1.8811  0.6026
 3292SOL    HW221510   2.264   1.989   2.522  0.7253 -1.6721  0.9685
 3293SOL     OW21511   3.487   1.776  17.557 -0.2398 -0.1477  0.2593
 3293SOL    HW121512   3.460   1.815  17.640 -0.3375 -0.4078  0.3495
 3293SOL    HW221513   3.410   1.785  17.501 -1.7674  0.1206  2.4012
 3294SOL     OW21514   2.664   1.550   3.972  0.1779 -0.3614 -0.2305
 3294SOL    HW121515   2.630   1.503   3.896 -1.7378  0.0036  0.4080
 3294SOL    HW221516   2.623   1.635   3.961 -0.5270 -0.6720  0.0356
 3295SOL     OW21517   1.950   2.905  15.526 -0.1448  0.5134  0.6892
 3295SOL    HW121518   2.033   2.940  15.495  0.6303 -3.3011 -1.5566
 3295SOL    HW221519   1.971   2.815  15.552  1.8001  1.5117  2.5414
 3296SOL     OW21520   3.040   4.365   6.671  0.3444 -0.5340  0.1803
 3296SOL    HW121521   3.017   4.445   6.624  1.5585 -0.0122  0.4734
 3296SOL    HW221522   2.962   4.366   6.728  0.8684  1.0895  0.8876
 3297SOL     OW21523   1.136   1.750  13.853  0.2749 -0.0917  0.4281
 3297SOL    HW121524   1.143   1.676  13.914  1.2829 -0.0594  0.3667
 3297SOL    HW221525   1.189   1.812  13.904 -1.9463 -0.0020  2.6249
 3298SOL     OW21526   4.349   3.565  12.952  0.5676 -0.0418  0.6487
 3298SOL    HW121527   4.443   3.568  12.969  0.6129  2.3621 -0.0602
 3298SOL    HW221528   4.316   3.583  13.040 -1.7555 -1.3375  0.0520
 3299SOL     OW21529   2.962   4.390  10.294 -0.9356 -0.1038 -0.2342
 3299SOL    HW121530   3.040   4.344  10.265 -1.8322 -2.5213  1.1730
 3299SOL    HW221531   2.991   4.414  10.382  1.7347  0.0800 -1.1548
 3300SOL     OW21532   0.559   1.522   2.880 -0.0654  0.4197 -0.1675
 3300SOL    HW121533   0.519   1.553   2.961  2.1093  2.7645  0.0161
 3300SOL    HW221534   0.601   1.442   2.912  0.8136  0.6802 -0.6586
 3301SOL     OW21535   2.002   4.321   5.204  0.3838 -0.5732  0.5491
 3301SOL    HW121536   2.006   4.416   5.203 -2.5730 -0.4753 -1.3316
 3301SOL    HW221537   2.043   4.304   5.119 -0.6520 -1.4825  0.2267
 3302SOL     OW21538   2.327   2.619  12.480  0.0224 -0.6044 -0.1969
 3302SOL    HW121539   2.378   2.539  12.491  0.8783 -0.1544 -0.9376
 3302SOL    HW221540   2.330   2.643  12.573  0.4151 -0.6202 -0.2061
 3303SOL     OW21541   4.020   3.933   1.414  0.1812  0.1978  0.6612
 3303SOL    HW121542   4.042   4.003   1.353  0.1441  2.7709  3.6198
 3303SOL    HW221543   4.046   3.976   1.496 -1.1027 -0.5528  1.4659
 3304SOL     OW21544   2.917   1.403  17.399  0.3809 -0.2877 -0.3034
 3304SOL    HW121545   2.933   1.466  17.328  2.5084  0.9461  1.2799
 3304SOL    HW221546   2.983   1.340  17.371  0.6398 -0.0132 -0.3109
 3305SOL     OW21547   1.743   1.593   5.782  0.2098 -0.4371 -0.3787
 3305SOL    HW121548   1.743   1.505   5.744  1.4576 -0.9049  0.7311
 3305SOL    HW221549   1.833   1.621   5.765  0.1914  0.0263  0.2963
 3306SOL     OW21550   2.805   1.057   6.224  0.2711 -0.4234  0.1304
 3306SOL    HW121551   2.736   1.021   6.280 -1.0100 -1.0354 -1.7981
 3306SOL    HW221552   2.869   0.988   6.238  0.7672 -0.4390 -2.1283
 3307SOL     OW21553   2.855   2.968  17.188  0.0227 -0.3722  1.2469
 3307SOL    HW121554   2.896   3.053  17.173 -2.5121  0.5020 -0.8332
 3307SOL    HW221555   2.847   2.938  17.097  0.8421  1.8964  0.4455
 3308SOL     OW21556   0.176   2.378   7.893  0.0250  0.0133  0.2148
 3308SOL    HW121557   0.087   2.412   7.901 -0.2128 -0.2153 -1.3733
 3308SOL    HW221558   0.176   2.355   7.800  2.4751 -4.3793  1.3050
 3309SOL     OW21559   2.932   2.690   2.817 -0.3299 -0.5140 -0.0246
 3309SOL    HW121560   2.861   2.677   2.755 -1.0467  0.2157  0.6452
 3309SOL    HW221561   2.895   2.658   2.900  0.2817  1.3957  0.9765
 3310SOL     OW21562   0.070   1.638   7.222  0.0159 -0.7855  0.1819
 3310SOL    HW121563   0.101   1.625   7.312 -0.0874 -0.8446  0.2092
 3310SOL    HW221564   0.064   1.545   7.201  0.2797 -0.4902 -1.1791
 3311SOL     OW21565   1.581   2.711  13.261 -0.4656  0.0067 -0.1569
 3311SOL    HW121566   1.567   2.804  13.278 -0.6263  0.3983 -2.3276
 3311SOL    HW221567   1.656   2.715  13.202  1.4218 -3.9175  1.9835
 3312SOL     OW21568   0.783   0.567  10.078  0.0785 -0.2314  0.0223
 3312SOL    HW121569   0.756   0.476  10.091  1.9497 -0.6906  0.6339
 3312SOL    HW221570   0.824   0.581  10.163  0.7121 -1.6561 -0.0465
 3313SOL     OW21571   2.677   2.948  12.102  0.3509 -0.0435  0.1355
 3313SOL    HW121572   2.599   2.948  12.046  1.0279  0.9780 -0.7945
 3313SOL    HW221573   2.723   2.869  12.073  2.5383  1.7325 -1.1479
 3314SOL     OW21574   2.413   4.164  17.427 -0.3599  0.0606 -0.0143
 3314SOL    HW121575   2.338   4.193  17.479 -1.3931  1.4083 -2.2599
 3314SOL    HW221576   2.373   4.090  17.382  0.9030  1.8924 -4.1698
 3315SOL     OW21577   1.207   1.435   1.452 -0.0960 -0.3084 -0.4452
 3315SOL    HW121578   1.222   1.446   1.358  3.6953  2.1282  0.4311
 3315SOL    HW221579   1.224   1.341   1.458 -1.0642 -0.4527  0.0823
 3316SOL     OW21580   2.046   1.012   5.407 -0.8252 -0.8206  0.3083
 3316SOL    HW121581   1.955   1.041   5.395  0.4998  2.9021 -0.6830
 3316SOL    HW221582   2.070   1.030   5.316  0.2191 -1.6683  0.4153
 3317SOL     OW21583   2.172   1.837  12.352  0.2936 -0.0757 -0.4276
 3317SOL    HW121584   2.267   1.835  12.347  0.3751 -3.0748  2.5596
 3317SOL    HW221585   2.152   1.788  12.272  1.6664 -1.5639  0.1496
 3318SOL     OW21586   1.915   2.576  12.138  0.0511  0.4340  0.2536
 3318SOL    HW121587   1.960   2.543  12.216 -0.7251 -0.0911  0.4807
 3318SOL    HW221588   1.950   2.516  12.072  1.2001  0.9994  0.3526
 3319SOL     OW21589   2.164   4.725   7.022 -0.6696  0.5243  0.4423
 3319SOL    HW121590   2.116   0.038   7.092 -0.1417  1.8503 -0.0488
 3319SOL    HW221591   2.242   4.707   7.074 -1.5086  0.7964  1.7981
 3320SOL     OW21592   3.610   3.855   8.038  0.0025 -0.0555  0.3513
 3320SOL    HW121593   3.553   3.851   7.961  1.4957  2.3878 -0.9042
 3320SOL    HW221594   3.575   3.787   8.095  0.6182 -1.4345 -0.9066
 3321SOL     OW21595   1.333   3.723   9.271  0.9706  0.5067  0.4914
 3321SOL    HW121596   1.384   3.768   9.204  1.9157  0.2264  1.0245
 3321SOL    HW221597   1.257   3.781   9.268  0.1294 -0.6036  0.1525
 3322SOL     OW21598   1.682   0.436   0.890  0.1799 -0.0941  0.3919
 3322SOL    HW121599   1.622   0.472   0.825  1.4784 -0.1595 -0.8378
 3322SOL    HW221600   1.696   0.516   0.939 -0.8320 -0.4806  1.3275
 3323SOL     OW21601   1.994   0.456   8.381  0.1736 -0.3027  0.4458
 3323SOL    HW121602   2.035   0.479   8.464 -1.2962 -1.1930  1.4358
 3323SOL    HW221603   2.052   0.510   8.329 -1.9291  2.6289  1.1352
 3324SOL     OW21604   1.943   2.364   7.120  0.1787  0.2538 -0.3302
 3324SOL    HW121605   2.026   2.408   7.137  0.7495 -1.0469  0.2260
 3324SOL    HW221606   1.965   2.276   7.151  1.5737  0.4566 -0.7661
 3325SOL     OW21607   3.921   4.709  15.404  0.2240 -0.9935  0.0518
 3325SOL    HW121608   3.989   4.653  15.367 -1.4099 -3.4860  0.8047
 3325SOL    HW221609   3.950   0.066  15.383  0.6949 -0.9124  1.0031
 3326SOL     OW21610   2.386   1.005   3.516 -0.6016  0.1146 -0.0187
 3326SOL    HW121611   2.356   1.083   3.562  0.5741  1.0015 -0.7642
 3326SOL    HW221612   2.338   1.022   3.435 -1.6434  2.0677  1.0097
 3327SOL     OW21613   4.326   1.778   0.735  0.3016 -0.2522  0.3496
 3327SOL    HW121614   4.378   1.700   0.751  1.4806  1.0165  2.6774
 3327SOL    HW221615   4.242   1.742   0.763 -0.0120  0.8081  0.7789
 3328SOL     OW21616   4.234   0.267   6.629  0.1401 -0.0487 -0.1858
 3328SOL    HW121617   4.259   0.355   6.655 -0.9832  0.6343 -1.3977
 3328SOL    HW221618   4.195   0.242   6.712  0.8265 -0.4348  0.0155
 3329SOL     OW21619   0.801   4.025   9.090  0.1413 -0.4838  0.2688
 3329SOL    HW121620   0.807   4.065   9.003 -2.8431 -0.0740  0.2584
 3329SOL    HW221621   0.805   3.930   9.078 -0.5516 -0.6125  1.0315
 3330SOL     OW21622   1.745   0.987  12.036  0.0462 -0.8891 -0.5109
 3330SOL    HW121623   1.726   0.900  12.001 -0.5193 -0.2708 -1.7456
 3330SOL    HW221624   1.839   0.980  12.046  0.3042  0.6973 -1.7983
 3331SOL     OW21625   3.417   1.242   5.013 -0.2982 -0.2165  0.5679
 3331SOL    HW121626   3.400   1.220   5.105 -0.8250  3.5618  1.3784
 3331SOL    HW221627   3.338   1.283   4.980  0.4319  0.6681 -0.0908
 3332SOL     OW21628   1.108   2.909   8.103  0.2645 -0.2421 -0.3466
 3332SOL    HW121629   1.021   2.881   8.077 -0.3785  0.0672  1.4607
 3332SOL    HW221630   1.093   2.949   8.189 -3.0237 -2.2311  0.0121
 3333SOL     OW21631   0.924   2.867   8.737 -0.0643 -0.3868  0.0987
 3333SOL    HW121632   0.951   2.939   8.680  1.2532 -0.9224  0.0540
 3333SOL    HW221633   0.892   2.899   8.822  0.7436 -0.2561  0.3557
 3334SOL     OW21634   0.698   4.137  16.736  0.3027 -1.2497  0.3324
 3334SOL    HW121635   0.624   4.178  16.690  0.9573  0.0929  0.4824
 3334SOL    HW221636   0.675   4.171  16.822  1.8664 -0.3377  0.3923
 3335SOL     OW21637   2.537   4.690  12.913 -0.0597  0.3303 -0.2263
 3335SOL    HW121638   2.454   4.645  12.929 -0.6318  1.2611 -0.6097
 3335SOL    HW221639   2.561   4.656  12.826  1.9894  0.4219  0.3061
 3336SOL     OW21640   4.689   2.110   4.159  0.4154  0.1612 -0.0924
 3336SOL    HW121641   0.021   2.128   4.228 -0.6020  0.4528  0.7920
 3336SOL    HW221642   0.012   2.108   4.081  2.6478 -1.7603  1.5513
 3337SOL     OW21643   0.561   4.230  14.385  0.0739 -0.0604 -0.1051
 3337SOL    HW121644   0.519   4.292  14.444  0.2532 -0.0410  0.0043
 3337SOL    HW221645   0.483   4.196  14.342 -0.4425 -0.3556  1.0807
 3338SOL     OW21646   2.364   3.222  12.542 -0.1321 -0.0782  0.2384
 3338SOL    HW121647   2.318   3.144  12.511  2.3006 -0.8646 -1.4264
 3338SOL    HW221648   2.332   3.232  12.631 -1.4147 -1.1857 -0.1049
 3339SOL     OW21649   1.251   4.423   6.869  0.1299 -0.6469 -0.1923
 3339SOL    HW121650   1.315   4.443   6.938 -1.2377  3.5932 -0.1286
 3339SOL    HW221651   1.197   4.370   6.927  1.3127 -0.2085  1.3232
 3340SOL     OW21652   0.613   3.872  11.019 -0.1691  0.6568  0.3320
 3340SOL    HW121653   0.679   3.878  10.950 -1.6575  0.4512 -1.1378
 3340SOL    HW221654   0.569   3.791  10.993 -0.1840  0.2978  1.5207
 3341SOL     OW21655   1.659   3.682  17.118  0.1615 -0.3749  0.4312
 3341SOL    HW121656   1.577   3.634  17.128  0.5842 -1.4482 -1.1447
 3341SOL    HW221657   1.695   3.656  17.033  0.6729 -3.0764  1.4719
 3342SOL     OW21658   1.245   3.921   7.729 -0.1541 -0.4322 -0.1375
 3342SOL    HW121659   1.301   3.864   7.782 -1.3212 -2.1676 -0.7584
 3342SOL    HW221660   1.180   3.854   7.710  0.7135 -1.0578 -0.9102
 3343SOL     OW21661   0.047   0.895   9.405  0.4655 -0.2618 -0.5958
 3343SOL    HW121662   0.130   0.904   9.358 -0.0379 -3.2428 -2.0395
 3343SOL    HW221663   4.731   0.861   9.330 -0.1505 -2.1832  0.6802
 3344SOL     OW21664   1.647   2.000  14.927 -0.3623  0.3749 -0.0209
 3344SOL    HW121665   1.701   2.064  14.881  0.7807 -1.3779 -1.1133
 3344SOL    HW221666   1.692   1.916  14.920 -0.5989  0.2753 -0.3814
 3345SOL     OW21667   4.590   0.692  12.660 -0.1431  0.8827 -0.6120
 3345SOL    HW121668   4.542   0.743  12.726 -0.6289  1.5566 -1.4939
 3345SOL    HW221669   4.530   0.620  12.643 -1.8053  1.8926  0.9261
 3346SOL     OW21670   0.383   1.819   8.009 -0.4788  0.1381  0.4883
 3346SOL    HW121671   0.358   1.864   8.090  0.1327 -1.4752  1.5682
 3346SOL    HW221672   0.459   1.769   8.039  0.3798  1.0997 -0.0424
 3347SOL     OW21673   3.261   4.520   4.100  0.5713 -0.3698  0.0008
 3347SOL    HW121674   3.302   4.548   4.018 -0.9047 -2.8008 -1.5755
 3347SOL    HW221675   3.244   4.597   4.154  0.7337 -0.9044  0.8227
 3348SOL     OW21676   1.927   2.902   3.575 -0.3389 -0.4624  0.1639
 3348SOL    HW121677   2.018   2.871   3.579 -0.7007 -1.5125  0.0663
 3348SOL    HW221678   1.882   2.820   3.557 -0.9630  0.1897 -1.2873
 3349SOL     OW21679   2.014   1.804   5.959  0.0967  0.0372  0.3741
 3349SOL    HW121680   2.016   1.712   5.987 -2.5180 -0.1473 -0.0906
 3349SOL    HW221681   2.107   1.823   5.975  0.0750  0.4315  0.0229
 3350SOL     OW21682   3.309   1.546   4.712 -0.3069 -0.1550 -0.1256
 3350SOL    HW121683   3.347   1.529   4.799  2.9138  0.0616 -1.4724
 3350SOL    HW221684   3.343   1.475   4.658 -1.1562  0.1551 -1.0535
 3351SOL     OW21685   0.240   2.250   4.233 -1.1256  0.4710  0.3835
 3351SOL    HW121686   0.253   2.303   4.155 -0.7540  0.6644  0.5803
 3351SOL    HW221687   0.215   2.313   4.301  1.7493  0.2867  1.6011
 3352SOL     OW21688   3.470   2.080   0.260 -0.4119  0.0977  0.6688
 3352SOL    HW121689   3.433   2.155   0.305  0.9457 -0.0390  2.0138
 3352SOL    HW221690   3.501   2.015   0.323  0.9775 -0.1926 -0.2997
 3353SOL     OW21691   1.252   2.831   3.602  0.6381  0.2791 -0.1960
 3353SOL    HW121692   1.290   2.755   3.646  1.0052  0.4901 -0.1491
 3353SOL    HW221693   1.266   2.907   3.658  0.4100  0.3111 -0.1841
 3354SOL     OW21694   3.717   2.289   8.218  0.6732  0.2642  0.0443
 3354SOL    HW121695   3.706   2.382   8.237  0.4918  0.4857 -1.1576
 3354SOL    HW221696   3.787   2.258   8.276 -1.3501 -2.8305  0.8576
 3355SOL     OW21697   2.001   0.965   9.168 -0.0417  0.2310 -0.0235
 3355SOL    HW121698   2.044   0.898   9.116 -1.1644  1.5556 -2.6270
 3355SOL    HW221699   2.077   1.015   9.200  0.7955  1.1140 -3.4057
 3356SOL     OW21700   0.540   2.788  16.563 -0.3556  0.2738 -0.7293
 3356SOL    HW121701   0.458   2.826  16.596  0.6723  2.1576 -0.3543
 3356SOL    HW221702   0.592   2.775  16.642 -1.0583  1.9443 -0.0038
 3357SOL     OW21703   1.045   3.162   5.747 -0.7103 -0.2194  0.3781
 3357SOL    HW121704   0.959   3.119   5.745 -0.8910  0.1497  0.0374
 3357SOL    HW221705   1.026   3.251   5.715  1.4098 -0.0069 -0.2783
 3358SOL     OW21706   4.669   0.308   3.354 -0.6848 -0.2719 -0.3520
 3358SOL    HW121707   4.640   0.237   3.298 -0.0247 -0.5162 -0.3759
 3358SOL    HW221708   0.029   0.283   3.360 -1.1387 -1.7516  0.4474
 3359SOL     OW21709   1.436   1.421   4.555  0.3054 -0.1785  0.1476
 3359SOL    HW121710   1.390   1.406   4.472 -1.0359  0.2075  0.8321
 3359SOL    HW221711   1.363   1.458   4.604 -0.0945 -0.7209 -0.0385
 3360SOL     OW21712   0.874   3.845   4.658  0.2792 -0.6660 -0.0743
 3360SOL    HW121713   0.968   3.850   4.645  0.1693 -0.3507 -0.7874
 3360SOL    HW221714   0.860   3.892   4.740  1.3033  0.0863 -0.3369
 3361SOL     OW21715   2.362   0.852  17.293  0.2570  0.0749  0.1711
 3361SOL    HW121716   2.377   0.912  17.220  1.3412  1.2310  1.3518
 3361SOL    HW221717   2.429   0.881  17.355  1.9971  0.3881 -1.8627
 3362SOL     OW21718   1.062   2.457   2.342 -0.1642  0.3305 -0.1095
 3362SOL    HW121719   1.098   2.380   2.298  0.0424 -0.5363  1.5904
 3362SOL    HW221720   1.040   2.416   2.426 -0.4098  2.9520  1.1018
 3363SOL     OW21721   1.744   4.311   0.506 -0.4671 -0.2715  0.0526
 3363SOL    HW121722   1.666   4.276   0.463 -0.7016 -0.5775  0.7185
 3363SOL    HW221723   1.734   4.282   0.597  0.5796  0.7065  0.4754
 3364SOL     OW21724   4.668   3.587   4.250 -0.5564 -0.0440  0.7198
 3364SOL    HW121725   0.025   3.555   4.235 -1.1855 -1.2901 -0.3761
 3364SOL    HW221726   4.683   3.567   4.342  0.3738  1.1945  0.8424
 3365SOL     OW21727   2.870   3.220   8.528 -0.8112 -0.7383 -0.0085
 3365SOL    HW121728   2.792   3.247   8.478 -0.3925  1.2332  0.4029
 3365SOL    HW221729   2.930   3.281   8.485 -0.9834 -0.5264  0.0516
 3366SOL     OW21730   0.273   3.793   2.906  0.0682 -0.3877  0.3127
 3366SOL    HW121731   0.300   3.731   2.838  0.6878  0.4507 -0.1949
 3366SOL    HW221732   0.349   3.851   2.905  1.0984 -1.7763 -1.1136
 3367SOL     OW21733   2.725   3.045   6.509  0.6912  0.1183 -0.6725
 3367SOL    HW121734   2.724   3.096   6.591 -2.1788  1.1438 -1.3351
 3367SOL    HW221735   2.814   3.013   6.502  0.3633 -1.2414  1.2484
 3368SOL     OW21736   2.066   3.692   5.092 -0.0874 -0.0647  0.2771
 3368SOL    HW121737   2.051   3.608   5.048  1.5758  0.9171 -2.1615
 3368SOL    HW221738   2.138   3.668   5.150  0.3730 -3.5619 -1.7541
 3369SOL     OW21739   2.280   3.344  15.229 -0.7462  0.0271  0.1527
 3369SOL    HW121740   2.330   3.424  15.248 -1.0810  0.3801 -0.4305
 3369SOL    HW221741   2.290   3.329  15.135  1.5627  4.0318 -0.2661
 3370SOL     OW21742   1.543   0.587   5.947  0.1252  0.2449 -0.3699
 3370SOL    HW121743   1.538   0.499   5.984  0.6362  0.9966  1.5228
 3370SOL    HW221744   1.608   0.627   6.004 -0.6205 -0.3976  0.9376
 3371SOL     OW21745   1.887   3.412   7.175 -0.3107 -0.4823 -0.4448
 3371SOL    HW121746   1.848   3.345   7.231 -0.6028  0.4555  0.4883
 3371SOL    HW221747   1.931   3.466   7.242 -1.0159  0.2095 -0.5346
 3372SOL     OW21748   2.628   0.691   5.843 -0.1072 -0.0142  0.0558
 3372SOL    HW121749   2.701   0.745   5.875  0.0808  0.4839 -1.2105
 3372SOL    HW221750   2.568   0.753   5.803  1.4014  2.1159  1.0670
 3373SOL     OW21751   2.680   0.786  11.317 -0.3339  0.1351  0.0197
 3373SOL    HW121752   2.683   0.852  11.387  1.1527  2.0740 -1.8620
 3373SOL    HW221753   2.765   0.794  11.274 -1.3184 -0.0284 -1.9891
 3374SOL     OW21754   4.562   0.622   4.313 -0.6307  0.2124 -0.1409
 3374SOL    HW121755   4.477   0.597   4.350 -0.4686 -0.5958 -0.3092
 3374SOL    HW221756   4.606   0.537   4.323  1.8531  1.0995 -3.4058
 3375SOL     OW21757   3.798   2.113  12.873  0.1102 -0.2241  0.5980
 3375SOL    HW121758   3.863   2.046  12.853 -1.5437 -2.0975  1.4687
 3375SOL    HW221759   3.730   2.046  12.880  0.6498 -0.8131  0.1392
 3376SOL     OW21760   1.861   1.459  12.615 -0.1287  0.2924 -0.0352
 3376SOL    HW121761   1.844   1.522  12.685 -1.2110  0.4480 -0.4262
 3376SOL    HW221762   1.956   1.454  12.616 -0.1143  0.4232 -0.7910
 3377SOL     OW21763   1.233   4.015  16.625  0.2046  0.2412  0.0433
 3377SOL    HW121764   1.297   4.021  16.696 -1.2587  0.1465  1.3673
 3377SOL    HW221765   1.164   3.959  16.660  0.7559 -0.5701 -0.1811
 3378SOL     OW21766   3.946   0.211   1.892  0.0389 -0.9074  0.1370
 3378SOL    HW121767   3.896   0.233   1.970  1.7588  1.5911  0.5675
 3378SOL    HW221768   4.027   0.256   1.918 -1.8164  1.9543  0.9535
 3379SOL     OW21769   2.272   4.708   0.939  0.5370  0.0402 -0.1962
 3379SOL    HW121770   2.359   0.001   0.970 -0.7948  1.9273  2.0001
 3379SOL    HW221771   2.220   0.020   1.006  0.7568  0.6979 -0.4632
 3380SOL     OW21772   2.904   0.029   7.260  0.4853  0.0367  0.3905
 3380SOL    HW121773   2.925   4.681   7.308  0.8140  0.3200  0.7253
 3380SOL    HW221774   2.959   0.018   7.183 -2.2211 -3.5718 -1.0043
 3381SOL     OW21775   3.470   1.763   4.085 -0.5671 -0.3452  0.0246
 3381SOL    HW121776   3.509   1.758   3.998 -4.1205  0.3879 -1.6127
 3381SOL    HW221777   3.434   1.676   4.097 -0.7365 -0.4626 -1.4099
 3382SOL     OW21778   4.013   2.965   8.991  0.0322  0.2824  0.4393
 3382SOL    HW121779   3.957   2.937   8.919  1.1578 -0.0410 -0.3217
 3382SOL    HW221780   4.094   2.914   8.991 -0.7595 -0.9767  3.2569
 3383SOL     OW21781   3.965   4.288   8.321 -0.5103  0.6934  0.0657
 3383SOL    HW121782   3.911   4.295   8.242  2.3469  1.3650 -1.8023
 3383SOL    HW221783   3.971   4.194   8.336  1.1824  0.5644 -1.4525
 3384SOL     OW21784   0.275   3.119   5.192 -0.1154 -0.5619  0.3668
 3384SOL    HW121785   0.249   3.154   5.107 -1.2940 -1.0686  0.5206
 3384SOL    HW221786   0.370   3.107   5.197  0.0822  0.7307 -0.4523
 3385SOL     OW21787   4.223   1.723   8.926 -0.5525  0.2160  0.3821
 3385SOL    HW121788   4.257   1.640   8.962  1.5399  0.6980 -0.4460
 3385SOL    HW221789   4.183   1.757   9.006 -1.2113 -1.4133  0.7620
 3386SOL     OW21790   4.621   0.167   9.932 -0.2314 -0.6296  0.3565
 3386SOL    HW121791   4.710   0.197   9.921 -0.9523  1.1809 -0.4270
 3386SOL    HW221792   4.631   0.071   9.936 -3.4967 -0.9535  1.5290
 3387SOL     OW21793   3.866   1.737  15.409  0.4111  0.0368 -0.1461
 3387SOL    HW121794   3.800   1.807  15.415 -0.0334 -0.3482 -0.5671
 3387SOL    HW221795   3.828   1.666  15.460  0.1793  0.3224  0.0835
 3388SOL     OW21796   2.669   1.739  16.856 -0.4813  0.4060 -0.6436
 3388SOL    HW121797   2.682   1.792  16.777 -0.8419 -1.8393 -2.2113
 3388SOL    HW221798   2.746   1.682  16.859  0.5898  1.9404  1.1525
 3389SOL     OW21799   0.874   4.016   1.273  0.2725  0.1749 -0.2133
 3389SOL    HW121800   0.876   3.972   1.358 -3.3983  2.6048  1.1662
 3389SOL    HW221801   0.786   3.987   1.247 -0.0426 -1.2634  2.4513
 3390SOL     OW21802   4.692   3.888   5.420 -0.3897 -0.1973  0.3148
 3390SOL    HW121803   4.606   3.923   5.445 -1.1929 -0.7780 -1.6153
 3390SOL    HW221804   4.655   3.807   5.384  0.3017  0.7729 -2.5860
 3391SOL     OW21805   3.495   1.855   9.784 -0.5685 -0.0835 -0.2953
 3391SOL    HW121806   3.403   1.846   9.809 -0.2813 -0.6889  0.5539
 3391SOL    HW221807   3.504   1.939   9.830 -1.0504 -1.0966  1.6350
 3392SOL     OW21808   3.916   3.653   2.769 -0.3271  0.0287 -0.4548
 3392SOL    HW121809   3.986   3.718   2.769  0.2994 -0.6390  0.4788
 3392SOL    HW221810   3.895   3.646   2.862  2.0069 -2.4312 -0.0845
 3393SOL     OW21811   3.462   4.729   5.924 -0.1214 -0.5154 -0.1083
 3393SOL    HW121812   3.523   4.681   5.980 -1.4206 -1.4163  0.5402
 3393SOL    HW221813   3.519   0.066   5.891 -0.0904  0.1542  1.3252
 3394SOL     OW21814   1.292   3.514   7.570  0.1514 -0.2552 -0.1627
 3394SOL    HW121815   1.266   3.485   7.657 -0.1099  1.1117  0.2179
 3394SOL    HW221816   1.362   3.450   7.557  0.2406 -0.0700 -0.6169
 3395SOL     OW21817   2.769   0.745  12.999 -0.1889  0.2022  0.2629
 3395SOL    HW121818   2.831   0.687  12.955 -1.2814  0.2637 -1.3329
 3395SOL    HW221819   2.803   0.831  12.973 -0.2130  0.6682  1.7184
 3396SOL     OW21820   3.875   4.256  10.488 -0.0276 -0.1069  0.6949
 3396SOL    HW121821   3.895   4.246  10.395  0.2197  0.1416  0.7187
 3396SOL    HW221822   3.797   4.310  10.493  0.0608  0.0295  0.6007
 3397SOL     OW21823   3.387   0.813   7.979 -0.3354 -0.0235 -0.2133
 3397SOL    HW121824   3.402   0.869   8.056 -0.3795  0.7066 -0.7329
 3397SOL    HW221825   3.454   0.853   7.924 -1.3774  0.8663 -0.8386
 3398SOL     OW21826   1.488   2.636   2.451  0.8861  0.5767 -0.0010
 3398SOL    HW121827   1.415   2.692   2.423 -0.0338 -0.9945 -0.7779
 3398SOL    HW221828   1.530   2.640   2.365 -0.3323 -3.4681 -0.8164
 3399SOL     OW21829   3.140   3.928   3.283 -0.2532  0.5759 -0.2700
 3399SOL    HW121830   3.111   3.874   3.210 -1.2464 -1.1651  1.4204
 3399SOL    HW221831   3.234   3.915   3.270 -0.1029 -0.0861  1.4968
 3400SOL     OW21832   1.951   3.768   4.022 -0.0080  0.4278 -0.2581
 3400SOL    HW121833   1.997   3.703   3.968 -2.4189 -0.5924 -1.0532
 3400SOL    HW221834   2.001   3.755   4.102 -2.1358 -1.7478  0.6804
 3401SOL     OW21835   2.253   2.141  11.713  0.1256 -0.4615  0.2464
 3401SOL    HW121836   2.175   2.191  11.736  1.6340  2.2773 -0.6218
 3401SOL    HW221837   2.221   2.087  11.641  1.6144  2.3910 -2.5309
 3402SOL     OW21838   4.676   4.282  10.147 -0.0366  0.5938 -0.0454
 3402SOL    HW121839   0.036   4.301  10.131  0.8736 -0.5901  3.8398
 3402SOL    HW221840   4.670   4.308  10.239 -1.6911 -1.5419  0.4487
 3403SOL     OW21841   2.083   0.547   8.116  0.2940  0.5136  0.6191
 3403SOL    HW121842   2.159   0.533   8.060  0.4391 -1.8929  1.4151
 3403SOL    HW221843   2.007   0.550   8.058  1.4195 -1.5578 -0.9589
 3404SOL     OW21844   1.834   0.096   4.893  0.6459  0.3029  0.4356
 3404SOL    HW121845   1.804   0.084   4.802  0.0224  0.3899  0.6274
 3404SOL    HW221846   1.753   0.116   4.939  0.2778  0.9960 -0.5070
 3405SOL     OW21847   3.515   1.137   7.685  0.2463  0.2841  0.2138
 3405SOL    HW121848   3.502   1.165   7.775  1.7304 -2.3074  1.2249
 3405SOL    HW221849   3.428   1.148   7.646 -0.0809 -0.4569  0.7495
 3406SOL     OW21850   2.659   0.355   4.039  0.7464  0.2232  0.4569
 3406SOL    HW121851   2.749   0.322   4.036  0.3028 -0.9257  0.0614
 3406SOL    HW221852   2.668   0.437   3.990 -1.5774  0.9251  1.2220
 3407SOL     OW21853   4.393   2.820   5.788  0.2273 -0.4014 -0.3690
 3407SOL    HW121854   4.404   2.912   5.761  0.8246 -0.2783  0.2954
 3407SOL    HW221855   4.473   2.788   5.746  0.6459 -0.0714  0.1731
 3408SOL     OW21856   1.421   1.743   5.190 -0.3077 -0.1513  0.5501
 3408SOL    HW121857   1.376   1.813   5.237  3.4691  1.3385  1.9721
 3408SOL    HW221858   1.374   1.664   5.218  0.3925 -1.9717 -3.4171
 3409SOL     OW21859   0.971   1.592   1.792 -0.2909 -0.8161 -0.1537
 3409SOL    HW121860   0.905   1.631   1.849 -1.6069 -1.6477 -1.1034
 3409SOL    HW221861   0.932   1.617   1.709 -1.6188 -1.4817  0.2801
 3410SOL     OW21862   4.694   4.390   4.739  0.5620 -0.1440  0.4436
 3410SOL    HW121863   4.629   4.340   4.789 -0.4169  1.3406  0.6572
 3410SOL    HW221864   4.728   4.326   4.676 -0.2410 -0.3763  0.2377
 3411SOL     OW21865   0.480   1.435   5.373  0.5629  0.5440  0.2256
 3411SOL    HW121866   0.538   1.451   5.447  0.9418 -0.4368  0.1259
 3411SOL    HW221867   0.526   1.472   5.297 -0.0934 -1.7162 -1.2813
 3412SOL     OW21868   2.011   4.590   3.917 -0.1752  0.0561 -0.0635
 3412SOL    HW121869   1.962   4.513   3.886 -0.4900  0.0015  0.5690
 3412SOL    HW221870   1.971   4.667   3.879 -1.0952 -1.8804 -2.9697
 3413SOL     OW21871   4.123   2.051   2.204  0.3053 -0.2826 -0.0747
 3413SOL    HW121872   4.079   2.075   2.286  0.8427  1.7164 -0.3801
 3413SOL    HW221873   4.190   1.992   2.238  0.3937 -0.9900 -1.4893
 3414SOL     OW21874   3.145   0.162  11.701  0.5026 -0.7866  0.7233
 3414SOL    HW121875   3.102   0.185  11.619 -3.7565 -0.2025  3.1092
 3414SOL    HW221876   3.233   0.138  11.671 -1.3012 -2.6506 -3.0441
 3415SOL     OW21877   3.772   0.180  12.410 -0.3319  0.2433 -0.1951
 3415SOL    HW121878   3.764   0.101  12.357 -1.5904 -0.2926  0.7764
 3415SOL    HW221879   3.700   0.234  12.378  0.4008  1.0468 -0.4819
 3416SOL     OW21880   2.942   1.315   9.457 -0.6108  0.0823 -0.2724
 3416SOL    HW121881   2.987   1.317   9.373  1.5902  1.5630  0.9572
 3416SOL    HW221882   2.860   1.277   9.424 -2.2781  2.9539  0.6250
 3417SOL     OW21883   3.614   2.454   3.566  0.8835 -0.5028 -0.1420
 3417SOL    HW121884   3.627   2.360   3.582  2.5145  0.1977  2.7116
 3417SOL    HW221885   3.677   2.483   3.632  1.3384  1.3262 -1.4100
 3418SOL     OW21886   0.833   0.278   7.168 -0.0963  0.4943 -0.2204
 3418SOL    HW121887   0.799   0.358   7.128 -1.4561  0.7725  1.5066
 3418SOL    HW221888   0.817   0.307   7.257  0.5512  1.6669 -0.4811
 3419SOL     OW21889   1.626   2.114   5.690  0.3038  0.2259  0.1820
 3419SOL    HW121890   1.557   2.048   5.676 -0.4132  0.8822  0.6053
 3419SOL    HW221891   1.690   2.058   5.733 -0.0447 -0.6167 -0.3776
 3420SOL     OW21892   1.706   3.798   1.979 -0.2773  0.2328 -0.0431
 3420SOL    HW121893   1.787   3.815   1.932  0.4804  3.6314  2.5411
 3420SOL    HW221894   1.641   3.830   1.916  1.2522 -0.7313 -2.1100
 3421SOL     OW21895   1.461   2.704   6.790 -0.4396 -0.2687  0.1166
 3421SOL    HW121896   1.375   2.746   6.788  0.9135  2.4930 -0.3828
 3421SOL    HW221897   1.437   2.629   6.736  2.1482  0.1378 -1.6035
 3422SOL     OW21898   2.964   1.324  11.431 -1.1549  0.2629 -0.0739
 3422SOL    HW121899   2.956   1.393  11.497 -0.1427  1.8456 -1.5882
 3422SOL    HW221900   2.958   1.383  11.355 -0.1121  2.2699  1.4051
 3423SOL     OW21901   2.651   1.544   9.418  0.6600 -0.2959 -0.0677
 3423SOL    HW121902   2.697   1.588   9.347  1.0230 -0.6679 -0.0657
 3423SOL    HW221903   2.687   1.597   9.488  0.3886 -0.2433  0.0293
 3424SOL     OW21904   1.935   2.371   6.598 -0.7333  0.3336 -0.4319
 3424SOL    HW121905   1.980   2.288   6.616  0.6414  0.7723 -1.8107
 3424SOL    HW221906   1.928   2.408   6.686  1.2358  0.7215 -0.4430
 3425SOL     OW21907   4.219   3.618   4.818 -0.3279  0.2552  0.2694
 3425SOL    HW121908   4.235   3.588   4.907 -0.7713 -1.1283 -0.1227
 3425SOL    HW221909   4.172   3.700   4.835 -0.3206  0.0258  1.3879
 3426SOL     OW21910   0.062   1.164   1.315  0.1568  0.2463 -0.8415
 3426SOL    HW121911   0.099   1.102   1.252  2.5876 -1.3607  2.1956
 3426SOL    HW221912   4.713   1.130   1.352  1.7683 -1.4495  1.1318
 3427SOL     OW21913   2.056   1.287  11.417  0.1210  0.3181 -0.5968
 3427SOL    HW121914   2.011   1.309  11.498  1.4584 -0.2337  0.2986
 3427SOL    HW221915   2.079   1.195  11.432 -0.5882  0.5247  1.7222
 3428SOL     OW21916   3.627   1.464  11.561  0.1616 -0.2224  0.0304
 3428SOL    HW121917   3.618   1.531  11.628 -0.7866  2.2913 -2.5791
 3428SOL    HW221918   3.626   1.379  11.605 -1.5069  0.2999  1.0043
 3429SOL     OW21919   0.805   2.787   2.312 -0.5630  0.4500  0.1666
 3429SOL    HW121920   0.813   2.876   2.279 -0.8563  0.8355  1.1382
 3429SOL    HW221921   0.893   2.772   2.347  0.4296  0.6577 -2.2571
 3430SOL     OW21922   2.088   0.740   4.572  0.7418 -0.0542  0.3796
 3430SOL    HW121923   2.027   0.754   4.500  2.5560  1.0910 -0.9248
 3430SOL    HW221924   2.146   0.668   4.549  2.6576  0.6795  2.9429
 3431SOL     OW21925   0.686   3.195   9.634  0.6789 -0.1370 -0.8412
 3431SOL    HW121926   0.636   3.212   9.713  0.2672 -0.1546 -1.0967
 3431SOL    HW221927   0.651   3.109   9.610 -1.3063  0.3222  0.4691
 3432SOL     OW21928   0.367   3.437   4.004 -1.0178 -0.0911  0.0503
 3432SOL    HW121929   0.428   3.506   4.032 -0.5589  0.0649 -1.3317
 3432SOL    HW221930   0.347   3.458   3.913 -1.9293 -1.4713 -0.0655
 3433SOL     OW21931   2.387   1.585   6.360 -0.6083 -0.0086 -0.5623
 3433SOL    HW121932   2.301   1.609   6.326 -2.0041 -0.1110  2.9351
 3433SOL    HW221933   2.411   1.509   6.307  0.2924 -0.6692  0.8201
 3434SOL     OW21934   4.252   2.969   1.995 -0.4071  0.0263 -0.4408
 3434SOL    HW121935   4.250   2.913   1.918 -0.8844 -2.7918  1.6109
 3434SOL    HW221936   4.338   2.957   2.036 -0.9946  1.6135  1.2536
 3435SOL     OW21937   1.867   1.728   8.809  0.3226  0.3055 -0.3006
 3435SOL    HW121938   1.799   1.666   8.779 -0.4494  1.2192 -0.4338
 3435SOL    HW221939   1.862   1.724   8.905  1.9858 -2.9973 -0.3603
 3436SOL     OW21940   4.509   0.678   6.744 -0.4078 -0.2973 -0.1429
 3436SOL    HW121941   4.480   0.746   6.805 -1.5723 -0.2669 -0.7293
 3436SOL    HW221942   4.575   0.630   6.795  0.2547  0.0373 -0.6900
 3437SOL     OW21943   3.132   1.680  12.615  0.0958  0.5598  0.1444
 3437SOL    HW121944   3.067   1.716  12.554 -0.3595  1.9486  1.4285
 3437SOL    HW221945   3.123   1.735  12.693  3.5721  0.9469  0.2525
 3438SOL     OW21946   3.767   1.260   7.940 -0.2815 -0.1208  0.3150
 3438SOL    HW121947   3.775   1.264   8.036  0.1764 -2.7141  0.3736
 3438SOL    HW221948   3.675   1.280   7.926  0.8987  4.2560 -1.1668
 3439SOL     OW21949   1.488   1.641   5.746 -0.3525 -0.2023  0.2068
 3439SOL    HW121950   1.584   1.647   5.740 -0.5021  0.7589 -1.0910
 3439SOL    HW221951   1.473   1.560   5.698 -1.5389  0.9891 -1.4125
 3440SOL     OW21952   3.533   0.152   7.552 -0.3617 -0.3695  0.3013
 3440SOL    HW121953   3.505   0.193   7.634  1.5155  0.4323  0.5360
 3440SOL    HW221954   3.572   0.071   7.584 -1.0913 -1.1515 -0.8166
 3441SOL     OW21955   2.801   0.421   9.058 -0.1440 -0.4962 -0.2022
 3441SOL    HW121956   2.722   0.449   9.103  0.4919  0.2072  0.4593
 3441SOL    HW221957   2.826   0.354   9.122  1.9827  0.2754 -0.2306
 3442SOL     OW21958   1.614   3.521  11.986  0.0526 -0.3355  0.0700
 3442SOL    HW121959   1.687   3.472  11.948 -1.0597 -1.4266 -0.6603
 3442SOL    HW221960   1.629   3.606  11.944  1.0602 -0.5848 -0.0787
 3443SOL     OW21961   3.825   1.885   0.550 -0.3079  0.2072 -0.2353
 3443SOL    HW121962   3.845   1.878   0.643 -0.0378  0.3037 -0.2848
 3443SOL    HW221963   3.905   1.873   0.499 -1.2361 -0.4129 -1.5694
 3444SOL     OW21964   0.236   3.950   7.467  0.0915 -0.3855 -0.0561
 3444SOL    HW121965   0.227   3.986   7.379 -4.1536 -2.4175 -0.4636
 3444SOL    HW221966   0.305   4.009   7.498 -1.1964  0.2538  1.5352
 3445SOL     OW21967   4.546   0.041   7.220  0.3885 -0.4428 -0.0166
 3445SOL    HW121968   4.553   0.028   7.315  2.7721 -0.3533 -0.1799
 3445SOL    HW221969   4.486   0.116   7.216  2.9026  1.4927 -0.9651
 3446SOL     OW21970   3.550   0.469   1.455  0.3652 -1.1701 -0.1405
 3446SOL    HW121971   3.515   0.503   1.538 -0.6712 -1.7626 -0.3326
 3446SOL    HW221972   3.629   0.427   1.488  0.1809 -0.0777  1.7216
 3447SOL     OW21973   1.862   0.015   8.999 -0.1013  0.8409  0.1712
 3447SOL    HW121974   1.919   4.698   8.940 -0.7900 -1.8023  1.7098
 3447SOL    HW221975   1.885   0.104   8.971 -0.4157  0.6006 -0.8697
 3448SOL     OW21976   3.223   2.180  17.535  0.2696 -0.2736 -0.4924
 3448SOL    HW121977   3.174   2.253  17.499 -0.0527  0.0385  0.5724
 3448SOL    HW221978   3.277   2.155  17.460 -0.0908  2.1043 -1.5257
 3449SOL     OW21979   1.691   4.011  11.332  0.1001 -0.1021  0.2114
 3449SOL    HW121980   1.706   3.917  11.326 -0.1072  0.0470 -2.5635
 3449SOL    HW221981   1.683   4.033  11.239  1.0566 -1.0877 -0.0989
 3450SOL     OW21982   1.829   1.321   6.285  0.2899 -1.0553 -0.2876
 3450SOL    HW121983   1.795   1.235   6.262 -1.0157 -0.4502 -0.6100
 3450SOL    HW221984   1.897   1.328   6.218  0.0695 -2.7871 -0.6945
 3451SOL     OW21985   1.401   1.515  14.586  0.1537  0.0991 -0.5497
 3451SOL    HW121986   1.480   1.540  14.539 -1.1022 -0.7627 -3.1102
 3451SOL    HW221987   1.418   1.532  14.679 -3.1713  2.3064 -0.3404
 3452SOL     OW21988   1.751   3.704   1.470 -0.3122 -0.3378 -0.5711
 3452SOL    HW121989   1.659   3.687   1.489  0.2793 -2.0130  0.7982
 3452SOL    HW221990   1.794   3.622   1.495  1.4923  0.5691 -0.7272
 3453SOL     OW21991   2.203   2.037   6.937 -0.1617 -0.1379  0.0517
 3453SOL    HW121992   2.191   2.030   7.032  0.0550 -0.4047  0.0612
 3453SOL    HW221993   2.292   2.001   6.932 -0.0175  0.1158  0.7614
 3454SOL     OW21994   1.551   1.266  14.725  0.7650 -0.1997 -0.4914
 3454SOL    HW121995   1.624   1.270  14.662  1.0961 -2.5688 -0.2478
 3454SOL    HW221996   1.485   1.268  14.656  1.5955  0.0254 -1.2831
 3455SOL     OW21997   3.287   0.723   9.567 -1.0381 -0.1997 -0.7367
 3455SOL    HW121998   3.270   0.638   9.608 -0.4703  0.3501  0.6624
 3455SOL    HW221999   3.223   0.729   9.497 -1.2148 -0.5293 -0.6011
 3456SOL     OW22000   3.227   3.102   5.476  0.3406 -0.2135 -0.0844
 3456SOL    HW122001   3.295   3.142   5.530  0.0702 -0.0616  0.1429
 3456SOL    HW222002   3.284   3.072   5.405 -0.9822  1.0651 -1.6763
 3457SOL     OW22003   3.164   3.487   2.273  0.3410  0.0133 -0.0926
 3457SOL    HW122004   3.121   3.405   2.297  1.8119 -0.2345  1.7020
 3457SOL    HW222005   3.219   3.499   2.350  0.5440  0.1566 -0.2592
 3458SOL     OW22006   2.579   4.391  16.855  0.0218  0.0509  0.4127
 3458SOL    HW122007   2.615   4.317  16.903  0.9159  0.5118  0.4530
 3458SOL    HW222008   2.549   4.460  16.914 -2.6910 -0.1700 -0.7049
 3459SOL     OW22009   4.525   1.769   3.701 -0.0386  0.3239 -0.1259
 3459SOL    HW122010   4.594   1.836   3.707  0.3237  0.1118 -1.9351
 3459SOL    HW222011   4.471   1.805   3.631 -1.5563 -0.6531  0.5463
 3460SOL     OW22012   0.979   2.472  10.117  0.2228 -0.1880  0.4807
 3460SOL    HW122013   1.004   2.556  10.079 -0.7594  0.5036  1.3645
 3460SOL    HW222014   0.920   2.506  10.184  0.7007  0.9306  0.3359
 3461SOL     OW22015   3.313   0.325   8.794  0.0405 -0.2069 -0.1767
 3461SOL    HW122016   3.334   0.377   8.717  0.2025  0.3846  0.2683
 3461SOL    HW222017   3.357   0.243   8.773  1.0545 -0.2058  1.9478
 3462SOL     OW22018   3.581   0.540   8.713  0.1756 -0.2771 -0.1780
 3462SOL    HW122019   3.507   0.597   8.690  0.5595 -0.4012 -1.7155
 3462SOL    HW222020   3.589   0.495   8.629 -0.4766  0.5914 -0.7152
 3463SOL     OW22021   1.945   0.150  16.703  0.1294  0.1427  0.3736
 3463SOL    HW122022   2.020   0.196  16.664 -1.5647  2.5068 -0.1120
 3463SOL    HW222023   1.924   0.089  16.632 -2.6057 -0.5162  1.7480
 3464SOL     OW22024   1.307   4.552  16.627 -0.3718  0.0760 -0.2657
 3464SOL    HW122025   1.221   4.512  16.636  0.3365 -2.0117 -2.8375
 3464SOL    HW222026   1.301   4.626  16.566  2.6558  0.3322 -0.2794
 3465SOL     OW22027   3.670   3.214  12.685 -0.5940  0.1168 -0.8654
 3465SOL    HW122028   3.709   3.247  12.604  0.6467 -0.5060 -0.5188
 3465SOL    HW222029   3.719   3.134  12.706 -2.2381 -0.5904  0.2571
 3466SOL     OW22030   3.183   2.938   3.512 -0.1767 -0.5483  0.2056
 3466SOL    HW122031   3.172   3.030   3.488  1.9704  0.0434  1.4891
 3466SOL    HW222032   3.218   2.947   3.601  1.6463 -2.3054 -0.3416
 3467SOL     OW22033   0.459   4.452  17.075  0.2309  0.0412  0.3805
 3467SOL    HW122034   0.398   4.501  17.130 -0.7981 -2.7053  1.6826
 3467SOL    HW222035   0.513   4.517  17.031  1.6954 -0.5664  1.2880
 3468SOL     OW22036   0.540   1.150   2.174 -0.6337 -0.9009 -0.6658
 3468SOL    HW122037   0.626   1.119   2.143 -0.6671 -1.2378 -0.4167
 3468SOL    HW222038   0.482   1.157   2.098 -1.2947  1.5790  0.0638
 3469SOL     OW22039   0.953   3.182   0.445 -0.0006  0.1342  0.0273
 3469SOL    HW122040   0.920   3.154   0.531  1.7825 -0.7287  0.4266
 3469SOL    HW222041   1.034   3.227   0.468  0.6257 -1.9211  1.8155
 3470SOL     OW22042   1.561   0.581   2.905 -0.3962  0.0558  0.0681
 3470SOL    HW122043   1.601   0.514   2.849 -0.2718  0.2298 -0.0517
 3470SOL    HW222044   1.474   0.589   2.865 -0.3113 -1.1620 -0.3574
 3471SOL     OW22045   1.133   1.206  10.904 -0.0557 -0.1841 -0.0325
 3471SOL    HW122046   1.086   1.241  10.980 -0.7326 -0.8076 -0.1604
 3471SOL    HW222047   1.098   1.118  10.894  0.4997 -0.2613 -1.3062
 3472SOL     OW22048   1.032   2.923   6.325  0.1206  0.2508  0.4088
 3472SOL    HW122049   1.117   2.961   6.348  1.2217 -1.0691 -1.5073
 3472SOL    HW222050   1.041   2.889   6.236 -0.9227 -0.0162  0.4142
 3473SOL     OW22051   0.483   3.471   2.923  0.9841 -0.2865 -0.3570
 3473SOL    HW122052   0.518   3.438   3.006  0.1087 -0.5825 -0.1010
 3473SOL    HW222053   0.392   3.487   2.948  0.2461 -4.8876 -0.1554
 3474SOL     OW22054   1.092   1.399   5.545  0.6853  0.2043 -0.0755
 3474SOL    HW122055   1.093   1.491   5.520 -0.2114  0.5743  1.2068
 3474SOL    HW222056   1.099   1.411   5.640  0.9325  0.7856 -0.1704
 3475SOL     OW22057   2.420   2.413   6.247 -0.1362  0.0755 -0.0440
 3475SOL    HW122058   2.420   2.339   6.307 -0.0184 -0.4446 -0.6893
 3475SOL    HW222059   2.403   2.370   6.164 -0.9368  2.0696 -0.9335
 3476SOL     OW22060   4.114   3.222   8.357 -0.8295  0.0165 -0.2085
 3476SOL    HW122061   4.172   3.275   8.302  0.4389  0.1820  1.3074
 3476SOL    HW222062   4.170   3.144   8.362  2.6261  2.5290 -0.1007
 3477SOL     OW22063   3.940   1.310   3.895  0.2288  0.0692 -0.0665
 3477SOL    HW122064   3.898   1.232   3.929  0.5501  0.7478  1.8818
 3477SOL    HW222065   3.961   1.290   3.803  1.9303 -1.3994  0.6389
 3478SOL     OW22066   2.481   2.406   5.838  0.5139 -0.6590  0.3253
 3478SOL    HW122067   2.487   2.310   5.842 -0.4564 -0.7446 -0.3906
 3478SOL    HW222068   2.573   2.431   5.842  0.0502  0.9432  0.7147
 3479SOL     OW22069   0.725   3.607   7.941 -0.3685  0.5012  0.1545
 3479SOL    HW122070   0.684   3.664   7.875 -0.7872 -1.9603 -1.6808
 3479SOL    HW222071   0.646   3.578   7.986  0.8615  0.1818  2.0768
 3480SOL     OW22072   0.100   3.855   3.120 -0.5408 -0.2279 -0.4229
 3480SOL    HW122073   0.050   3.895   3.049 -0.6812  0.8663  0.2922
 3480SOL    HW222074   0.178   3.831   3.069  0.5275  0.7408  0.7660
 3481SOL     OW22075   4.365   2.041   6.903 -0.6748  0.1571 -0.4622
 3481SOL    HW122076   4.317   2.056   6.984  0.6064  1.5343  0.0496
 3481SOL    HW222077   4.455   2.059   6.930 -0.6013 -0.7603 -0.1078
 3482SOL     OW22078   4.729   2.479   1.163 -0.3281 -0.4075  0.1274
 3482SOL    HW122079   0.011   2.559   1.215  0.9979 -0.0243 -0.8288
 3482SOL    HW222080   4.635   2.464   1.163 -0.0541 -2.1544  1.7179
 3483SOL     OW22081   2.808   0.595   3.044 -0.0868 -0.0814 -0.8667
 3483SOL    HW122082   2.756   0.519   3.071 -1.7697  1.4661  0.3215
 3483SOL    HW222083   2.806   0.657   3.117  0.5587 -0.8420 -0.1974
 3484SOL     OW22084   0.927   3.771   9.568  0.5259 -0.1501  0.0114
 3484SOL    HW122085   1.000   3.715   9.541  1.1579  0.4007  0.5666
 3484SOL    HW222086   0.901   3.729   9.651 -1.5346  1.5744  0.2221
 3485SOL     OW22087   1.831   4.631   3.435 -0.2318 -0.2881 -0.0876
 3485SOL    HW122088   1.925   4.629   3.451 -0.2639  1.5669  0.3684
 3485SOL    HW222089   1.815   4.725   3.435 -1.0307 -0.4150  0.7113
 3486SOL     OW22090   0.150   2.629   4.354 -0.4757  0.3049 -0.3450
 3486SOL    HW122091   0.241   2.600   4.348  0.0656  2.0537 -0.5915
 3486SOL    HW222092   0.129   2.621   4.261 -1.8338  2.8528 -0.2730
 3487SOL     OW22093   1.230   1.620   6.172 -0.3150  0.7520  0.3074
 3487SOL    HW122094   1.180   1.677   6.113  2.3631  2.1183 -0.6332
 3487SOL    HW222095   1.257   1.672   6.248  0.9571  0.8663 -0.2236
 3488SOL     OW22096   3.765   2.268  13.099  0.1003  0.6943 -0.1678
 3488SOL    HW122097   3.809   2.345  13.065  1.4451  1.2971  2.8914
 3488SOL    HW222098   3.755   2.217  13.019 -0.3874  1.7556 -0.7625
 3489SOL     OW22099   0.448   4.413   1.151  0.0288  0.2346  0.1314
 3489SOL    HW122100   0.470   4.326   1.184  1.4493  0.0816 -1.1918
 3489SOL    HW222101   0.521   4.471   1.172  0.4375 -1.1474  2.5589
 3490SOL     OW22102   0.652   1.973   4.438 -0.2355 -0.0285 -0.2099
 3490SOL    HW122103   0.686   1.964   4.349  0.3347  1.6810 -0.1648
 3490SOL    HW222104   0.693   1.896   4.478 -1.3356 -0.4197  0.1476
 3491SOL     OW22105   2.010   3.886   7.797  0.2770  0.1333 -0.1410
 3491SOL    HW122106   2.041   3.967   7.838  1.1072  0.3805 -1.2561
 3491SOL    HW222107   2.010   3.913   7.705 -0.8169 -2.4045 -0.8958
 3492SOL     OW22108   4.340   1.287   8.406 -0.0021 -0.5646  0.1436
 3492SOL    HW122109   4.431   1.316   8.401 -0.1689  0.1069  1.1227
 3492SOL    HW222110   4.323   1.306   8.498 -1.9612 -1.4575 -0.0412
 3493SOL     OW22111   0.515   1.926   4.999  0.5290 -0.3067  0.1460
 3493SOL    HW122112   0.455   1.993   5.031  0.1675  0.6155 -2.4687
 3493SOL    HW222113   0.469   1.842   4.999  0.1006 -0.0715 -1.2906
 3494SOL     OW22114   2.466   4.651   8.728  0.8325  0.6547  0.0408
 3494SOL    HW122115   2.440   4.671   8.638  2.5532 -1.9945 -1.0437
 3494SOL    HW222116   2.561   4.655   8.724  0.8683 -0.9470 -0.4482
 3495SOL     OW22117   2.372   1.095   7.575  0.1481 -0.1425  0.0903
 3495SOL    HW122118   2.306   1.112   7.507  1.1167  1.0749 -0.5386
 3495SOL    HW222119   2.406   1.185   7.580  1.2115 -0.5547  0.2509
 3496SOL     OW22120   4.316   4.061   3.226  0.0972 -0.2495  0.3999
 3496SOL    HW122121   4.382   4.128   3.243 -1.2794  0.7346  1.7724
 3496SOL    HW222122   4.359   3.997   3.169 -0.0094 -0.7181  0.8420
 3497SOL     OW22123   1.569   0.493   5.630  0.3813  0.5733  0.4802
 3497SOL    HW122124   1.488   0.507   5.679 -1.1167 -0.2387 -1.7925
 3497SOL    HW222125   1.621   0.563   5.669  2.6919 -0.3762 -0.9144
 3498SOL     OW22126   3.367   4.351   3.289  0.7056 -0.0587  0.3592
 3498SOL    HW122127   3.434   4.406   3.249  1.4481 -1.8827 -0.8886
 3498SOL    HW222128   3.320   4.413   3.346 -1.3614  1.9838 -3.5658
 3499SOL     OW22129   4.450   1.657  13.838 -0.0952  0.0165  0.5071
 3499SOL    HW122130   4.444   1.572  13.881 -0.6601  0.7341  1.8578
 3499SOL    HW222131   4.481   1.710  13.912 -0.5463  1.0061 -0.0110
 3500SOL     OW22132   1.798   4.142   5.113 -0.4122 -0.2243  0.4284
 3500SOL    HW122133   1.835   4.205   5.175  1.3329 -0.0129 -0.8076
 3500SOL    HW222134   1.845   4.061   5.133 -0.1101  0.1674  1.3484
 3501SOL     OW22135   2.214   2.510   6.915  0.2211 -0.3221  0.2198
 3501SOL    HW122136   2.172   2.588   6.950  0.4282 -0.3496  0.5366
 3501SOL    HW222137   2.250   2.471   6.995  2.6145 -1.8798 -1.6221
 3502SOL     OW22138   2.445   2.481  10.860 -0.2037 -0.0875  0.7124
 3502SOL    HW122139   2.469   2.562  10.815  3.2797 -1.1082  0.7355
 3502SOL    HW222140   2.521   2.473  10.919  0.3895  0.4823  0.0210
 3503SOL     OW22141   3.719   4.615   7.155  0.6090 -0.6355 -0.9811
 3503SOL    HW122142   3.809   4.643   7.140  1.7646 -3.0029  1.5008
 3503SOL    HW222143   3.694   4.604   7.064  0.4399  1.9298 -1.2258
 3504SOL     OW22144   0.646   1.340   7.227  0.1307  0.2557 -0.0722
 3504SOL    HW122145   0.579   1.343   7.295 -1.8978 -0.6330 -1.9958
 3504SOL    HW222146   0.593   1.324   7.148  1.0027 -0.1015 -0.5833
 3505SOL     OW22147   0.752   1.728   1.921 -0.2875  0.7531 -0.5159
 3505SOL    HW122148   0.682   1.719   1.985  0.2124 -0.2135 -0.1119
 3505SOL    HW222149   0.700   1.764   1.848  0.1779  1.1083 -0.6643
 3506SOL     OW22150   4.311   2.520   7.707 -0.3775 -0.0108 -0.0484
 3506SOL    HW122151   4.300   2.425   7.716 -1.0749  0.1412  0.7507
 3506SOL    HW222152   4.224   2.555   7.688 -0.3199  1.5855  2.5676
 3507SOL     OW22153   3.896   4.355   4.917 -0.4361  0.3651  0.1188
 3507SOL    HW122154   3.913   4.363   5.011 -0.5238 -1.4450  0.2943
 3507SOL    HW222155   3.985   4.328   4.892 -0.1884  0.1667  1.1880
 3508SOL     OW22156   4.142   3.031   4.923  0.7916 -0.5672 -0.2855
 3508SOL    HW122157   4.067   3.037   4.983  0.7236 -3.9089 -0.0682
 3508SOL    HW222158   4.100   3.028   4.837 -0.0782  0.3672  0.0993
 3509SOL     OW22159   1.457   4.053   8.904  0.1890  0.4563  0.3390
 3509SOL    HW122160   1.459   4.137   8.859  2.3206 -0.5140 -1.4121
 3509SOL    HW222161   1.403   4.077   8.979 -1.3303 -1.7793 -0.0196
 3510SOL     OW22162   1.010   1.640   1.501  0.8523  0.0235 -0.0563
 3510SOL    HW122163   1.065   1.715   1.479  0.9028 -0.3984 -1.4024
 3510SOL    HW222164   1.066   1.565   1.482  0.1309 -0.6275  0.4241
 3511SOL     OW22165   2.065   4.422   9.412  0.5580  0.6926  0.0579
 3511SOL    HW122166   1.970   4.431   9.404  0.7993  1.9154 -1.3126
 3511SOL    HW222167   2.081   4.330   9.433  1.6246  0.8879  0.1370
 3512SOL     OW22168   1.863   0.457   4.719  0.1351 -0.5823  0.1123
 3512SOL    HW122169   1.850   0.362   4.719  1.1999 -0.7221  0.5863
 3512SOL    HW222170   1.805   0.475   4.645  0.3403  1.6835  0.5144
 3513SOL     OW22171   3.516   1.245  10.434 -0.4595  0.5888 -0.5135
 3513SOL    HW122172   3.554   1.266  10.519  0.1448 -1.2351 -0.3231
 3513SOL    HW222173   3.544   1.316  10.376  0.9400  1.0912  0.7783
 3514SOL     OW22174   0.189   0.013   7.550  0.7535  0.1211 -0.0353
 3514SOL    HW122175   0.193   0.084   7.614 -0.6671  0.2188 -0.0626
 3514SOL    HW222176   0.281   0.005   7.522  1.0451 -1.7934  1.4724
 3515SOL     OW22177   4.595   0.516  15.241  0.4087  0.1271 -0.1604
 3515SOL    HW122178   4.657   0.448  15.270  0.7031  1.2342  1.8024
 3515SOL    HW222179   4.630   0.587  15.295 -0.8412 -1.3700  2.6604
 3516SOL     OW22180   2.475   3.915  11.949  0.1762  0.1579  0.0098
 3516SOL    HW122181   2.404   3.864  11.988  0.7148  1.7243  3.0327
 3516SOL    HW222182   2.544   3.851  11.963  1.8153  1.2523 -3.0422
 3517SOL     OW22183   2.422   1.158  15.885 -0.1546 -0.0955  0.4607
 3517SOL    HW122184   2.493   1.095  15.900  1.0773  1.1524 -0.1036
 3517SOL    HW222185   2.464   1.206  15.813 -0.1221  0.2891  0.7399
 3518SOL     OW22186   4.155   1.621  11.622 -1.0332  0.1555 -0.0600
 3518SOL    HW122187   4.163   1.658  11.710 -2.0495 -1.5180  0.7361
 3518SOL    HW222188   4.234   1.641  11.572 -1.5178 -1.3491 -1.4474
 3519SOL     OW22189   4.337   4.537   1.266  0.9311  0.4416  0.7330
 3519SOL    HW122190   4.382   4.454   1.252 -0.3967 -0.1046 -0.3074
 3519SOL    HW222191   4.403   4.606   1.270  0.2749  1.3152 -3.4365
 3520SOL     OW22192   4.539   1.265   5.281  0.4363 -0.1773  0.3619
 3520SOL    HW122193   4.559   1.325   5.353  3.6311 -2.1118  1.0369
 3520SOL    HW222194   4.453   1.235   5.312  0.3403 -1.2551 -0.9367
 3521SOL     OW22195   1.145   4.475   4.290  0.1304 -0.2234  0.1209
 3521SOL    HW122196   1.233   4.450   4.318 -0.0565 -2.5062 -1.3748
 3521SOL    HW222197   1.114   4.544   4.349  0.4622  0.1204 -0.1061
 3522SOL     OW22198   2.479   0.397  11.466 -0.2552 -0.6520 -0.0940
 3522SOL    HW122199   2.534   0.403  11.388 -0.1065  0.8104  0.1343
 3522SOL    HW222200   2.411   0.461  11.447 -0.1900 -0.8136 -0.8966
 3523SOL     OW22201   0.471   2.352  13.122 -0.7482  0.4988 -0.1751
 3523SOL    HW122202   0.556   2.353  13.167 -0.1122  1.1217 -1.3974
 3523SOL    HW222203   0.454   2.257  13.123  1.1568  0.1524 -0.2890
 3524SOL     OW22204   2.185   0.933  15.004 -0.1389  0.5994  0.1501
 3524SOL    HW122205   2.166   0.960  15.093  0.6594  0.2164  0.4407
 3524SOL    HW222206   2.104   0.955  14.958  0.9482 -2.1098 -3.1088
 3525SOL     OW22207   2.321   2.126   2.799 -0.2590  0.2440 -0.3610
 3525SOL    HW122208   2.244   2.137   2.854 -0.4584 -0.7241 -0.4555
 3525SOL    HW222209   2.396   2.112   2.857 -0.2617  2.1801  0.0954
 3526SOL     OW22210   0.325   0.657  13.018 -0.1023  0.0336 -0.1499
 3526SOL    HW122211   0.411   0.659  13.060  1.3750  1.3632 -3.2595
 3526SOL    HW222212   0.277   0.700  13.088  0.6216 -1.2074  1.1071
 3527SOL     OW22213   1.891   4.018  13.500  0.2210 -0.2753  0.0929
 3527SOL    HW122214   1.856   4.033  13.588 -0.9513 -0.3176 -0.3743
 3527SOL    HW222215   1.969   3.967  13.524  0.4265 -0.2801 -0.5806
 3528SOL     OW22216   0.439   3.615  13.877 -0.3875  0.5926 -0.0826
 3528SOL    HW122217   0.371   3.548  13.873 -0.7382  1.0791 -2.2340
 3528SOL    HW222218   0.514   3.574  13.834  0.7576  1.6403  0.9067
 3529SOL     OW22219   3.926   0.968  15.667  0.7905 -0.3081  0.0176
 3529SOL    HW122220   3.879   0.981  15.749  0.3359 -0.9098 -0.1406
 3529SOL    HW222221   3.888   1.042  15.620  3.1968  0.0765 -1.2733
 3530SOL     OW22222   2.602   1.829   4.470 -0.4561  0.1877 -0.3978
 3530SOL    HW122223   2.582   1.736   4.474  0.5853 -0.0426 -0.6336
 3530SOL    HW222224   2.549   1.858   4.396 -3.1851 -1.3062  0.9503
 3531SOL     OW22225   2.098   4.180   7.941  0.6313  0.4466  0.1148
 3531SOL    HW122226   2.099   4.268   7.902  5.1177  0.4892  0.2844
 3531SOL    HW222227   2.186   4.175   7.980  0.6703 -0.3653 -0.0919
 3532SOL     OW22228   3.876   4.022   5.245  0.8854 -0.6111 -0.0529
 3532SOL    HW122229   3.875   3.959   5.173 -0.2802 -0.6590  0.0001
 3532SOL    HW222230   3.869   4.100   5.190  1.1428 -1.2962 -1.0627
 3533SOL     OW22231   0.040   1.452   8.975  0.1823 -0.0028 -0.3955
 3533SOL    HW122232   4.722   1.475   9.053  1.1646  1.3196 -0.1583
 3533SOL    HW222233   0.045   1.542   8.943  2.2307  0.7699  2.1171
 3534SOL     OW22234   4.716   2.861   4.868 -0.1623 -0.7370 -0.3019
 3534SOL    HW122235   0.061   2.894   4.824 -0.9054  2.8476  1.1291
 3534SOL    HW222236   4.645   2.902   4.818 -0.7759 -0.9715  0.3738
 3535SOL     OW22237   3.543   2.732   7.544 -0.5424 -0.0059 -0.5077
 3535SOL    HW122238   3.636   2.751   7.536 -0.6337  0.2161 -1.0111
 3535SOL    HW222239   3.519   2.760   7.456  1.1680 -3.7608 -2.1326
 3536SOL     OW22240   0.767   3.915   6.767  0.0340  0.2644 -0.9980
 3536SOL    HW122241   0.859   3.908   6.745 -0.3946 -1.1327 -2.3085
 3536SOL    HW222242   0.777   3.938   6.860  0.3508  0.4762 -1.0843
 3537SOL     OW22243   2.270   1.820   9.984  0.6385 -0.3300 -1.1594
 3537SOL    HW122244   2.210   1.761   9.938  0.1743 -2.2825  2.0052
 3537SOL    HW222245   2.358   1.789   9.965  0.6950 -0.8109 -0.0849
 3538SOL     OW22246   3.252   0.885   3.547 -0.5701  0.2957 -0.8648
 3538SOL    HW122247   3.257   0.964   3.492 -4.8576  2.4976  1.9220
 3538SOL    HW222248   3.158   0.889   3.562 -0.6732  1.6255 -1.8515
 3539SOL     OW22249   3.334   4.273   5.130 -0.0041 -0.8256  0.1243
 3539SOL    HW122250   3.309   4.191   5.174 -0.2728 -1.4223 -1.1128
 3539SOL    HW222251   3.428   4.278   5.147 -0.2461  0.8245  0.8991
 3540SOL     OW22252   2.309   0.869   6.658 -0.0734  0.1297 -0.2362
 3540SOL    HW122253   2.278   0.792   6.705 -1.8237 -0.0979 -1.8127
 3540SOL    HW222254   2.253   0.861   6.581 -1.1304  1.3546  0.4000
 3541SOL     OW22255   1.527   3.703   8.170 -0.0048 -0.2096  0.1710
 3541SOL    HW122256   1.614   3.664   8.161 -0.9815 -2.1636 -1.0157
 3541SOL    HW222257   1.550   3.795   8.182 -0.2413  0.0788 -1.5418
 3542SOL     OW22258   3.827   2.420  14.761 -0.8607 -0.1261 -0.0302
 3542SOL    HW122259   3.896   2.378  14.710  1.6578  2.8730  0.9411
 3542SOL    HW222260   3.852   2.512  14.772  0.3548 -0.6134  1.2379
 3543SOL     OW22261   0.869   0.857   0.769  0.6462  0.3865  0.4888
 3543SOL    HW122262   0.880   0.766   0.742  0.0387  0.8844 -1.4367
 3543SOL    HW222263   0.927   0.912   0.717 -0.2222 -0.6803 -1.6264
 3544SOL     OW22264   4.421   2.601   8.310  0.5384  0.1119 -0.1260
 3544SOL    HW122265   4.358   2.568   8.246  1.4053  0.0250 -0.9257
 3544SOL    HW222266   4.358   2.602   8.383 -0.1324  0.2787 -0.7062
 3545SOL     OW22267   2.793   2.250   5.396  0.2667  0.6085 -0.2224
 3545SOL    HW122268   2.747   2.316   5.449 -1.1933 -0.7915  0.2700
 3545SOL    HW222269   2.784   2.175   5.455 -0.4081  0.5764 -0.3671
 3546SOL     OW22270   3.124   4.443   4.485  0.1680 -0.4061 -0.5129
 3546SOL    HW122271   3.041   4.395   4.476 -0.7877  1.0516  0.6319
 3546SOL    HW222272   3.175   4.370   4.520  0.5149  0.0284 -0.1146
 3547SOL     OW22273   0.689   0.460   0.204  0.0596 -0.0561 -0.3015
 3547SOL    HW122274   0.613   0.419   0.163  0.2529  0.3873 -1.0955
 3547SOL    HW222275   0.683   0.437   0.297 -1.1519 -0.9086 -0.5906
 3548SOL     OW22276   0.506   4.517  12.493  0.6967  0.4041  0.8302
 3548SOL    HW122277   0.442   4.583  12.516 -1.6814 -1.4223 -0.4835
 3548SOL    HW222278   0.548   4.567  12.423  1.3039  0.0014  0.9067
 3549SOL     OW22279   1.699   0.473   3.104 -0.0114  0.5122  0.4563
 3549SOL    HW122280   1.655   0.530   3.040 -1.0695 -0.9338 -0.1016
 3549SOL    HW222281   1.662   0.389   3.077  0.8612  0.7256 -1.3519
 3550SOL     OW22282   2.806   1.709  16.014 -0.1138  0.7292  0.0981
 3550SOL    HW122283   2.813   1.769  16.088  2.2468  2.2723 -1.4002
 3550SOL    HW222284   2.712   1.707  15.994  0.1969 -1.6681 -1.1135
 3551SOL     OW22285   2.512   1.616   0.632 -1.0731  0.5593  0.3667
 3551SOL    HW122286   2.496   1.691   0.690 -1.4454  1.7948 -1.3093
 3551SOL    HW222287   2.436   1.560   0.648 -0.0796 -0.4626  1.4644
 3552SOL     OW22288   1.966   3.922   6.690  0.6397  0.4688  0.1551
 3552SOL    HW122289   1.889   3.975   6.712  0.9941  1.8116 -1.8218
 3552SOL    HW222290   1.951   3.845   6.744 -2.2826  0.7570 -0.2676
 3553SOL     OW22291   2.343   2.333   7.805  0.1346  0.4128 -0.0852
 3553SOL    HW122292   2.417   2.376   7.762  2.6427 -1.9208  1.9176
 3553SOL    HW222293   2.375   2.358   7.892  0.6862  0.1580 -0.2171
 3554SOL     OW22294   1.101   2.807  11.836  0.1808 -0.3204  0.1323
 3554SOL    HW122295   1.150   2.869  11.889  1.1293 -1.1097  0.1659
 3554SOL    HW222296   1.160   2.741  11.799  0.9411  0.7076 -0.4915
 3555SOL     OW22297   1.827   2.083   6.360 -0.4169 -0.4089  0.1514
 3555SOL    HW122298   1.751   2.063   6.305 -0.9496 -1.1686  1.1762
 3555SOL    HW222299   1.777   2.124   6.430  1.5434  0.2684  1.1710
 3556SOL     OW22300   1.632   0.227   2.969 -0.1045 -0.0115  0.3911
 3556SOL    HW122301   1.557   0.226   2.910 -0.9750 -0.1706  1.4945
 3556SOL    HW222302   1.680   0.154   2.930 -0.7522 -1.2237  1.8656
 3557SOL     OW22303   0.547   0.536   1.519 -0.0053  0.4088 -0.2126
 3557SOL    HW122304   0.557   0.628   1.494 -0.4337  1.1058  2.1232
 3557SOL    HW222305   0.452   0.537   1.506 -0.0134  0.7126 -0.1237
 3558SOL     OW22306   0.120   2.000   6.012 -0.3385  0.0803 -0.0206
 3558SOL    HW122307   0.050   2.042   6.063  0.6851  0.7663  0.8369
 3558SOL    HW222308   0.069   1.963   5.940  0.2430  2.1095 -1.4926
 3559SOL     OW22309   1.761   3.254   3.069  0.0368  0.1463  0.3233
 3559SOL    HW122310   1.805   3.330   3.105  0.6265  0.3203 -0.7590
 3559SOL    HW222311   1.829   3.208   3.019 -1.5694 -2.2467  0.3321
 3560SOL     OW22312   2.753   3.255  11.486 -0.0560 -0.5651 -0.7089
 3560SOL    HW122313   2.744   3.269  11.580 -1.6458  1.9703 -1.2284
 3560SOL    HW222314   2.660   3.247  11.466 -0.1080  0.4172 -0.8720
 3561SOL     OW22315   3.011   0.892   6.322 -0.2051 -0.8581  0.2198
 3561SOL    HW122316   3.014   0.882   6.417  0.3853  0.4101  0.3438
 3561SOL    HW222317   3.101   0.860   6.315 -0.0776 -0.3988 -0.1928
 3562SOL     OW22318   0.002   1.374   7.634 -0.1849  0.4393 -0.0776
 3562SOL    HW122319   4.682   1.429   7.692  0.9234  1.2697  0.1325
 3562SOL    HW222320   4.669   1.329   7.580  0.1531 -0.6264  0.4056
 3563SOL     OW22321   2.420   0.200   9.692 -0.0919  0.3532  0.3856
 3563SOL    HW122322   2.357   0.133   9.667  1.3030 -0.7374 -0.2002
 3563SOL    HW222323   2.449   0.161   9.775  3.9974  3.0720  0.2419
 3564SOL     OW22324   0.534   0.321  10.670  0.4488 -0.2946 -0.2152
 3564SOL    HW122325   0.528   0.225  10.675  0.5117 -0.2725  0.3420
 3564SOL    HW222326   0.451   0.343  10.713  1.2179  2.5698 -0.2040
 3565SOL     OW22327   3.015   4.191   4.728 -0.0052  0.7541  0.3901
 3565SOL    HW122328   3.003   4.240   4.646  2.9155 -1.2757 -1.2317
 3565SOL    HW222329   3.061   4.112   4.700  0.5718  0.3604  2.4677
 3566SOL     OW22330   4.658   2.960   3.694 -0.1977 -0.0380  0.2558
 3566SOL    HW122331   4.726   2.977   3.630  0.9901  1.7927  1.9805
 3566SOL    HW222332   4.628   3.051   3.703 -0.3505  0.0675 -1.3385
 3567SOL     OW22333   0.934   1.271  13.250 -0.4929  0.4300  0.0708
 3567SOL    HW122334   0.855   1.292  13.199 -1.7772 -3.5538  0.4748
 3567SOL    HW222335   0.940   1.351  13.302 -2.1303  0.6762 -0.1363
 3568SOL     OW22336   3.367   2.794   1.476  0.7937  0.2153  0.1872
 3568SOL    HW122337   3.282   2.838   1.483  1.2143  1.3577 -1.7344
 3568SOL    HW222338   3.379   2.805   1.381  0.1813 -0.8269 -0.0028
 3569SOL     OW22339   1.694   1.397  11.836  0.0597  0.1106  0.7776
 3569SOL    HW122340   1.708   1.492  11.832 -1.7774  0.2906 -1.2650
 3569SOL    HW222341   1.731   1.362  11.755 -2.1340  1.9306 -1.0095
 3570SOL     OW22342   1.567   2.791   9.448 -0.0978  0.1339 -0.0218
 3570SOL    HW122343   1.590   2.712   9.496 -1.2008 -1.7251 -2.5904
 3570SOL    HW222344   1.503   2.762   9.383 -2.0308  1.4136  1.2677
 3571SOL     OW22345   2.862   3.480  15.094  0.2669  0.3282 -0.0309
 3571SOL    HW122346   2.951   3.513  15.102  1.2143 -1.3658 -3.6532
 3571SOL    HW222347   2.864   3.445  15.005 -0.1673  0.1185  0.0397
 3572SOL     OW22348   4.302   4.242   9.122  0.4462  0.3020 -0.5888
 3572SOL    HW122349   4.369   4.246   9.191 -0.0268 -0.6828 -0.0727
 3572SOL    HW222350   4.233   4.302   9.150  1.2501 -0.3488  2.7242
 3573SOL     OW22351   0.683   1.235  15.794 -0.0507 -0.2880  0.9925
 3573SOL    HW122352   0.687   1.167  15.862 -1.5039 -0.5549  0.8150
 3573SOL    HW222353   0.729   1.308  15.836  0.6044  0.1996 -0.5878
 3574SOL     OW22354   3.711   1.753   0.251  0.3732 -0.9150 -0.2105
 3574SOL    HW122355   3.655   1.756   0.328  1.2153  2.4014  0.2674
 3574SOL    HW222356   3.709   1.843   0.217  0.8638  0.0864  2.4234
 3575SOL     OW22357   2.770   0.363  16.925  0.2520 -0.4176 -0.7348
 3575SOL    HW122358   2.686   0.322  16.903 -0.3427  0.4388 -0.1092
 3575SOL    HW222359   2.777   0.454  16.895  0.6566 -0.4072 -0.6099
 3576SOL     OW22360   3.539   2.095   4.886 -0.3373  0.3433  0.0652
 3576SOL    HW122361   3.547   2.007   4.923 -1.3482  2.1727  4.6387
 3576SOL    HW222362   3.453   2.119   4.920 -1.0440  1.4966 -2.5236
 3577SOL     OW22363   2.865   3.512   7.874 -0.2908 -0.5962  0.1036
 3577SOL    HW122364   2.937   3.513   7.938 -0.7125 -1.4783  0.5911
 3577SOL    HW222365   2.872   3.602   7.842  2.0125 -1.4481 -1.7499
 3578SOL     OW22366   0.472   2.431   8.261  0.0513  0.1606  0.2954
 3578SOL    HW122367   0.537   2.498   8.242 -2.0323  1.4798 -2.1104
 3578SOL    HW222368   0.427   2.433   8.177  0.1780 -2.2536  0.1594
 3579SOL     OW22369   4.577   4.289   7.847  0.0965 -0.2880 -0.2221
 3579SOL    HW122370   4.553   4.317   7.935 -0.0376 -2.0373  0.3015
 3579SOL    HW222371   4.603   4.202   7.877  1.1094  0.2482  0.4799
 3580SOL     OW22372   0.035   2.634  17.238 -0.5938 -0.3907 -0.0057
 3580SOL    HW122373   4.677   2.619  17.209  0.0900 -1.0860 -1.8259
 3580SOL    HW222374   0.030   2.719  17.281  0.5524  0.2711 -1.1686
 3581SOL     OW22375   3.800   2.490  14.415 -0.4105 -0.7695  0.1542
 3581SOL    HW122376   3.758   2.501  14.329  0.2921 -2.0350 -0.3642
 3581SOL    HW222377   3.772   2.567  14.465 -0.2535 -0.3267 -0.4376
 3582SOL     OW22378   3.962   3.789   4.219  0.0504  0.2257  0.6655
 3582SOL    HW122379   3.978   3.696   4.233 -1.9614  0.2226  2.8980
 3582SOL    HW222380   3.979   3.821   4.308  1.5626  1.9908 -0.2782
 3583SOL     OW22381   1.252   2.800   7.752 -0.3690  0.0106 -0.2725
 3583SOL    HW122382   1.284   2.732   7.811  0.1695  1.5085  1.1683
 3583SOL    HW222383   1.160   2.776   7.740 -0.7956  1.3165  0.3487
 3584SOL     OW22384   1.323   0.675   9.008  0.0820 -0.1818  0.2769
 3584SOL    HW122385   1.401   0.719   9.039 -1.0769  3.3267 -1.8201
 3584SOL    HW222386   1.344   0.583   9.027 -0.6874 -0.3170  0.4875
 3585SOL     OW22387   2.280   4.515   8.196 -0.3401  0.5578 -0.3106
 3585SOL    HW122388   2.330   4.566   8.260  0.5394 -0.3403 -0.2665
 3585SOL    HW222389   2.332   4.531   8.117  1.5705 -0.4468  0.7350
 3586SOL     OW22390   1.564   3.057  13.089 -0.1736  0.5045  0.5396
 3586SOL    HW122391   1.607   3.062  13.175  0.5287  0.7916  0.1719
 3586SOL    HW222392   1.531   3.146  13.080 -0.2714  0.2308 -1.6637
 3587SOL     OW22393   4.302   2.527   3.152 -0.0471  0.0471 -0.5267
 3587SOL    HW122394   4.227   2.508   3.209  0.0162 -1.0983 -0.8138
 3587SOL    HW222395   4.309   2.622   3.155  1.3054 -0.0412 -1.1223
 3588SOL     OW22396   3.574   1.828  12.343  0.1285  0.0892 -0.1586
 3588SOL    HW122397   3.577   1.815  12.248  1.2330  1.0820 -0.2566
 3588SOL    HW222398   3.632   1.766  12.386  1.3640  0.9479 -0.5914
 3589SOL     OW22399   4.648   3.951   2.462  0.1783 -0.5909 -0.0259
 3589SOL    HW122400   4.711   3.892   2.503 -0.3448 -0.8217  0.4450
 3589SOL    HW222401   4.605   3.993   2.536  2.4899 -0.0285  0.9785
 3590SOL     OW22402   3.438   2.386   8.759  0.0898  0.6020  0.6368
 3590SOL    HW122403   3.371   2.448   8.786 -0.2915 -0.1654  1.4594
 3590SOL    HW222404   3.503   2.428   8.815  0.1889  1.0294  0.1949
 3591SOL     OW22405   3.223   4.034  14.340 -0.1415  0.5681  0.1486
 3591SOL    HW122406   3.223   4.025  14.245  1.6443  1.4023  0.0774
 3591SOL    HW222407   3.207   4.125  14.364  1.0490  0.3634  1.7312
 3592SOL     OW22408   2.818   3.919  13.110 -0.1513 -0.3158  0.4649
 3592SOL    HW122409   2.779   3.975  13.177 -2.5247 -0.0030 -1.2010
 3592SOL    HW222410   2.895   3.973  13.093  0.6843 -1.6095  0.1095
 3593SOL     OW22411   4.443   4.404   5.137 -0.4441  0.2737 -0.1111
 3593SOL    HW122412   4.454   4.481   5.082  0.1106  0.0753 -0.2832
 3593SOL    HW222413   4.431   4.448   5.221  0.4975 -1.1901  0.8109
 3594SOL     OW22414   0.646   3.916   4.145 -0.3457  0.0885  0.3901
 3594SOL    HW122415   0.573   3.929   4.206 -0.2357  0.9429  0.3362
 3594SOL    HW222416   0.707   3.988   4.158 -0.6214  0.6369 -1.3689
 3595SOL     OW22417   1.067   0.315  17.618  0.4298 -0.5766 -0.2720
 3595SOL    HW122418   1.146   0.300  17.670  0.4731  1.7835  0.3293
 3595SOL    HW222419   1.083   0.403  17.585 -2.1579  0.1452  0.4086
 3596SOL     OW22420   3.739   2.304   7.084 -0.7448  0.1681  0.5381
 3596SOL    HW122421   3.739   2.213   7.113 -0.5348  0.0513  0.1731
 3596SOL    HW222422   3.658   2.321   7.036  0.3622 -0.3707 -1.5380
 3597SOL     OW22423   3.846   3.645   3.288  0.4927  0.3178  0.6012
 3597SOL    HW122424   3.809   3.688   3.365 -1.3463  0.9065 -0.6339
 3597SOL    HW222425   3.874   3.563   3.330  3.7403  1.7176  1.1345
 3598SOL     OW22426   0.860   2.496   3.241  0.0054 -0.0998 -0.6199
 3598SOL    HW122427   0.905   2.569   3.284  0.3899 -1.6418  1.5964
 3598SOL    HW222428   0.798   2.544   3.186 -0.6504  0.2592  0.4196
 3599SOL     OW22429   2.061   4.276   7.380  0.5770 -0.1709 -0.3836
 3599SOL    HW122430   2.026   4.354   7.335  0.1758  0.0160  0.2618
 3599SOL    HW222431   2.011   4.275   7.461  2.2466  1.4226  0.6614
 3600SOL     OW22432   3.447   2.973  15.543  0.1584 -0.2552 -0.1401
 3600SOL    HW122433   3.354   2.970  15.520  0.6938  1.5426 -2.4805
 3600SOL    HW222434   3.470   2.880  15.539  0.7941 -0.0373 -1.6379
 3601SOL     OW22435   2.711   0.330   2.038 -0.4555 -0.2072  0.0954
 3601SOL    HW122436   2.625   0.295   2.018  0.1599 -2.2963  1.0686
 3601SOL    HW222437   2.693   0.392   2.108 -1.6796  0.3448 -0.7138
 3602SOL     OW22438   4.419   1.619   3.459  0.1722 -0.0044  0.2823
 3602SOL    HW122439   4.511   1.643   3.474  0.3905 -1.2267  0.8667
 3602SOL    HW222440   4.396   1.688   3.397  2.0850  0.5371  0.1710
 3603SOL     OW22441   3.836   3.738   2.444  0.4155 -0.3037 -0.0549
 3603SOL    HW122442   3.876   3.821   2.470  2.9141 -1.2938 -0.6966
 3603SOL    HW222443   3.810   3.766   2.356 -0.4150  1.4508  0.7637
 3604SOL     OW22444   1.487   0.592   6.731  0.0359 -0.8274 -0.4371
 3604SOL    HW122445   1.491   0.505   6.771  0.1862 -0.6399 -0.0449
 3604SOL    HW222446   1.545   0.569   6.659  0.9788  2.6128 -0.7639
 3605SOL     OW22447   1.385   0.039   2.798 -0.0707  0.2174  0.1149
 3605SOL    HW122448   1.403   0.013   2.888 -0.3875  2.8483  0.9316
 3605SOL    HW222449   1.314   4.717   2.763  0.4457 -0.4056  0.0324
 3606SOL     OW22450   2.158   2.160   4.052 -0.1101  0.0688 -0.2391
 3606SOL    HW122451   2.114   2.241   4.029 -1.0980 -0.8821 -1.6512
 3606SOL    HW222452   2.248   2.192   4.045 -0.1566  0.3374  0.3901
 3607SOL     OW22453   2.071   2.615   3.783  0.2578  0.1595  0.1895
 3607SOL    HW122454   2.120   2.612   3.865 -0.3052  1.2658  0.5630
 3607SOL    HW222455   2.118   2.681   3.732 -0.9906 -1.6031 -3.2681
 3608SOL     OW22456   1.894   0.498   2.667 -0.3721  0.2874  0.2670
 3608SOL    HW122457   1.928   0.579   2.630  1.1449  0.7280  2.5973
 3608SOL    HW222458   1.967   0.491   2.729  1.8127  0.0329 -2.3418
 3609SOL     OW22459   1.283   3.789   3.299 -0.2282 -0.3061 -0.4185
 3609SOL    HW122460   1.215   3.804   3.233 -0.9466  0.2827  0.4348
 3609SOL    HW222461   1.348   3.741   3.250  2.2444  1.0509  1.5285
 3610SOL     OW22462   4.047   3.154   6.157 -0.0099  0.6721 -0.4515
 3610SOL    HW122463   4.049   3.246   6.185  2.3944  0.8832 -1.3079
 3610SOL    HW222464   3.997   3.157   6.075  0.1163  1.3041 -0.5096
 3611SOL     OW22465   3.559   4.729   8.863 -0.0958  0.0225 -0.1337
 3611SOL    HW122466   3.503   4.693   8.931  1.0208  0.3081  0.9391
 3611SOL    HW222467   3.494   0.022   8.798 -0.3490  1.6489  0.7519
 3612SOL     OW22468   4.062   2.068   3.857  0.6027  0.3403  0.0721
 3612SOL    HW122469   4.070   1.990   3.802  1.6870  0.7865 -0.4211
 3612SOL    HW222470   3.991   2.042   3.916  0.8114  0.1263  0.2343
 3613SOL     OW22471   3.777   4.543   6.620  0.0455 -1.4139  0.1440
 3613SOL    HW122472   3.815   4.500   6.543  1.0801 -2.7549  1.4168
 3613SOL    HW222473   3.691   4.547   6.579 -0.5786 -0.2878  1.5765
 3614SOL     OW22474   1.676   2.299   2.969 -0.1281 -0.3038  0.1935
 3614SOL    HW122475   1.687   2.204   2.971  1.1987 -0.1613 -0.3545
 3614SOL    HW222476   1.759   2.316   2.925  0.6126 -0.0514  1.6739
 3615SOL     OW22477   3.858   3.194   4.832 -0.1666 -0.1622 -0.3113
 3615SOL    HW122478   3.884   3.103   4.823  0.7011  0.0128  0.4520
 3615SOL    HW222479   3.936   3.248   4.845 -1.1080  0.8823  1.0157
 3616SOL     OW22480   4.278   2.539   3.910 -0.2714 -0.4581  0.2937
 3616SOL    HW122481   4.298   2.446   3.901 -1.2558 -0.8743  2.4149
 3616SOL    HW222482   4.218   2.546   3.836 -2.7613  0.6500  2.4149
 3617SOL     OW22483   0.492   2.710  13.654  0.1260  0.0024 -0.2956
 3617SOL    HW122484   0.573   2.718  13.604  0.4334  2.5369  0.6057
 3617SOL    HW222485   0.476   2.615  13.649 -1.1131  0.2035 -0.2015
 3618SOL     OW22486   3.399   3.756   8.519  0.1211 -0.0903  0.0275
 3618SOL    HW122487   3.474   3.810   8.545 -0.8966  1.6736 -0.6893
 3618SOL    HW222488   3.375   3.806   8.441 -1.4584 -1.2720 -0.2399
 3619SOL     OW22489   1.894   0.071   3.777 -0.2026  0.0278 -0.0912
 3619SOL    HW122490   1.879   0.133   3.848 -2.1492 -1.4067  0.7429
 3619SOL    HW222491   1.809   0.059   3.736  0.8062  2.4323 -2.9076
 3620SOL     OW22492   4.417   1.809   9.154 -0.1196  0.1180 -0.4844
 3620SOL    HW122493   4.416   1.895   9.113 -2.3762 -0.1612 -1.0191
 3620SOL    HW222494   4.323   1.801   9.168  0.2053  0.4775  1.8100
 3621SOL     OW22495   1.525   3.925   9.469  0.0165 -0.5633 -0.2873
 3621SOL    HW122496   1.612   3.886   9.456 -0.3587 -1.0866 -1.1633
 3621SOL    HW222497   1.516   3.979   9.391 -0.1339 -0.4101 -0.1645
 3622SOL     OW22498   3.342   0.444  16.483 -0.0857 -0.7611  0.1610
 3622SOL    HW122499   3.269   0.437  16.545 -1.9218  2.4052 -1.6709
 3622SOL    HW222500   3.317   0.526  16.442  2.5660 -0.3175 -0.5923
 3623SOL     OW22501   2.235   0.843   2.385  0.1328  0.0238 -0.2985
 3623SOL    HW122502   2.144   0.874   2.392  0.2503  1.1010 -3.5724
 3623SOL    HW222503   2.234   0.767   2.443 -0.4747 -0.2430 -0.6613
 3624SOL     OW22504   4.473   3.147   6.216  0.2744 -0.4559  0.0704
 3624SOL    HW122505   4.563   3.176   6.232  0.5565 -0.9502 -0.6131
 3624SOL    HW222506   4.486   3.053   6.215 -1.4061 -0.6765 -0.9208
 3625SOL     OW22507   2.477   1.879   8.214  0.2652 -0.3819 -0.0538
 3625SOL    HW122508   2.388   1.864   8.248  0.6284 -1.7091  0.3013
 3625SOL    HW222509   2.492   1.960   8.262  0.1108 -0.4952  0.1832
 3626SOL     OW22510   1.106   2.571   6.851  0.4618 -0.1156 -0.0100
 3626SOL    HW122511   1.122   2.488   6.895  0.5476 -0.9928 -1.6708
 3626SOL    HW222512   1.167   2.631   6.894 -2.4393  2.1656  0.9584
 3627SOL     OW22513   2.400   1.250   2.854  0.1259 -0.0883 -0.4111
 3627SOL    HW122514   2.338   1.177   2.848  1.4610 -0.8626 -5.0918
 3627SOL    HW222515   2.479   1.203   2.826  0.5905  0.7009 -0.4511
 3628SOL     OW22516   3.094   3.873   8.929 -0.3859  0.4508 -0.3244
 3628SOL    HW122517   3.065   3.797   8.877 -0.5939  0.0957  0.3007
 3628SOL    HW222518   3.139   3.845   9.009 -1.0466 -2.2125 -0.8671
 3629SOL     OW22519   2.740   0.150   5.593  0.2244 -0.3517 -0.1819
 3629SOL    HW122520   2.806   0.180   5.656  1.0584  0.5931 -1.5190
 3629SOL    HW222521   2.663   0.143   5.651 -0.5855  2.7834 -0.8728
 3630SOL     OW22522   1.626   4.565   0.661  0.4771  0.2868  0.1258
 3630SOL    HW122523   1.536   4.566   0.693  0.3820 -0.6764 -0.1054
 3630SOL    HW222524   1.655   4.475   0.675 -0.3880  0.4124  2.7717
 3631SOL     OW22525   1.352   3.927   5.767  0.1665  0.4167  0.0926
 3631SOL    HW122526   1.267   3.893   5.794 -0.5497  1.4012 -0.9223
 3631SOL    HW222527   1.413   3.867   5.810 -0.1336  1.1974  1.6283
 3632SOL     OW22528   3.570   0.737   5.411  0.3863 -0.1038  0.2819
 3632SOL    HW122529   3.532   0.783   5.486  0.6368 -1.1071  1.0355
 3632SOL    HW222530   3.499   0.752   5.350 -0.6196  1.5654  1.8652
 3633SOL     OW22531   2.757   2.515   8.411 -0.4236  0.9882 -0.2338
 3633SOL    HW122532   2.718   2.601   8.396  0.8257  1.5158 -0.4732
 3633SOL    HW222533   2.823   2.523   8.342 -0.8780 -1.3419 -0.9259
 3634SOL     OW22534   3.518   1.807   9.177  0.1668  0.2942  0.3889
 3634SOL    HW122535   3.577   1.880   9.195 -0.1734  0.8572 -0.8218
 3634SOL    HW222536   3.575   1.730   9.183  0.7086  0.6946  0.3437
 3635SOL     OW22537   0.777   2.844  15.008 -0.2042 -0.1076 -0.6740
 3635SOL    HW122538   0.730   2.835  14.925  3.8684  1.0138 -3.0833
 3635SOL    HW222539   0.820   2.927  14.988 -1.5898  1.1225  1.4476
 3636SOL     OW22540   0.695   4.306   5.698  0.2390  0.0117  0.7784
 3636SOL    HW122541   0.768   4.286   5.639  2.8964  3.4916  2.8758
 3636SOL    HW222542   0.649   4.362   5.635  1.5617  0.5191  0.2791
 3637SOL     OW22543   0.115   1.598   7.468  0.5466  0.2794 -0.0973
 3637SOL    HW122544   0.117   1.516   7.518 -1.6675  0.1829 -0.1774
 3637SOL    HW222545   0.069   1.656   7.528 -2.1001  0.4944 -2.3489
 3638SOL     OW22546   0.726   0.973   1.638  0.3241  0.5877 -0.2921
 3638SOL    HW122547   0.735   0.903   1.573  3.0305  0.8068 -0.1921
 3638SOL    HW222548   0.817   1.005   1.631  0.8871 -0.2701  3.0084
 3639SOL     OW22549   3.872   1.936   1.228  0.2656 -0.2460 -0.2843
 3639SOL    HW122550   3.852   1.954   1.319  2.7269  0.0572  0.1959
 3639SOL    HW222551   3.967   1.928   1.228  0.4341  1.7603 -0.1526
 3640SOL     OW22552   0.090   2.302   7.625  0.0712 -0.6284  0.3505
 3640SOL    HW122553   0.061   2.271   7.539  0.0439 -1.9688  0.8341
 3640SOL    HW222554   0.026   2.252   7.676 -0.1164  1.1871  1.8788
 3641SOL     OW22555   1.648   4.579   9.039 -0.0453  0.5940  0.7156
 3641SOL    HW122556   1.720   4.640   9.024  0.1858 -0.2531 -1.6760
 3641SOL    HW222557   1.586   4.624   9.095  0.2357  0.5542  1.0567
 3642SOL     OW22558   1.656   0.416  14.148 -0.3652 -0.0466 -0.4929
 3642SOL    HW122559   1.616   0.399  14.062  0.6324 -0.6626 -0.8332
 3642SOL    HW222560   1.628   0.507  14.145 -0.7741 -0.0944  1.4821
 3643SOL     OW22561   2.088   0.196  12.675 -0.0573 -0.1855  0.1231
 3643SOL    HW122562   2.153   0.129  12.693  1.7792  0.7326 -3.2140
 3643SOL    HW222563   2.054   0.220  12.761 -1.8559 -1.5926 -0.1758
 3644SOL     OW22564   2.763   3.542   7.359 -0.1750  0.3559  0.6871
 3644SOL    HW122565   2.827   3.470   7.357  0.5218  0.9811  0.3858
 3644SOL    HW222566   2.736   3.536   7.450  0.3387  2.3855  0.9779
 3645SOL     OW22567   1.025   0.607   3.295 -0.3795 -0.1488  0.3151
 3645SOL    HW122568   1.117   0.582   3.291 -0.0885  0.9924 -0.2878
 3645SOL    HW222569   0.984   0.561   3.222  0.5924  1.1115 -1.0517
 3646SOL     OW22570   3.864   2.065  17.449 -0.3192 -0.2619  0.1670
 3646SOL    HW122571   3.879   2.100  17.361 -0.5633 -0.1190  0.1819
 3646SOL    HW222572   3.903   2.134  17.501  2.4261 -1.0982 -0.7875
 3647SOL     OW22573   2.886   0.069   4.059  0.6048  0.0948 -0.5848
 3647SOL    HW122574   2.933   0.068   3.975 -4.0025  0.1857 -3.1602
 3647SOL    HW222575   2.886   0.164   4.074  1.2052 -0.4395  2.7211
 3648SOL     OW22576   1.617   0.408   9.113 -0.8112 -0.6008  0.6864
 3648SOL    HW122577   1.679   0.475   9.141  1.7786 -3.3607  1.4810
 3648SOL    HW222578   1.665   0.335   9.153  1.4568  0.6192  0.1681
 3649SOL     OW22579   2.700   4.440   3.948  0.5940 -0.0419 -0.1971
 3649SOL    HW122580   2.726   4.444   3.856 -0.8822  1.2217 -0.5604
 3649SOL    HW222581   2.724   4.349   3.967 -0.9453 -0.7903 -1.7856
 3650SOL     OW22582   3.288   0.004   7.939 -0.1957  0.2693 -0.1876
 3650SOL    HW122583   3.211   4.680   7.931 -0.7583  1.2976 -2.0267
 3650SOL    HW222584   3.299   0.011   8.034 -0.5246 -2.2224  0.0393
 3651SOL     OW22585   3.116   4.202   2.870 -0.5526 -0.0707 -0.4175
 3651SOL    HW122586   3.051   4.133   2.861 -3.0719  2.3021 -0.3960
 3651SOL    HW222587   3.083   4.246   2.948 -0.3493 -0.4734 -0.1048
 3652SOL     OW22588   4.296   3.160  10.537  0.1050 -0.0403  0.8853
 3652SOL    HW122589   4.363   3.214  10.495 -0.9756  1.4700  1.0922
 3652SOL    HW222590   4.357   3.116  10.596  0.0417 -0.5223  0.5851
 3653SOL     OW22591   3.747   3.704   7.740 -0.3962 -0.1618  0.0672
 3653SOL    HW122592   3.778   3.622   7.779  0.9521  0.8054  1.0374
 3653SOL    HW222593   3.743   3.669   7.651 -0.5704 -0.8733  0.3506
 3654SOL     OW22594   3.727   0.381   5.959  0.1395 -0.4591 -0.0311
 3654SOL    HW122595   3.811   0.336   5.953  0.1913 -0.2249 -1.0054
 3654SOL    HW222596   3.712   0.382   6.054  3.5059  2.2421  0.4839
 3655SOL     OW22597   2.609   3.879   7.098 -0.2479  0.8364  0.1777
 3655SOL    HW122598   2.535   3.939   7.086 -0.9251  0.0514  0.4569
 3655SOL    HW222599   2.555   3.818   7.148 -1.1954 -0.7535 -2.7903
 3656SOL     OW22600   0.250   4.155  11.329  0.3322  0.1677  0.3156
 3656SOL    HW122601   0.316   4.121  11.268 -0.9406  1.0340 -1.5669
 3656SOL    HW222602   0.229   4.072  11.372 -0.8150 -0.7734 -2.0627
 3657SOL     OW22603   2.189   4.584   0.196  0.1140 -0.3267 -0.0072
 3657SOL    HW122604   2.114   4.571   0.253 -0.7330 -0.3965 -1.1403
 3657SOL    HW222605   2.199   4.679   0.195 -1.4742 -0.1809 -0.9698
 3658SOL     OW22606   1.419   4.625   1.526  0.4870  0.0459  0.2257
 3658SOL    HW122607   1.327   4.630   1.554  0.9837  1.0103  1.6940
 3658SOL    HW222608   1.442   4.718   1.532  2.6497 -0.4974  0.0398
 3659SOL     OW22609   0.137   3.455  13.107  0.0078 -0.0491  0.1255
 3659SOL    HW122610   0.141   3.372  13.059 -0.3164 -0.0742  0.1429
 3659SOL    HW222611   0.229   3.468  13.130 -0.3378  0.0338  1.4506
 3660SOL     OW22612   1.224   2.159   8.918 -0.5965 -0.6403  0.5207
 3660SOL    HW122613   1.292   2.116   8.866 -1.4892 -0.1598 -1.0417
 3660SOL    HW222614   1.167   2.197   8.851  1.2836 -0.8127 -1.2001
 3661SOL     OW22615   3.624   1.380  16.097  0.1911  0.2567 -0.6243
 3661SOL    HW122616   3.598   1.447  16.161  0.9854 -1.0419  1.0558
 3661SOL    HW222617   3.708   1.421  16.077 -1.0524  3.5157  0.7695
 3662SOL     OW22618   4.606   0.657   2.876 -0.0159 -0.1683  0.0209
 3662SOL    HW122619   4.533   0.612   2.834  1.5590 -1.6125 -1.1488
 3662SOL    HW222620   4.626   0.724   2.811  0.3145 -0.2065  0.0801
 3663SOL     OW22621   2.575   4.390  17.489 -0.5781  0.9261  0.5756
 3663SOL    HW122622   2.549   4.299  17.473  1.8911  0.3769 -0.4086
 3663SOL    HW222623   2.634   4.400  17.414 -0.6561 -3.6464 -0.1197
 3664SOL     OW22624   3.898   2.627   4.111 -0.0338  0.1204  0.0202
 3664SOL    HW122625   3.907   2.544   4.063 -0.7011  1.2775 -2.0933
 3664SOL    HW222626   3.888   2.593   4.200 -0.8759  0.6668  0.1369
 3665SOL     OW22627   2.366   1.295   3.191  0.5701  0.9048  0.0717
 3665SOL    HW122628   2.317   1.341   3.123 -0.8889 -0.2258  0.3735
 3665SOL    HW222629   2.317   1.331   3.266 -1.4892  3.2914 -2.4093
 3666SOL     OW22630   0.269   4.196  14.330 -0.4213  0.2973  0.8562
 3666SOL    HW122631   0.180   4.229  14.314 -0.3786 -0.1046 -0.2237
 3666SOL    HW222632   0.263   4.106  14.297  0.0436  1.7981 -3.3152
 3667SOL     OW22633   0.972   1.339   6.860 -0.4179  0.9644 -0.1391
 3667SOL    HW122634   1.066   1.332   6.876 -0.5529 -0.4511 -0.0066
 3667SOL    HW222635   0.976   1.330   6.765  1.4637 -1.0858  0.1330
 3668SOL     OW22636   3.873   3.472  10.273 -0.8290 -0.2485 -0.4373
 3668SOL    HW122637   3.830   3.534  10.331 -0.9368 -0.3850 -0.3693
 3668SOL    HW222638   3.891   3.526  10.196 -2.7674  0.3220 -0.5021
 3669SOL     OW22639   1.014   2.207  17.572 -0.0745 -0.0412 -0.2156
 3669SOL    HW122640   1.066   2.199  17.493 -0.0076 -0.1370 -0.1631
 3669SOL    HW222641   1.011   2.119  17.611  0.9267 -0.5320 -1.2604
 3670SOL     OW22642   2.624   3.115   4.246  0.2079 -0.3634  0.3764
 3670SOL    HW122643   2.639   3.132   4.339 -1.9348  0.7235  0.5314
 3670SOL    HW222644   2.579   3.197   4.223  0.1171  0.1697  2.3750
 3671SOL     OW22645   2.400   2.983  15.760 -0.7494  0.5265 -0.7524
 3671SOL    HW122646   2.447   2.936  15.829 -2.1125 -0.3315 -0.4050
 3671SOL    HW222647   2.475   3.001  15.703  0.6863  1.9327  1.5804
 3672SOL     OW22648   3.094   0.685   5.824  0.1362  0.1944 -0.3210
 3672SOL    HW122649   3.108   0.743   5.898 -0.6682  0.3797 -0.3182
 3672SOL    HW222650   3.176   0.637   5.834  0.6084  1.5087  2.0304
 3673SOL     OW22651   2.608   2.626   6.133 -0.1133 -0.3510  0.5840
 3673SOL    HW122652   2.542   2.588   6.192 -2.5939 -0.0327 -2.0013
 3673SOL    HW222653   2.560   2.704   6.107 -0.8702 -0.0620  2.7999
 3674SOL     OW22654   1.317   0.632   2.762  0.6924  0.1022 -0.2389
 3674SOL    HW122655   1.357   0.559   2.715 -0.1506  0.2134 -1.1294
 3674SOL    HW222656   1.223   0.630   2.744  0.4214  0.8912  1.0962
 3675SOL     OW22657   1.326   3.333   9.450 -0.1511 -0.1842  0.5700
 3675SOL    HW122658   1.372   3.251   9.435 -0.0224 -0.4445  2.4189
 3675SOL    HW222659   1.278   3.335   9.367  1.4448  1.6577 -0.3222
 3676SOL     OW22660   1.354   4.328   2.602  0.3914 -0.3837  0.6619
 3676SOL    HW122661   1.275   4.306   2.552 -0.7273  0.6671  1.9583
 3676SOL    HW222662   1.321   4.367   2.683  1.3418  1.8299 -0.0264
 3677SOL     OW22663   3.104   2.306   7.489  0.2566  0.0806 -0.4120
 3677SOL    HW122664   3.062   2.389   7.512  1.8826  1.2636 -1.6548
 3677SOL    HW222665   3.034   2.240   7.491 -1.5383  2.0074  0.0637
 3678SOL     OW22666   3.422   1.684   5.169 -0.0077  0.0028 -0.4247
 3678SOL    HW122667   3.388   1.599   5.194 -0.9331  0.3233 -0.6099
 3678SOL    HW222668   3.391   1.739   5.241 -1.6424 -0.8842 -0.4476
 3679SOL     OW22669   2.679   4.705  14.595  0.5586 -0.6866 -0.4528
 3679SOL    HW122670   2.693   4.663  14.510 -1.6547  0.7836 -1.5291
 3679SOL    HW222671   2.766   0.009  14.613 -0.7656  1.9455  0.6226
 3680SOL     OW22672   3.864   1.723  17.275  0.5718  0.5573 -0.2041
 3680SOL    HW122673   3.949   1.737  17.316  0.5335 -0.7317  0.3171
 3680SOL    HW222674   3.868   1.627  17.268  1.3425  0.6276 -0.7260
 3681SOL     OW22675   2.269   3.005   6.853  0.2655  0.4479  0.0987
 3681SOL    HW122676   2.316   3.087   6.841  0.2494  0.4793  0.2463
 3681SOL    HW222677   2.347   2.951   6.845 -0.7177 -0.8791 -0.4550
 3682SOL     OW22678   2.047   2.785   2.769  0.1416  0.1804 -0.4742
 3682SOL    HW122679   2.030   2.714   2.831  2.2768  1.5215  1.6803
 3682SOL    HW222680   1.978   2.756   2.710  0.4435  1.4938 -1.4658
 3683SOL     OW22681   2.102   4.189   4.491 -0.3831 -0.3052 -0.2577
 3683SOL    HW122682   2.155   4.187   4.411 -0.8396  0.2327 -0.5733
 3683SOL    HW222683   2.069   4.099   4.495 -0.9636 -0.0679  0.2618
 3684SOL     OW22684   0.678   3.784   6.490  0.1348  0.9270  0.2298
 3684SOL    HW122685   0.736   3.809   6.418 -0.0807 -1.7656 -0.8740
 3684SOL    HW222686   0.714   3.827   6.567 -0.2528  1.1109  0.3089
 3685SOL     OW22687   0.749   2.759   4.041  0.0604  0.4346  1.3521
 3685SOL    HW122688   0.787   2.782   4.126 -0.3855  2.4629  1.0085
 3685SOL    HW222689   0.783   2.672   4.024 -1.3805  0.3656 -1.2051
 3686SOL     OW22690   2.276   1.601   4.329  0.1103  0.0692 -0.3998
 3686SOL    HW122691   2.223   1.680   4.341  1.3395  0.8196  0.0866
 3686SOL    HW222692   2.347   1.625   4.388  0.6389 -0.3218 -0.8781
 3687SOL     OW22693   2.402   4.667   7.197  0.3610  0.3863  0.7943
 3687SOL    HW122694   2.491   4.645   7.221  0.4855  0.8815  0.7820
 3687SOL    HW222695   2.397   0.024   7.231  0.8465  0.7090  0.0061
 3688SOL     OW22696   4.022   1.437  14.582 -0.0083 -0.3658  0.3316
 3688SOL    HW122697   4.036   1.523  14.542  0.8797 -1.1901 -1.1640
 3688SOL    HW222698   3.998   1.458  14.672 -1.2423 -1.3694  0.2389
 3689SOL     OW22699   3.796   1.795  14.523  0.5119  0.3077 -0.7741
 3689SOL    HW122700   3.881   1.760  14.497  1.0934 -0.2405  1.7855
 3689SOL    HW222701   3.739   1.753  14.458  0.4498  0.8262 -1.0529
 3690SOL     OW22702   1.383   3.570  11.121  0.7688 -0.7147 -0.7326
 3690SOL    HW122703   1.468   3.586  11.163 -0.3702 -2.3901  2.1978
 3690SOL    HW222704   1.337   3.524  11.191 -0.0759  3.0428  1.2109
 3691SOL     OW22705   0.199   0.697   3.573  0.1383  0.1243 -0.4973
 3691SOL    HW122706   0.237   0.719   3.658 -0.0908 -0.0117 -0.3600
 3691SOL    HW222707   0.203   0.601   3.574 -1.3947  0.0753  0.4343
 3692SOL     OW22708   4.139   1.855   7.522  0.4293 -0.3760 -0.0419
 3692SOL    HW122709   4.069   1.793   7.502 -2.7925  2.8002  1.4265
 3692SOL    HW222710   4.185   1.864   7.438  2.1583  0.6887  1.0113
 3693SOL     OW22711   2.987   0.528   2.318  0.1577 -0.3108 -0.4889
 3693SOL    HW122712   2.900   0.529   2.359  0.1901 -2.9508 -0.3443
 3693SOL    HW222713   3.017   0.438   2.305 -0.7132 -0.7505  0.4981
 3694SOL     OW22714   0.046   2.077   2.654 -0.0989 -0.2816 -0.1076
 3694SOL    HW122715   4.732   2.012   2.706 -1.0043  0.3151 -0.1630
 3694SOL    HW222716   0.079   2.034   2.576  2.2562 -0.0827  0.7550
 3695SOL     OW22717   4.177   1.825  12.444  0.1985  0.0397 -0.3208
 3695SOL    HW122718   4.269   1.852  12.443 -0.1981  1.2864 -2.3139
 3695SOL    HW222719   4.184   1.743  12.493  1.0113  0.7277  0.7182
 3696SOL     OW22720   0.144   4.514   6.416  0.4973 -0.1163 -0.2064
 3696SOL    HW122721   0.088   4.585   6.446 -1.3173 -0.4205 -2.8716
 3696SOL    HW222722   0.091   4.435   6.405  1.3414 -0.7424  0.1571
 3697SOL     OW22723   0.377   1.165  10.213  0.0750 -0.3576 -0.3818
 3697SOL    HW122724   0.387   1.084  10.163  0.3522 -1.0503  0.7965
 3697SOL    HW222725   0.373   1.137  10.305 -0.6416  1.6060  0.1925
 3698SOL     OW22726   1.490   3.565   3.947  0.2148 -0.2510 -0.5721
 3698SOL    HW122727   1.500   3.638   3.885  0.6189  0.6437  0.5382
 3698SOL    HW222728   1.571   3.519   3.929  0.1921 -0.7834  0.7431
 3699SOL     OW22729   2.464   1.968  16.057  0.7278 -0.4110  0.0018
 3699SOL    HW122730   2.372   1.945  16.067  0.4427  0.4234 -0.7053
 3699SOL    HW222731   2.460   2.039  15.993 -0.8632 -0.2369  0.2935
 3700SOL     OW22732   0.071   0.846   2.166 -0.6453  0.3605  0.3265
 3700SOL    HW122733   0.141   0.899   2.204  0.5827 -1.0347 -0.0025
 3700SOL    HW222734   0.033   0.809   2.245 -0.0123  0.5057  0.6977
 3701SOL     OW22735   4.553   1.991   7.550 -0.2826 -0.2725  0.7687
 3701SOL    HW122736   4.499   1.975   7.628 -1.0776  0.2521  0.3255
 3701SOL    HW222737   4.576   1.898   7.544 -1.6221 -0.6206  0.9433
 3702SOL     OW22738   0.266   2.816   6.890  0.1285 -0.2280  0.1979
 3702SOL    HW122739   0.181   2.804   6.933  0.5992 -0.8049  0.9570
 3702SOL    HW222740   0.291   2.896   6.936  1.3889  0.9653 -2.5573
 3703SOL     OW22741   1.093   2.346   6.113 -0.1651 -0.0609 -0.3648
 3703SOL    HW122742   0.998   2.359   6.123 -0.3110 -1.3965  0.0160
 3703SOL    HW222743   1.110   2.419   6.054 -0.0584  0.5529  0.4330
 3704SOL     OW22744   3.733   3.997   6.641 -0.4162  0.1748  0.0727
 3704SOL    HW122745   3.769   4.029   6.558 -0.7531  0.6645  0.1188
 3704SOL    HW222746   3.658   3.943   6.617 -1.8060  1.7665  0.9061
 3705SOL     OW22747   4.535   0.473   0.355 -0.1299  0.4935  0.0044
 3705SOL    HW122748   4.475   0.517   0.415 -1.1413  0.5196 -1.0205
 3705SOL    HW222749   4.571   0.546   0.305  1.1370  0.8942  1.5031
 3706SOL     OW22750   4.193   2.605   3.640 -0.2252  0.0031 -0.0261
 3706SOL    HW122751   4.145   2.549   3.579 -2.2909  2.1314 -0.3276
 3706SOL    HW222752   4.123   2.668   3.657 -1.6545 -1.7367  0.5603
 3707SOL     OW22753   2.290   0.393  12.210 -0.1315 -0.0934  0.4161
 3707SOL    HW122754   2.204   0.402  12.168 -0.2690 -1.1685  0.4682
 3707SOL    HW222755   2.251   0.378  12.297 -1.1489 -0.9392 -0.1802
 3708SOL     OW22756   4.467   1.061   7.341  0.4405 -0.2963 -0.0458
 3708SOL    HW122757   4.386   1.045   7.292  0.3338 -2.2291  0.7722
 3708SOL    HW222758   4.516   0.988   7.303 -1.3671 -1.1315 -0.8005
 3709SOL     OW22759   1.726   2.530   0.633 -0.0647  0.0976  0.2769
 3709SOL    HW122760   1.735   2.554   0.725  2.3435 -0.0542  0.0712
 3709SOL    HW222761   1.638   2.565   0.618  0.4594  1.4278  0.3439
 3710SOL     OW22762   1.154   1.157   2.624 -0.0770 -0.8502 -0.2280
 3710SOL    HW122763   1.117   1.195   2.703  2.9630 -1.7965  1.6362
 3710SOL    HW222764   1.084   1.116   2.572  1.2149 -1.3930 -1.5587
 3711SOL     OW22765   0.884   0.548   3.918 -0.1284 -0.0470  0.3912
 3711SOL    HW122766   0.808   0.520   3.969  0.2138 -0.0128  0.9204
 3711SOL    HW222767   0.843   0.536   3.832 -1.0803 -1.4315  1.0408
 3712SOL     OW22768   4.119   4.489   9.679 -0.4720  0.6649 -0.0114
 3712SOL    HW122769   4.046   4.519   9.625 -2.1367 -1.2770  1.1427
 3712SOL    HW222770   4.192   4.510   9.621 -2.2087 -1.1589 -2.8378
 3713SOL     OW22771   3.413   2.972  11.411 -0.1771  0.2212 -0.2020
 3713SOL    HW122772   3.336   2.991  11.465  0.1948  0.2359  0.3260
 3713SOL    HW222773   3.388   3.021  11.332 -0.2380  2.6868  1.3456
 3714SOL     OW22774   2.219   0.573   5.830  0.0067 -0.4371  0.3754
 3714SOL    HW122775   2.208   0.575   5.735 -0.8642  0.7822  0.5057
 3714SOL    HW222776   2.150   0.509   5.841 -1.2157  0.4671 -2.0579
 3715SOL     OW22777   1.237   0.050   0.334 -0.0918  0.6735 -0.3495
 3715SOL    HW122778   1.282   0.002   0.264 -2.4900  0.0236 -1.4489
 3715SOL    HW222779   1.190   4.718   0.386  3.1081 -1.6957 -0.3727
 3716SOL     OW22780   3.876   2.137   8.049  0.4970 -0.1363 -0.1291
 3716SOL    HW122781   3.848   2.049   8.075 -2.3881  0.1469 -2.2115
 3716SOL    HW222782   3.817   2.186   8.106  0.2139 -0.1105 -0.4457
 3717SOL     OW22783   3.151   0.221   1.252 -0.2386 -0.6954 -0.2012
 3717SOL    HW122784   3.076   0.281   1.250 -0.1564 -0.5764  0.5960
 3717SOL    HW222785   3.127   0.162   1.181  1.3373 -2.0265  0.3708
 3718SOL     OW22786   0.158   0.834  12.486  0.0278  0.4250 -0.1156
 3718SOL    HW122787   0.179   0.864  12.398 -0.0711  2.9676  0.7372
 3718SOL    HW222788   0.164   0.919  12.529 -1.3926 -0.0315  0.9861
 3719SOL     OW22789   3.865   0.299  12.097 -0.2485  0.4739 -0.3042
 3719SOL    HW122790   3.819   0.318  12.179  2.5306 -0.8567  1.5404
 3719SOL    HW222791   3.940   0.247  12.125 -0.6799  1.1845  2.1437
 3720SOL     OW22792   0.778   3.814   3.944  0.3737 -0.5273 -0.2019
 3720SOL    HW122793   0.821   3.753   4.003  1.9510 -1.6628 -2.4888
 3720SOL    HW222794   0.718   3.852   4.008  1.4739 -1.0890  1.1443
 3721SOL     OW22795   1.538   3.857   1.768  0.6720  0.8169  0.0020
 3721SOL    HW122796   1.490   3.880   1.688 -0.8453 -2.7862 -0.1066
 3721SOL    HW222797   1.506   3.767   1.778  0.8751  0.5845 -1.4414
 3722SOL     OW22798   3.456   0.324   6.194 -0.0799 -0.4951  0.1179
 3722SOL    HW122799   3.439   0.332   6.101 -0.5248 -0.4819  0.2013
 3722SOL    HW222800   3.551   0.338   6.193 -0.1650  0.1554  1.5486
 3723SOL     OW22801   2.577   2.838  17.105 -0.0747  0.8224 -0.0989
 3723SOL    HW122802   2.511   2.838  17.175 -1.0985 -1.5820 -1.0809
 3723SOL    HW222803   2.649   2.849  17.166 -0.5107  1.8101  0.2337
 3724SOL     OW22804   1.051   4.383   3.400 -0.2202 -0.2087  0.5523
 3724SOL    HW122805   1.122   4.417   3.456 -0.1714 -0.0537  0.3956
 3724SOL    HW222806   1.023   4.305   3.448  0.1826 -1.7692 -1.7713
 3725SOL     OW22807   2.831   0.479  16.656 -0.0790 -0.2865 -0.1078
 3725SOL    HW122808   2.747   0.434  16.641 -0.3254  0.5707 -1.2919
 3725SOL    HW222809   2.819   0.539  16.729 -0.5226 -1.0932  0.4797
 3726SOL     OW22810   2.529   1.068   4.793 -0.5172 -0.2397  0.0847
 3726SOL    HW122811   2.568   1.017   4.865 -0.3916 -1.0653 -0.5616
 3726SOL    HW222812   2.534   0.993   4.734  1.1966  0.0384 -0.1281
 3727SOL     OW22813   2.188   2.471   9.256 -0.0854  0.1953 -0.4564
 3727SOL    HW122814   2.155   2.558   9.278  2.5471  1.1831 -0.4144
 3727SOL    HW222815   2.191   2.448   9.349  0.5815  0.4023 -0.4219
 3728SOL     OW22816   2.718   2.648   2.646  0.3944  0.0033 -0.3192
 3728SOL    HW122817   2.641   2.695   2.677  0.6388  0.5661 -0.5761
 3728SOL    HW222818   2.675   2.565   2.626 -2.0208  1.7517 -2.3485
 3729SOL     OW22819   2.640   3.664   8.723  0.3594  0.3561  0.5035
 3729SOL    HW122820   2.700   3.592   8.744 -0.5045 -0.0048  1.6949
 3729SOL    HW222821   2.648   3.720   8.800 -0.3821  2.8088 -1.2165
 3730SOL     OW22822   3.929   0.964   7.339  0.8490  0.1610  0.7809
 3730SOL    HW122823   3.880   1.033   7.384  0.1858 -0.1024  0.4645
 3730SOL    HW222824   4.007   0.960   7.394  1.3107 -1.8294 -0.0231
 3731SOL     OW22825   4.112   1.676   5.669 -0.0066 -0.1309  0.3751
 3731SOL    HW122826   4.072   1.592   5.649 -2.2062  1.2891 -1.1825
 3731SOL    HW222827   4.175   1.648   5.735  0.1265  2.9641  1.5826
 3732SOL     OW22828   2.707   2.187  13.769 -0.2164  0.1503 -0.1332
 3732SOL    HW122829   2.794   2.225  13.776  0.7852 -1.9137 -1.3791
 3732SOL    HW222830   2.723   2.105  13.723 -0.0295 -0.1652  0.4902
 3733SOL     OW22831   3.146   0.001  10.206  0.2641 -0.7898 -0.4377
 3733SOL    HW122832   3.211   4.678  10.249  2.1780 -0.6132 -3.1061
 3733SOL    HW222833   3.075   4.715  10.268  1.2082 -1.5294  0.4353
 3734SOL     OW22834   1.077   4.285  14.564 -0.2070  0.2666  0.3577
 3734SOL    HW122835   1.005   4.333  14.523 -0.4625 -0.0903  0.3885
 3734SOL    HW222836   1.029   4.243  14.636 -2.8088  3.1654  0.3079
 3735SOL     OW22837   3.902   2.279   4.531 -0.0397 -0.7006  0.2538
 3735SOL    HW122838   3.904   2.213   4.461  1.8239  0.0683 -0.4242
 3735SOL    HW222839   3.895   2.228   4.611  0.7463 -1.2507 -0.0208
 3736SOL     OW22840   4.063   3.279  10.233  0.1350  0.1839  0.1326
 3736SOL    HW122841   4.022   3.363  10.253 -0.7449  0.3057 -2.1755
 3736SOL    HW222842   3.984   3.229  10.253  0.0324  0.0332 -0.6517
 3737SOL     OW22843   4.047   0.433  11.960  0.7951 -0.0645 -0.4405
 3737SOL    HW122844   4.069   0.363  11.898  1.3457  0.5001 -0.8922
 3737SOL    HW222845   3.983   0.399  12.022  0.4190 -1.5134 -1.6052
 3738SOL     OW22846   0.402   2.420   5.758 -0.3631  0.4634  0.2194
 3738SOL    HW122847   0.434   2.506   5.731  0.3913  0.8128  2.2407
 3738SOL    HW222848   0.310   2.420   5.732  0.0758  0.4451 -1.3248
 3739SOL     OW22849   0.162   3.227   0.270  0.2672 -0.8636  0.8200
 3739SOL    HW122850   0.206   3.308   0.294 -0.7743 -0.8235  2.5921
 3739SOL    HW222851   0.155   3.236   0.175 -1.4867  1.5295  1.1922
 3740SOL     OW22852   4.179   4.719   0.202  0.2308  0.2399 -0.0917
 3740SOL    HW122853   4.188   0.041   0.124 -0.3296 -1.1989 -1.1538
 3740SOL    HW222854   4.089   4.690   0.186  0.4683 -0.2818 -0.4882
 3741SOL     OW22855   0.450   3.666   6.421 -0.1417  0.3288  0.0838
 3741SOL    HW122856   0.437   3.708   6.336 -0.3757  0.1341  0.0224
 3741SOL    HW222857   0.534   3.707   6.442 -0.6821  0.7113  1.4754
 3742SOL     OW22858   0.439   2.964   0.030 -0.6418  0.1695 -0.0595
 3742SOL    HW122859   0.485   2.887  17.726  1.4984  0.9260  1.1139
 3742SOL    HW222860   0.507   3.003   0.085 -0.3592 -1.5193  0.8022
 3743SOL     OW22861   2.592   1.750   9.869 -0.1106  0.2725  0.2280
 3743SOL    HW122862   2.633   1.728   9.785 -0.8623 -0.5074  0.0684
 3743SOL    HW222863   2.674   1.738   9.917  0.1023  0.3759 -0.1042
 3744SOL     OW22864   4.258   2.773  10.056  0.1345 -0.4976 -0.2348
 3744SOL    HW122865   4.246   2.837   9.986  0.8756  1.4159  1.3580
 3744SOL    HW222866   4.167   2.749  10.069  0.3309 -0.7227  0.7647
 3745SOL     OW22867   3.275   0.042   3.186  0.6412  0.1851  0.0936
 3745SOL    HW122868   3.313   0.002   3.108 -0.4248 -2.0592  0.6969
 3745SOL    HW222869   3.346   0.099   3.213  1.0927  0.0732 -0.8643
 3746SOL     OW22870   0.787   4.104  11.583 -0.0240 -0.6649  0.4849
 3746SOL    HW122871   0.862   4.066  11.537  0.8866  0.6595  0.8789
 3746SOL    HW222872   0.762   4.159  11.508  0.1800  0.4662  1.2590
 3747SOL     OW22873   4.110   1.486   3.040 -0.5892 -0.2382  0.0361
 3747SOL    HW122874   4.034   1.507   2.986 -0.8146 -1.3096 -0.0652
 3747SOL    HW222875   4.065   1.446   3.114  0.9047 -0.2894  0.9300
 3748SOL     OW22876   3.158   1.675   1.230 -0.2896 -0.0232  0.1529
 3748SOL    HW122877   3.181   1.639   1.144  0.6401 -0.4821  0.5972
 3748SOL    HW222878   3.126   1.764   1.212 -1.1340 -0.6729 -1.5900
 3749SOL     OW22879   3.550   3.619   9.636 -0.1132 -0.0745 -0.4275
 3749SOL    HW122880   3.460   3.603   9.609  0.6357 -0.2570 -2.8024
 3749SOL    HW222881   3.556   3.620   9.732  0.0881  1.7128 -0.4626
 3750SOL     OW22882   0.337   4.381   9.531  0.3059  0.0020 -0.3900
 3750SOL    HW122883   0.395   4.453   9.553  1.7869 -2.2932  3.1103
 3750SOL    HW222884   0.337   4.323   9.607 -1.4847  0.6705  0.1166
 3751SOL     OW22885   2.389   3.338   0.043 -0.2412  0.0925  0.3885
 3751SOL    HW122886   2.308   3.307   0.085 -1.3178  2.1983 -0.1248
 3751SOL    HW222887   2.455   3.282   0.083 -1.3552  0.0568  2.1947
 3752SOL     OW22888   1.913   2.054  13.400  0.3318 -0.1494 -0.0947
 3752SOL    HW122889   1.926   2.069  13.493 -3.2209 -1.8213  0.6582
 3752SOL    HW222890   1.959   2.131  13.365  0.3522  0.6780  1.7324
 3753SOL     OW22891   2.485   3.477   3.312 -0.5339 -0.0064  0.3851
 3753SOL    HW122892   2.445   3.399   3.273  1.7951 -1.8791  1.8042
 3753SOL    HW222893   2.438   3.549   3.269 -0.2034  1.0044  1.7465
 3754SOL     OW22894   1.131   4.645   6.778 -0.4256 -0.3369 -0.7916
 3754SOL    HW122895   1.127   4.703   6.854  0.7274  0.5051 -1.3745
 3754SOL    HW222896   1.189   4.580   6.817  2.9725  1.3358 -3.0042
 3755SOL     OW22897   3.840   0.088  10.890  0.1800 -0.3778  1.0350
 3755SOL    HW122898   3.892   0.130  10.821 -1.5168 -0.2176 -0.1531
 3755SOL    HW222899   3.819   0.165  10.944 -1.1755 -0.3555  0.5005
 3756SOL     OW22900   2.651   0.199   4.911 -0.4570  0.0519 -0.2636
 3756SOL    HW122901   2.565   0.168   4.941  0.4053  0.2261  2.4149
 3756SOL    HW222902   2.629   0.264   4.845 -0.4695  0.1552 -0.1569
 3757SOL     OW22903   0.468   4.038   8.297 -0.0265 -0.7979 -0.4323
 3757SOL    HW122904   0.384   3.993   8.288 -0.6549  0.3310 -0.1676
 3757SOL    HW222905   0.538   3.974   8.286 -0.1262 -0.9167 -0.3778
 3758SOL     OW22906   3.994   2.631   8.592  0.1760 -0.5108  0.0826
 3758SOL    HW122907   4.089   2.641   8.583 -0.0227  0.5088 -1.0138
 3758SOL    HW222908   3.971   2.681   8.513  1.8653 -0.1053 -0.1622
 3759SOL     OW22909   3.289   0.913  17.383  0.0225  0.0041 -0.5448
 3759SOL    HW122910   3.235   0.949  17.454  0.3382  0.5177 -0.5679
 3759SOL    HW222911   3.221   0.877  17.326  2.9916 -2.5033 -2.4765
 3760SOL     OW22912   1.101   3.076   9.443  0.1454  0.0157 -0.1726
 3760SOL    HW122913   1.177   3.076   9.384  0.1946 -2.3450 -0.1058
 3760SOL    HW222914   1.043   3.019   9.393 -0.9229  1.1292 -0.2018
 3761SOL     OW22915   0.568   3.255   9.916 -0.3116  0.5046  0.2809
 3761SOL    HW122916   0.552   3.221  10.004  3.8987 -2.9671 -0.3149
 3761SOL    HW222917   0.476   3.274   9.897 -0.5616 -1.1440 -0.1381
 3762SOL     OW22918   1.322   2.834   2.352  0.4471 -0.4448  0.2773
 3762SOL    HW122919   1.308   2.927   2.330 -0.5886 -0.0689  2.5002
 3762SOL    HW222920   1.233   2.806   2.375  0.6574  2.1117  4.1776
 3763SOL     OW22921   2.376   2.303  15.031 -0.7245  0.0007 -0.0152
 3763SOL    HW122922   2.321   2.263  14.963  0.0015 -1.5149  0.2783
 3763SOL    HW222923   2.346   2.394  15.032 -1.8402 -0.3474 -1.0072
 3764SOL     OW22924   1.684   1.654   4.600 -0.1159  0.3871 -0.4523
 3764SOL    HW122925   1.737   1.650   4.679 -1.2407  0.8980  0.3215
 3764SOL    HW222926   1.604   1.603   4.612  0.5162 -0.1229  1.4743
 3765SOL     OW22927   3.722   0.353   1.701 -0.3385  0.2494  0.2360
 3765SOL    HW122928   3.790   0.289   1.721 -1.7483 -2.1286 -2.6172
 3765SOL    HW222929   3.690   0.365   1.791  0.6787  0.8367  0.5139
 3766SOL     OW22930   1.948   1.529   3.494 -0.2866 -0.0747 -0.1903
 3766SOL    HW122931   1.972   1.550   3.584  1.2857  0.6044 -0.7637
 3766SOL    HW222932   1.876   1.589   3.474 -1.6818 -2.7013 -2.9204
 3767SOL     OW22933   4.591   1.374   7.107 -0.0610 -0.3680 -0.5132
 3767SOL    HW122934   4.682   1.370   7.137 -0.5915 -0.4246  1.0700
 3767SOL    HW222935   4.547   1.425   7.175  2.4489  0.6896  0.3560
 3768SOL     OW22936   3.776   0.544   7.618  0.5361  0.1397  0.1006
 3768SOL    HW122937   3.802   0.541   7.526  0.3932  0.0293  0.0652
 3768SOL    HW222938   3.845   0.492   7.659 -0.5782  0.2719  2.1175
 3769SOL     OW22939   0.294   3.123   6.940  0.3611  0.1768 -0.1363
 3769SOL    HW122940   0.368   3.176   6.908 -0.5303  0.0201 -2.4525
 3769SOL    HW222941   0.223   3.184   6.920  2.4213  2.0069 -1.7715
 3770SOL     OW22942   3.344   0.836   2.366  0.9443  0.5992  0.2681
 3770SOL    HW122943   3.274   0.795   2.315  1.0541 -1.6061  1.8839
 3770SOL    HW222944   3.361   0.762   2.425  1.0377 -0.8493 -1.5463
 3771SOL     OW22945   2.228   0.969   0.449  0.3572 -0.1725 -0.0543
 3771SOL    HW122946   2.302   0.951   0.391  0.3455 -2.7656  0.7519
 3771SOL    HW222947   2.220   0.886   0.495 -1.7313  0.5555  0.8764
 3772SOL     OW22948   1.405   1.135   8.723  0.0708  0.5764  0.7028
 3772SOL    HW122949   1.383   1.043   8.736  0.4546  0.0935 -2.0539
 3772SOL    HW222950   1.497   1.123   8.700  0.2892 -1.6194  2.7673
 3773SOL     OW22951   3.894   4.256   2.670 -0.3793 -0.0095 -0.0164
 3773SOL    HW122952   3.816   4.307   2.690 -2.3886 -2.5252 -1.5468
 3773SOL    HW222953   3.960   4.286   2.733 -2.7412  1.9716  1.5103
 3774SOL     OW22954   0.973   4.429   0.327  0.3879  0.0997 -0.7152
 3774SOL    HW122955   1.063   4.462   0.324 -0.0578  1.3295 -0.5648
 3774SOL    HW222956   0.917   4.500   0.358  0.0637 -0.2729 -0.4457
 3775SOL     OW22957   2.768   3.981  13.907  0.1773  0.1223 -0.0444
 3775SOL    HW122958   2.701   4.010  13.846  1.4571  1.0252 -1.0154
 3775SOL    HW222959   2.810   3.910  13.859  0.1656  1.4866 -2.0479
 3776SOL     OW22960   4.071   3.859   1.988  0.2701 -0.3982 -0.1506
 3776SOL    HW122961   4.020   3.790   1.946  0.0154 -0.3414  0.0606
 3776SOL    HW222962   4.091   3.824   2.075  2.8672 -0.2031 -0.6983
 3777SOL     OW22963   3.275   2.511   7.828  0.2781 -0.2080  0.2634
 3777SOL    HW122964   3.294   2.462   7.748 -1.1948  2.2095 -1.5747
 3777SOL    HW222965   3.293   2.603   7.807 -1.2546 -0.6616 -3.1973
 3778SOL     OW22966   1.160   3.657   9.497  0.2027 -0.2717  0.3082
 3778SOL    HW122967   1.112   3.584   9.536 -1.1153  1.8688  2.6558
 3778SOL    HW222968   1.171   3.626   9.407 -3.9407 -0.7206 -0.0746
 3779SOL     OW22969   4.370   0.365   4.901  0.4413  0.4874 -0.5828
 3779SOL    HW122970   4.431   0.409   4.842  0.4041  1.4590  0.1167
 3779SOL    HW222971   4.420   0.359   4.982  1.1373 -0.3131 -1.0647
 3780SOL     OW22972   0.484   4.006   2.977  0.0615  0.2168  0.0829
 3780SOL    HW122973   0.469   4.046   2.892 -1.1732 -0.8504 -0.2030
 3780SOL    HW222974   0.580   4.001   2.974 -0.0509 -1.9739 -0.4058
 3781SOL     OW22975   0.391   4.289   3.877 -0.1367 -0.2243 -0.0779
 3781SOL    HW122976   0.416   4.367   3.828  3.3974 -0.9623  0.6082
 3781SOL    HW222977   0.463   4.281   3.939 -1.1504  1.3785  1.3120
 3782SOL     OW22978   4.513   2.057   2.258  0.7826 -0.4610  0.3291
 3782SOL    HW122979   4.458   1.978   2.253 -0.1543  0.2305 -0.4684
 3782SOL    HW222980   4.572   2.049   2.183 -0.0491  1.6023 -0.5507
 3783SOL     OW22981   1.125   3.883   4.587 -0.0364 -0.1323  0.4463
 3783SOL    HW122982   1.143   3.934   4.507 -0.7222 -0.3572  0.1536
 3783SOL    HW222983   1.152   3.793   4.570 -0.7382 -0.2725  0.0821
 3784SOL     OW22984   2.727   1.492   5.561  0.1444  0.4113  0.0325
 3784SOL    HW122985   2.733   1.532   5.648  1.4415  0.1795  0.0542
 3784SOL    HW222986   2.775   1.556   5.509 -0.2562  0.8172  0.1592
 3785SOL     OW22987   0.382   0.003   7.922  0.1256  0.3317  0.2128
 3785SOL    HW122988   0.401   0.017   8.015 -1.1597 -1.9665  0.8186
 3785SOL    HW222989   0.317   4.667   7.935  0.6498 -0.8667 -3.6181
 3786SOL     OW22990   4.682   1.312   3.340 -0.0476  0.1878  0.0131
 3786SOL    HW122991   4.612   1.262   3.300  1.9392  0.0599 -3.3233
 3786SOL    HW222992   4.696   1.365   3.261  1.2719  0.0037  0.1190
 3787SOL     OW22993   2.518   4.278   3.697  0.3880  0.1796  0.4384
 3787SOL    HW122994   2.480   4.225   3.627 -3.6698  2.5565  0.8202
 3787SOL    HW222995   2.575   4.224   3.752  0.6851  1.0970  1.0416
 3788SOL     OW22996   3.868   1.235  12.967  0.4777  0.6373 -0.2921
 3788SOL    HW122997   3.948   1.234  13.019  2.3223 -0.1215 -3.1744
 3788SOL    HW222998   3.827   1.315  13.002 -3.0056 -1.0759 -0.4146
 3789SOL     OW22999   2.326   1.187  12.343 -0.6171 -0.2805  0.4022
 3789SOL    HW123000   2.406   1.203  12.293 -0.2079 -1.0825  0.7830
 3789SOL    HW223001   2.263   1.180  12.272  0.5611 -2.9375 -0.4051
 3790SOL     OW23002   3.162   3.711   7.856 -0.0343 -0.4857  0.3700
 3790SOL    HW123003   3.253   3.732   7.837 -0.3603  0.1910 -0.4696
 3790SOL    HW223004   3.117   3.788   7.822 -1.2398 -0.9572  0.9013
 3791SOL     OW23005   2.395   2.661  16.975  0.0035  0.2378 -0.0139
 3791SOL    HW123006   2.437   2.735  17.020 -2.5868  2.7431 -1.7070
 3791SOL    HW223007   2.446   2.594  17.021 -1.2517 -1.1277 -0.6211
 3792SOL     OW23008   0.290   1.071  12.572  0.5016  0.5867 -0.7224
 3792SOL    HW123009   0.337   1.097  12.493 -0.2292 -0.5491 -1.5296
 3792SOL    HW223010   0.245   1.154  12.587 -1.5812 -0.7814  0.6885
 3793SOL     OW23011   0.156   3.160   7.242 -0.4678  0.1504 -0.5125
 3793SOL    HW123012   0.101   3.239   7.248  1.0515  1.1351  0.2346
 3793SOL    HW223013   0.107   3.107   7.179 -1.3710 -1.4961  1.6088
 3794SOL     OW23014   4.122   3.306   7.816  0.6939  0.3138  0.0738
 3794SOL    HW123015   4.060   3.332   7.884 -0.6479  0.5051 -1.2284
 3794SOL    HW223016   4.108   3.213   7.834  2.1286  0.3944  1.5394
 3795SOL     OW23017   1.057   0.802   2.035 -0.0568 -0.2304  0.2902
 3795SOL    HW123018   1.128   0.857   2.000  1.0678 -1.9267 -0.0622
 3795SOL    HW223019   0.990   0.804   1.966  0.6817 -0.1980 -0.4357
 3796SOL     OW23020   2.963   0.183  16.851 -0.3759 -0.0021 -0.1782
 3796SOL    HW123021   3.045   0.219  16.884  0.4094 -2.1650  0.2365
 3796SOL    HW223022   2.905   0.252  16.882  1.5674  0.5567  2.2211
 3797SOL     OW23023   0.413   0.952   6.299 -0.0441  0.6357 -0.7108
 3797SOL    HW123024   0.346   0.890   6.327  1.5878 -0.6874  0.2489
 3797SOL    HW223025   0.392   0.967   6.207 -0.3555  2.0301 -0.4085
 3798SOL     OW23026   2.586   2.199  17.345 -0.3681  0.0070 -0.2642
 3798SOL    HW123027   2.679   2.181  17.359 -1.0517 -2.1332  1.4568
 3798SOL    HW223028   2.587   2.278  17.399  0.4685  0.3770 -0.8193
 3799SOL     OW23029   0.717   2.292  13.261 -0.3797 -0.3011 -0.5270
 3799SOL    HW123030   0.729   2.205  13.221 -0.4541 -1.4406  1.9621
 3799SOL    HW223031   0.785   2.334  13.207 -1.0468  2.1958  0.6159
 3800SOL     OW23032   1.548   2.086  13.609 -1.2137 -0.2347 -0.0895
 3800SOL    HW123033   1.552   2.171  13.566  0.1594  0.5643  1.6246
 3800SOL    HW223034   1.582   2.119  13.692 -1.0187 -0.7310  0.0330
 3801SOL     OW23035   3.573   3.690   3.552 -0.3928  0.8091  0.0744
 3801SOL    HW123036   3.665   3.699   3.530  0.2498 -1.7725  1.6042
 3801SOL    HW223037   3.581   3.680   3.647  0.1303 -0.3693 -0.0988
 3802SOL     OW23038   1.382   3.675  10.334 -0.4352  0.1907 -0.1601
 3802SOL    HW123039   1.316   3.614  10.302 -0.9449  1.7616 -2.0944
 3802SOL    HW223040   1.409   3.715  10.251  1.6353 -0.6038  0.1400
 3803SOL     OW23041   2.014   2.158  10.853 -0.0727  0.1226 -0.8231
 3803SOL    HW123042   2.097   2.204  10.838  0.3452 -0.9300 -1.7872
 3803SOL    HW223043   1.965   2.173  10.772 -2.7392  0.3302  0.8338
 3804SOL     OW23044   4.123   3.005   5.758 -0.0054  0.1199  0.4107
 3804SOL    HW123045   4.166   2.937   5.809 -2.6769 -0.4194  1.9308
 3804SOL    HW223046   4.093   2.955   5.682 -0.1585  1.7589 -0.6037
 3805SOL     OW23047   1.607   4.708   8.162 -0.9219 -0.6934  0.3672
 3805SOL    HW123048   1.515   4.715   8.139 -0.5379 -0.4691 -1.0448
 3805SOL    HW223049   1.608   0.039   8.234  2.4549  0.5007 -0.7181
 3806SOL     OW23050   0.088   2.658   4.085 -0.0918 -0.1350 -0.4847
 3806SOL    HW123051   0.114   2.570   4.056 -2.5132 -0.7241 -0.9416
 3806SOL    HW223052   0.103   2.702   4.001  1.1452  3.1330  1.4633
 3807SOL     OW23053   1.788   3.772   6.077  0.4636 -0.0273 -0.5987
 3807SOL    HW123054   1.849   3.740   6.011  1.3894 -0.2019  0.3414
 3807SOL    HW223055   1.806   3.866   6.074 -2.7846  0.5898 -0.9662
 3808SOL     OW23056   3.707   0.039  14.394 -0.2584 -0.4867 -0.3219
 3808SOL    HW123057   3.681   0.008  14.480  1.1185 -1.3396 -0.2146
 3808SOL    HW223058   3.640   0.000  14.338  0.0537 -0.5900 -0.6273
 3809SOL     OW23059   2.690   0.504  13.874 -0.5873  0.0152 -0.3553
 3809SOL    HW123060   2.733   0.419  13.873 -0.9283 -0.1440 -1.4222
 3809SOL    HW223061   2.644   0.496  13.790 -1.0959 -1.4807  0.0620
 3810SOL     OW23062   2.016   1.397  16.913  0.3991  0.3920  0.1093
 3810SOL    HW123063   2.046   1.319  16.866  1.2491  1.9479 -1.9087
 3810SOL    HW223064   2.060   1.467  16.865  0.8170  0.7509  1.0009
 3811SOL     OW23065   1.869   0.946   7.619 -0.1243 -0.2818 -0.1973
 3811SOL    HW123066   1.851   0.870   7.564 -0.2553 -0.1883 -0.2829
 3811SOL    HW223067   1.964   0.935   7.621  0.0307  0.9539 -0.4760
 3812SOL     OW23068   2.157   1.599   7.083  0.1093  0.1841  0.2609
 3812SOL    HW123069   2.116   1.665   7.028  2.0561  1.5710  0.4764
 3812SOL    HW223070   2.127   1.519   7.041  3.1665 -0.6646 -0.3455
 3813SOL     OW23071   4.459   2.398   6.137  0.0495  0.2539 -0.1787
 3813SOL    HW123072   4.372   2.420   6.104 -1.1013 -4.5642 -0.4174
 3813SOL    HW223073   4.439   2.320   6.190  1.2882 -0.2907 -0.5145
 3814SOL     OW23074   4.263   4.527   4.670  0.2364 -0.5786 -0.4458
 3814SOL    HW123075   4.277   4.561   4.581  3.1264 -2.7576 -0.8149
 3814SOL    HW223076   4.170   4.505   4.667 -0.1781  1.2220 -0.3246
 3815SOL     OW23077   0.920   3.685   6.923 -0.1024 -0.5608 -0.3944
 3815SOL    HW123078   0.915   3.655   7.013 -1.3003 -0.5775 -0.4673
 3815SOL    HW223079   0.827   3.686   6.899  0.2915  0.9973 -1.9157
 3816SOL     OW23080   0.473   3.815   0.735  0.4686 -0.4961 -0.2447
 3816SOL    HW123081   0.444   3.751   0.670 -0.0364 -2.0400  1.4926
 3816SOL    HW223082   0.565   3.788   0.722  0.4171 -0.4018 -0.7949
 3817SOL     OW23083   0.271   1.833   7.573 -0.4236  0.1085 -0.1284
 3817SOL    HW123084   0.204   1.804   7.635 -0.9686 -2.8809 -2.1020
 3817SOL    HW223085   0.311   1.904   7.624 -0.2349  0.3243 -0.5799
 3818SOL     OW23086   0.137   2.400   8.750  0.4106  0.1419 -0.7673
 3818SOL    HW123087   0.178   2.325   8.708 -2.5403 -2.2121  0.5614
 3818SOL    HW223088   0.210   2.461   8.755  2.1058 -1.7265 -2.8031
 3819SOL     OW23089   1.024   3.685   3.794  0.2652 -0.4997 -0.6508
 3819SOL    HW123090   0.941   3.643   3.774 -0.2755  0.2614 -0.0252
 3819SOL    HW223091   1.058   3.709   3.708  0.8006  4.7557  0.9703
 3820SOL     OW23092   1.312   3.330   8.200 -0.3360  1.2788 -0.6542
 3820SOL    HW123093   1.380   3.322   8.133 -1.4343 -0.1210 -1.6034
 3820SOL    HW223094   1.350   3.283   8.274  1.0085  1.1882 -1.4061
 3821SOL     OW23095   3.917   4.172   9.126 -0.3463  0.1422  0.1250
 3821SOL    HW123096   3.941   4.085   9.094  0.7395  0.2022  0.7844
 3821SOL    HW223097   3.905   4.157   9.220  0.8981  1.7188  0.5282
 3822SOL     OW23098   3.623   0.632  15.793 -0.0848  0.3712  0.3437
 3822SOL    HW123099   3.658   0.612  15.706  2.5846 -1.5866  1.8630
 3822SOL    HW223100   3.626   0.549  15.840 -1.1492 -0.4476 -1.0338
 3823SOL     OW23101   3.876   2.086   4.344  0.6996  0.4364  0.2691
 3823SOL    HW123102   3.787   2.064   4.371  0.6830  0.3742  0.1621
 3823SOL    HW223103   3.874   2.079   4.249  1.0964  1.1683  0.2082
 3824SOL     OW23104   4.052   2.640  16.175 -0.0250 -0.0674 -0.3165
 3824SOL    HW123105   3.956   2.636  16.181 -0.0124  0.3881  0.2397
 3824SOL    HW223106   4.070   2.723  16.132  1.0693  0.2950  0.8346
 3825SOL     OW23107   1.197   0.353   0.290 -0.1299  0.2414 -0.4370
 3825SOL    HW123108   1.131   0.390   0.231 -1.0035 -0.4365  0.1078
 3825SOL    HW223109   1.226   0.275   0.243 -1.1764  0.4936 -1.4960
 3826SOL     OW23110   3.355   3.633   8.209  0.0695 -0.0347 -0.3422
 3826SOL    HW123111   3.449   3.622   8.197  0.0152  0.5882 -1.3673
 3826SOL    HW223112   3.337   3.593   8.294 -0.4188  0.0153 -0.4200
 3827SOL     OW23113   4.137   0.206   6.896 -0.3761 -0.4745  0.5538
 3827SOL    HW123114   4.131   0.250   6.981  2.9969  0.5947  0.2488
 3827SOL    HW223115   4.213   0.150   6.911  1.2088  1.3413 -0.6909
 3828SOL     OW23116   4.467   4.339  14.381 -0.1446  0.1724 -0.4982
 3828SOL    HW123117   4.457   4.434  14.377  2.6716  0.4961 -0.2896
 3828SOL    HW223118   4.450   4.332  14.475 -1.3759 -0.8569 -0.8019
 3829SOL     OW23119   1.332   0.593  12.306  0.6606 -0.4231 -0.5663
 3829SOL    HW123120   1.302   0.609  12.396  0.5283  0.4538 -0.7624
 3829SOL    HW223121   1.252   0.610  12.257  0.8379  1.2230 -0.3094
 3830SOL     OW23122   2.148   3.655   6.876  0.3709 -0.0998  0.7305
 3830SOL    HW123123   2.056   3.671   6.855  0.1780  1.3125  2.6854
 3830SOL    HW223124   2.140   3.656   6.971 -1.1695 -0.7772  0.6051
 3831SOL     OW23125   0.945   3.789   4.255 -0.3374  0.1916 -0.2079
 3831SOL    HW123126   0.931   3.707   4.209  1.1002 -0.6393  0.8512
 3831SOL    HW223127   1.017   3.825   4.202  0.2170 -2.5958 -1.3086
 3832SOL     OW23128   4.451   1.118   7.965 -0.3452  0.3050 -0.6901
 3832SOL    HW123129   4.372   1.125   8.018 -0.1042  0.5053 -0.3552
 3832SOL    HW223130   4.509   1.078   8.030 -0.5166  0.7808 -0.2469
 3833SOL     OW23131   4.542   3.802   2.254 -0.3563  0.3188  0.3014
 3833SOL    HW123132   4.624   3.769   2.291  0.2876  1.4148 -0.1327
 3833SOL    HW223133   4.501   3.716   2.242 -1.0473  0.6485  0.3390
 3834SOL     OW23134   4.043   0.678   4.756  0.5801  0.3850 -0.1902
 3834SOL    HW123135   4.057   0.602   4.700 -0.5192  0.3735 -0.4662
 3834SOL    HW223136   3.989   0.746   4.715  0.5851  0.4180 -0.1415
 3835SOL     OW23137   1.268   4.090  17.651 -0.6862 -0.2186 -0.0435
 3835SOL    HW123138   1.230   4.178  17.646 -1.3253 -0.3986  1.8030
 3835SOL    HW223139   1.213   4.051  17.720 -0.6000 -0.7069 -0.2523
 3836SOL     OW23140   0.688   1.734  14.803  0.0227 -0.5451  0.6928
 3836SOL    HW123141   0.622   1.768  14.743  0.3204  0.4625  0.9214
 3836SOL    HW223142   0.645   1.749  14.887  2.7510 -0.5960  2.1015
 3837SOL     OW23143   1.096   3.756   5.742  0.2136 -0.5159  0.2440
 3837SOL    HW123144   1.013   3.799   5.763  0.1306 -1.6467  2.3076
 3837SOL    HW223145   1.094   3.693   5.815 -0.6055 -0.5299  0.2070
 3838SOL     OW23146   1.622   0.025   4.075  0.2324 -0.7601  0.1193
 3838SOL    HW123147   1.715   0.045   4.082 -0.2394  0.8899  1.6185
 3838SOL    HW223148   1.587   0.092   4.017  2.3570 -2.3563 -3.0380
 3839SOL     OW23149   3.531   2.322  15.818  0.7243  0.0457 -0.3176
 3839SOL    HW123150   3.618   2.360  15.835  0.2420  1.0514 -0.0878
 3839SOL    HW223151   3.544   2.234  15.852  1.9908 -0.0182 -0.9665
 3840SOL     OW23152   2.740   2.111   6.745  0.0466 -0.8325  0.7714
 3840SOL    HW123153   2.828   2.110   6.708  0.3547 -0.8422  1.5080
 3840SOL    HW223154   2.729   2.016   6.736 -0.1767 -0.5575 -2.1485
 3841SOL     OW23155   0.075   1.328   4.418  0.0148  0.5057  0.3978
 3841SOL    HW123156   0.149   1.388   4.409  1.2277 -0.8850  1.1678
 3841SOL    HW223157   0.085   1.315   4.512  2.0559 -0.3134  0.0682
 3842SOL     OW23158   2.874   2.544   7.480  0.3638  0.1829 -0.3216
 3842SOL    HW123159   2.841   2.578   7.397 -1.0961 -1.7023 -0.5080
 3842SOL    HW223160   2.931   2.617   7.504 -1.6865  1.7234 -0.1417
 3843SOL     OW23161   4.362   4.560   5.363  0.1675  0.0789 -0.2528
 3843SOL    HW123162   4.344   4.652   5.378  0.5826  0.5634 -2.6330
 3843SOL    HW223163   4.428   4.539   5.429  2.4827  2.4681 -1.7688
 3844SOL     OW23164   0.829   0.804  16.166  0.0649  0.0131  0.4866
 3844SOL    HW123165   0.752   0.785  16.112  1.3672 -0.0167 -1.3652
 3844SOL    HW223166   0.896   0.780  16.103 -0.8905 -4.4724  1.2024
 3845SOL     OW23167   0.624   2.626   2.764  0.6109  0.4889  0.8157
 3845SOL    HW123168   0.641   2.715   2.736  0.1899 -0.3561 -2.1395
 3845SOL    HW223169   0.560   2.645   2.833 -0.5586 -0.3208 -0.0407
 3846SOL     OW23170   1.204   3.340   8.835  0.2417  0.1381  0.2280
 3846SOL    HW123171   1.233   3.395   8.908  1.2773  0.5320 -0.4740
 3846SOL    HW223172   1.181   3.409   8.774 -1.1650 -0.8836 -0.4040
 3847SOL     OW23173   4.382   2.346  12.402 -0.4773  0.2698  0.2168
 3847SOL    HW123174   4.304   2.385  12.441 -1.6906 -2.5579  0.6251
 3847SOL    HW223175   4.354   2.314  12.316 -0.0710 -1.0252  0.5678
 3848SOL     OW23176   0.008   2.360   3.386 -0.3919 -0.1058 -0.1584
 3848SOL    HW123177   0.035   2.340   3.297  2.7028  0.9277  0.5494
 3848SOL    HW223178   4.646   2.362   3.372 -0.5903  0.5682  1.2104
 3849SOL     OW23179   0.401   1.190   3.499  0.5260 -0.6698 -0.4211
 3849SOL    HW123180   0.346   1.175   3.576  0.0730  0.5683 -0.5054
 3849SOL    HW223181   0.445   1.106   3.483 -0.3242 -1.2677  0.3867
 3850SOL     OW23182   4.343   3.333   6.078 -0.1285  0.3594  0.3224
 3850SOL    HW123183   4.253   3.301   6.084  0.5715 -1.4064  1.3664
 3850SOL    HW223184   4.391   3.259   6.115 -2.7518 -2.1094 -1.2621
 3851SOL     OW23185   2.639   2.474  11.028 -0.0907  0.8805  0.1402
 3851SOL    HW123186   2.695   2.550  11.039  0.5878  0.1652  1.6820
 3851SOL    HW223187   2.708   2.416  11.060 -1.1133 -0.1982  0.4303
 3852SOL     OW23188   4.515   1.236  11.585  0.0087  0.6360  0.5845
 3852SOL    HW123189   4.594   1.264  11.630  0.8083 -0.1090 -0.3555
 3852SOL    HW223190   4.485   1.319  11.548  0.1535  1.2631  1.8518
 3853SOL     OW23191   4.566   4.016   6.249  0.5841  0.5485 -0.7117
 3853SOL    HW123192   4.636   4.056   6.197  0.6244 -0.6151 -1.5492
 3853SOL    HW223193   4.497   4.000   6.185  0.1693  2.6307 -0.7950
 3854SOL     OW23194   0.056   3.467   9.037  0.1059 -0.1545 -0.7293
 3854SOL    HW123195   4.728   3.461   9.111 -1.4066  3.5161 -1.6610
 3854SOL    HW223196   0.006   3.534   8.991  0.5538 -1.5438 -3.2839
 3855SOL     OW23197   4.551   3.529  11.522  0.2169 -0.3201  0.1661
 3855SOL    HW123198   4.566   3.445  11.566 -3.0788 -0.6531  0.6496
 3855SOL    HW223199   4.521   3.486  11.442 -0.2978 -2.4598  1.5146
 3856SOL     OW23200   0.604   4.731   1.994 -0.3336  0.4421 -0.2762
 3856SOL    HW123201   0.636   4.682   2.070  0.6811  0.9906 -0.3507
 3856SOL    HW223202   0.572   0.075   2.043 -0.7541 -1.2985  2.1490
 3857SOL     OW23203   1.966   0.357   3.615 -0.4164 -0.2730 -0.3599
 3857SOL    HW123204   2.018   0.400   3.683 -2.2149  2.9443 -1.0338
 3857SOL    HW223205   1.882   0.400   3.630 -0.2661 -0.7991  2.0798
 3858SOL     OW23206   2.573   3.757   7.560  0.5197 -0.5221 -0.2523
 3858SOL    HW123207   2.492   3.723   7.598 -0.4643 -0.2730 -2.1316
 3858SOL    HW223208   2.578   3.846   7.596  1.8956 -1.6139  2.2884
 3859SOL     OW23209   4.703   4.107  17.246 -0.1111  0.1084 -0.4139
 3859SOL    HW123210   0.056   4.140  17.219  1.2371 -1.3157  2.1423
 3859SOL    HW223211   4.694   4.027  17.195  0.7452  0.4014 -1.0187
 3860SOL     OW23212   3.416   2.328   0.365  0.7538  0.2728  0.0354
 3860SOL    HW123213   3.408   2.424   0.363 -2.9089 -0.0488  0.1770
 3860SOL    HW223214   3.454   2.316   0.453 -1.0076 -1.1097  0.5842
 3861SOL     OW23215   1.967   0.671  15.609  0.1511 -0.3969 -0.3637
 3861SOL    HW123216   1.912   0.748  15.622  0.9600  0.2260 -0.6092
 3861SOL    HW223217   1.984   0.678  15.515 -0.2697 -2.5230 -0.5998
 3862SOL     OW23218   1.204   3.299   4.859  0.1698  0.5405  0.0814
 3862SOL    HW123219   1.223   3.294   4.952 -0.0636 -3.2440 -0.0685
 3862SOL    HW223220   1.239   3.220   4.819  0.1054 -0.8599  2.8079
 3863SOL     OW23221   0.078   0.632  10.324 -0.1823 -0.1971  0.0250
 3863SOL    HW123222   0.163   0.603  10.357  0.2247 -1.6128 -2.2099
 3863SOL    HW223223   0.086   0.727  10.333  0.2197 -0.1590 -0.6550
 3864SOL     OW23224   2.900   3.984   4.393 -0.4966 -0.6235  0.0479
 3864SOL    HW123225   2.982   3.977   4.345 -0.1116 -0.3173  0.6592
 3864SOL    HW223226   2.899   3.893   4.425  1.7211 -1.0145 -1.0102
 3865SOL     OW23227   3.482   2.214  11.215  0.1084  0.2950  0.1593
 3865SOL    HW123228   3.550   2.261  11.167  0.0468  1.3952  1.1607
 3865SOL    HW223229   3.421   2.288  11.224 -0.0385  0.5604 -2.8103
 3866SOL     OW23230   2.325   2.387   2.674  0.2479  0.0287  0.1976
 3866SOL    HW123231   2.321   2.298   2.709 -1.3281 -0.2628 -0.7049
 3866SOL    HW223232   2.239   2.417   2.705  0.2014  1.9963 -1.8324
 3867SOL     OW23233   1.317   1.502  13.869 -0.5128  0.2682 -0.7309
 3867SOL    HW123234   1.267   1.434  13.824 -1.8203  1.0538 -0.4705
 3867SOL    HW223235   1.258   1.535  13.937 -0.1854 -3.1110  1.1647
 3868SOL     OW23236   0.452   3.513   4.810  0.4210 -0.3177 -0.7566
 3868SOL    HW123237   0.496   3.464   4.879 -0.0622 -2.2741 -1.8228
 3868SOL    HW223238   0.528   3.537   4.757  1.2311 -1.2860 -0.0274
 3869SOL     OW23239   0.398   4.083   1.546 -0.0100  0.3280 -0.1121
 3869SOL    HW123240   0.450   4.139   1.489 -0.2150 -0.3280 -0.9298
 3869SOL    HW223241   0.347   4.033   1.483  1.0856  0.2393 -0.9266
 3870SOL     OW23242   2.133   1.161  10.357  0.1710 -0.2906  0.2521
 3870SOL    HW123243   2.168   1.134  10.442 -0.8648 -1.5964  0.2628
 3870SOL    HW223244   2.154   1.254  10.368  0.9248 -0.4892  0.4716
 3871SOL     OW23245   2.878   2.027   3.838  0.3240  0.0087 -0.0012
 3871SOL    HW123246   2.831   2.098   3.882  1.0919  0.2874  0.3709
 3871SOL    HW223247   2.969   2.044   3.863 -0.3559  0.3789  2.2173
 3872SOL     OW23248   1.719   2.723   5.338  0.3206 -0.2924 -0.7139
 3872SOL    HW123249   1.723   2.796   5.400 -1.8184 -0.2153 -0.6630
 3872SOL    HW223250   1.666   2.761   5.267  1.4444 -0.7327 -1.7951
 3873SOL     OW23251   4.053   0.317  10.044  0.0121 -0.3319 -0.4006
 3873SOL    HW123252   3.978   0.287   9.992 -0.6395 -0.1591  0.4327
 3873SOL    HW223253   4.011   0.306  10.129  0.1580  0.8237 -0.1799
 3874SOL     OW23254   2.450   2.128   5.917 -0.0911  0.0539  0.0208
 3874SOL    HW123255   2.420   2.049   5.872 -0.8267 -0.2767  1.0814
 3874SOL    HW223256   2.401   2.129   5.999 -0.6254 -2.2418 -0.2698
 3875SOL     OW23257   0.350   3.152   2.996  0.0450 -0.1137  0.4437
 3875SOL    HW123258   0.377   3.094   2.924 -1.3739  0.6286 -0.6929
 3875SOL    HW223259   0.317   3.227   2.947  0.4927  1.3984  2.4968
 3876SOL     OW23260   4.236   2.365   9.869 -0.2090 -0.1176  0.4088
 3876SOL    HW123261   4.277   2.295   9.819  1.2851 -0.3692  1.9851
 3876SOL    HW223262   4.233   2.435   9.804 -2.1023 -0.5625  0.0159
 3877SOL     OW23263   2.592   3.727  15.712 -0.1990  0.1348 -0.4646
 3877SOL    HW123264   2.603   3.719  15.617 -3.2781 -1.3283 -0.7024
 3877SOL    HW223265   2.660   3.789  15.739  0.0543  0.2247 -1.3092
 3878SOL     OW23266   1.403   0.511   4.593  0.7136 -0.3500  0.2980
 3878SOL    HW123267   1.327   0.489   4.539  0.3232  2.0368 -0.1477
 3878SOL    HW223268   1.372   0.502   4.683  0.4590 -0.2525  0.2196
 3879SOL     OW23269   0.596   2.660  12.209  0.0534 -0.7334  0.1558
 3879SOL    HW123270   0.663   2.720  12.176 -0.2937 -0.6791 -0.4566
 3879SOL    HW223271   0.648   2.580  12.212 -1.4427 -1.6774  0.9599
 3880SOL     OW23272   0.154   3.435  15.653  0.2718  0.0051  0.2159
 3880SOL    HW123273   0.069   3.460  15.619  0.1047  1.1431  1.4243
 3880SOL    HW223274   0.140   3.451  15.747 -0.3719 -0.1490  0.1425
 3881SOL     OW23275   0.965   3.505   7.855  0.4421 -0.7411 -0.1673
 3881SOL    HW123276   0.891   3.562   7.872  1.9665  1.9464 -2.4292
 3881SOL    HW223277   0.928   3.422   7.827  1.7237 -1.8618  1.4427
 3882SOL     OW23278   0.368   3.252   9.533 -0.7597  0.5563 -0.1928
 3882SOL    HW123279   0.433   3.210   9.476  1.7257  0.9262  2.3727
 3882SOL    HW223280   0.322   3.306   9.468 -2.0355  0.3987  0.5784
 3883SOL     OW23281   2.254   3.997   1.598 -0.1585 -0.1686 -0.1587
 3883SOL    HW123282   2.210   3.931   1.544  0.0877  0.1574 -0.7488
 3883SOL    HW223283   2.272   4.071   1.541  0.2138  1.0556  1.5264
 3884SOL     OW23284   2.612   3.666  10.753 -0.1358 -0.6129 -0.4880
 3884SOL    HW123285   2.612   3.609  10.829 -1.6777 -0.8934 -0.6999
 3884SOL    HW223286   2.532   3.718  10.765  0.7765  0.8444 -0.6332
 3885SOL     OW23287   4.536   2.585  17.117  0.4467 -0.2010 -0.3965
 3885SOL    HW123288   4.448   2.559  17.089  0.4418  1.7694 -2.1732
 3885SOL    HW223289   4.519   2.666  17.164  0.1083  0.2798 -1.3682
 3886SOL     OW23290   0.441   1.031  10.426 -0.7815 -0.0808 -0.1102
 3886SOL    HW123291   0.531   1.052  10.451 -1.1014 -1.1705  1.9903
 3886SOL    HW223292   0.401   1.011  10.511 -2.2710 -0.7053 -0.9586
 3887SOL     OW23293   0.173   2.678  13.992  0.1911 -0.2929  0.0346
 3887SOL    HW123294   0.094   2.675  13.939 -0.3431  1.9104  0.7091
 3887SOL    HW223295   0.225   2.612  13.947  1.2263 -0.3429  1.3041
 3888SOL     OW23296   1.685   1.313   7.877 -0.1751 -0.1805 -0.1778
 3888SOL    HW123297   1.708   1.220   7.878 -2.4028 -0.7370 -0.0099
 3888SOL    HW223298   1.757   1.352   7.828  0.1433  0.3207  0.7018
 3889SOL     OW23299   0.041   3.522   6.227  0.3725 -0.1524 -0.1779
 3889SOL    HW123300   0.054   3.595   6.167  0.8594 -0.3657 -0.3345
 3889SOL    HW223301   0.100   3.548   6.298  1.7839  0.6166 -1.6274
 3890SOL     OW23302   4.481   2.386   3.316  0.0377  0.0642 -0.0699
 3890SOL    HW123303   4.412   2.428   3.264 -0.4052 -0.4044  0.1480
 3890SOL    HW223304   4.441   2.397   3.402 -2.8924 -1.1899 -1.2622
 3891SOL     OW23305   3.402   3.649   8.878 -0.2295  0.4599  0.2739
 3891SOL    HW123306   3.402   3.731   8.828 -0.8987  0.7398  0.7533
 3891SOL    HW223307   3.356   3.684   8.953  0.2119  2.1990 -0.2615
 3892SOL     OW23308   2.029   4.128   9.486 -0.5850  0.3491 -0.1981
 3892SOL    HW123309   1.951   4.125   9.542  1.1667  1.0787  2.2896
 3892SOL    HW223310   2.090   4.165   9.549 -0.1517 -0.4759 -0.1350
 3893SOL     OW23311   2.988   0.626  12.890 -0.3505  0.0428  0.2548
 3893SOL    HW123312   3.059   0.597  12.947 -2.2517 -2.2873  1.4531
 3893SOL    HW223313   3.028   0.619  12.803 -0.9472  0.2351 -0.0377
 3894SOL     OW23314   1.791   1.802   1.242 -0.2907  0.1207 -0.0876
 3894SOL    HW123315   1.866   1.855   1.215 -0.0748  0.6893  1.6256
 3894SOL    HW223316   1.722   1.867   1.256 -1.4277 -1.4254  1.4593
 3895SOL     OW23317   0.865   3.493   0.462 -0.2524 -0.1812  0.3649
 3895SOL    HW123318   0.924   3.565   0.483 -0.2237 -0.1890  0.3106
 3895SOL    HW223319   0.833   3.519   0.375 -1.0778  1.5602  1.1910
 3896SOL     OW23320   0.539   1.237   2.560 -0.4310 -0.2026  0.1751
 3896SOL    HW123321   0.497   1.181   2.625  0.5541 -0.3028  0.7249
 3896SOL    HW223322   0.625   1.251   2.601 -0.2150 -0.0702 -0.3272
 3897SOL     OW23323   3.921   3.809  13.127 -0.0722 -0.1501 -0.2298
 3897SOL    HW123324   3.830   3.805  13.095 -0.2219  3.1116 -0.2724
 3897SOL    HW223325   3.974   3.815  13.048 -1.4894  1.8257 -1.0661
 3898SOL     OW23326   0.342   1.485   8.042 -0.2638 -0.0225  0.3062
 3898SOL    HW123327   0.401   1.428   7.993  0.3895 -0.3364  1.4601
 3898SOL    HW223328   0.256   1.475   8.000 -0.7450  2.6673  0.6833
 3899SOL     OW23329   3.239   2.205   9.760  1.0775  0.3189  0.8590
 3899SOL    HW123330   3.244   2.301   9.763  0.4596  0.3906 -0.6297
 3899SOL    HW223331   3.282   2.176   9.841  2.1125  0.0484  0.2107
 3900SOL     OW23332   2.039   1.672   7.624  0.2220 -0.4800 -0.1005
 3900SOL    HW123333   1.980   1.707   7.557 -0.4167 -2.7401 -0.7305
 3900SOL    HW223334   2.053   1.750   7.677  1.4950 -0.0668 -1.0749
 3901SOL     OW23335   1.559   0.455  16.918  0.4473 -0.2373  0.0088
 3901SOL    HW123336   1.495   0.402  16.871 -0.7874  0.5752  0.7575
 3901SOL    HW223337   1.644   0.434  16.880 -1.0845 -3.0575 -1.8423
 3902SOL     OW23338   4.145   0.752   5.629 -0.3891 -0.3935 -0.0051
 3902SOL    HW123339   4.119   0.677   5.575 -1.0135 -0.4959  0.4307
 3902SOL    HW223340   4.073   0.807   5.599 -0.9690 -1.3285 -0.3336
 3903SOL     OW23341   2.584   2.783   9.038 -0.1791  0.6153  0.3256
 3903SOL    HW123342   2.535   2.702   9.029  2.5041 -0.9910 -0.0412
 3903SOL    HW223343   2.592   2.800   8.944 -1.7963  1.0773  0.2741
 3904SOL     OW23344   4.731   1.206   6.586  0.0397  0.0168  0.6352
 3904SOL    HW123345   0.047   1.219   6.668  0.4040 -1.5574  0.6726
 3904SOL    HW223346   0.071   1.189   6.525  1.2573 -1.2287  2.4203
 3905SOL     OW23347   3.962   0.868   8.316 -1.0065 -0.2692 -0.6361
 3905SOL    HW123348   3.958   0.927   8.391  2.2540 -0.6903 -0.1185
 3905SOL    HW223349   3.985   0.789   8.364 -0.3323 -0.0270 -0.5499
 3906SOL     OW23350   1.922   4.313   1.231  0.5328 -0.0232  0.1868
 3906SOL    HW123351   1.901   4.382   1.295 -0.5807 -1.4826  1.4042
 3906SOL    HW223352   2.018   4.313   1.237  0.5958  1.3773 -0.9124
 3907SOL     OW23353   2.812   4.373   2.902 -0.0376  0.2740  0.1152
 3907SOL    HW123354   2.845   4.378   2.992  2.5726 -0.6508 -0.7655
 3907SOL    HW223355   2.801   4.278   2.892  0.0739  0.0721  1.9003
 3908SOL     OW23356   0.435   0.797   6.908 -0.0452  0.0776 -0.8859
 3908SOL    HW123357   0.455   0.890   6.899 -0.1667  0.2539  0.6157
 3908SOL    HW223358   0.497   0.764   6.973 -0.4045 -2.2651 -1.7226
 3909SOL     OW23359   0.310   1.038   1.147 -0.1605 -0.7133  0.0673
 3909SOL    HW123360   0.294   1.100   1.076  1.1408 -0.8044 -0.2923
 3909SOL    HW223361   0.353   1.090   1.214 -2.4849 -0.2441  1.1841
 3910SOL     OW23362   0.998   0.972  10.846  0.1469  0.0892 -0.6451
 3910SOL    HW123363   1.036   0.909  10.908 -1.0406 -1.4102 -1.4223
 3910SOL    HW223364   0.906   0.978  10.872  0.2998  1.8447 -0.5659
 3911SOL     OW23365   0.703   0.445   4.465 -0.0189 -0.1790  0.0454
 3911SOL    HW123366   0.618   0.487   4.452  1.3190  2.7975  1.0346
 3911SOL    HW223367   0.751   0.516   4.509  2.9861 -0.3595 -2.9279
 3912SOL     OW23368   3.573   3.272   4.225 -0.6295  0.0698  0.5248
 3912SOL    HW123369   3.588   3.221   4.146  0.7682  0.5934  0.4548
 3912SOL    HW223370   3.582   3.201   4.289  1.9416 -0.0374  0.0660
 3913SOL     OW23371   2.648   3.722  11.991  0.4753  0.3364 -0.7468
 3913SOL    HW123372   2.611   3.635  12.007  2.1899 -0.6188 -2.0077
 3913SOL    HW223373   2.735   3.707  12.026  0.4068  0.8649 -0.3458
 3914SOL     OW23374   1.062   3.373   2.960  0.6246 -0.3526 -0.2481
 3914SOL    HW123375   1.085   3.411   3.045 -2.2997 -0.5379  0.6323
 3914SOL    HW223376   0.971   3.344   2.966  0.3361  0.3977 -0.8983
 3915SOL     OW23377   2.358   3.652   7.668  0.2841  0.1049 -0.5248
 3915SOL    HW123378   2.274   3.697   7.660  0.3562  0.2759 -0.3220
 3915SOL    HW223379   2.339   3.619   7.756  0.3759 -0.3155 -0.6614
 3916SOL     OW23380   1.776   2.414   5.871 -0.0821  0.0569 -0.1199
 3916SOL    HW123381   1.818   2.336   5.908  1.1724  0.1842 -1.3132
 3916SOL    HW223382   1.753   2.467   5.948  0.1918 -0.3136  0.2170
 3917SOL     OW23383   4.114   0.316  15.816  0.0643  0.0440  0.1094
 3917SOL    HW123384   4.061   0.343  15.891 -1.2598 -1.2596 -0.3342
 3917SOL    HW223385   4.146   0.229  15.840 -0.2007 -0.1223 -0.1402
 3918SOL     OW23386   3.424   2.014   5.704  0.1982  0.1023 -0.7847
 3918SOL    HW123387   3.462   1.928   5.721 -4.0060 -1.2997  1.6614
 3918SOL    HW223388   3.480   2.068   5.760  1.0527  0.0174 -1.5617
 3919SOL     OW23389   1.557   0.393   2.151  0.1538 -0.4683  0.1319
 3919SOL    HW123390   1.463   0.397   2.170 -0.0206  0.5504 -0.9108
 3919SOL    HW223391   1.565   0.354   2.063  1.1521  0.2282 -0.0794
 3920SOL     OW23392   0.484   1.113   2.812  0.3455 -0.4819 -0.1036
 3920SOL    HW123393   0.575   1.090   2.831  0.6855  0.1024 -0.9905
 3920SOL    HW223394   0.459   1.154   2.895 -1.0761  0.3074 -0.9290
 3921SOL     OW23395   0.271   4.597   1.963  0.5312 -0.0266 -0.3904
 3921SOL    HW123396   0.255   4.662   1.895  1.2534 -0.8807 -1.4013
 3921SOL    HW223397   0.195   4.539   1.952  1.2805 -1.2284  0.6671
 3922SOL     OW23398   3.783   1.778   7.622  0.4366 -1.0521  0.0598
 3922SOL    HW123399   3.842   1.715   7.663  1.2434  0.1052  0.6502
 3922SOL    HW223400   3.816   1.757   7.535  1.4473 -0.4539  0.3035
 3923SOL     OW23401   4.511   0.326   7.472 -0.0520  1.0657  0.1780
 3923SOL    HW123402   4.477   0.288   7.391  3.5943 -2.6814  0.4006
 3923SOL    HW223403   4.602   0.298   7.463  0.2096  0.5688  4.4151
 3924SOL     OW23404   3.260   3.726   4.077  0.0854  0.1807  0.3174
 3924SOL    HW123405   3.220   3.765   3.999 -2.5650 -0.9678  1.1178
 3924SOL    HW223406   3.272   3.637   4.045  1.1958 -0.4030  2.3282
 3925SOL     OW23407   3.263   0.582  11.773 -0.1723 -0.1631  0.1513
 3925SOL    HW123408   3.276   0.539  11.688  0.5806 -3.5531  1.9525
 3925SOL    HW223409   3.168   0.580  11.778 -0.2129  0.4702 -0.4399
 3926SOL     OW23410   4.095   0.286   2.550  0.3221  0.2620 -0.3487
 3926SOL    HW123411   4.063   0.214   2.604  0.2113  0.5229 -0.0629
 3926SOL    HW223412   4.163   0.324   2.605  1.3484 -0.9995 -0.7671
 3927SOL     OW23413   1.718   2.567   6.306 -0.4732 -0.1150 -0.3135
 3927SOL    HW123414   1.671   2.649   6.321 -0.2117 -0.5836  3.0600
 3927SOL    HW223415   1.696   2.510   6.380 -0.6388 -0.7263 -0.8314
 3928SOL     OW23416   1.075   2.597   8.430 -0.0343 -0.0544 -0.4136
 3928SOL    HW123417   1.048   2.592   8.339 -2.0631 -0.3603  0.1958
 3928SOL    HW223418   1.116   2.511   8.437 -0.9528 -0.3108  1.9281
 3929SOL     OW23419   3.010   3.807   4.959 -0.1860  0.2375 -0.2806
 3929SOL    HW123420   2.917   3.821   4.939 -0.1353  2.4781  1.0634
 3929SOL    HW223421   3.049   3.877   4.907 -2.1188  1.0130 -0.6694
 3930SOL     OW23422   2.632   2.108  12.336  0.7991  0.2387  0.1708
 3930SOL    HW123423   2.547   2.068  12.356  0.6798  0.3204 -0.1785
 3930SOL    HW223424   2.683   2.076  12.410  1.1799  0.1455 -0.1278
 3931SOL     OW23425   2.186   0.428  14.483 -0.0594  0.4216 -0.1328
 3931SOL    HW123426   2.184   0.505  14.426  1.0314  0.3591 -0.2378
 3931SOL    HW223427   2.120   0.375  14.436  0.2785  0.6131 -0.8280
 3932SOL     OW23428   0.462   0.177   3.850  0.5362 -0.1392 -0.2877
 3932SOL    HW123429   0.371   0.171   3.881  0.8921 -1.0177  0.5853
 3932SOL    HW223430   0.491   0.260   3.886  3.3730 -0.5622 -1.6046
 3933SOL     OW23431   4.673   1.891   5.816  0.2185  0.4333 -0.1994
 3933SOL    HW123432   0.003   1.899   5.744  2.5608  0.3858  1.8190
 3933SOL    HW223433   4.680   1.799   5.842  1.1288  0.2112 -1.2323
 3934SOL     OW23434   1.085   0.884  10.418  0.4020 -0.1876  0.1452
 3934SOL    HW123435   1.023   0.870  10.490  0.8653  0.3881  0.6567
 3934SOL    HW223436   1.153   0.946  10.446 -0.3599  0.4434  0.6199
 3935SOL     OW23437   4.101   4.665   3.731 -0.5229 -0.5670 -0.6845
 3935SOL    HW123438   4.018   4.648   3.776  0.4284 -1.3727  0.7345
 3935SOL    HW223439   4.064   4.715   3.657  0.5562 -2.6902 -2.6630
 3936SOL     OW23440   3.966   2.403   9.994 -0.0165  0.2892 -0.2654
 3936SOL    HW123441   4.048   2.395   9.944 -0.3967 -0.4433 -0.7661
 3936SOL    HW223442   3.945   2.312  10.016  1.1946  0.0265 -0.2018
 3937SOL     OW23443   3.300   1.600   7.264  0.1279 -0.0190  0.5261
 3937SOL    HW123444   3.363   1.533   7.291 -0.6690 -1.4621 -1.1644
 3937SOL    HW223445   3.288   1.640   7.350 -0.3203 -0.8490  0.8486
 3938SOL     OW23446   4.587   2.747   6.519 -0.1732  0.6072 -0.0282
 3938SOL    HW123447   4.506   2.795   6.502  0.3610  1.1984 -0.9284
 3938SOL    HW223448   4.560   2.655   6.523  2.9887 -0.3124  0.0656
 3939SOL     OW23449   1.366   3.020  10.111  0.3826 -0.6336 -0.3769
 3939SOL    HW123450   1.434   3.049  10.051  0.5971  2.0771  1.1879
 3939SOL    HW223451   1.373   2.925  10.117  0.0769 -0.5499  1.4102
 3940SOL     OW23452   2.275   4.589  13.608  0.6706  0.7969 -0.4019
 3940SOL    HW123453   2.207   4.540  13.653  1.4590  0.9905  0.9837
 3940SOL    HW223454   2.229   4.672  13.589  0.0316  0.4862 -0.2068
 3941SOL     OW23455   1.915   0.671  15.329  0.3366 -0.4907  0.3700
 3941SOL    HW123456   1.826   0.676  15.295  0.6012 -1.4016 -0.4679
 3941SOL    HW223457   1.961   0.648  15.248  0.7421 -0.0699  0.4801
 3942SOL     OW23458   1.704   4.704  16.946  0.5344  0.0959  0.3241
 3942SOL    HW123459   1.752   4.636  16.898  2.2951  1.1212  0.6372
 3942SOL    HW223460   1.614   4.697  16.913  1.0159 -1.4431 -0.7089
 3943SOL     OW23461   1.529   0.380   6.340 -0.1235 -1.0579 -0.3904
 3943SOL    HW123462   1.576   0.343   6.266  1.0754  1.4929 -0.9190
 3943SOL    HW223463   1.448   0.331   6.329  1.1350 -2.8870 -1.5429
 3944SOL     OW23464   1.412   0.577   7.576 -0.1822  0.5074  0.5097
 3944SOL    HW123465   1.330   0.627   7.583 -0.1873  0.6054 -0.1919
 3944SOL    HW223466   1.388   0.504   7.633  2.3448  0.7668  1.9019
 3945SOL     OW23467   2.996   1.944   7.209  0.3404  0.8351  0.3340
 3945SOL    HW123468   3.076   1.996   7.199 -0.1859  1.6140  0.2536
 3945SOL    HW223469   3.008   1.893   7.129  1.0529 -0.2213  1.1007
 3946SOL     OW23470   1.437   3.779   7.066  1.0708  0.2498  0.7159
 3946SOL    HW123471   1.452   3.694   7.108  0.9028 -0.1101  0.0485
 3946SOL    HW223472   1.343   3.775   7.046  1.3560 -0.7775 -0.3700
 3947SOL     OW23473   1.548   4.173   9.847  0.0778 -0.1225 -0.0112
 3947SOL    HW123474   1.577   4.086   9.822  0.1717 -0.7593  2.3349
 3947SOL    HW223475   1.508   4.146   9.930  0.7259  1.9222  0.9901
 3948SOL     OW23476   0.731   4.176   3.732  0.0423  0.1992  0.0413
 3948SOL    HW123477   0.806   4.117   3.731  1.4702  2.0149  0.5828
 3948SOL    HW223478   0.657   4.116   3.728 -0.9744  1.4931 -0.7318
 3949SOL     OW23479   2.776   3.057   0.771 -0.0193 -0.0655 -0.0337
 3949SOL    HW123480   2.834   2.982   0.780 -1.2893 -0.9082  1.0783
 3949SOL    HW223481   2.805   3.106   0.848  0.3493  2.5193 -1.8122
 3950SOL     OW23482   0.391   1.581   7.409 -0.4965  0.8291  0.3938
 3950SOL    HW123483   0.320   1.632   7.448 -0.3067  1.4798 -0.1075
 3950SOL    HW223484   0.419   1.538   7.489  0.2728 -1.5510 -1.1742
 3951SOL     OW23485   3.354   1.545   8.969 -0.0024  0.6774  0.3295
 3951SOL    HW123486   3.341   1.525   8.876 -0.5355 -1.7261  0.9218
 3951SOL    HW223487   3.391   1.466   9.009 -1.0595  1.3747  2.7132
 3952SOL     OW23488   4.498   0.462   7.695 -0.6001  0.5982 -0.0890
 3952SOL    HW123489   4.493   0.421   7.609 -0.4501  0.7959 -0.1952
 3952SOL    HW223490   4.583   0.505   7.681 -0.5540 -0.3156 -2.5795
 3953SOL     OW23491   4.111   4.582   7.763  0.6479 -0.4583 -0.0813
 3953SOL    HW123492   4.021   4.602   7.784  1.0775  2.2566 -0.8910
 3953SOL    HW223493   4.138   4.561   7.852 -0.1272 -1.3344 -0.0518
 3954SOL     OW23494   1.827   0.701   1.191 -0.3912  0.7493 -0.2990
 3954SOL    HW123495   1.834   0.717   1.097 -0.6218 -1.2813 -0.6599
 3954SOL    HW223496   1.874   0.778   1.223  2.6885 -1.1399 -0.2671
 3955SOL     OW23497   0.165   4.380   6.000  0.2820 -0.0249 -0.5293
 3955SOL    HW123498   0.225   4.448   6.033  0.2332  0.2965 -1.0969
 3955SOL    HW223499   0.226   4.317   5.962  0.6697  0.0115  0.0293
 3956SOL     OW23500   4.715   2.800   6.962  0.9750 -0.1081  0.0264
 3956SOL    HW123501   4.621   2.783   6.968  1.4392 -1.7323  3.0850
 3956SOL    HW223502   0.015   2.778   7.050  1.1198 -2.7227 -0.6716
 3957SOL     OW23503   3.633   3.092   7.402 -0.5068 -0.1549 -0.0783
 3957SOL    HW123504   3.609   3.181   7.378 -0.5061 -0.5378 -1.5366
 3957SOL    HW223505   3.604   3.039   7.327 -1.5394 -1.1526  1.0295
 3958SOL     OW23506   0.030   3.757   6.067  0.3358 -0.4926  0.6582
 3958SOL    HW123507   0.035   3.737   5.973 -2.2693  1.4501  0.0987
 3958SOL    HW223508   0.069   3.844   6.061 -0.2042 -0.3684 -1.0761
 3959SOL     OW23509   3.200   1.280   6.823  0.5624 -0.4872 -0.5120
 3959SOL    HW123510   3.169   1.353   6.770 -0.0740 -1.0266 -0.8736
 3959SOL    HW223511   3.231   1.218   6.757  4.6314  1.4000 -0.3959
 3960SOL     OW23512   3.233   4.490   1.031  0.0582  0.3954 -0.2321
 3960SOL    HW123513   3.320   4.526   1.052  0.7593 -0.0689 -2.3025
 3960SOL    HW223514   3.188   4.535   1.102 -0.2605  0.4820 -0.4897
 3961SOL     OW23515   0.488   3.478  13.155  0.0967 -0.2128  0.1084
 3961SOL    HW123516   0.475   3.498  13.247 -0.4054  0.0383 -0.0193
 3961SOL    HW223517   0.554   3.546  13.136 -0.9903  0.7853 -0.1229
 3962SOL     OW23518   0.998   0.486  11.490 -0.3023 -0.9172  0.2756
 3962SOL    HW123519   1.021   0.471  11.398  2.1151  0.1315  0.7094
 3962SOL    HW223520   0.902   0.484  11.490 -0.2736 -2.3297 -0.4454
 3963SOL     OW23521   4.368   1.704   4.051 -0.0032  0.7057 -0.3492
 3963SOL    HW123522   4.289   1.672   4.093 -0.7965  1.0549 -1.5625
 3963SOL    HW223523   4.368   1.793   4.086 -1.1151  0.5685 -0.0147
 3964SOL     OW23524   1.010   3.355  17.105  0.5341  0.5653  0.1379
 3964SOL    HW123525   0.984   3.296  17.176  2.2906 -0.9550 -0.4766
 3964SOL    HW223526   0.933   3.370  17.050  1.0364 -1.7477 -1.1801
 3965SOL     OW23527   0.493   4.193   3.188  0.1234 -0.6056 -0.0032
 3965SOL    HW123528   0.583   4.173   3.214  0.5856  0.9886 -0.3844
 3965SOL    HW223529   0.483   4.117   3.131 -1.9258 -1.8854  2.0413
 3966SOL     OW23530   0.207   2.902   3.216  0.2781  0.0377 -0.4877
 3966SOL    HW123531   0.215   2.896   3.121  0.0198  1.7643 -0.6135
 3966SOL    HW223532   0.163   2.819   3.234 -1.6100  1.3731  1.0827
 3967SOL     OW23533   3.043   0.233   3.480 -0.1566 -0.4192 -0.3928
 3967SOL    HW123534   2.982   0.278   3.422  0.7542 -1.1839 -1.9291
 3967SOL    HW223535   3.115   0.284   3.517 -0.1801  0.0764 -1.0454
 3968SOL     OW23536   3.494   0.927   8.465  0.4810  0.0906 -0.2785
 3968SOL    HW123537   3.523   1.009   8.424  2.6851 -0.7303 -0.3966
 3968SOL    HW223538   3.483   0.965   8.552  0.1370  2.4253 -1.3189
 3969SOL     OW23539   2.483   2.138   4.766 -0.2334  0.1735  0.0572
 3969SOL    HW123540   2.547   2.139   4.837  0.0513  3.4920 -0.2493
 3969SOL    HW223541   2.479   2.231   4.744 -0.5599  0.3117  0.7119
 3970SOL     OW23542   4.470   4.652   3.487  0.7072  0.1461 -0.7664
 3970SOL    HW123543   4.430   0.006   3.498 -0.9849 -0.8923  1.4191
 3970SOL    HW223544   4.452   4.615   3.574 -0.9194 -1.8533 -1.9377
 3971SOL     OW23545   2.068   0.015  13.464 -0.1416 -0.1154 -0.0039
 3971SOL    HW123546   1.987   0.052  13.429  0.5047  0.4512 -0.8988
 3971SOL    HW223547   2.138   0.068  13.426 -1.5964  2.0021  0.2235
 3972SOL     OW23548   0.759   4.128   9.497  0.0128  0.3715  0.0624
 3972SOL    HW123549   0.828   4.063   9.485  1.7168  1.9154  1.5671
 3972SOL    HW223550   0.696   4.108   9.428  2.4041 -2.7877 -1.1935
 3973SOL     OW23551   3.029   1.129   7.346 -0.1675 -0.3925 -0.0701
 3973SOL    HW123552   3.017   1.221   7.323  3.3205  0.0497 -0.0866
 3973SOL    HW223553   2.938   1.101   7.339  0.5276 -2.5633 -0.4954
 3974SOL     OW23554   2.099   1.832   4.376 -0.4961 -0.1372  0.1567
 3974SOL    HW123555   2.051   1.779   4.313 -0.4764  1.6830 -1.3777
 3974SOL    HW223556   2.128   1.914   4.337 -1.2025 -0.2994 -0.6923
 3975SOL     OW23557   4.518   4.251   4.900  0.1281  0.2142 -0.1926
 3975SOL    HW123558   4.540   4.163   4.929  0.9343 -0.0813 -1.6749
 3975SOL    HW223559   4.510   4.308   4.976  0.0513  0.1858 -0.1787
 3976SOL     OW23560   2.911   0.180   0.250  0.1608 -0.0249 -0.1371
 3976SOL    HW123561   2.897   0.221   0.336  0.3443 -0.6910  0.2152
 3976SOL    HW223562   2.930   0.090   0.275 -0.5373 -0.4220 -1.0344
 3977SOL     OW23563   1.521   4.491  17.303  0.3489  0.7316 -0.1314
 3977SOL    HW123564   1.455   4.424  17.286  0.3817  0.6668 -0.0066
 3977SOL    HW223565   1.591   4.446  17.257 -0.3135 -0.1113 -0.3182
 3978SOL     OW23566   4.642   3.629  13.344 -0.2915  0.0508 -0.0281
 3978SOL    HW123567   4.697   3.586  13.410 -0.5206  1.3566  1.0071
 3978SOL    HW223568   4.552   3.626  13.378 -0.3343 -2.7907 -0.3347
 3979SOL     OW23569   2.422   4.300  16.669  0.0816  0.3723  0.3218
 3979SOL    HW123570   2.497   4.324  16.723  1.4158 -0.9516 -0.9094
 3979SOL    HW223571   2.365   4.376  16.676  1.1684  1.3516 -1.4389
 3980SOL     OW23572   2.323   2.978   5.622  0.1368 -0.0195  0.3832
 3980SOL    HW123573   2.369   2.959   5.540  2.1434  1.0975  1.2752
 3980SOL    HW223574   2.305   2.895   5.666 -2.7164 -0.5112 -1.6792
 3981SOL     OW23575   0.018   0.287   9.508 -0.2449 -0.4024 -0.5271
 3981SOL    HW123576   0.063   0.348   9.450 -1.6212  2.0363  0.9583
 3981SOL    HW223577   4.716   0.352   9.569 -2.9064 -0.9468 -1.4531
 3982SOL     OW23578   3.798   1.242   4.496 -0.2972 -0.1929  0.1985
 3982SOL    HW123579   3.793   1.276   4.585 -3.0854  0.3120 -0.1290
 3982SOL    HW223580   3.706   1.235   4.470  0.3580  0.2775 -2.2067
 3983SOL     OW23581   1.422   0.339   8.224 -0.3236  0.1458  0.3860
 3983SOL    HW123582   1.462   0.423   8.200  0.4666 -0.1105  0.7884
 3983SOL    HW223583   1.489   0.296   8.278 -1.3091 -2.0164 -0.0866
 3984SOL     OW23584   2.292   3.565  15.574 -0.6106 -0.0156 -0.3843
 3984SOL    HW123585   2.205   3.596  15.550  1.0239  3.0144 -2.4901
 3984SOL    HW223586   2.271   3.473  15.585  1.1114 -0.4909 -1.1578
 3985SOL     OW23587   3.476   1.519   1.307  0.1491  0.3993  0.5435
 3985SOL    HW123588   3.540   1.574   1.351  0.1644  0.1845  0.7924
 3985SOL    HW223589   3.406   1.529   1.371 -0.3711 -0.2624  0.0782
 3986SOL     OW23590   1.609   1.991   3.073  0.1173  0.2069  0.0240
 3986SOL    HW123591   1.674   1.963   3.008 -1.3129 -2.2292 -0.3460
 3986SOL    HW223592   1.539   1.927   3.063 -0.1111  0.5288 -0.4659
 3987SOL     OW23593   0.322   4.405   3.265 -0.0158  0.7812  0.2316
 3987SOL    HW123594   0.312   4.391   3.171  0.1835 -0.9683  0.4726
 3987SOL    HW223595   0.369   4.326   3.293  1.4664  1.7065  0.3228
 3988SOL     OW23596   1.907   2.089   3.195  0.7104 -0.3454  0.2319
 3988SOL    HW123597   1.877   2.097   3.104  1.0302  0.5512  0.2123
 3988SOL    HW223598   1.888   2.174   3.235  1.9050 -1.2844  2.7466
 3989SOL     OW23599   1.143   1.003   4.227 -0.8685 -0.0360  0.5793
 3989SOL    HW123600   1.232   1.032   4.207  0.0374 -1.7526  2.0689
 3989SOL    HW223601   1.159   0.909   4.221  2.6118  0.5284  0.9956
 3990SOL     OW23602   3.292   2.385  11.321  0.2434 -0.3078 -0.4938
 3990SOL    HW123603   3.208   2.365  11.281  0.4242 -1.9261 -0.0773
 3990SOL    HW223604   3.274   2.383  11.415  1.7143  1.1246 -0.1842
 3991SOL     OW23605   1.848   0.944   8.867 -0.4812  0.7453 -0.0401
 3991SOL    HW123606   1.877   0.873   8.923 -1.6131 -1.6064 -2.4491
 3991SOL    HW223607   1.888   0.924   8.782 -0.4325  2.0503 -0.3343
 3992SOL     OW23608   0.557   4.399   7.646  0.0700 -0.0791 -0.1788
 3992SOL    HW123609   0.629   4.341   7.672 -2.1800 -2.1184  1.4305
 3992SOL    HW223610   0.569   4.459   7.719  0.7269 -0.7246  0.2565
 3993SOL     OW23611   3.025   2.861   6.819  0.0623  0.1113  0.1271
 3993SOL    HW123612   3.027   2.931   6.883  0.1601  0.1276  0.1062
 3993SOL    HW223613   3.077   2.896   6.746 -2.7696 -1.7648 -2.8087
 3994SOL     OW23614   1.886   0.931   0.064 -0.0279  0.0947  0.2252
 3994SOL    HW123615   1.931   1.000   0.113  1.3109 -0.0912 -0.7388
 3994SOL    HW223616   1.801   0.971   0.048  0.1690  0.1871 -0.6099
 3995SOL     OW23617   2.485   2.850   6.808  0.2904  0.2753  0.2629
 3995SOL    HW123618   2.510   2.781   6.868 -1.2886 -0.1164  0.4709
 3995SOL    HW223619   2.504   2.815   6.721 -0.8628 -1.5039  0.7217
 3996SOL     OW23620   0.368   1.599   3.424  0.2737 -0.4253 -0.1399
 3996SOL    HW123621   0.287   1.594   3.476  0.3368 -2.3217 -0.2206
 3996SOL    HW223622   0.366   1.694   3.421  1.5561 -0.4716 -2.4854
 3997SOL     OW23623   0.117   3.760   4.911 -0.1512  0.1219  0.4688
 3997SOL    HW123624   0.052   3.783   4.977  0.4265 -1.5399  1.6157
 3997SOL    HW223625   0.157   3.681   4.947 -0.1748 -0.6151 -1.1117
 3998SOL     OW23626   0.687   1.466   8.189 -0.1339  0.3803 -0.2652
 3998SOL    HW123627   0.614   1.409   8.215  0.3717 -0.3500 -0.4405
 3998SOL    HW223628   0.753   1.399   8.203 -0.3127  0.2041 -0.2581
 3999SOL     OW23629   2.537   3.754  13.954 -0.3654 -0.2947  0.0990
 3999SOL    HW123630   2.558   3.846  13.967 -2.4229 -0.2068  2.7354
 3999SOL    HW223631   2.455   3.749  14.002 -0.4998 -1.7806 -0.2951
 4000SOL     OW23632   3.653   2.400   1.898 -0.5611  0.4599  0.1783
 4000SOL    HW123633   3.638   2.328   1.837 -2.5953  0.9091  0.1249
 4000SOL    HW223634   3.714   2.453   1.847 -0.3939  0.8843  0.8253
 4001SOL     OW23635   0.333   0.707   6.658 -0.9022 -0.4099  0.0288
 4001SOL    HW123636   0.382   0.685   6.737 -0.6275  0.3462  0.0653
 4001SOL    HW223637   0.302   0.796   6.675  3.2290  1.1492 -0.6956
 4002SOL     OW23638   1.621   0.412  13.058  0.2170  0.2748  0.3101
 4002SOL    HW123639   1.544   0.469  13.062  0.3369  0.4447  0.1932
 4002SOL    HW223640   1.620   0.350  13.131 -2.5068 -0.5869 -0.4630
 4003SOL     OW23641   4.432   2.677   4.687 -0.1380  0.6986 -0.2591
 4003SOL    HW123642   4.384   2.612   4.737  0.4233  0.3518 -0.1696
 4003SOL    HW223643   4.494   2.619   4.641  0.1933 -1.6200  3.1096
 4004SOL     OW23644   2.052   2.506   1.461  0.0241 -0.2156  0.5701
 4004SOL    HW123645   2.121   2.567   1.437 -0.5704 -0.1915 -1.0925
 4004SOL    HW223646   2.104   2.442   1.509 -0.3873 -0.5717  0.5402
 4005SOL     OW23647   2.128   1.624   3.979 -0.2996  1.2104  0.0125
 4005SOL    HW123648   2.190   1.655   3.913 -2.2003 -0.3831 -2.4876
 4005SOL    HW223649   2.067   1.583   3.918  1.2584  0.1002 -0.8048
 4006SOL     OW23650   0.084   2.438   6.485  0.1763 -0.0659 -0.2314
 4006SOL    HW123651   0.118   2.451   6.396  1.9126  0.7047  0.5364
 4006SOL    HW223652   0.108   2.349   6.511 -0.6010 -0.4127 -0.7182
 4007SOL     OW23653   2.515   3.165   0.190 -0.6016 -0.3402  0.0814
 4007SOL    HW123654   2.458   3.089   0.179  1.3598 -1.4870 -2.2935
 4007SOL    HW223655   2.594   3.128   0.150 -0.1806 -1.5685  2.0563
 4008SOL     OW23656   1.848   0.199   2.188 -0.5737  0.5105 -0.8987
 4008SOL    HW123657   1.859   0.119   2.241  1.1566  0.3939 -1.4234
 4008SOL    HW223658   1.864   0.153   2.106  0.1970  0.4066 -0.6957
 4009SOL     OW23659   0.588   1.529   8.916  0.5394 -0.5343 -0.6704
 4009SOL    HW123660   0.511   1.539   8.972  0.0087  0.2859 -1.5615
 4009SOL    HW223661   0.652   1.503   8.982  0.5116  2.5300  0.5486
 4010SOL     OW23662   0.864   3.523   3.618 -0.1441 -0.5489 -0.1103
 4010SOL    HW123663   0.859   3.571   3.536 -0.1218 -2.2817 -1.1189
 4010SOL    HW223664   0.928   3.453   3.606 -0.9841 -1.5217  1.0506
 4011SOL     OW23665   3.145   3.925   8.497  0.3753 -0.3901  0.3549
 4011SOL    HW123666   3.193   3.995   8.453 -1.3605  0.1564 -0.6725
 4011SOL    HW223667   3.175   3.934   8.587  1.0054 -2.7610  0.3659
 4012SOL     OW23668   2.245   0.835  11.685 -0.6041 -0.3956 -0.8364
 4012SOL    HW123669   2.248   0.882  11.602 -0.3292  0.4161 -0.3679
 4012SOL    HW223670   2.309   0.894  11.725 -0.9222 -0.2077 -0.6008
 4013SOL     OW23671   2.295   2.688   2.476 -0.1339 -0.0909  0.1772
 4013SOL    HW123672   2.252   2.613   2.434 -0.9618 -0.7175  2.1724
 4013SOL    HW223673   2.256   2.758   2.423 -0.2003 -1.8350 -2.1033
 4014SOL     OW23674   1.414   0.840   0.285  0.2030  0.4089  0.5219
 4014SOL    HW123675   1.448   0.820   0.198 -0.9244  1.8588 -0.2531
 4014SOL    HW223676   1.376   0.927   0.270  0.4432 -0.4211 -4.9168
 4015SOL     OW23677   0.336   2.832   7.321  0.0336 -0.8927 -0.7735
 4015SOL    HW123678   0.252   2.788   7.337  0.1936 -0.5576  1.0450
 4015SOL    HW223679   0.403   2.764   7.323  1.0403  0.0438 -2.3953
 4016SOL     OW23680   0.696   1.122   7.899 -0.8048  0.7787 -0.1703
 4016SOL    HW123681   0.653   1.047   7.858  0.1579 -0.6190  1.3330
 4016SOL    HW223682   0.787   1.103   7.876 -0.8538 -0.6533  0.8130
 4017SOL     OW23683   3.761   2.392  14.082  0.0989  0.7676  0.1718
 4017SOL    HW123684   3.744   2.313  14.133 -0.2633 -0.4170 -1.7701
 4017SOL    HW223685   3.716   2.459  14.133 -0.6528  0.2942  0.1253
 4018SOL     OW23686   4.484   0.044   5.634  0.1370  0.1981  0.5892
 4018SOL    HW123687   4.422   4.719   5.589 -0.1252  0.5309  0.5345
 4018SOL    HW223688   4.499   4.727   5.714 -0.4217 -0.2572  0.4093
 4019SOL     OW23689   2.867   2.882   9.129 -0.3170  0.2278  0.2297
 4019SOL    HW123690   2.865   2.953   9.193 -0.4089 -0.1760  0.6777
 4019SOL    HW223691   2.781   2.894   9.090 -0.1278 -1.4156 -0.7030
 4020SOL     OW23692   1.726   4.129  12.243  0.3548 -0.2314  0.3275
 4020SOL    HW123693   1.803   4.178  12.213  0.3140 -0.4242 -0.1066
 4020SOL    HW223694   1.739   4.050  12.190  0.6360  0.5706 -0.8078
 4021SOL     OW23695   3.380   3.479   6.046  0.0618  0.0579  0.1190
 4021SOL    HW123696   3.304   3.495   6.102  1.7218  0.3797  2.2497
 4021SOL    HW223697   3.453   3.506   6.101 -0.6884 -1.1137  1.6849
 4022SOL     OW23698   4.307   3.005   8.294  0.1299  0.7249 -0.5814
 4022SOL    HW123699   4.280   2.975   8.207  0.4660 -0.5925 -0.2276
 4022SOL    HW223700   4.398   2.979   8.302  0.7720  3.5818  1.1397
 4023SOL     OW23701   1.298   1.905   5.357  0.3074  0.4947  0.2716
 4023SOL    HW123702   1.326   1.879   5.445  2.3092  2.7875  0.3092
 4023SOL    HW223703   1.226   1.964   5.379  0.8146  0.6828  1.4424
 4024SOL     OW23704   0.823   1.956  13.380 -0.2396  0.0946 -0.1045
 4024SOL    HW123705   0.783   1.952  13.293  0.2460  1.9041 -0.4186
 4024SOL    HW223706   0.745   1.959  13.434 -0.3432  1.2171 -0.3123
 4025SOL     OW23707   2.522   4.255  11.527 -0.5148 -0.2557  0.1109
 4025SOL    HW123708   2.577   4.254  11.448 -0.2540  1.4331  0.2718
 4025SOL    HW223709   2.546   4.341  11.561 -0.5311  0.8736 -2.6761
 4026SOL     OW23710   3.876   0.969   6.965 -0.1578 -0.1699  0.0797
 4026SOL    HW123711   3.926   0.988   7.045  0.0675 -1.5622  0.2764
 4026SOL    HW223712   3.864   0.874   6.965 -0.3800 -0.1403 -0.2832
 4027SOL     OW23713   0.567   2.265  13.485  0.3195  0.1332 -0.3508
 4027SOL    HW123714   0.626   2.279  13.412 -1.4966 -0.8634 -2.0089
 4027SOL    HW223715   0.498   2.211  13.446  0.8463 -0.6413 -0.2010
 4028SOL     OW23716   1.642   1.091   2.403  0.6233 -0.1846 -0.4138
 4028SOL    HW123717   1.625   1.042   2.483 -1.9219  0.7693 -0.3784
 4028SOL    HW223718   1.678   1.172   2.438  0.6148 -1.1031  1.7226
 4029SOL     OW23719   0.554   1.745   8.738  0.7874  0.1898  0.0907
 4029SOL    HW123720   0.564   1.660   8.782 -1.4346 -0.7718 -1.2536
 4029SOL    HW223721   0.525   1.722   8.650 -1.3427 -0.3380  0.9434
 4030SOL     OW23722   3.106   4.541  13.425 -0.1986 -0.2544 -0.2437
 4030SOL    HW123723   3.030   4.522  13.371  0.4132  0.9053 -1.5117
 4030SOL    HW223724   3.081   4.617  13.478  0.4874 -1.1371  1.3610
 4031SOL     OW23725   0.996   4.077   5.955  0.3679 -0.1704  0.1048
 4031SOL    HW123726   0.930   4.123   6.007 -1.0991 -0.0520 -1.8919
 4031SOL    HW223727   1.036   4.029   6.028 -0.8966  0.6520  1.3412
 4032SOL     OW23728   1.230   4.066   2.285 -0.1340  0.2010  0.0750
 4032SOL    HW123729   1.265   3.979   2.304 -1.5445 -0.3481  0.1346
 4032SOL    HW223730   1.265   4.081   2.197  0.1514  0.8521  0.3027
 4033SOL     OW23731   3.688   0.454  16.005 -0.1474  0.0947  0.3196
 4033SOL    HW123732   3.630   0.469  16.080  0.2655  1.5993  0.3373
 4033SOL    HW223733   3.770   0.496  16.031  0.7830 -1.4552 -0.0747
 4034SOL     OW23734   3.271   3.303   1.758  0.0235  0.2805 -0.3920
 4034SOL    HW123735   3.295   3.348   1.677  0.2880  0.3156 -0.2943
 4034SOL    HW223736   3.346   3.332   1.810 -0.2182  0.3759 -0.0978
 4035SOL     OW23737   3.346   3.576   4.655  0.4905 -0.0668  0.0047
 4035SOL    HW123738   3.405   3.528   4.597 -1.0527 -1.8650 -0.0702
 4035SOL    HW223739   3.288   3.614   4.590  0.2322  1.6925  1.2449
 4036SOL     OW23740   3.804   4.018   8.267 -0.3225  0.5674 -0.0696
 4036SOL    HW123741   3.711   4.007   8.285 -0.3438  1.0674  0.1358
 4036SOL    HW223742   3.846   3.959   8.330 -0.9202  0.1359 -0.0773
 4037SOL     OW23743   0.090   1.230   6.830 -0.0194 -0.4552  0.1760
 4037SOL    HW123744   0.157   1.226   6.898  0.5981 -1.8113 -0.5269
 4037SOL    HW223745   0.074   1.323   6.813 -3.3115 -0.8748  0.9490
 4038SOL     OW23746   3.004   1.303   4.222  0.6520  0.0698  0.0050
 4038SOL    HW123747   3.032   1.361   4.294 -0.3758  1.3798 -0.6439
 4038SOL    HW223748   2.926   1.351   4.195  0.7773  0.0560 -0.3705
 4039SOL     OW23749   3.589   0.203   4.723  0.1994 -0.2790 -0.4008
 4039SOL    HW123750   3.626   0.274   4.776  0.0210 -0.1626 -0.4333
 4039SOL    HW223751   3.571   0.132   4.784 -1.5564  1.1357  0.7316
 4040SOL     OW23752   4.630   2.584   4.905 -0.5235 -0.5678 -0.0117
 4040SOL    HW123753   4.535   2.588   4.917 -0.5178 -0.2978 -0.0571
 4040SOL    HW223754   4.650   2.663   4.855 -0.4388 -0.8952 -0.4944
 4041SOL     OW23755   0.418   3.147   7.171 -0.3960 -0.4892  0.7027
 4041SOL    HW123756   0.335   3.144   7.218 -0.1244 -0.3630  1.1796
 4041SOL    HW223757   0.376   3.145   7.085  1.5254 -0.6152 -0.2322
 4042SOL     OW23758   1.805   4.303   5.836  0.3704  0.3307 -0.1137
 4042SOL    HW123759   1.758   4.253   5.770  3.5976 -0.1412 -2.0706
 4042SOL    HW223760   1.864   4.237   5.873  0.6978  1.4201  1.3354
 4043SOL     OW23761   3.925   2.122  17.171 -0.0514 -0.2419  1.0099
 4043SOL    HW123762   3.989   2.192  17.165 -2.0628  1.5182  0.1388
 4043SOL    HW223763   3.976   2.046  17.144 -0.8501  0.3137 -2.1024
 4044SOL     OW23764   1.033   0.333   5.870 -0.0045 -0.3697 -0.5268
 4044SOL    HW123765   0.950   0.317   5.914 -0.6417  0.6408 -1.3650
 4044SOL    HW223766   1.058   0.251   5.829 -0.1358 -1.4716  1.6050
 4045SOL     OW23767   1.889   4.702   2.313  0.5658 -0.4641  0.4163
 4045SOL    HW123768   1.940   4.711   2.393 -2.0389  0.6406  1.9623
 4045SOL    HW223769   1.951   4.654   2.257 -0.8263 -0.9194 -0.7367
 4046SOL     OW23770   3.517   2.569   8.206  0.4090 -0.0430 -0.0534
 4046SOL    HW123771   3.524   2.656   8.169 -1.5010 -0.6480 -1.8458
 4046SOL    HW223772   3.464   2.591   8.283 -0.1562  1.4950 -0.8843
 4047SOL     OW23773   0.986   1.833   7.521 -0.4863  0.3121  0.4360
 4047SOL    HW123774   1.035   1.781   7.584 -1.2088 -0.1807  0.5981
 4047SOL    HW223775   0.904   1.853   7.567  0.7389  2.0730  1.8287
 4048SOL     OW23776   2.809   4.235  12.864 -0.0584 -0.2276  0.4443
 4048SOL    HW123777   2.799   4.176  12.789  0.3113 -0.0820  0.2837
 4048SOL    HW223778   2.715   4.245  12.883 -0.1854 -2.2400  0.9029
 4049SOL     OW23779   3.708   4.650   2.959  0.5716  0.3178 -0.0298
 4049SOL    HW123780   3.704   4.667   2.864 -1.4962 -1.3732 -0.2615
 4049SOL    HW223781   3.792   4.692   2.973  1.2703 -1.1799  0.2811
 4050SOL     OW23782   3.780   4.523   8.840 -0.0493  0.2315 -0.2260
 4050SOL    HW123783   3.754   4.587   8.905  3.4333  1.3350  0.0635
 4050SOL    HW223784   3.704   4.465   8.837 -1.4079  2.0209  0.3432
 4051SOL     OW23785   0.561   2.988   6.604 -0.1156  0.4978 -0.4009
 4051SOL    HW123786   0.511   2.908   6.619 -1.8219  1.4427 -1.0637
 4051SOL    HW223787   0.650   2.952   6.608 -0.6677 -0.9685 -1.6335
 4052SOL     OW23788   3.186   0.186   6.678  0.4573  0.1805  0.1820
 4052SOL    HW123789   3.269   0.171   6.723  0.8190 -1.1190 -0.9075
 4052SOL    HW223790   3.185   0.117   6.611  1.8681 -2.5702  3.0261
 4053SOL     OW23791   0.422   3.348   2.562 -0.0438 -0.2425 -0.5709
 4053SOL    HW123792   0.417   3.262   2.522  0.2227 -1.6026  2.3350
 4053SOL    HW223793   0.453   3.311   2.645 -0.8704  1.2220  0.3986
 4054SOL     OW23794   2.692   2.815   0.152 -0.3535  0.0733 -0.4460
 4054SOL    HW123795   2.703   2.721   0.167 -0.2229  0.3358  1.1681
 4054SOL    HW223796   2.779   2.827   0.114  1.1418 -2.4671  2.1386
 4055SOL     OW23797   2.069   3.944   8.960 -0.8545 -0.1750  0.2206
 4055SOL    HW123798   2.068   4.024   9.013  0.2294 -0.5606  0.8367
 4055SOL    HW223799   2.163   3.931   8.942 -0.9828 -1.8295  0.7168
 4056SOL     OW23800   4.344   2.902   8.687  0.5513  0.0142  0.0291
 4056SOL    HW123801   4.299   2.956   8.752 -1.9843 -2.2663  0.1416
 4056SOL    HW223802   4.273   2.898   8.622 -2.0836  0.8396  2.8600
 4057SOL     OW23803   0.380   1.528  13.788 -0.2523  0.6740 -0.3339
 4057SOL    HW123804   0.439   1.480  13.729  0.7429  2.6903 -0.9822
 4057SOL    HW223805   0.379   1.460  13.855 -0.8136 -0.6387 -1.6528
 4058SOL     OW23806   3.730   1.459  13.102  0.0355  0.0107 -0.1774
 4058SOL    HW123807   3.710   1.531  13.042 -0.2268 -0.0185 -0.1260
 4058SOL    HW223808   3.640   1.437  13.126 -0.5322 -0.8299 -3.0379
 4059SOL     OW23809   3.447   4.235  14.755  0.4239 -0.1774 -0.1829
 4059SOL    HW123810   3.433   4.170  14.686  0.3342  0.9671 -1.2303
 4059SOL    HW223811   3.540   4.227  14.775 -0.2443  0.4412  3.2602
 4060SOL     OW23812   3.213   0.941   7.432  0.3610  0.3049  0.4010
 4060SOL    HW123813   3.133   0.992   7.442  0.4069  0.2766  0.8830
 4060SOL    HW223814   3.242   0.952   7.341 -1.0786  0.3660 -0.0569
 4061SOL     OW23815   2.757   2.167   8.780  0.0093 -0.3316 -0.0020
 4061SOL    HW123816   2.670   2.193   8.750 -0.4068  0.9373  2.3158
 4061SOL    HW223817   2.798   2.234   8.725  1.1632 -0.2915  0.8979
 4062SOL     OW23818   1.261   3.944  16.121 -0.3506 -0.3444 -0.5718
 4062SOL    HW123819   1.268   3.922  16.214 -0.7120  1.5034 -0.1127
 4062SOL    HW223820   1.174   3.979  16.107  0.2254  1.4827  0.3855
 4063SOL     OW23821   2.746   1.641   2.060 -0.0178  0.2402  0.3780
 4063SOL    HW123822   2.689   1.647   2.137 -1.1320  0.1261 -0.4341
 4063SOL    HW223823   2.822   1.691   2.088  2.1590 -1.5741 -2.3226
 4064SOL     OW23824   4.546   2.374  10.135  0.1183 -0.2856 -1.0321
 4064SOL    HW123825   4.596   2.320  10.074  1.0851 -1.5146  0.8505
 4064SOL    HW223826   4.567   2.323  10.214  0.9524 -0.9783 -1.6943
 4065SOL     OW23827   1.597   2.739  17.695 -0.0682  0.0621 -0.9084
 4065SOL    HW123828   1.668   2.802  17.703 -0.6999  0.7128 -0.4432
 4065SOL    HW223829   1.554   2.755  17.611 -1.3282 -0.2967 -0.3307
 4066SOL     OW23830   0.012   1.181   9.229  0.0143  0.5062 -0.1514
 4066SOL    HW123831   0.063   1.108   9.193 -1.4621 -0.8192  0.4444
 4066SOL    HW223832   0.066   1.225   9.294  0.9573 -1.5622  0.4697
 4067SOL     OW23833   3.581   0.459   6.764  0.1417 -0.2486 -0.1307
 4067SOL    HW123834   3.647   0.524   6.740 -0.3636 -0.0630 -0.9986
 4067SOL    HW223835   3.508   0.496   6.715 -1.4962 -3.2392  0.0430
 4068SOL     OW23836   1.955   3.926   4.495  1.0925 -0.0215 -0.1475
 4068SOL    HW123837   1.887   3.934   4.563  2.7019  0.3020  1.4074
 4068SOL    HW223838   1.935   3.838   4.462 -0.7011  0.2667  0.1711
 4069SOL     OW23839   1.693   3.170   3.380 -0.0599 -0.0657 -0.0412
 4069SOL    HW123840   1.640   3.135   3.308 -0.1786 -1.2904  0.6534
 4069SOL    HW223841   1.782   3.152   3.350 -0.1256 -0.1240 -0.2020
 4070SOL     OW23842   1.682   1.179   4.120  0.3936  0.3368 -0.2889
 4070SOL    HW123843   1.710   1.102   4.169  0.9333  0.7902  0.1123
 4070SOL    HW223844   1.651   1.234   4.192 -1.1358  0.4499 -1.0231
 4071SOL     OW23845   2.822   0.110  13.362  0.2132  0.3328 -0.4568
 4071SOL    HW123846   2.783   0.044  13.305  0.2993 -0.7950  0.7756
 4071SOL    HW223847   2.855   0.165  13.291 -0.8340 -1.2067 -2.1230
 4072SOL     OW23848   0.291   4.457   4.978 -0.2126  0.1282 -0.2939
 4072SOL    HW123849   0.294   4.414   4.893  1.9176  0.0009 -0.1762
 4072SOL    HW223850   0.361   4.404   5.018 -0.2642  1.0952  1.0685
 4073SOL     OW23851   2.813   3.056   2.833  0.8806  0.6343  0.2841
 4073SOL    HW123852   2.732   3.088   2.791  0.8600 -4.1314 -3.3053
 4073SOL    HW223853   2.846   2.999   2.763 -0.5526 -1.4388  1.2946
 4074SOL     OW23854   0.552   3.868  15.923  0.3938  0.2010 -0.1499
 4074SOL    HW123855   0.633   3.817  15.919 -0.4504 -1.0777 -0.8785
 4074SOL    HW223856   0.555   3.916  15.841 -3.0004 -0.1662 -0.4888
 4075SOL     OW23857   0.230   0.621   3.056  0.2175 -0.6426 -0.1334
 4075SOL    HW123858   0.291   0.652   3.123 -0.4885  0.0603  0.1884
 4075SOL    HW223859   0.164   0.690   3.054  0.0611 -0.8304 -1.2263
 4076SOL     OW23860   1.317   3.256   2.140  0.4242 -0.0946 -0.0181
 4076SOL    HW123861   1.370   3.284   2.214  3.1458 -2.9819 -0.8598
 4076SOL    HW223862   1.267   3.182   2.177  1.4676 -1.4728 -1.3812
 4077SOL     OW23863   3.113   4.599   8.752  0.0998 -0.5217  0.4790
 4077SOL    HW123864   3.063   4.648   8.817 -0.3083  1.4264 -1.2940
 4077SOL    HW223865   3.050   4.530   8.733  2.1897 -2.0983 -0.7116
 4078SOL     OW23866   1.542   1.136   6.693  0.1216 -0.0771 -0.4275
 4078SOL    HW123867   1.536   1.188   6.612 -1.2671  0.7859  0.2379
 4078SOL    HW223868   1.524   1.045   6.670 -0.7266 -0.3095  1.1487
 4079SOL     OW23869   2.138   4.561  17.081  0.1933  0.1807  0.2664
 4079SOL    HW123870   2.122   4.635  17.022 -0.2604  1.8032  2.4266
 4079SOL    HW223871   2.201   4.603  17.140  1.3009  0.5775 -1.1823
 4080SOL     OW23872   1.343   4.169   0.519  0.0949 -0.0384 -0.3632
 4080SOL    HW123873   1.372   4.108   0.587  1.9993 -0.7405 -1.7922
 4080SOL    HW223874   1.300   4.241   0.564  0.7499  0.5472 -0.6644
 4081SOL     OW23875   1.950   4.576   5.463  0.6507 -0.2078 -0.2427
 4081SOL    HW123876   1.903   4.553   5.543  2.0580  0.5858  0.8176
 4081SOL    HW223877   2.023   4.514   5.467  1.4708  0.7167 -1.1866
 4082SOL     OW23878   2.191   2.780   3.599 -0.7580  0.0423 -0.5278
 4082SOL    HW123879   2.284   2.800   3.607 -0.7473 -0.0400 -0.4376
 4082SOL    HW223880   2.195   2.770   3.503  0.1780 -0.3980 -0.4442
 4083SOL     OW23881   3.500   4.036  14.986  0.3166  0.3517 -0.3331
 4083SOL    HW123882   3.472   4.126  14.999 -0.9870 -0.3186  1.4031
 4083SOL    HW223883   3.588   4.046  14.950  1.0967 -0.7780  1.2774
 4084SOL     OW23884   2.621   0.415  10.706 -0.3076 -0.3995 -0.1709
 4084SOL    HW123885   2.661   0.502  10.705  0.7616 -0.8700  1.2389
 4084SOL    HW223886   2.649   0.390  10.794 -0.8883 -1.3691 -0.2572
 4085SOL     OW23887   1.360   2.081   0.964 -0.3637 -0.0493  0.0899
 4085SOL    HW123888   1.296   2.047   0.901 -2.3899  2.9046  0.5560
 4085SOL    HW223889   1.444   2.080   0.919 -1.6630  1.3628 -2.4062
 4086SOL     OW23890   0.270   2.871  10.079 -0.7948 -0.2838 -0.3120
 4086SOL    HW123891   0.177   2.854  10.064 -0.8515  0.5528 -0.9459
 4086SOL    HW223892   0.300   2.893   9.991 -3.3481  0.5594 -0.9593
 4087SOL     OW23893   1.443   0.679   1.415 -0.7759 -0.1953  0.2489
 4087SOL    HW123894   1.513   0.629   1.455 -0.2750  0.2897 -0.0189
 4087SOL    HW223895   1.414   0.613   1.352 -0.9093 -0.2508  0.3684
 4088SOL     OW23896   1.688   0.102  11.899 -0.0806  0.0431  0.0443
 4088SOL    HW123897   1.772   0.107  11.946  0.5383 -3.9483 -0.6166
 4088SOL    HW223898   1.629   0.153  11.954 -2.1422 -2.0189 -0.2816
 4089SOL     OW23899   3.795   3.515   4.099  0.6856  0.2670  0.3494
 4089SOL    HW123900   3.711   3.545   4.134  0.0416 -2.1208  0.8236
 4089SOL    HW223901   3.804   3.425   4.129 -0.8947  0.4892  1.4512
 4090SOL     OW23902   4.440   1.400   2.623 -0.3475 -0.1341 -0.0255
 4090SOL    HW123903   4.380   1.336   2.585 -0.9814  0.2705  0.2884
 4090SOL    HW223904   4.484   1.352   2.693 -1.9762 -0.8224  0.5015
 4091SOL     OW23905   3.579   1.749   3.841 -0.0184 -0.0799  0.6652
 4091SOL    HW123906   3.668   1.778   3.863 -1.7917  4.1582  2.2732
 4091SOL    HW223907   3.593   1.724   3.750  1.0722  1.2394  0.4597
 4092SOL     OW23908   1.092   3.523  11.474  0.0004  0.7161 -0.8593
 4092SOL    HW123909   1.136   3.606  11.490 -2.1633  1.2082  2.3991
 4092SOL    HW223910   1.000   3.550  11.470 -0.7266 -1.7708 -0.7009
 4093SOL     OW23911   4.167   0.110  17.680  0.1880  0.3289 -0.4067
 4093SOL    HW123912   4.209   0.177  17.627  1.1783 -0.1885 -0.2778
 4093SOL    HW223913   4.171   0.035  17.621  1.1527  1.2066 -1.4636
 4094SOL     OW23914   2.317   0.220   8.252  0.1433  0.0993 -0.0525
 4094SOL    HW123915   2.375   0.287   8.216 -1.0751  0.1567 -1.8985
 4094SOL    HW223916   2.334   0.229   8.346 -0.0363 -1.3083  0.1129
 4095SOL     OW23917   2.308   3.114  13.016  0.2038  0.0913 -0.1620
 4095SOL    HW123918   2.247   3.187  13.019 -0.4868 -0.5535  1.6018
 4095SOL    HW223919   2.378   3.146  12.959 -0.7584 -0.3929 -1.6126
 4096SOL     OW23920   0.173   0.913  17.135 -0.1031  0.8676 -0.5504
 4096SOL    HW123921   0.103   0.852  17.112 -0.9467  1.9659 -0.9302
 4096SOL    HW223922   0.211   0.938  17.051 -0.1527  0.4468 -0.6970
 4097SOL     OW23923   1.979   1.379   2.839  0.8995 -0.4111 -0.0543
 4097SOL    HW123924   1.889   1.406   2.825  1.1728  0.6870  0.2510
 4097SOL    HW223925   2.005   1.402   2.750 -0.5058 -3.5059 -1.2534
 4098SOL     OW23926   2.347   3.377   8.782  0.3127  0.4186  0.0042
 4098SOL    HW123927   2.308   3.304   8.734 -1.6636 -0.1364  2.4269
 4098SOL    HW223928   2.427   3.399   8.734 -0.1764  2.5008  0.1528
 4099SOL     OW23929   3.319   0.187  12.305  0.2441  0.2288  0.3492
 4099SOL    HW123930   3.357   0.275  12.299 -2.8332  1.7743  3.2625
 4099SOL    HW223931   3.349   0.155  12.220 -1.9269 -2.1943  0.4927
 4100SOL     OW23932   4.065   0.935   8.076 -0.2123  0.0065  0.3195
 4100SOL    HW123933   4.028   0.897   8.156 -2.5078  1.7627  0.0836
 4100SOL    HW223934   3.991   0.982   8.039  0.9735  0.1361 -1.8903
 4101SOL     OW23935   2.525   4.668   5.893 -0.1608 -0.3800  0.2568
 4101SOL    HW123936   2.550   0.019   5.854  0.0381 -0.6618 -0.2117
 4101SOL    HW223937   2.490   4.628   5.814 -0.6143  0.6733 -0.0834
 4102SOL     OW23938   0.598   1.818   2.850 -0.5680  0.0877  0.1757
 4102SOL    HW123939   0.582   1.827   2.944  0.0514 -1.1831  0.4072
 4102SOL    HW223940   0.608   1.722   2.854  1.1744  0.2617 -0.2746
 4103SOL     OW23941   3.154   1.751   8.270  0.0256 -0.4923  0.2628
 4103SOL    HW123942   3.090   1.737   8.200  0.7150 -2.3388 -0.0143
 4103SOL    HW223943   3.166   1.845   8.258  4.3435 -1.0690  0.0817
 4104SOL     OW23944   1.178   2.210  13.832  0.4952 -0.3213  0.3611
 4104SOL    HW123945   1.200   2.207  13.739 -1.9067 -0.5975 -0.1899
 4104SOL    HW223946   1.090   2.246  13.843 -0.2104 -2.0736  0.4711
 4105SOL     OW23947   4.667   2.277   8.917 -0.1134 -0.0662  0.1994
 4105SOL    HW123948   0.014   2.325   8.893 -0.5093  0.3044 -0.3867
 4105SOL    HW223949   4.607   2.306   8.848 -0.9571  0.1537  1.0242
 4106SOL     OW23950   1.137   4.288   2.435  0.5496  0.0586  0.0085
 4106SOL    HW123951   1.177   4.216   2.387 -2.2752 -0.2114 -1.9138
 4106SOL    HW223952   1.101   4.347   2.370  0.1534 -0.9200 -0.6557
 4107SOL     OW23953   1.279   3.914  14.444  0.3627  0.0334 -0.0922
 4107SOL    HW123954   1.207   3.962  14.402  0.0811 -2.3125 -2.3142
 4107SOL    HW223955   1.247   3.905  14.533  0.3038 -2.5161 -0.3774
 4108SOL     OW23956   1.195   0.244  15.581  0.1991  0.3652 -0.0840
 4108SOL    HW123957   1.105   0.215  15.598  0.5907 -0.2910  0.8479
 4108SOL    HW223958   1.251   0.185  15.631 -2.3852 -1.5834  0.4994
 4109SOL     OW23959   3.799   1.326   6.723 -0.1769  0.2431 -0.2429
 4109SOL    HW123960   3.804   1.319   6.818  2.6321 -0.5525 -0.4242
 4109SOL    HW223961   3.725   1.268   6.707  0.2326 -0.5198  0.6124
 4110SOL     OW23962   2.446   2.496   8.012 -0.4244 -0.8830 -0.6650
 4110SOL    HW123963   2.410   2.577   7.976  3.4662  1.5520  0.9461
 4110SOL    HW223964   2.446   2.515   8.106  1.1246 -0.0627 -0.8429
 4111SOL     OW23965   2.281   0.547   7.162 -0.1621 -0.0473  0.2362
 4111SOL    HW123966   2.313   0.632   7.193 -2.8377  2.1175 -2.9228
 4111SOL    HW223967   2.363   0.504   7.139 -0.3169 -0.4223  0.3829
 4112SOL     OW23968   2.976   2.504  16.462  0.3653  0.3052 -0.2100
 4112SOL    HW123969   3.006   2.464  16.380  0.3273 -1.1993  0.5026
 4112SOL    HW223970   3.015   2.439  16.520  0.9638  0.4292 -0.4726
 4113SOL     OW23971   0.709   0.282   4.182 -0.1661  0.2418  0.3816
 4113SOL    HW123972   0.802   0.262   4.193  0.2208  0.9797 -1.5805
 4113SOL    HW223973   0.688   0.325   4.265  1.3365  3.3359 -0.8462
 4114SOL     OW23974   1.210   0.742   7.546 -0.7872  0.0422  0.2569
 4114SOL    HW123975   1.239   0.833   7.558  2.5783 -1.3652  2.5903
 4114SOL    HW223976   1.139   0.762   7.485  0.4357 -1.5947 -1.6883
 4115SOL     OW23977   0.593   0.679  14.095 -0.2326  0.6234 -0.1279
 4115SOL    HW123978   0.569   0.621  14.023 -1.1958 -0.2769  0.9110
 4115SOL    HW223979   0.552   0.758  14.061 -1.0354 -0.2558 -1.2194
 4116SOL     OW23980   2.961   1.631   8.924  0.2292  0.3213 -0.2485
 4116SOL    HW123981   3.049   1.642   8.960  0.8787  0.4250 -1.8294
 4116SOL    HW223982   2.966   1.695   8.853  0.0896  1.9098  1.1777
 4117SOL     OW23983   3.598   2.911  16.729 -0.2425 -0.0366  0.1101
 4117SOL    HW123984   3.532   2.979  16.728  0.3625  0.6157  2.6746
 4117SOL    HW223985   3.575   2.877  16.816 -0.8865  1.0171  0.3371
 4118SOL     OW23986   4.026   4.456   8.776  0.3025  0.4226  0.5630
 4118SOL    HW123987   4.053   4.542   8.809  1.4922 -0.9393  3.1549
 4118SOL    HW223988   3.933   4.473   8.789  0.3504  1.9725 -0.9899
 4119SOL     OW23989   1.969   0.421  12.849 -0.0952 -0.1049  0.3880
 4119SOL    HW123990   1.874   0.433  12.858 -0.0591 -0.9076  1.9353
 4119SOL    HW223991   2.005   0.423  12.938 -1.8445 -0.9840  1.1283
 4120SOL     OW23992   3.410   0.035   2.252 -0.2703  0.2462 -0.1775
 4120SOL    HW123993   3.339   4.706   2.271 -0.5935  0.5843 -0.2814
 4120SOL    HW223994   3.441   0.002   2.167  2.2256 -2.6552  1.8517
 4121SOL     OW23995   2.321   1.439   5.045  0.3691 -0.7616 -0.3371
 4121SOL    HW123996   2.388   1.456   5.111  1.1689  2.0358 -1.8958
 4121SOL    HW223997   2.249   1.498   5.066  0.9190  0.8807 -3.1348
 4122SOL     OW23998   3.997   1.901  12.852  0.0623  0.4300  0.2056
 4122SOL    HW123999   4.008   1.853  12.934 -0.5410 -0.3317 -0.1591
 4122SOL    HW224000   4.076   1.950  12.831  0.5903 -1.0523 -1.3106
 4123SOL     OW24001   0.767   2.002  16.697 -0.5107  0.2466  0.1528
 4123SOL    HW124002   0.724   2.088  16.702 -1.5436 -0.3412  1.4858
 4123SOL    HW224003   0.752   1.982  16.605 -1.0773  2.0734 -0.1567
 4124SOL     OW24004   3.247   4.357   2.037  0.4656  0.0368 -0.3830
 4124SOL    HW124005   3.318   4.295   2.020  1.2729  0.7797  0.3144
 4124SOL    HW224006   3.221   4.323   2.123  1.0423 -1.2893 -0.7230
 4125SOL     OW24007   1.707   0.048   6.986  0.5685  0.3536 -0.4171
 4125SOL    HW124008   1.787   0.016   6.942  0.3884 -0.4570 -0.1517
 4125SOL    HW224009   1.737   0.127   7.031 -0.2180  0.2868  0.2186
 4126SOL     OW24010   1.059   0.812  14.671 -0.2346 -0.6373 -0.1333
 4126SOL    HW124011   1.102   0.840  14.752  0.1386 -1.5766 -0.0022
 4126SOL    HW224012   1.135   0.836  14.618  0.2257 -0.3932  0.6273
 4127SOL     OW24013   3.190   1.737   7.047  0.3453  0.1242  0.4555
 4127SOL    HW124014   3.232   1.681   7.112 -0.9416  0.5861  1.6766
 4127SOL    HW224015   3.113   1.689   7.015  2.6368 -1.8534 -2.0634
 4128SOL     OW24016   3.551   2.284   9.505  0.2363  0.1345 -0.2704
 4128SOL    HW124017   3.498   2.204   9.494  0.9079 -0.1831 -1.1104
 4128SOL    HW224018   3.486   2.352   9.486 -2.4996 -1.7133  2.4220
 4129SOL     OW24019   4.367   0.112   5.347  0.3124  0.1581 -0.0702
 4129SOL    HW124020   4.340   0.127   5.257 -3.2195 -0.3413  0.8957
 4129SOL    HW224021   4.331   0.192   5.386  0.9001 -0.5793  2.0206
 4130SOL     OW24022   3.096   3.511   7.222  0.8662 -0.5207 -0.2981
 4130SOL    HW124023   3.072   3.452   7.293  2.1684  0.2456  0.7891
 4130SOL    HW224024   3.113   3.452   7.148 -0.1531 -1.0057 -0.1502
 4131SOL     OW24025   4.249   4.430   7.999 -0.5605  0.0025  1.1739
 4131SOL    HW124026   4.287   4.350   7.962  0.9839  1.4143 -0.2784
 4131SOL    HW224027   4.245   4.402   8.090  2.1564 -1.3000  0.8927
 4132SOL     OW24028   4.323   3.998   5.727  0.4012 -0.2290  0.4221
 4132SOL    HW124029   4.361   3.981   5.641  0.7142  0.8953  0.3440
 4132SOL    HW224030   4.362   3.930   5.783  1.8563  1.7204  1.7687
 4133SOL     OW24031   0.406   1.908   2.669  0.0445  0.0328  0.2018
 4133SOL    HW124032   0.481   1.880   2.722  1.3545  0.3876 -1.4493
 4133SOL    HW224033   0.335   1.861   2.712 -0.7978  0.9569 -0.1963
 4134SOL     OW24034   4.232   3.748  12.765 -0.4946 -0.2977  0.3921
 4134SOL    HW124035   4.313   3.798  12.753 -0.9435  0.3377 -0.0376
 4134SOL    HW224036   4.269   3.681  12.822  2.1630  0.4667 -0.4332
 4135SOL     OW24037   1.504   3.049   6.824  0.2688 -0.1303 -0.6083
 4135SOL    HW124038   1.470   3.137   6.841 -1.2849 -0.9167  0.5083
 4135SOL    HW224039   1.430   2.989   6.838  1.2967 -1.8643 -2.7423
 4136SOL     OW24040   4.249   0.419   4.141 -0.2284 -0.3553 -0.6991
 4136SOL    HW124041   4.227   0.468   4.062  0.0107  2.3820  0.9236
 4136SOL    HW224042   4.182   0.458   4.197  1.4287  0.4881  0.6686
 4137SOL     OW24043   2.457   1.663   2.515 -0.4152 -0.1838 -0.3229
 4137SOL    HW124044   2.494   1.588   2.562  0.6619  1.2129  1.0766
 4137SOL    HW224045   2.419   1.711   2.589 -1.7116  2.2206 -2.5209
 4138SOL     OW24046   0.746   3.025   5.982  0.2284 -0.2909  0.2729
 4138SOL    HW124047   0.764   2.931   5.985 -0.9032 -0.4148  2.9171
 4138SOL    HW224048   0.764   3.045   5.890 -2.1251  0.2790 -0.0753
 4139SOL     OW24049   3.081   2.368   4.236  0.2505 -0.3056 -0.2379
 4139SOL    HW124050   3.107   2.303   4.301 -0.9400 -1.0884 -0.5493
 4139SOL    HW224051   3.027   2.428   4.287  0.0535 -0.5788 -0.1262
 4140SOL     OW24052   0.319   4.606  17.249  0.4425 -0.8424  0.8690
 4140SOL    HW124053   0.227   4.609  17.272  0.4924 -1.0274  1.0870
 4140SOL    HW224054   0.352   4.695  17.264  1.0784 -1.0656  0.8207
 4141SOL     OW24055   4.357   2.954   5.443 -0.4824  0.0519 -0.6193
 4141SOL    HW124056   4.363   2.980   5.535  0.1720 -0.1694 -0.6029
 4141SOL    HW224057   4.439   2.996   5.416 -0.0388 -1.3969 -1.5348
 4142SOL     OW24058   0.471   3.136   3.589 -0.1156  0.3004  0.1996
 4142SOL    HW124059   0.441   3.045   3.595 -1.1198  0.5570 -1.0007
 4142SOL    HW224060   0.447   3.169   3.503 -1.5670  1.3386  1.0140
 4143SOL     OW24061   1.719   1.522  13.813 -0.5514 -0.8233  0.3051
 4143SOL    HW124062   1.644   1.558  13.767 -0.1211  1.3436  1.3264
 4143SOL    HW224063   1.788   1.588  13.815 -1.0004 -0.3648  0.7837
 4144SOL     OW24064   0.991   3.766  14.336 -0.1936 -0.3290 -0.3807
 4144SOL    HW124065   1.071   3.714  14.333  1.0509  1.4480  1.6094
 4144SOL    HW224066   1.006   3.833  14.269 -3.7633 -0.2559 -1.1092
 4145SOL     OW24067   0.554   3.657   7.654 -0.3437  0.2269  0.0505
 4145SOL    HW124068   0.544   3.748   7.684 -0.3934  0.6472 -1.2117
 4145SOL    HW224069   0.507   3.604   7.718  1.9766 -2.9839 -0.9387
 4146SOL     OW24070   0.400   0.452  12.799 -0.1574  0.0864 -0.4520
 4146SOL    HW124071   0.375   0.478  12.710 -3.2931 -0.0752  0.3937
 4146SOL    HW224072   0.382   0.528  12.854  3.4145  0.4716  0.2225
 4147SOL     OW24073   1.896   0.229   0.882  0.6482 -0.0177  0.2177
 4147SOL    HW124074   1.854   0.162   0.829 -2.5045  0.2769  2.3822
 4147SOL    HW224075   1.821   0.283   0.908 -0.8316 -2.0263  0.0448
 4148SOL     OW24076   2.561   1.102  17.332 -0.3571 -0.3604  0.3715
 4148SOL    HW124077   2.589   1.020  17.373 -0.4635 -1.1996 -1.2483
 4148SOL    HW224078   2.503   1.132  17.402  0.9078 -1.7302  2.0284
 4149SOL     OW24079   1.486   1.011   7.855 -0.3420  0.0701 -0.6034
 4149SOL    HW124080   1.442   1.048   7.931  0.6652 -0.1591  0.0861
 4149SOL    HW224081   1.580   1.022   7.862 -0.5466  0.8703  0.7929
 4150SOL     OW24082   1.650   4.022  10.789 -0.5452  0.0923 -0.4870
 4150SOL    HW124083   1.558   4.025  10.764 -0.5738  2.7919 -0.0570
 4150SOL    HW224084   1.696   4.082  10.730  2.3635 -2.5062 -0.9037
 4151SOL     OW24085   1.993   2.567  16.977  0.1743  0.9563  0.7674
 4151SOL    HW124086   2.060   2.550  17.044 -0.1288  0.6445  0.9900
 4151SOL    HW224087   2.046   2.585  16.899  0.0877 -1.6372  0.1073
 4152SOL     OW24088   3.933   3.255   4.110 -0.3947 -0.4201 -0.2643
 4152SOL    HW124089   3.925   3.192   4.182 -0.2315 -0.1656 -0.0203
 4152SOL    HW224090   3.998   3.320   4.137 -0.4379  0.5802 -2.5930
 4153SOL     OW24091   0.316   2.495   3.729 -0.2871 -0.3047 -0.0069
 4153SOL    HW124092   0.370   2.574   3.727 -2.0261  0.8498 -1.5262
 4153SOL    HW224093   0.271   2.528   3.651 -1.5501 -0.9203  0.4579
 4154SOL     OW24094   1.153   1.762   4.338 -0.4421  0.0162 -0.0218
 4154SOL    HW124095   1.225   1.804   4.292  0.1429 -1.6064 -0.5979
 4154SOL    HW224096   1.194   1.722   4.415  0.9583  1.5910  0.0619
 4155SOL     OW24097   1.375   3.580   2.163  0.6032 -0.2189  0.2574
 4155SOL    HW124098   1.348   3.536   2.083  1.8138  1.0486 -0.8565
 4155SOL    HW224099   1.400   3.508   2.221 -2.1322 -0.6313  0.8980
 4156SOL     OW24100   0.982   2.895  16.735  0.2682 -0.2115 -0.1108
 4156SOL    HW124101   1.075   2.907  16.712  0.1787 -0.5254 -0.6344
 4156SOL    HW224102   0.940   2.893  16.649 -1.8150 -1.7942  0.9696
 4157SOL     OW24103   1.828   3.564   7.855 -0.3109 -0.3181 -0.4751
 4157SOL    HW124104   1.752   3.616   7.826  0.7237  1.5329  0.0981
 4157SOL    HW224105   1.817   3.482   7.807  0.3519 -0.8670  0.3373
 4158SOL     OW24106   0.538   2.139   8.184 -0.3489  0.5320  0.0866
 4158SOL    HW124107   0.488   2.168   8.108 -0.3890 -0.8795 -0.4297
 4158SOL    HW224108   0.572   2.217   8.228  0.2784  0.7882 -0.8508
 4159SOL     OW24109   3.803   3.623   5.365  0.1050  0.8552 -0.1596
 4159SOL    HW124110   3.886   3.579   5.344 -0.3360  0.3741 -0.8914
 4159SOL    HW224111   3.811   3.623   5.461  1.3638  0.9694 -0.2624
 4160SOL     OW24112   4.256   1.635   3.788  0.2614  0.2861  0.5909
 4160SOL    HW124113   4.231   1.551   3.826  1.4921 -0.1694  0.3806
 4160SOL    HW224114   4.346   1.641   3.821  1.5656  0.0176 -2.9327
 4161SOL     OW24115   2.588   3.650  14.410 -0.4881  0.1705 -0.0813
 4161SOL    HW124116   2.649   3.655  14.336  0.6855  1.1250  0.9517
 4161SOL    HW224117   2.560   3.740  14.421 -1.7781 -0.0459 -1.6446
 4162SOL     OW24118   2.382   1.692  10.728 -0.8184 -0.7371 -0.0331
 4162SOL    HW124119   2.408   1.614  10.679  0.3075  0.5653 -1.5254
 4162SOL    HW224120   2.303   1.712  10.677 -0.6852 -0.7599 -0.2513
 4163SOL     OW24121   1.778   0.149  10.881  0.1619  0.0496  0.4783
 4163SOL    HW124122   1.857   0.173  10.832 -0.0716  0.9993  0.5682
 4163SOL    HW224123   1.713   0.164  10.812  0.7165  1.0284  0.1586
 4164SOL     OW24124   0.560   4.119  14.930 -0.0360  0.6800 -0.2368
 4164SOL    HW124125   0.553   4.185  14.860 -0.9237  2.5065  1.5707
 4164SOL    HW224126   0.560   4.044  14.871  1.8794  0.3809  0.1611
 4165SOL     OW24127   2.895   0.497  11.438 -1.0537  0.6797  0.1034
 4165SOL    HW124128   2.950   0.502  11.360  0.5869  0.8335  1.2807
 4165SOL    HW224129   2.938   0.551  11.504  0.4742  0.4890 -0.7557
 4166SOL     OW24130   0.363   3.033  16.073 -0.3542 -0.2359 -0.0621
 4166SOL    HW124131   0.327   2.953  16.110 -1.4881  0.5666  0.5580
 4166SOL    HW224132   0.304   3.101  16.105 -0.7669 -1.7734  2.4279
 4167SOL     OW24133   1.816   1.948   2.492  0.4818 -0.1460  0.0019
 4167SOL    HW124134   1.779   1.946   2.403 -1.3256  0.7909  0.7436
 4167SOL    HW224135   1.740   1.927   2.547  1.4149 -1.4140  0.8103
 4168SOL     OW24136   1.126   4.039   8.844 -0.1905 -0.5123 -0.3877
 4168SOL    HW124137   1.167   3.958   8.815  0.2133 -1.0587  1.6986
 4168SOL    HW224138   1.189   4.066   8.911  0.1566 -1.0191 -0.5144
 4169SOL     OW24139   4.101   2.402   5.646 -0.2137 -0.6573 -0.5111
 4169SOL    HW124140   4.038   2.348   5.597 -1.1026 -0.5305  0.4745
 4169SOL    HW224141   4.084   2.360   5.731 -0.7215  0.5327 -0.0280
 4170SOL     OW24142   1.330   4.561   0.212  0.6078 -0.5275 -0.3242
 4170SOL    HW124143   1.420   4.545   0.185  0.9448 -0.2522  0.6421
 4170SOL    HW224144   1.333   4.559   0.308  3.4545  0.3825 -0.3861
 4171SOL     OW24145   4.587   0.370   2.556 -0.0825 -0.0401  0.3815
 4171SOL    HW124146   4.670   0.327   2.536 -0.5824 -0.1828 -1.4108
 4171SOL    HW224147   4.546   0.304   2.612 -1.1904  0.2511 -0.0855
 4172SOL     OW24148   3.842   0.901  12.714 -0.3994 -0.5924 -0.0801
 4172SOL    HW124149   3.926   0.865  12.684  0.8549  1.7356  0.7039
 4172SOL    HW224150   3.813   0.948  12.636  1.0929  1.9452  0.8935
 4173SOL     OW24151   0.619   4.556   2.892  0.5129  0.5554 -0.0138
 4173SOL    HW124152   0.615   4.561   2.988  0.0981 -2.2796  0.0959
 4173SOL    HW224153   0.712   4.538   2.875  0.1372 -0.6990 -0.7100
 4174SOL     OW24154   0.735   4.678   4.599 -0.3967  0.4193 -0.2418
 4174SOL    HW124155   0.719   4.726   4.680 -2.6539  0.0524 -0.4751
 4174SOL    HW224156   0.756   4.592   4.635 -0.1058  0.3340 -0.6105
 4175SOL     OW24157   3.679   0.665  10.146  0.0823  0.3450  0.1677
 4175SOL    HW124158   3.667   0.750  10.188 -0.6553  0.9882 -1.3325
 4175SOL    HW224159   3.698   0.618  10.227 -3.0195 -0.6258  0.3544
 4176SOL     OW24160   1.484   3.210   3.012 -0.1134 -0.1060 -0.1666
 4176SOL    HW124161   1.490   3.135   3.071 -1.4897 -0.0088  0.0803
 4176SOL    HW224162   1.568   3.251   3.034  0.3817  1.1439 -4.3428
 4177SOL     OW24163   3.918   2.643  13.581 -0.5434  0.2111 -0.4611
 4177SOL    HW124164   3.836   2.687  13.561 -1.2807 -0.4009  1.2590
 4177SOL    HW224165   3.925   2.663  13.674 -2.5433  1.4374 -0.5726
 4178SOL     OW24166   0.844   3.607   1.901 -0.6905  0.5708  0.3808
 4178SOL    HW124167   0.917   3.661   1.872 -0.1254 -0.3008  0.1996
 4178SOL    HW224168   0.833   3.655   1.983 -2.6390 -0.3779  0.7003
 4179SOL     OW24169   2.471   4.652   4.158 -0.0959 -0.1945 -0.2218
 4179SOL    HW124170   2.432   4.573   4.121  0.6581 -0.2165 -0.9854
 4179SOL    HW224171   2.565   4.634   4.146  0.5697  2.4693  0.8819
 4180SOL     OW24172   4.147   1.011   4.805 -0.0610  0.1441  0.0405
 4180SOL    HW124173   4.200   1.057   4.870 -1.3387  0.7130  0.6766
 4180SOL    HW224174   4.215   0.950   4.776  0.2493 -0.4441  1.9807
 4181SOL     OW24175   0.981   0.994   1.569  0.4593  0.3700  0.1193
 4181SOL    HW124176   1.034   0.947   1.505 -2.2620  0.2502 -2.0455
 4181SOL    HW224177   1.042   1.053   1.614 -1.2073 -0.8270  3.9908
 4182SOL     OW24178   4.580   3.404   1.846  0.4179  0.0590  0.1006
 4182SOL    HW124179   4.523   3.327   1.842 -0.6241  0.7767  1.1479
 4182SOL    HW224180   4.615   3.394   1.934 -1.5953 -0.6945  0.8254
 4183SOL     OW24181   3.698   2.779   1.968  0.0847  0.2557  0.0759
 4183SOL    HW124182   3.654   2.704   2.008 -0.3503  0.2668 -0.3783
 4183SOL    HW224183   3.631   2.826   1.918 -0.6276 -0.7646  0.0729
 4184SOL     OW24184   3.642   1.935   4.198  0.4955 -0.2323 -0.1594
 4184SOL    HW124185   3.634   1.918   4.292 -1.4860  0.1705 -0.2607
 4184SOL    HW224186   3.598   1.855   4.168 -0.2661 -0.4824  1.5876
 4185SOL     OW24187   1.083   2.264   3.802 -0.7551  0.9130 -0.5930
 4185SOL    HW124188   1.147   2.326   3.838  1.4005 -0.5731 -1.8788
 4185SOL    HW224189   1.137   2.188   3.781 -1.2894  0.5821 -0.7684
 4186SOL     OW24190   2.798   3.146   7.793  0.0630 -0.2413 -0.4107
 4186SOL    HW124191   2.765   3.210   7.856 -0.3401 -0.8958  0.0343
 4186SOL    HW224192   2.726   3.085   7.775 -1.3419  1.6181 -1.1684
 4187SOL     OW24193   3.451   3.615   4.397  0.2173 -0.3629 -0.2062
 4187SOL    HW124194   3.466   3.569   4.314  1.9507 -0.1330 -0.0143
 4187SOL    HW224195   3.540   3.624   4.430  0.1717 -1.7311  0.2842
 4188SOL     OW24196   2.178   4.560  12.513 -1.0531  0.6582  0.0174
 4188SOL    HW124197   2.084   4.572  12.531 -1.1681 -0.4889  0.2090
 4188SOL    HW224198   2.224   4.636  12.548 -1.8819 -0.1555  2.8888
 4189SOL     OW24199   3.324   1.330   3.846  0.0499  0.8482 -0.4753
 4189SOL    HW124200   3.305   1.399   3.910  1.0686 -0.3642  1.1456
 4189SOL    HW224201   3.240   1.285   3.853  0.6161 -0.0934  0.2439
 4190SOL     OW24202   2.476   2.191   3.755  0.2703  0.1661 -0.2956
 4190SOL    HW124203   2.412   2.231   3.814 -0.7096 -0.4640 -0.9334
 4190SOL    HW224204   2.559   2.211   3.798 -0.7621  1.2971  1.1548
 4191SOL     OW24205   2.112   4.150   3.751  0.3238  0.4474 -0.1053
 4191SOL    HW124206   2.115   4.103   3.835 -2.5348  0.9135  0.2824
 4191SOL    HW224207   2.122   4.243   3.773  3.1511 -0.0646  0.7045
 4192SOL     OW24208   3.872   1.990   4.058  0.4974  0.2052 -0.7514
 4192SOL    HW124209   3.781   1.993   4.089  0.0408  0.3156 -2.1331
 4192SOL    HW224210   3.891   1.896   4.059 -0.3703  0.0286 -0.5521
 4193SOL     OW24211   4.291   1.145   0.494  0.3173  0.4749 -0.3918
 4193SOL    HW124212   4.298   1.178   0.583 -1.1828  0.0801 -0.1331
 4193SOL    HW224213   4.290   1.228   0.446 -1.6216  0.2992 -0.6692
 4194SOL     OW24214   1.077   2.471   5.843 -0.5048 -0.1363 -0.5408
 4194SOL    HW124215   1.162   2.494   5.805  0.5955 -0.3395  1.7560
 4194SOL    HW224216   1.041   2.410   5.779 -0.2986 -1.0579  0.2055
 4195SOL     OW24217   4.403   4.384   3.305 -0.5824  0.5777 -0.7253
 4195SOL    HW124218   4.354   4.341   3.374  0.0933 -0.8899 -1.1469
 4195SOL    HW224219   4.466   4.313   3.291 -0.6821  0.1283  1.0661
 4196SOL     OW24220   1.594   2.004   8.187  0.7461 -0.0167  0.0818
 4196SOL    HW124221   1.571   1.953   8.110  0.0626 -0.3182  0.4846
 4196SOL    HW224222   1.601   2.085   8.137 -0.6370  0.6764  1.0054
 4197SOL     OW24223   0.756   2.388   2.812  0.3518  0.2972 -0.4414
 4197SOL    HW124224   0.716   2.473   2.793 -1.1420 -0.5191 -0.9813
 4197SOL    HW224225   0.748   2.345   2.727  3.5568 -0.1642 -0.5052
 4198SOL     OW24226   3.518   2.840   9.633 -1.0254 -0.4095  0.0573
 4198SOL    HW124227   3.455   2.875   9.571 -2.2869 -1.3820  0.7767
 4198SOL    HW224228   3.481   2.755   9.657  0.2098 -0.9407  0.1206
 4199SOL     OW24229   3.961   3.873   0.407  0.4733 -0.0746 -0.2386
 4199SOL    HW124230   3.993   3.860   0.496 -2.8422 -1.0457  0.8132
 4199SOL    HW224231   3.880   3.921   0.423 -0.3683 -0.3693 -3.5981
 4200SOL     OW24232   2.524   0.389   8.194  0.3577  0.8228  0.3039
 4200SOL    HW124233   2.603   0.339   8.175 -1.3203 -0.7333 -2.5472
 4200SOL    HW224234   2.542   0.458   8.130  1.6251  0.6179  0.4400
 4201SOL     OW24235   1.499   0.775   0.015  0.0069 -0.0520  0.7421
 4201SOL    HW124236   1.520   0.867  17.729  0.4829 -0.2956 -0.0825
 4201SOL    HW224237   1.561   0.723  17.693  2.3272  2.6088  0.8897
 4202SOL     OW24238   1.330   1.139   7.033 -0.0087 -0.0717  0.1338
 4202SOL    HW124239   1.283   1.056   7.021  1.2243 -0.8408  0.6170
 4202SOL    HW224240   1.290   1.174   7.112 -1.9350 -0.8768 -0.4892
 4203SOL     OW24241   2.187   3.370   6.339  0.2438  0.1138 -0.0359
 4203SOL    HW124242   2.162   3.294   6.392  0.3106 -0.2405 -0.5118
 4203SOL    HW224243   2.186   3.436   6.409 -1.9340 -0.5835  0.5880
 4204SOL     OW24244   4.501   3.700   2.560 -0.6130 -0.0037 -0.1439
 4204SOL    HW124245   4.429   3.648   2.525  0.9595 -1.6845 -0.9323
 4204SOL    HW224246   4.509   3.764   2.489  1.0577  0.9939  0.9318
 4205SOL     OW24247   1.232   2.238   3.467  0.0543  0.0033  0.8392
 4205SOL    HW124248   1.246   2.175   3.537  1.0269 -0.2349  0.4386
 4205SOL    HW224249   1.140   2.226   3.443  0.1110 -1.7306  1.5165
 4206SOL     OW24250   4.409   2.346   1.417 -0.2579  0.1310 -0.0809
 4206SOL    HW124251   4.441   2.340   1.327  0.8781  0.7857  0.2759
 4206SOL    HW224252   4.358   2.267   1.435 -0.2582  0.2174  0.3003
 4207SOL     OW24253   2.664   4.601   7.238 -0.1705  0.2212  1.1540
 4207SOL    HW124254   2.698   4.579   7.325 -1.1371 -0.7456  1.2913
 4207SOL    HW224255   2.743   4.610   7.185 -0.8173 -2.0959 -0.1959
 4208SOL     OW24256   4.048   1.513  16.251  0.3468 -0.3972 -0.4125
 4208SOL    HW124257   4.092   1.445  16.301  0.6450  1.8459  2.3643
 4208SOL    HW224258   4.088   1.594  16.283 -1.3647 -0.8386  2.9024
 4209SOL     OW24259   4.716   2.081  16.464  0.3137  0.4032  0.0736
 4209SOL    HW124260   0.034   2.005  16.494 -0.8977 -1.0552 -1.5725
 4209SOL    HW224261   0.012   2.149  16.525  1.0106 -2.2404  2.6755
 4210SOL     OW24262   3.489   0.689   7.100  1.4147  0.3542  0.6198
 4210SOL    HW124263   3.462   0.601   7.074 -0.6694  0.8402  1.1267
 4210SOL    HW224264   3.510   0.690   7.194  0.6712 -1.1563  0.7997
 4211SOL     OW24265   3.343   2.369   8.168 -0.5345 -0.2145 -0.2223
 4211SOL    HW124266   3.414   2.432   8.185 -0.7064  0.5360 -2.3280
 4211SOL    HW224267   3.285   2.419   8.111 -0.9088  0.5179  0.8019
 4212SOL     OW24268   2.428   1.368   6.994  0.2036 -0.5835  0.0304
 4212SOL    HW124269   2.404   1.292   6.941  1.6587 -1.1002  0.0994
 4212SOL    HW224270   2.502   1.328   7.041  0.8869  1.9113  1.0609
 4213SOL     OW24271   0.416   3.596   5.847  0.0773  0.5281 -0.6240
 4213SOL    HW124272   0.473   3.563   5.916 -1.3797 -0.2240  0.2400
 4213SOL    HW224273   0.455   3.683   5.854 -0.1872  0.6370 -0.5046
 4214SOL     OW24274   1.164   2.322   9.926  0.2053  0.1014 -0.3145
 4214SOL    HW124275   1.088   2.333   9.984  0.4325  0.0948 -0.0166
 4214SOL    HW224276   1.172   2.226   9.925 -3.0065 -0.1654  1.1601
 4215SOL     OW24277   0.747   4.514   6.147  0.3779 -0.2584 -0.1875
 4215SOL    HW124278   0.725   4.508   6.240 -2.5391 -1.5466 -0.9560
 4215SOL    HW224279   0.777   4.425   6.132  0.8423  0.1765 -1.8995
 4216SOL     OW24280   1.742   0.692  10.708 -0.5958 -0.4873  0.2593
 4216SOL    HW124281   1.795   0.710  10.785 -1.1002  0.5336  0.3658
 4216SOL    HW224282   1.791   0.740  10.641 -0.6903 -1.8025 -0.7692
 4217SOL     OW24283   3.478   4.498   4.693  0.0076  0.2775  0.1352
 4217SOL    HW124284   3.557   4.489   4.746  0.2113  1.2916  0.0043
 4217SOL    HW224285   3.420   4.465   4.761  1.3311 -0.2398  0.9940
 4218SOL     OW24286   3.315   2.488   3.130 -0.0032  0.0886  0.5914
 4218SOL    HW124287   3.390   2.440   3.095  0.6693  0.7302  1.1746
 4218SOL    HW224288   3.325   2.460   3.221  0.0370 -2.2480 -0.1270
 4219SOL     OW24289   1.319   0.235   6.351  0.4145  1.0326 -0.2165
 4219SOL    HW124290   1.257   0.222   6.422  2.0314  0.9288  1.1663
 4219SOL    HW224291   1.354   0.146   6.344  0.9894  1.4798 -3.0748
 4220SOL     OW24292   3.072   3.567   3.831  0.3768  0.0151 -0.0927
 4220SOL    HW124293   3.024   3.494   3.871  0.4680 -0.1560 -0.2909
 4220SOL    HW224294   3.056   3.571   3.736 -0.2992 -1.5629 -0.0587
 4221SOL     OW24295   2.863   2.744   5.492  0.4573 -0.3983 -0.2473
 4221SOL    HW124296   2.955   2.722   5.480  1.2428  1.4438  2.3175
 4221SOL    HW224297   2.869   2.824   5.440  1.9229 -0.3823 -0.0455
 4222SOL     OW24298   3.246   4.045   5.236 -0.1787  0.1160 -0.6479
 4222SOL    HW124299   3.241   3.954   5.208 -4.0356 -0.1146  0.7641
 4222SOL    HW224300   3.275   4.030   5.326 -0.7631  1.5692 -0.2217
 4223SOL     OW24301   1.375   1.138   0.025  0.3297 -0.3282 -0.1751
 4223SOL    HW124302   1.340   1.148   0.114  1.2400  0.4690  0.0934
 4223SOL    HW224303   1.378   1.230  17.729  1.9385 -0.8587 -1.9065
 4224SOL     OW24304   2.094   0.177   4.225 -0.0387  0.0591  0.9532
 4224SOL    HW124305   2.093   0.250   4.288 -0.0457  0.2124  0.7742
 4224SOL    HW224306   2.076   0.229   4.146  0.8901 -0.8819  0.1329
 4225SOL     OW24307   2.696   3.932  15.286  0.6224 -0.2791  0.1296
 4225SOL    HW124308   2.772   3.877  15.301  1.3278 -0.0529 -2.6858
 4225SOL    HW224309   2.737   4.018  15.289 -0.7136  0.3264  0.8722
 4226SOL     OW24310   3.713   0.636   4.933 -0.3966 -0.3320  0.3541
 4226SOL    HW124311   3.711   0.544   4.962  3.6240 -0.6253 -0.1849
 4226SOL    HW224312   3.786   0.667   4.987  1.0055 -1.5250 -0.8367
 4227SOL     OW24313   0.900   3.617   3.202  1.0211  0.3504  0.1358
 4227SOL    HW124314   0.989   3.589   3.222  0.6537 -0.5492  0.5294
 4227SOL    HW224315   0.861   3.548   3.149  1.3825  0.9846 -0.9523
 4228SOL     OW24316   0.988   2.612   8.179 -0.3503 -0.0865  0.6371
 4228SOL    HW124317   0.927   2.672   8.135 -0.6674 -1.8336 -1.3387
 4228SOL    HW224318   1.034   2.569   8.106  1.3909  0.1949  1.5768
 4229SOL     OW24319   0.454   0.795  12.658  0.1052 -0.0937  0.0856
 4229SOL    HW124320   0.387   0.854  12.623  0.1034  0.6358  1.3260
 4229SOL    HW224321   0.403   0.715  12.666  0.0815 -0.0355  0.5094
 4230SOL     OW24322   2.605   4.348   5.706 -0.6347 -0.0249 -0.2342
 4230SOL    HW124323   2.577   4.417   5.646  0.9063  0.2075 -0.6894
 4230SOL    HW224324   2.589   4.269   5.655 -1.0863  0.4932 -0.9073
 4231SOL     OW24325   2.836   1.869   4.110  0.8266 -0.6434 -0.6122
 4231SOL    HW124326   2.826   1.854   4.016 -0.1474 -1.6040 -0.3552
 4231SOL    HW224327   2.917   1.822   4.129  1.7532  0.8498 -0.8750
 4232SOL     OW24328   4.486   1.983   3.057  0.3424 -0.2721  0.2021
 4232SOL    HW124329   4.479   2.037   2.978  1.2942  2.6843  2.1585
 4232SOL    HW224330   4.481   1.896   3.016  0.9890  0.2387 -0.9594
 4233SOL     OW24331   1.196   1.781   2.507 -0.3411  0.2063  0.1123
 4233SOL    HW124332   1.180   1.701   2.558  0.4091  0.5466  0.8904
 4233SOL    HW224333   1.240   1.734   2.436 -1.2857 -0.0103 -0.3178
 4234SOL     OW24334   1.443   3.886  11.181  0.9499  0.0916 -0.1036
 4234SOL    HW124335   1.531   3.914  11.156  1.4203 -1.0894  0.2022
 4234SOL    HW224336   1.464   3.840  11.262  3.1018  1.4629  0.1254
 4235SOL     OW24337   2.326   3.711  12.053 -0.5584 -0.3127  0.6762
 4235SOL    HW124338   2.385   3.646  12.016 -1.1216 -1.0548  1.0861
 4235SOL    HW224339   2.338   3.700  12.147  0.0580 -1.6618  0.4413
 4236SOL     OW24340   2.924   3.081   5.125  0.2466 -0.7227  0.1290
 4236SOL    HW124341   2.957   3.060   5.037  1.5960 -0.5272  0.5973
 4236SOL    HW224342   2.858   3.148   5.105  0.1620 -0.6489  0.6707
 4237SOL     OW24343   3.722   2.960   2.653 -0.2625  0.1067  0.5980
 4237SOL    HW124344   3.737   3.055   2.653  1.1517 -0.1222  0.6600
 4237SOL    HW224345   3.627   2.950   2.653 -0.1356 -1.1253 -1.9120
 4238SOL     OW24346   0.024   3.444   2.445 -0.5093  0.5719  0.1828
 4238SOL    HW124347   0.026   3.353   2.474  0.2895  0.0405 -1.5625
 4238SOL    HW224348   4.664   3.466   2.459 -0.6197  1.6868 -2.2844
 4239SOL     OW24349   2.909   4.540   7.404 -0.0165 -0.1705 -0.4539
 4239SOL    HW124350   2.963   4.467   7.435  0.3803 -0.3876 -1.6636
 4239SOL    HW224351   2.904   4.592   7.485 -0.4409  0.1282 -0.6750
 4240SOL     OW24352   1.815   1.716  12.779  0.0724 -0.7977  0.2144
 4240SOL    HW124353   1.901   1.738  12.814 -0.2612 -2.1794  1.8706
 4240SOL    HW224354   1.764   1.720  12.860  1.2831  0.2871  0.9215
 4241SOL     OW24355   0.549   4.672   3.983  0.1861 -0.5896 -0.3753
 4241SOL    HW124356   0.504   4.657   4.066 -1.6907  1.8526 -0.9065
 4241SOL    HW224357   0.498   0.013   3.946  0.6708 -0.6416 -1.1544
 4242SOL     OW24358   2.888   4.324   5.775  0.2726  0.1502  0.4319
 4242SOL    HW124359   2.805   4.334   5.728  0.1439 -0.5452  0.5123
 4242SOL    HW224360   2.869   4.263   5.846  1.7544 -1.4104 -0.5028
 4243SOL     OW24361   2.534   0.004  12.378 -0.6768  0.4850  0.0212
 4243SOL    HW124362   2.587   0.066  12.327  0.4504 -0.5399 -0.0615
 4243SOL    HW224363   2.484   4.679  12.320  3.1448 -1.6201 -1.2464
 4244SOL     OW24364   2.369   2.614   8.280  0.5334  0.1091  0.2665
 4244SOL    HW124365   2.444   2.674   8.284 -0.4924  1.2875  1.6658
 4244SOL    HW224366   2.306   2.667   8.328  0.5095 -0.0479  0.4100
 4245SOL     OW24367   2.555   1.350  11.848 -0.4913  0.1640 -0.3812
 4245SOL    HW124368   2.642   1.310  11.855 -0.3478  0.3136 -1.3957
 4245SOL    HW224369   2.545   1.372  11.755 -0.9459 -2.6973 -1.0182
 4246SOL     OW24370   2.766   0.714  13.391 -1.1205 -0.3734 -0.1457
 4246SOL    HW124371   2.845   0.769  13.392 -1.0748 -0.4667  1.5911
 4246SOL    HW224372   2.713   0.762  13.455 -2.8489  1.2037 -2.7906
 4247SOL     OW24373   3.145   4.175   5.884  0.0325 -0.1282  0.7070
 4247SOL    HW124374   3.225   4.145   5.925  1.2655  0.3240 -1.3796
 4247SOL    HW224375   3.087   4.134   5.948 -0.0876  0.1977  0.8094
 4248SOL     OW24376   1.351   3.747   7.916  0.2657  0.2414  0.3464
 4248SOL    HW124377   1.266   3.712   7.941  0.3910  0.2492  0.7908
 4248SOL    HW224378   1.383   3.755   8.006  0.6017 -2.5410  0.4656
 4249SOL     OW24379   1.253   2.339  17.086 -0.1295 -0.5199  0.0256
 4249SOL    HW124380   1.249   2.400  17.011 -0.5601 -2.2039 -1.3202
 4249SOL    HW224381   1.340   2.363  17.118 -0.6484  1.7784 -0.3042
 4250SOL     OW24382   1.452   3.608   8.431  0.0988 -0.1044 -0.0630
 4250SOL    HW124383   1.526   3.668   8.420 -0.6619  0.9386  0.5402
 4250SOL    HW224384   1.414   3.613   8.344 -0.2460  0.5943  0.1296
 4251SOL     OW24385   2.748   1.771   7.325  0.0303 -0.7395 -0.4106
 4251SOL    HW124386   2.717   1.699   7.379 -1.8872 -0.4940 -1.1905
 4251SOL    HW224387   2.717   1.748   7.238 -1.5521 -0.7908  0.1769
 4252SOL     OW24388   4.239   4.591   1.981 -0.2460  0.2281  0.0311
 4252SOL    HW124389   4.275   4.639   2.056  0.6169 -0.7031  0.2099
 4252SOL    HW224390   4.295   4.513   1.983 -2.3251 -1.3143 -1.7828
 4253SOL     OW24391   0.634   1.045  10.681 -0.5044  0.0205  0.6599
 4253SOL    HW124392   0.643   1.116  10.618 -0.9446 -0.6342 -0.1391
 4253SOL    HW224393   0.579   1.090  10.745 -2.4287  0.1043 -1.0438
 4254SOL     OW24394   3.927   2.361  13.565  0.2174 -0.1793 -0.2573
 4254SOL    HW124395   3.953   2.453  13.562  2.2353 -0.7678 -1.0077
 4254SOL    HW224396   3.836   2.372  13.539 -0.5484  0.3647  2.7035
 4255SOL     OW24397   0.543   2.366   2.024  0.3121 -0.5143  0.1408
 4255SOL    HW124398   0.567   2.353   2.116 -1.6870  3.2926  1.2098
 4255SOL    HW224399   0.508   2.454   2.009 -1.5841 -1.3419 -0.3408
 4256SOL     OW24400   2.870   3.180   3.726 -0.3350 -0.0742  0.2315
 4256SOL    HW124401   2.859   3.148   3.816  0.4011 -0.4519  0.1873
 4256SOL    HW224402   2.952   3.135   3.709 -0.7795 -0.5796 -0.6102
 4257SOL     OW24403   3.086   4.010   6.855 -0.1216  0.2896  0.2988
 4257SOL    HW124404   2.993   4.020   6.873  0.1129  1.3530  0.8912
 4257SOL    HW224405   3.089   4.006   6.759 -1.8312  0.6615  0.2379
 4258SOL     OW24406   3.505   4.729   4.908  0.1359 -0.1770 -0.3937
 4258SOL    HW124407   3.545   0.002   4.995 -1.5526  1.3302  0.2979
 4258SOL    HW224408   3.479   4.637   4.905 -0.9287  0.1179 -0.1220
 4259SOL     OW24409   4.515   3.224   3.284  0.2458  0.3515 -0.2824
 4259SOL    HW124410   4.530   3.318   3.294  0.1725 -0.1061  3.8434
 4259SOL    HW224411   4.606   3.195   3.275  0.3989  0.1028  2.2458
 4260SOL     OW24412   3.464   2.356   5.048 -0.1575  0.1360 -0.1271
 4260SOL    HW124413   3.492   2.447   5.038  2.1157 -0.3869  1.6941
 4260SOL    HW224414   3.539   2.299   5.032 -1.5812 -1.9939  0.8050
 4261SOL     OW24415   0.065   0.665   8.284  0.1433  0.1019  0.5675
 4261SOL    HW124416   4.705   0.655   8.307  0.4909 -2.0464  1.0233
 4261SOL    HW224417   0.092   0.582   8.322 -1.1020 -1.3260 -1.6661
 4262SOL     OW24418   1.442   1.543  12.458  0.0563 -0.2017  0.3895
 4262SOL    HW124419   1.505   1.478  12.427 -0.1315 -0.4620  0.5536
 4262SOL    HW224420   1.450   1.617  12.397  1.9455 -1.5398 -0.9704
 4263SOL     OW24421   2.679   3.980  13.344  0.1663 -0.0119 -0.5991
 4263SOL    HW124422   2.603   4.016  13.298 -0.8921 -0.7627  0.5640
 4263SOL    HW224423   2.663   3.887  13.328 -1.5008  0.2930 -0.7053
 4264SOL     OW24424   3.376   1.246  11.444  0.4563 -0.2894 -0.0571
 4264SOL    HW124425   3.321   1.321  11.422 -0.7485 -1.3001 -0.5377
 4264SOL    HW224426   3.336   1.168  11.405  0.3948  0.1655 -0.8984
 4265SOL     OW24427   0.568   2.515   6.491  0.2501  0.2486  0.3173
 4265SOL    HW124428   0.477   2.494   6.513 -0.1982  1.6370 -0.1748
 4265SOL    HW224429   0.565   2.549   6.402 -2.9619 -1.1451 -0.0918
 4266SOL     OW24430   3.142   1.773   5.969 -0.2158 -0.1293  0.2652
 4266SOL    HW124431   3.121   1.820   5.888 -2.2595 -1.9450 -0.2594
 4266SOL    HW224432   3.214   1.825   6.003  2.4733 -1.3649 -3.5029
 4267SOL     OW24433   2.100   3.465   8.568  0.3370 -0.2321 -0.4561
 4267SOL    HW124434   2.072   3.492   8.655  0.8320  0.4313 -0.5035
 4267SOL    HW224435   2.118   3.551   8.531  4.2488 -1.4801 -1.5277
 4268SOL     OW24436   0.411   0.115  11.816  0.5510  0.3192  0.2545
 4268SOL    HW124437   0.499   0.127  11.782  0.6991  0.5564  0.7226
 4268SOL    HW224438   0.399   0.196  11.866 -0.4498  0.4573 -0.2076
 4269SOL     OW24439   2.264   0.371   9.842 -0.7481  0.3228  0.5527
 4269SOL    HW124440   2.330   0.328   9.787 -1.8456  1.8841 -2.0235
 4269SOL    HW224441   2.256   0.457   9.801 -1.7306  0.4594  1.0311
 4270SOL     OW24442   2.615   2.428   2.568  0.1204 -0.2391  0.0695
 4270SOL    HW124443   2.655   2.365   2.628  0.6597 -0.5032 -0.5678
 4270SOL    HW224444   2.526   2.439   2.602  0.4007 -0.1945  0.7982
 4271SOL     OW24445   0.330   0.080   0.608  0.1045 -0.2371  0.4498
 4271SOL    HW124446   0.420   0.087   0.639 -1.0375  1.4110  3.3697
 4271SOL    HW224447   0.355   0.063   0.517 -0.2852 -2.1872  0.7192
 4272SOL     OW24448   0.159   0.721   7.869 -0.0988  0.1020  0.3374
 4272SOL    HW124449   0.187   0.744   7.780  0.9835  1.4279  1.0233
 4272SOL    HW224450   0.244   0.705   7.910  0.0273  0.5454  0.2510
 4273SOL     OW24451   4.438   1.503   4.290  0.3289 -0.0413  0.0393
 4273SOL    HW124452   4.419   1.433   4.353 -0.5383 -0.6010 -0.8529
 4273SOL    HW224453   4.464   1.579   4.343  0.2303  1.4856 -2.1000
 4274SOL     OW24454   0.838   2.902  16.478  0.3240  0.0261 -0.6156
 4274SOL    HW124455   0.764   2.932  16.531  0.1933  2.7434 -2.3164
 4274SOL    HW224456   0.806   2.924  16.390  0.3777  0.5623 -0.5003
 4275SOL     OW24457   2.218   0.372   9.035 -0.2161  0.0642  0.0901
 4275SOL    HW124458   2.306   0.346   9.010  0.2426  0.4394  1.2876
 4275SOL    HW224459   2.230   0.467   9.043  0.8003  0.0231 -0.9422
 4276SOL     OW24460   1.749   3.638   2.427  0.7324  0.3356  0.3369
 4276SOL    HW124461   1.687   3.635   2.500 -1.5987 -1.0789 -1.7192
 4276SOL    HW224462   1.710   3.712   2.379  0.5369 -0.7122 -1.1089
 4277SOL     OW24463   0.699   4.219   4.825 -0.7088  0.0042 -0.0215
 4277SOL    HW124464   0.705   4.310   4.796  3.1018  0.4818  2.3152
 4277SOL    HW224465   0.608   4.193   4.809 -0.7693  0.5697 -0.6032
 4278SOL     OW24466   0.977   2.791   2.582  0.1300  0.3955 -0.4122
 4278SOL    HW124467   1.027   2.763   2.505 -0.9861 -2.0244 -0.2491
 4278SOL    HW224468   1.047   2.822   2.640 -0.5353 -0.4261  0.8179
 4279SOL     OW24469   2.037   1.956   8.866  0.0230 -0.1337  0.5631
 4279SOL    HW124470   1.991   1.875   8.846  2.0250 -1.2185  0.2940
 4279SOL    HW224471   2.127   1.928   8.885 -0.3558 -2.2746 -0.7833
 4280SOL     OW24472   0.918   3.883   7.760  1.1297 -0.2145 -0.1282
 4280SOL    HW124473   0.920   3.953   7.694  1.2348 -0.5735 -0.5051
 4280SOL    HW224474   0.962   3.809   7.718  1.1873  0.3751 -1.1219
 4281SOL     OW24475   2.797   4.623   5.969 -0.1002 -0.6076 -0.2340
 4281SOL    HW124476   2.810   4.565   5.894 -0.0463 -0.0009 -0.6893
 4281SOL    HW224477   2.702   4.614   5.974 -0.0237 -0.3117  2.0883
 4282SOL     OW24478   0.943   0.555   0.616  0.0930 -0.1386  0.6196
 4282SOL    HW124479   1.021   0.609   0.613  1.3298 -2.0158 -1.5303
 4282SOL    HW224480   0.944   0.528   0.707 -1.5332  1.2169  1.0372
 4283SOL     OW24481   1.450   1.437   3.226  0.2391  0.3424 -0.0087
 4283SOL    HW124482   1.521   1.502   3.223  2.4526 -1.9864  1.2195
 4283SOL    HW224483   1.379   1.488   3.189 -0.0610  0.2092  0.3836
 4284SOL     OW24484   0.461   1.739   8.446  0.1357  0.5072 -0.0235
 4284SOL    HW124485   0.433   1.678   8.377  1.2463  1.1976 -1.0890
 4284SOL    HW224486   0.527   1.786   8.396 -1.0773  1.7160 -0.4717
 4285SOL     OW24487   0.905   1.716  11.594 -0.2235 -0.0646 -0.0209
 4285SOL    HW124488   0.935   1.716  11.685 -0.1724 -3.2194 -0.0235
 4285SOL    HW224489   0.974   1.662  11.554 -0.7568 -0.6767 -0.1306
 4286SOL     OW24490   1.928   0.600   2.333  0.4157 -0.0561  0.1575
 4286SOL    HW124491   1.871   0.527   2.360 -0.8134  2.0661  3.3899
 4286SOL    HW224492   1.930   0.652   2.414  2.3712 -1.4780  1.0140
 4287SOL     OW24493   0.096   1.144  15.247 -0.0337  0.5586 -0.5351
 4287SOL    HW124494   0.070   1.068  15.300  1.9012 -1.5323 -2.5886
 4287SOL    HW224495   0.049   1.212  15.294  0.7771 -0.3150  1.5247
 4288SOL     OW24496   0.109   0.880   3.131  0.6413  0.2418 -0.0966
 4288SOL    HW124497   0.193   0.895   3.176  0.0894  1.6264  0.4498
 4288SOL    HW224498   0.051   0.914   3.198  0.2442 -0.7185  0.0487
 4289SOL     OW24499   1.934   0.437   5.570 -0.7442 -0.4127  0.3781
 4289SOL    HW124500   1.853   0.389   5.588  0.1931 -2.0424  0.2656
 4289SOL    HW224501   1.963   0.459   5.659 -1.1548 -0.0722  0.4308
 4290SOL     OW24502   2.433   4.354   5.104  0.2574  0.4065 -0.2278
 4290SOL    HW124503   2.429   4.400   5.020 -0.5654 -0.4432 -0.6542
 4290SOL    HW224504   2.377   4.409   5.159 -2.5049 -1.9106 -0.7059
 4291SOL     OW24505   1.757   3.736   8.585 -0.1320 -0.1528  1.0427
 4291SOL    HW124506   1.850   3.754   8.596 -0.6023  3.3526 -0.5320
 4291SOL    HW224507   1.711   3.812   8.621 -0.1889 -0.6805  2.0649
 4292SOL     OW24508   1.056   2.792   2.104 -0.0586 -0.3991  0.1095
 4292SOL    HW124509   1.054   2.885   2.081  1.7710 -0.2255  0.6171
 4292SOL    HW224510   1.026   2.762   2.018 -1.1207 -1.4196  0.8310
 4293SOL     OW24511   1.627   3.836   2.249 -0.4534 -0.1503  0.0277
 4293SOL    HW124512   1.649   3.814   2.159  1.2633 -0.5786  0.5489
 4293SOL    HW224513   1.698   3.895   2.274 -0.3975 -0.2527  0.1102
 4294SOL     OW24514   0.936   2.110   8.192  0.2697 -0.0062 -0.2633
 4294SOL    HW124515   0.900   2.192   8.226  2.1675  0.3181  0.9963
 4294SOL    HW224516   0.942   2.123   8.098  2.3367  0.8500 -0.0103
 4295SOL     OW24517   0.675   2.909   6.858 -0.7477 -0.2639 -0.0275
 4295SOL    HW124518   0.755   2.961   6.848 -0.5951 -0.1901  1.6625
 4295SOL    HW224519   0.611   2.979   6.872 -0.2733 -0.0151  0.8938
 4296SOL     OW24520   0.842   0.555   8.237 -0.3949  0.5386 -0.6470
 4296SOL    HW124521   0.850   0.637   8.189  1.2335 -0.9450 -2.9341
 4296SOL    HW224522   0.934   0.528   8.229  0.0222  2.1169 -1.1816
 4297SOL     OW24523   3.885   4.647   8.188 -0.2068  0.2277 -0.0856
 4297SOL    HW124524   3.845   4.700   8.257  2.0004 -0.2209  1.5444
 4297SOL    HW224525   3.974   4.657   8.222  0.2461  0.5600 -1.3477
 4298SOL     OW24526   3.104   1.149   2.594 -0.0003 -0.0876 -0.2669
 4298SOL    HW124527   3.057   1.066   2.601  1.0945 -0.4930  2.3093
 4298SOL    HW224528   3.036   1.215   2.609 -0.2089 -0.8034  2.0529
 4299SOL     OW24529   0.367   1.034   0.253  0.8095  0.0042 -0.7025
 4299SOL    HW124530   0.381   0.941   0.233 -1.2784 -0.3846 -0.3841
 4299SOL    HW224531   0.435   1.039   0.320 -0.6934 -1.5825  0.9473
 4300SOL     OW24532   4.096   0.909  11.935  0.4073  0.4141  0.2396
 4300SOL    HW124533   4.045   0.981  11.973 -1.5696 -1.2511  0.7366
 4300SOL    HW224534   4.111   0.939  11.845 -0.6639 -1.8574 -0.6869
 4301SOL     OW24535   1.069   4.143   3.191  0.4166  0.0157 -0.4116
 4301SOL    HW124536   1.149   4.096   3.166  0.3266  0.1886 -1.0238
 4301SOL    HW224537   1.088   4.162   3.282 -1.1239 -1.6605  0.2610
 4302SOL     OW24538   2.830   3.480   6.655 -0.3893 -0.6397  0.1396
 4302SOL    HW124539   2.765   3.548   6.635  2.4055  1.5348 -1.5925
 4302SOL    HW224540   2.883   3.514   6.727 -0.3495  0.8210 -0.5856
 4303SOL     OW24541   3.434   3.225  14.168  0.1330 -0.0508  0.2377
 4303SOL    HW124542   3.520   3.190  14.190  0.3081  1.9432  2.7496
 4303SOL    HW224543   3.464   3.299  14.114 -1.2376  2.3675  2.8047
 4304SOL     OW24544   1.408   0.572   7.312 -0.3135  0.0190 -0.7570
 4304SOL    HW124545   1.374   0.483   7.313  0.5488 -0.3101 -0.7242
 4304SOL    HW224546   1.420   0.573   7.407 -0.0363 -1.8821 -0.7836
 4305SOL     OW24547   2.989   2.919   2.351  0.3934 -0.0691  0.3289
 4305SOL    HW124548   3.077   2.894   2.324  0.0254 -1.3528  0.3110
 4305SOL    HW224549   2.951   2.889   2.268  1.1886 -1.4999  0.4972
 4306SOL     OW24550   4.028   4.351   4.529  0.1372 -0.1435  0.2634
 4306SOL    HW124551   3.972   4.421   4.560 -0.2470 -1.9502  3.6040
 4306SOL    HW224552   4.069   4.396   4.454 -0.2567  0.6732  0.5472
 4307SOL     OW24553   1.734   2.113   7.168  0.4680  0.7014 -0.0016
 4307SOL    HW124554   1.690   2.048   7.223 -1.5110  1.8452 -0.2544
 4307SOL    HW224555   1.719   2.082   7.078 -2.2662 -0.7499  0.9464
 4308SOL     OW24556   3.195   2.160   9.133 -0.3137  0.7411  0.6283
 4308SOL    HW124557   3.124   2.107   9.095 -0.9206  1.0847  1.2813
 4308SOL    HW224558   3.252   2.157   9.056 -2.1752  0.1987 -0.7529
 4309SOL     OW24559   0.010   2.354   6.093 -0.4399  0.2931 -0.0703
 4309SOL    HW124560   4.699   2.269   6.079 -1.6379  1.1770 -1.6456
 4309SOL    HW224561   4.666   2.410   6.103 -1.0408 -0.4359 -0.5716
 4310SOL     OW24562   3.079   0.368   4.996 -0.1345  0.3199  0.0184
 4310SOL    HW124563   3.037   0.432   5.054  0.8741  0.0491  1.0362
 4310SOL    HW224564   3.011   0.301   5.003 -0.2770  0.5033  0.4150
 4311SOL     OW24565   2.777   0.619  16.856  0.7855  0.7189 -0.1378
 4311SOL    HW124566   2.859   0.636  16.902  2.5863 -0.3319 -2.9570
 4311SOL    HW224567   2.721   0.696  16.872 -1.2381 -1.0915  1.4161
 4312SOL     OW24568   0.149   3.523   3.792 -0.1008 -0.3468 -0.0502
 4312SOL    HW124569   0.118   3.613   3.803 -2.2498 -0.9050 -1.6503
 4312SOL    HW224570   0.109   3.480   3.867 -1.3304 -3.5425 -2.5157
 4313SOL     OW24571   0.577   3.623  15.147  0.0184  0.3400 -0.2952
 4313SOL    HW124572   0.640   3.635  15.075 -1.5725 -0.5358 -1.8355
 4313SOL    HW224573   0.499   3.594  15.101  0.9741 -1.2879 -0.8913
 4314SOL     OW24574   1.726   1.780   8.297  0.2891 -0.5090 -0.4002
 4314SOL    HW124575   1.774   1.821   8.368  0.3812 -3.9849  1.5715
 4314SOL    HW224576   1.671   1.857   8.287  0.8284 -0.0835 -0.0503
 4315SOL     OW24577   4.592   3.420   8.442  0.5096  0.0312  0.1373
 4315SOL    HW124578   4.633   3.363   8.507 -0.1882  0.8264  1.2614
 4315SOL    HW224579   4.581   3.369   8.362 -1.4253 -0.4556  0.7106
 4316SOL     OW24580   3.334   4.096   4.004 -0.1218  0.3471 -0.0363
 4316SOL    HW124581   3.324   4.012   3.960 -0.3433 -0.4631  1.5678
 4316SOL    HW224582   3.394   4.147   3.949  1.4905  1.1858  2.5253
 4317SOL     OW24583   4.453   4.727  17.690 -0.2651 -0.6806 -0.2272
 4317SOL    HW124584   4.484   4.643  17.656  0.6801  0.3403 -1.9077
 4317SOL    HW224585   4.469   0.052  17.615 -1.7566 -1.7712 -1.3917
 4318SOL     OW24586   1.792   2.669  10.302  0.6111  0.1665 -0.2949
 4318SOL    HW124587   1.858   2.737  10.287 -1.1797  2.2631  1.4425
 4318SOL    HW224588   1.762   2.659  10.211 -0.0264  0.0360 -0.0671
 4319SOL     OW24589   1.143   0.526   8.770  0.1669 -0.3127 -0.2333
 4319SOL    HW124590   1.217   0.548   8.714 -0.7025  0.6731 -0.9919
 4319SOL    HW224591   1.181   0.466   8.834  0.1088 -0.7837 -0.6438
 4320SOL     OW24592   1.389   3.938  10.725 -0.2792 -0.0537 -0.0673
 4320SOL    HW124593   1.330   3.995  10.773  0.0713  0.0147  0.2793
 4320SOL    HW224594   1.344   3.928  10.641 -0.1721 -2.9221  0.2202
 4321SOL     OW24595   3.983   4.038   4.065 -0.0510 -0.1289  0.3324
 4321SOL    HW124596   3.898   4.016   4.027  1.1522 -1.8710 -1.3766
 4321SOL    HW224597   4.026   3.953   4.055  0.2213 -0.2037  2.0839
 4322SOL     OW24598   2.282   0.935   1.600  0.2186 -0.1993 -0.7047
 4322SOL    HW124599   2.257   1.001   1.535 -2.9703  0.4709  1.2134
 4322SOL    HW224600   2.375   0.950   1.616 -0.1173 -0.6183  1.5440
 4323SOL     OW24601   2.968   1.142   2.877 -0.0388  0.3355 -0.4091
 4323SOL    HW124602   2.983   1.143   2.971 -0.4578  1.1715 -0.3522
 4323SOL    HW224603   2.991   1.234   2.865 -2.6107  0.6771 -2.8511
 4324SOL     OW24604   1.360   3.053  16.786  0.4765  0.3355  0.5001
 4324SOL    HW124605   1.346   3.003  16.706 -0.8404  0.9399  0.3577
 4324SOL    HW224606   1.273   3.076  16.818  0.0149 -0.0122 -0.5212
 4325SOL     OW24607   3.305   2.026   6.628 -0.6066  0.0467  0.5669
 4325SOL    HW124608   3.284   2.015   6.721 -1.9972  0.8208  0.3370
 4325SOL    HW224609   3.355   1.944   6.623 -0.2618  0.3299 -0.6270
 4326SOL     OW24610   0.958   0.987   3.424 -0.0001  0.3225  0.0142
 4326SOL    HW124611   0.907   1.056   3.468 -1.4095 -1.2377  0.8114
 4326SOL    HW224612   0.955   0.913   3.485 -1.0683  1.3367  1.2023
 4327SOL     OW24613   1.192   4.385   9.885  0.1609  0.8688 -0.6786
 4327SOL    HW124614   1.109   4.340   9.867  0.9129  0.0547 -2.0720
 4327SOL    HW224615   1.207   4.349   9.972 -2.1850  0.2574 -0.5337
 4328SOL     OW24616   3.835   3.362   6.565  0.1486 -0.0548 -0.3315
 4328SOL    HW124617   3.923   3.386   6.595 -0.3316  1.1243  0.1272
 4328SOL    HW224618   3.834   3.422   6.491 -2.9175  1.1483  0.6963
 4329SOL     OW24619   0.879   1.205   5.612  0.0408 -0.6940  0.1487
 4329SOL    HW124620   0.894   1.245   5.698  1.5475 -3.4374  1.1322
 4329SOL    HW224621   0.951   1.241   5.561  0.5085 -2.2951 -0.3213
 4330SOL     OW24622   3.361   4.551   3.501  0.0807 -0.4491 -0.8084
 4330SOL    HW124623   3.435   4.611   3.496 -1.2899  1.2139 -1.4111
 4330SOL    HW224624   3.289   4.613   3.515  0.8468  1.1613 -4.0648
 4331SOL     OW24625   3.054   2.304  16.656  0.4319  0.4933 -0.0400
 4331SOL    HW124626   3.086   2.374  16.713  0.0177  1.5446 -1.1119
 4331SOL    HW224627   3.030   2.247  16.729 -1.0010 -0.3987 -1.1931
 4332SOL     OW24628   3.480   2.409  13.025  0.0951 -0.3747 -0.0548
 4332SOL    HW124629   3.498   2.420  12.932  0.7549  0.4740  0.1769
 4332SOL    HW224630   3.571   2.413  13.054 -0.6987  1.1712  2.2440
 4333SOL     OW24631   3.973   2.704   5.992 -0.4119 -0.6884  0.4655
 4333SOL    HW124632   4.036   2.651   6.041 -0.3766 -0.8731  0.2238
 4333SOL    HW224633   4.018   2.694   5.908 -2.0963 -0.3426 -0.4861
 4334SOL     OW24634   4.283   4.603   4.388  0.1849  0.0020 -0.0770
 4334SOL    HW124635   4.270   4.580   4.296  0.3000 -2.4454  0.5057
 4334SOL    HW224636   4.332   4.684   4.377  0.5137 -0.2417 -0.4000
 4335SOL     OW24637   0.648   0.128   7.033  0.4295  0.1255  0.9254
 4335SOL    HW124638   0.585   0.099   7.099 -0.3732 -1.7637 -0.6896
 4335SOL    HW224639   0.701   0.181   7.093  2.1181  0.2433 -0.6747
 4336SOL     OW24640   2.652   4.386   2.337 -0.2386  0.1591 -0.3379
 4336SOL    HW124641   2.582   4.322   2.323  1.0207 -1.1544 -0.6507
 4336SOL    HW224642   2.726   4.334   2.368  0.6816  0.6915 -1.6049
 4337SOL     OW24643   1.210   2.374   8.360  0.0802 -0.0479  0.6732
 4337SOL    HW124644   1.168   2.294   8.391  0.6778 -0.8747 -0.6168
 4337SOL    HW224645   1.229   2.361   8.267 -4.2862 -0.6038 -0.1528
 4338SOL     OW24646   2.015   1.609  13.143 -0.5015 -0.0886  0.4900
 4338SOL    HW124647   1.979   1.698  13.143  0.3376  0.2530 -0.2101
 4338SOL    HW224648   2.027   1.578  13.232  1.3417  0.7163  0.5227
 4339SOL     OW24649   2.158   0.533   0.304 -0.3236 -0.6748 -0.3498
 4339SOL    HW124650   2.137   0.454   0.355 -0.9179 -0.8929 -0.9277
 4339SOL    HW224651   2.234   0.507   0.252 -1.4225  0.0161 -2.3010
 4340SOL     OW24652   4.504   1.700   4.461 -0.7871  0.1694  0.2739
 4340SOL    HW124653   4.410   1.709   4.473 -0.5963  0.6739  1.4814
 4340SOL    HW224654   4.531   1.774   4.408 -0.1378  0.2007  0.6507
 4341SOL     OW24655   2.073   0.748   5.072  0.0621 -0.2039  0.6083
 4341SOL    HW124656   1.993   0.794   5.095 -1.1318 -1.7970 -0.3404
 4341SOL    HW224657   2.073   0.737   4.977 -1.1452  1.8706  0.3711
 4342SOL     OW24658   1.408   0.468  13.426  0.2221 -0.0487  0.0475
 4342SOL    HW124659   1.495   0.481  13.387  0.3583  1.4150  0.8278
 4342SOL    HW224660   1.344   0.482  13.356 -1.1597  1.4746  1.6302
 4343SOL     OW24661   1.711   3.069  10.353  0.1707 -0.2147  0.0652
 4343SOL    HW124662   1.713   2.985  10.399 -0.5363 -0.5068 -0.4368
 4343SOL    HW224663   1.765   3.038  10.280  0.2953  1.5895 -0.6013
 4344SOL     OW24664   2.350   2.971   0.802  0.2413 -0.2377 -0.0604
 4344SOL    HW124665   2.271   2.939   0.759 -0.7825 -0.0840  1.6867
 4344SOL    HW224666   2.309   3.030   0.865 -0.1287 -1.0363  0.4594
 4345SOL     OW24667   2.588   1.780   2.921 -0.1106 -0.4770 -0.3173
 4345SOL    HW124668   2.634   1.701   2.891 -1.5135 -1.5746  0.4360
 4345SOL    HW224669   2.652   1.850   2.935 -0.2621  0.0905 -2.5900
 4346SOL     OW24670   3.032   0.594   1.407  0.4491 -0.2144 -0.8762
 4346SOL    HW124671   3.119   0.619   1.376  1.9088 -0.2850  3.1148
 4346SOL    HW224672   3.049   0.546   1.488 -0.9331  0.0166 -0.4605
 4347SOL     OW24673   3.144   3.934   4.258 -0.0092 -0.5336 -0.5350
 4347SOL    HW124674   3.208   3.934   4.330  0.4952 -0.2631 -0.9865
 4347SOL    HW224675   3.182   3.872   4.196 -0.4110 -1.9365  0.6237
 4348SOL     OW24676   0.499   4.066   3.604  0.1019 -0.7184  0.0147
 4348SOL    HW124677   0.434   4.034   3.666  0.9484 -0.4704  1.0306
 4348SOL    HW224678   0.449   4.133   3.557 -1.4537 -0.4088  2.1216
 4349SOL     OW24679   3.638   3.998   3.464 -0.4299  0.2024 -0.0529
 4349SOL    HW124680   3.721   4.022   3.506 -1.1238 -1.8328  2.4467
 4349SOL    HW224681   3.608   3.927   3.521  0.6076 -1.8414 -2.0392
 4350SOL     OW24682   1.797   0.003  11.101 -0.5346  0.4089 -0.0285
 4350SOL    HW124683   1.780   0.051  11.019  0.2585 -0.5464 -0.7527
 4350SOL    HW224684   1.766   0.072  11.160  1.8091  1.7125 -0.3051
 4351SOL     OW24685   2.294   3.721   0.368 -0.3982 -0.1447  0.0759
 4351SOL    HW124686   2.271   3.629   0.359  0.8845 -0.3907 -0.7149
 4351SOL    HW224687   2.238   3.759   0.301  0.9830  0.2580 -0.8596
 4352SOL     OW24688   3.799   2.538   4.977  0.2085 -0.1877  0.1224
 4352SOL    HW124689   3.838   2.515   4.893  0.2254 -0.0659  0.0971
 4352SOL    HW224690   3.808   2.450   5.014 -1.7569 -1.1463 -1.6835
 4353SOL     OW24691   4.400   2.781   6.957  0.2988 -0.5978  0.0722
 4353SOL    HW124692   4.433   2.692   6.966 -2.3383 -1.7392 -1.6255
 4353SOL    HW224693   4.305   2.767   6.956  0.5386 -2.2827  0.6423
 4354SOL     OW24694   3.438   0.106   6.791 -0.1464  0.2398  0.0482
 4354SOL    HW124695   3.502   0.149   6.848  0.5634  0.6751 -1.0823
 4354SOL    HW224696   3.488   0.085   6.712  1.0616 -0.0715  0.9006
 4355SOL     OW24697   3.747   1.954   2.584 -0.0469  0.5138 -0.0663
 4355SOL    HW124698   3.795   1.875   2.558 -0.1628  0.2625  0.4903
 4355SOL    HW224699   3.817   2.006   2.624 -0.8626  1.0927  0.5903
 4356SOL     OW24700   4.615   3.216  15.608 -0.3058  0.3187  0.1889
 4356SOL    HW124701   4.651   3.127  15.603  2.5135  1.4786  0.1018
 4356SOL    HW224702   4.677   3.261  15.550  0.3263 -0.9977 -0.1651
 4357SOL     OW24703   2.661   3.497  14.620  0.1177 -0.7126 -0.2782
 4357SOL    HW124704   2.586   3.437  14.620  2.4471 -3.6337  1.3644
 4357SOL    HW224705   2.643   3.560  14.551  1.4426 -1.9878 -1.8016
 4358SOL     OW24706   4.371   4.601   3.737  0.5233  0.3442 -0.4173
 4358SOL    HW124707   4.429   4.660   3.785 -0.2712  0.0505  0.8889
 4358SOL    HW224708   4.284   4.642   3.731 -0.6200 -1.9199  1.0206
 4359SOL     OW24709   3.740   3.872   0.712  0.1983  0.1751  0.0480
 4359SOL    HW124710   3.767   3.894   0.623 -2.7560  0.5435 -0.7641
 4359SOL    HW224711   3.791   3.933   0.766 -0.8512  1.4454 -0.3801
 4360SOL     OW24712   3.080   2.768  17.409 -0.0778  0.8304  0.7938
 4360SOL    HW124713   3.132   2.847  17.395  0.1573  0.4612 -0.3719
 4360SOL    HW224714   3.158   2.714  17.416  0.6939  1.5103 -2.7250
 4361SOL     OW24715   3.411   4.646   6.983  0.1744  0.3469  0.5081
 4361SOL    HW124716   3.385   4.691   6.903 -0.5575 -0.8814  0.0536
 4361SOL    HW224717   3.503   4.629   6.965 -0.1531 -0.1647 -0.6808
 4362SOL     OW24718   0.454   4.553   6.468  0.9358 -0.1768  0.8902
 4362SOL    HW124719   0.400   4.589   6.397  2.2519 -0.4860 -0.2565
 4362SOL    HW224720   0.406   4.471   6.469  0.1576  0.2692  0.1850
 4363SOL     OW24721   1.163   3.792   2.021 -1.0649 -0.3402 -0.2519
 4363SOL    HW124722   1.227   3.721   2.026  2.6849  2.9258 -2.8170
 4363SOL    HW224723   1.219   3.869   2.035 -1.9980  0.1002  1.0636
 4364SOL     OW24724   1.762   2.435   8.265  0.0824  0.2490 -0.1424
 4364SOL    HW124725   1.812   2.413   8.186 -0.8365 -0.3989 -0.5543
 4364SOL    HW224726   1.775   2.358   8.320  2.7111 -0.0280 -1.1777
 4365SOL     OW24727   4.644   0.606  14.609  0.3666 -0.7173  0.4523
 4365SOL    HW124728   4.562   0.571  14.572  1.1753  0.6906 -2.6759
 4365SOL    HW224729   4.683   0.524  14.641  1.3090  0.1406  1.4726
 4366SOL     OW24730   0.307   4.018   5.735  0.1534 -0.0186 -0.2244
 4366SOL    HW124731   0.387   4.000   5.685 -0.4367  1.8906 -1.8558
 4366SOL    HW224732   0.258   3.937   5.727 -1.8863  1.0708  1.0585
 4367SOL     OW24733   3.323   3.353  13.106  0.7459 -0.3753 -0.2785
 4367SOL    HW124734   3.309   3.414  13.178 -0.0258 -1.3460  0.3984
 4367SOL    HW224735   3.325   3.410  13.029  2.0845  1.0082  0.7730
 4368SOL     OW24736   2.706   3.442   2.540  0.4107 -0.1555 -0.5313
 4368SOL    HW124737   2.783   3.391   2.566  1.7892  2.0190 -0.2631
 4368SOL    HW224738   2.648   3.376   2.503  0.3284 -1.1822  1.4611
 4369SOL     OW24739   1.022   1.292   8.135  0.7182 -0.2153  0.2840
 4369SOL    HW124740   0.977   1.313   8.217  1.2110 -0.5121  0.6278
 4369SOL    HW224741   1.103   1.251   8.166  1.0243  0.7801  0.7966
 4370SOL     OW24742   2.723   1.712   9.619 -0.7461 -0.0731 -0.7879
 4370SOL    HW124743   2.785   1.639   9.615 -2.4975 -1.6340  0.5211
 4370SOL    HW224744   2.792   1.774   9.597  1.8633 -2.0078  1.8853
 4371SOL     OW24745   2.112   2.160   4.420  0.3387 -0.1388  0.6929
 4371SOL    HW124746   2.081   2.210   4.496  0.9801  0.4658  0.5521
 4371SOL    HW224747   2.200   2.195   4.409  0.5533 -0.2257  2.0911
 4372SOL     OW24748   4.415   0.254  11.467  0.2842 -0.2339  0.4303
 4372SOL    HW124749   4.488   0.206  11.430 -0.2832 -0.5816 -0.2390
 4372SOL    HW224750   4.400   0.320  11.399  0.0403  0.2069  0.9057
 4373SOL     OW24751   1.433   2.868  11.384  0.1413  0.1452  0.0504
 4373SOL    HW124752   1.508   2.928  11.379  0.9525 -0.7030  2.1730
 4373SOL    HW224753   1.423   2.851  11.290 -0.1740  1.1278 -0.0953
 4374SOL     OW24754   3.631   4.673   5.633 -0.0525  0.9569 -0.1099
 4374SOL    HW124755   3.710   4.636   5.594  1.7159  2.7131  1.7889
 4374SOL    HW224756   3.669   0.025   5.656  3.7389 -0.8067  0.0040
 4375SOL     OW24757   0.983   4.515   2.287 -0.2034  0.1094 -0.3253
 4375SOL    HW124758   1.051   4.577   2.316  0.0853 -0.5405  0.3744
 4375SOL    HW224759   0.930   4.502   2.365  2.2040 -1.1697  1.0698
 4376SOL     OW24760   1.577   2.764   4.546 -0.0458 -0.3016  0.2338
 4376SOL    HW124761   1.511   2.771   4.477  2.1629  2.1894 -1.6079
 4376SOL    HW224762   1.641   2.711   4.499 -1.0268  0.3915 -1.9029
 4377SOL     OW24763   0.094   0.573   2.693  0.0259  0.0592 -0.4386
 4377SOL    HW124764   0.028   0.516   2.654 -0.6061  0.4567  0.0494
 4377SOL    HW224765   0.052   0.606   2.772 -0.6621  2.1815 -1.6775
 4378SOL     OW24766   0.016   1.387   8.221 -0.7274 -0.2898  0.1615
 4378SOL    HW124767   4.713   1.359   8.136 -1.8826  0.1521  0.5039
 4378SOL    HW224768   0.065   1.311   8.254  1.1827  0.5627 -0.7644
 4379SOL     OW24769   0.852   3.352   7.540  0.0611  0.1271  0.0469
 4379SOL    HW124770   0.785   3.374   7.605 -0.1957 -0.8046  0.1048
 4379SOL    HW224771   0.804   3.278   7.501  1.4769 -1.3567  1.1363
 4380SOL     OW24772   0.621   1.718   8.096 -0.1838  0.2909 -0.5984
 4380SOL    HW124773   0.643   1.764   8.177  0.5760 -0.9090 -0.1391
 4380SOL    HW224774   0.637   1.628   8.122 -0.3696  0.0561 -1.2880
 4381SOL     OW24775   4.143   1.239  11.803  0.6833  0.2573  0.5498
 4381SOL    HW124776   4.188   1.191  11.871 -0.5039 -0.9842  0.4613
 4381SOL    HW224777   4.195   1.318  11.817 -0.0928  0.5554  1.7731
 4382SOL     OW24778   0.565   0.023   7.725  0.1995 -0.4112 -0.0237
 4382SOL    HW124779   0.607   0.103   7.755  1.2652  0.0384 -2.6833
 4382SOL    HW224780   0.485   0.007   7.775 -0.4657  2.2509 -0.2172
 4383SOL     OW24781   1.164   4.415   7.604  0.0085 -0.3569 -0.3312
 4383SOL    HW124782   1.178   4.404   7.510  2.9647  1.1843 -0.0865
 4383SOL    HW224783   1.194   4.328   7.630 -0.3226  0.3207  2.2973
 4384SOL     OW24784   4.182   3.932   6.259 -0.0794  0.4788 -0.1515
 4384SOL    HW124785   4.183   3.978   6.343 -1.1828  1.0188 -0.4325
 4384SOL    HW224786   4.234   3.854   6.281 -0.4580  0.6141  1.2500
 4385SOL     OW24787   0.510   3.212  10.818 -0.3456 -0.4342 -0.2565
 4385SOL    HW124788   0.491   3.118  10.818  0.4017 -0.5820  0.4218
 4385SOL    HW224789   0.523   3.227  10.725 -0.7279  1.2428 -0.0312
 4386SOL     OW24790   2.860   1.455  16.271  0.1116  0.4472 -0.2833
 4386SOL    HW124791   2.770   1.483  16.251  1.4996  2.7690 -3.2263
 4386SOL    HW224792   2.843   1.422  16.359  0.0068 -0.1030 -0.5089
 4387SOL     OW24793   0.624   3.041  16.023  0.1077 -0.1890  0.4843
 4387SOL    HW124794   0.531   3.032  16.044  0.3327 -0.9351  1.1846
 4387SOL    HW224795   0.620   3.089  15.941  0.3621  2.1513  1.8415
 4388SOL     OW24796   0.423   4.498   4.289 -0.2396 -0.2322 -0.2532
 4388SOL    HW124797   0.348   4.556   4.275 -0.4853 -0.2078  1.2003
 4388SOL    HW224798   0.498   4.553   4.310  0.6593 -0.2227 -3.5093
 4389SOL     OW24799   4.599   1.378  13.277  0.0522  0.0849  0.4659
 4389SOL    HW124800   4.588   1.458  13.225  1.2816  0.6052  0.9901
 4389SOL    HW224801   4.602   1.430  13.358 -0.7537  1.7126 -0.5414
 4390SOL     OW24802   1.068   0.652  11.678 -0.0446  0.1357  0.4340
 4390SOL    HW124803   1.041   0.606  11.598 -1.3726  0.1300  0.8921
 4390SOL    HW224804   0.983   0.666  11.720  0.1427  1.8871  0.2385
 4391SOL     OW24805   0.473   3.775   6.699 -0.0744 -0.6346 -0.2207
 4391SOL    HW124806   0.529   3.731   6.763 -0.5714  0.0295  0.6868
 4391SOL    HW224807   0.456   3.715   6.627 -1.3792  0.6715 -0.9994
 4392SOL     OW24808   1.893   3.285   2.430  0.5318 -0.2578  0.0422
 4392SOL    HW124809   1.926   3.364   2.474 -1.3573  0.5454  0.0128
 4392SOL    HW224810   1.811   3.319   2.395 -0.0568  0.3377  2.0195
 4393SOL     OW24811   3.040   0.449   1.677  0.1202  0.4049  0.2008
 4393SOL    HW124812   3.109   0.384   1.665 -0.9692 -0.4032 -1.7663
 4393SOL    HW224813   3.015   0.422   1.765  0.3402 -2.2200 -0.5269
 4394SOL     OW24814   3.243   3.926   7.457  0.1110  0.2721 -0.1521
 4394SOL    HW124815   3.150   3.945   7.443 -0.2210  0.5055  2.4613
 4394SOL    HW224816   3.254   3.836   7.424  1.4501 -0.1409  1.4057
 4395SOL     OW24817   0.075   4.301   2.877 -0.0445  0.4803  0.0760
 4395SOL    HW124818   0.167   4.328   2.879 -0.1457  0.8448 -0.1363
 4395SOL    HW224819   0.037   4.367   2.935  0.4987  1.3008 -0.5034
 4396SOL     OW24820   2.845   4.088  16.363 -0.1221  0.1525  0.2339
 4396SOL    HW124821   2.754   4.087  16.331 -0.1136  0.1568  0.2098
 4396SOL    HW224822   2.839   4.009  16.417 -0.4573 -0.8924 -1.3513
 4397SOL     OW24823   3.418   3.210   5.633 -0.0815 -0.1127 -0.0160
 4397SOL    HW124824   3.418   3.221   5.728 -0.1998  1.1769 -0.1688
 4397SOL    HW224825   3.380   3.295   5.611 -0.9620 -1.2015 -2.7899
 4398SOL     OW24826   0.498   3.230  12.692 -0.0619 -0.1417 -0.0070
 4398SOL    HW124827   0.476   3.261  12.779  2.6494  2.6162 -0.3107
 4398SOL    HW224828   0.574   3.174  12.708  0.2685  0.0068 -1.0792
 4399SOL     OW24829   0.385   0.035   2.467 -0.1683 -0.0624 -0.0303
 4399SOL    HW124830   0.309   4.713   2.447 -2.3570  2.6936  0.6691
 4399SOL    HW224831   0.440   4.696   2.500  3.8849  2.6338 -0.9516
 4400SOL     OW24832   0.492   2.820   5.311 -0.0577 -0.1745 -0.0938
 4400SOL    HW124833   0.401   2.845   5.327 -0.0735 -0.3937  0.1666
 4400SOL    HW224834   0.531   2.898   5.270 -2.0875 -0.1660 -1.9932
 4401SOL     OW24835   2.098   4.114   9.225  0.4463 -0.7300  0.0467
 4401SOL    HW124836   2.139   4.037   9.264  1.1407  0.1932  1.1288
 4401SOL    HW224837   2.070   4.152   9.308 -1.7680  0.4419 -1.2594
 4402SOL     OW24838   2.374   2.714  15.515  0.1597  0.2606  0.4715
 4402SOL    HW124839   2.468   2.702  15.509  0.2840  1.7631 -0.4100
 4402SOL    HW224840   2.356   2.757  15.432  3.2218 -0.9131 -0.7685
 4403SOL     OW24841   3.439   1.146  16.231 -0.6549  0.2130  0.2066
 4403SOL    HW124842   3.400   1.206  16.168 -0.9963  0.6600  0.8478
 4403SOL    HW224843   3.403   1.063  16.200 -0.4768  0.4237 -0.5459
 4404SOL     OW24844   2.259   2.290  10.862  0.3710  0.3434  0.2958
 4404SOL    HW124845   2.319   2.365  10.861  0.0079  0.6435  3.0610
 4404SOL    HW224846   2.285   2.259  10.775  0.4595  0.0079  0.4423
 4405SOL     OW24847   1.243   0.284  15.032  0.0901  0.5233  0.2709
 4405SOL    HW124848   1.213   0.209  14.980  3.1588  1.3014 -2.6310
 4405SOL    HW224849   1.246   0.258  15.124  0.5480 -1.0234 -0.1706
 4406SOL     OW24850   1.244   3.448   7.830 -0.4029 -0.1574  0.0131
 4406SOL    HW124851   1.212   3.360   7.849 -1.1743  0.3541  1.1325
 4406SOL    HW224852   1.159   3.491   7.843 -0.0990  0.6815 -0.8184
 4407SOL     OW24853   0.623   1.303   6.131 -0.7854  0.4043 -0.0258
 4407SOL    HW124854   0.580   1.252   6.063  2.2662 -0.3860 -1.3679
 4407SOL    HW224855   0.661   1.374   6.079  0.6389 -1.3289 -1.3693
 4408SOL     OW24856   2.517   0.745   2.723 -0.1495 -0.3184 -0.2195
 4408SOL    HW124857   2.531   0.804   2.798  0.5306 -0.3362 -0.3344
 4408SOL    HW224858   2.561   0.796   2.655 -0.4259 -0.8763 -0.8152
 4409SOL     OW24859   1.567   0.177   2.646  0.0324 -0.5020  0.1303
 4409SOL    HW124860   1.534   0.170   2.557  1.7121  2.2603 -0.6790
 4409SOL    HW224861   1.502   0.129   2.698 -1.8278  1.1983 -0.6534
 4410SOL     OW24862   3.284   1.984   7.585  0.4595 -0.0038  0.1646
 4410SOL    HW124863   3.286   1.915   7.520  2.4547  1.2167 -1.0612
 4410SOL    HW224864   3.320   2.055   7.532  1.8057  0.7118  2.0206
 4411SOL     OW24865   4.124   2.676   6.882 -0.2382 -0.2137  0.2453
 4411SOL    HW124866   4.088   2.758   6.848 -1.4345 -0.9454 -0.2739
 4411SOL    HW224867   4.175   2.647   6.807 -0.1755  0.9483 -0.1605
 4412SOL     OW24868   1.169   1.471   3.483 -0.0199  0.6584 -0.5693
 4412SOL    HW124869   1.107   1.498   3.415 -1.0562 -1.6427 -0.5275
 4412SOL    HW224870   1.224   1.550   3.485  1.7585 -0.6883  4.3144
 4413SOL     OW24871   3.200   3.074   7.749  0.8070  0.7974  0.6030
 4413SOL    HW124872   3.245   3.087   7.832  2.4820 -0.1593 -0.1575
 4413SOL    HW224873   3.214   3.161   7.711  1.3412 -0.4097 -1.9325
 4414SOL     OW24874   2.368   0.478  10.643 -0.2691 -0.1401 -0.2680
 4414SOL    HW124875   2.449   0.430  10.658  0.9212  2.4890  1.7565
 4414SOL    HW224876   2.386   0.559  10.691  2.6383 -1.3531  0.7199
 4415SOL     OW24877   2.253   2.543  15.008 -0.6642 -0.1041  0.0103
 4415SOL    HW124878   2.243   2.566  14.915  1.0232  3.2149  0.6457
 4415SOL    HW224879   2.192   2.608  15.043 -0.9879 -0.3709 -0.0559
 4416SOL     OW24880   3.972   1.469   7.961  0.0185 -0.3623  0.5376
 4416SOL    HW124881   3.936   1.384   7.936 -0.4170  0.1900 -0.7054
 4416SOL    HW224882   4.062   1.444   7.982  0.2463 -0.3198 -0.4217
 4417SOL     OW24883   3.055   0.337   2.843  0.6867 -0.5131 -0.4095
 4417SOL    HW124884   3.094   0.250   2.855  1.6812  0.0866  0.7185
 4417SOL    HW224885   2.971   0.316   2.884  0.4348  0.7550 -0.2914
 4418SOL     OW24886   1.684   0.683   2.083  0.1747  0.0776  0.2926
 4418SOL    HW124887   1.681   0.594   2.117 -1.5975  0.1308  0.2759
 4418SOL    HW224888   1.640   0.673   1.999 -1.1477  1.4607  0.7968
 4419SOL     OW24889   4.244   2.976  17.427 -0.7771  0.0534  0.7067
 4419SOL    HW124890   4.155   2.996  17.399 -0.1381  2.2427  0.2705
 4419SOL    HW224891   4.263   3.030  17.504 -0.5815  1.1945 -0.1443
 4420SOL     OW24892   4.242   3.619   5.992 -0.1520  0.6787  0.1444
 4420SOL    HW124893   4.293   3.664   5.924 -0.6881 -0.0390 -0.7286
 4420SOL    HW224894   4.288   3.540   6.020 -1.3295  0.6919  2.0984
 4421SOL     OW24895   3.190   3.515   3.323  0.4822  0.0625  0.0706
 4421SOL    HW124896   3.261   3.554   3.273 -0.0944  1.9068  0.7048
 4421SOL    HW224897   3.139   3.473   3.253 -0.7976 -1.2587  1.7879
 4422SOL     OW24898   4.620   3.108   7.445 -0.4661 -1.1572  0.1968
 4422SOL    HW124899   4.619   3.186   7.389 -0.3227 -0.1215  1.6454
 4422SOL    HW224900   4.563   3.052   7.392 -0.9137  0.2715 -0.8368
 4423SOL     OW24901   0.395   2.590   9.975  0.2669 -0.8444 -0.0691
 4423SOL    HW124902   0.485   2.561   9.958  1.0365  1.4481  0.0887
 4423SOL    HW224903   0.410   2.684   9.984 -2.0822 -0.5635  1.0470
 4424SOL     OW24904   3.852   0.480  15.199  0.0846 -0.6108 -0.1708
 4424SOL    HW124905   3.938   0.474  15.242 -0.4082 -0.6216  0.8042
 4424SOL    HW224906   3.811   0.562  15.225  0.2466 -1.4347  2.6141
 4425SOL     OW24907   1.597   2.488   5.279 -0.0968 -0.3066 -0.1118
 4425SOL    HW124908   1.615   2.578   5.304 -1.9488 -0.2265  0.8643
 4425SOL    HW224909   1.618   2.443   5.361  0.2669  1.9985  1.0454
 4426SOL     OW24910   2.082   4.727  12.161 -0.0223  0.5560  0.0270
 4426SOL    HW124911   2.021   0.053  12.207 -0.4106  1.5902 -1.7904
 4426SOL    HW224912   2.123   0.061  12.105  0.8293  1.2975  1.5455
 4427SOL     OW24913   0.929   1.127  12.239 -0.2612 -0.4535 -0.1929
 4427SOL    HW124914   1.007   1.122  12.183 -0.1639  0.1118 -0.1107
 4427SOL    HW224915   0.973   1.156  12.319  0.7267 -2.2290 -0.0951
 4428SOL     OW24916   4.454   0.558   2.694 -0.1702  0.5548 -0.6192
 4428SOL    HW124917   4.424   0.623   2.630 -0.9188  1.6006  0.7754
 4428SOL    HW224918   4.493   0.492   2.638 -0.8636 -0.9826  0.7131
 4429SOL     OW24919   0.944   3.245   8.869  0.3933  0.0158 -0.7673
 4429SOL    HW124920   1.035   3.268   8.851  0.3681 -0.6786 -1.7810
 4429SOL    HW224921   0.949   3.160   8.913  0.8456 -0.2496 -1.3397
 4430SOL     OW24922   1.556   4.534   3.880 -0.2405  0.0741  0.0404
 4430SOL    HW124923   1.493   4.605   3.889 -0.0056  0.0156  2.1909
 4430SOL    HW224924   1.608   4.556   3.958 -1.4776  0.5714  0.7355
 4431SOL     OW24925   3.324   0.687  16.082 -0.6249  0.2016  0.2744
 4431SOL    HW124926   3.324   0.685  15.986 -0.4829 -1.0438  0.3034
 4431SOL    HW224927   3.387   0.758  16.097  0.1395 -0.2104 -0.9427
 4432SOL     OW24928   1.912   0.831   2.944 -0.5095  0.2195 -0.2042
 4432SOL    HW124929   1.996   0.796   2.973 -0.1303  1.7693  0.5751
 4432SOL    HW224930   1.926   0.892   2.871 -1.5417  1.0829  0.3111
 4433SOL     OW24931   3.233   2.798   5.758 -0.2352  0.2701 -0.2554
 4433SOL    HW124932   3.310   2.850   5.735  1.2624 -1.6949  0.3918
 4433SOL    HW224933   3.248   2.796   5.852 -1.1689  1.7969 -0.0677
 4434SOL     OW24934   0.236   4.294   4.731  0.1253  0.0713  0.1109
 4434SOL    HW124935   0.193   4.291   4.646 -1.0789  1.5784  0.6835
 4434SOL    HW224936   0.218   4.205   4.761  2.4318 -0.2960  0.4156
 4435SOL     OW24937   4.147   4.687  13.225  0.2234  0.2720  0.3211
 4435SOL    HW124938   4.079   0.006  13.180  0.6882  1.8180  1.4046
 4435SOL    HW224939   4.225   4.714  13.178 -0.5299  2.0481  0.0802
 4436SOL     OW24940   0.605   0.940   5.947  0.0845 -0.6511  0.3722
 4436SOL    HW124941   0.634   0.864   5.897  0.9133 -0.0312 -0.0946
 4436SOL    HW224942   0.682   0.996   5.961 -0.5354  0.8209 -1.9849
 4437SOL     OW24943   4.561   3.409   5.206 -0.0307  0.2847 -0.0372
 4437SOL    HW124944   4.581   3.414   5.112  1.4046 -1.4833  0.1705
 4437SOL    HW224945   4.642   3.371   5.241 -1.6709 -0.8587  2.4843
 4438SOL     OW24946   4.682   1.220   8.842  0.1476 -0.0873 -0.3262
 4438SOL    HW124947   4.687   1.279   8.918  0.7548 -1.3047  0.5698
 4438SOL    HW224948   4.588   1.207   8.837  0.1348 -0.8886  1.9052
 4439SOL     OW24949   2.214   3.689   5.359 -0.2175  0.5081 -0.1706
 4439SOL    HW124950   2.276   3.686   5.432  0.1356 -0.8151 -0.5401
 4439SOL    HW224951   2.239   3.773   5.321 -2.3773  2.7823  3.4001
 4440SOL     OW24952   1.530   1.273   9.124  0.0166 -0.2366 -0.3536
 4440SOL    HW124953   1.589   1.237   9.058 -0.1890 -1.4110  0.1059
 4440SOL    HW224954   1.459   1.210   9.132  1.4848 -1.6435  1.7574
 4441SOL     OW24955   2.125   1.394   3.107 -0.4005  0.0798  0.1558
 4441SOL    HW124956   2.107   1.393   3.013  2.7465  1.8595 -0.4657
 4441SOL    HW224957   2.085   1.311   3.134  0.0771  0.2938  1.4927
 4442SOL     OW24958   4.042   2.148   3.479 -0.1179  0.3003 -0.0846
 4442SOL    HW124959   3.961   2.125   3.433  0.6822 -2.6516 -0.0465
 4442SOL    HW224960   4.084   2.062   3.482  0.2138  0.4613 -0.1026
 4443SOL     OW24961   4.201   3.328   8.876 -0.0686  1.0060 -0.2944
 4443SOL    HW124962   4.114   3.293   8.892  0.2510 -0.8210 -2.4371
 4443SOL    HW224963   4.207   3.344   8.782 -0.2865  1.8025 -0.1747
 4444SOL     OW24964   1.111   2.213   6.365 -0.0412 -0.3372 -0.2854
 4444SOL    HW124965   1.097   2.217   6.270  0.8052  0.7357 -0.3569
 4444SOL    HW224966   1.159   2.293   6.382  1.2219 -1.0180 -0.6096
 4445SOL     OW24967   0.099   3.295   4.817  0.0001 -1.0983 -0.2860
 4445SOL    HW124968   0.025   3.296   4.756 -1.1382 -0.1110  1.1440
 4445SOL    HW224969   0.111   3.201   4.799  0.2887 -0.6974 -2.1977
 4446SOL     OW24970   2.158   4.638   4.295 -0.4202  0.0831  0.3355
 4446SOL    HW124971   2.117   4.714   4.253 -1.4478  0.7529  2.5252
 4446SOL    HW224972   2.133   4.654   4.386  2.0067 -0.9476  1.1659
 4447SOL     OW24973   2.406   4.474   6.797 -0.0733  0.0242  0.3613
 4447SOL    HW124974   2.387   4.563   6.825  1.3844  1.1451 -2.2209
 4447SOL    HW224975   2.431   4.435   6.880  0.7693  1.3500  0.7208
 4448SOL     OW24976   0.187   0.964  11.197  0.0795 -0.6458  0.1904
 4448SOL    HW124977   0.111   0.969  11.256  1.3829  1.3288  1.7118
 4448SOL    HW224978   0.225   0.891  11.246 -1.3542 -2.6384 -1.6753
 4449SOL     OW24979   1.718   0.860  11.778 -0.1482 -0.0134  0.2378
 4449SOL    HW124980   1.726   0.806  11.857 -0.1320  2.9077  2.2430
 4449SOL    HW224981   1.806   0.859  11.742 -0.1669 -1.8474  0.2660
 4450SOL     OW24982   2.755   0.606   5.381  0.4385  0.0339 -0.1659
 4450SOL    HW124983   2.762   0.512   5.395 -5.3750 -0.1449  1.5793
 4450SOL    HW224984   2.659   0.614   5.379  0.4128  0.1637  1.3122
 4451SOL     OW24985   2.591   3.617   7.850 -0.5319 -0.2103  0.0361
 4451SOL    HW124986   2.657   3.676   7.814 -1.1989  0.5503  0.0467
 4451SOL    HW224987   2.572   3.558   7.777  0.8268 -0.5576 -0.0242
 4452SOL     OW24988   1.682   1.693   3.166  0.4205  0.1274  0.0391
 4452SOL    HW124989   1.661   1.778   3.204 -0.8402 -0.4115  0.5443
 4452SOL    HW224990   1.767   1.689   3.123  0.1938  0.0609 -0.3990
 4453SOL     OW24991   3.940   1.448   4.313 -0.6070 -0.4447  0.1607
 4453SOL    HW124992   3.950   1.361   4.352  1.8037  0.2799  1.1609
 4453SOL    HW224993   3.883   1.432   4.238 -1.9278 -0.8797  1.2624
 4454SOL     OW24994   1.042   1.198   2.866  0.3022  0.1719  0.3622
 4454SOL    HW124995   1.087   1.225   2.946 -1.4165  1.2017  0.9786
 4454SOL    HW224996   0.960   1.247   2.867  1.5616  2.2665  3.1123
 4455SOL     OW24997   3.402   2.701   2.420 -0.3137 -0.1097  0.1145
 4455SOL    HW124998   3.328   2.655   2.458 -0.5863  0.3596  0.1544
 4455SOL    HW224999   3.476   2.657   2.462  0.8791  1.8604  0.1233
 4456SOL     OW25000   1.025   3.841  15.800 -0.2387  1.1171  0.0083
 4456SOL    HW125001   1.094   3.888  15.753 -1.7806  0.9631 -2.4306
 4456SOL    HW225002   1.026   3.755  15.757  2.2879  0.6144  1.1140
 4457SOL     OW25003   0.589   2.923  10.824 -0.2864  0.2087  0.2344
 4457SOL    HW125004   0.640   2.851  10.862  1.9491  1.7041  0.0759
 4457SOL    HW225005   0.585   2.886  10.736  2.6508  0.3638  0.0361
 4458SOL     OW25006   1.497   3.195   3.770  0.0059  0.3910 -0.4870
 4458SOL    HW125007   1.571   3.207   3.830 -0.5189  0.2134  0.1950
 4458SOL    HW225008   1.459   3.115   3.807  0.5066  0.4455  0.1537
 4459SOL     OW25009   3.939   2.785   5.088  0.0517  0.4257 -0.0051
 4459SOL    HW125010   3.909   2.795   5.178 -2.6003  0.2464 -0.8706
 4459SOL    HW225011   3.902   2.699   5.068  0.0001 -0.3257  3.3299
 4460SOL     OW25012   1.336   3.020   7.190 -0.7426  0.0057 -0.0005
 4460SOL    HW125013   1.265   3.007   7.127 -1.3277 -1.1642  0.9032
 4460SOL    HW225014   1.283   3.049   7.264 -0.2342 -3.1498  1.6012
 4461SOL     OW25015   1.553   0.707   6.975 -0.7829  0.3308  0.4908
 4461SOL    HW125016   1.528   0.800   6.976 -0.3038  0.4616  0.2183
 4461SOL    HW225017   1.517   0.682   6.890 -0.9551  0.4750  0.5194
 4462SOL     OW25018   0.371   1.619   4.692  0.5706  0.0507 -0.6395
 4462SOL    HW125019   0.414   1.567   4.759 -0.0705 -0.7186 -0.8141
 4462SOL    HW225020   0.281   1.625   4.726  0.7175 -1.5900  0.0164
 4463SOL     OW25021   1.801   0.324  16.851  0.2684 -0.1090 -0.3586
 4463SOL    HW125022   1.877   0.270  16.828  0.3158 -0.1912 -0.0105
 4463SOL    HW225023   1.807   0.398  16.792 -1.3722  1.2156  1.1364
 4464SOL     OW25024   4.167   4.385   6.955 -0.5653  0.3739 -0.8233
 4464SOL    HW125025   4.088   4.336   6.930  0.3943 -1.3689 -0.4357
 4464SOL    HW225026   4.229   4.322   6.992 -2.0340 -0.6600 -0.1332
 4465SOL     OW25027   3.811   1.043   1.772 -0.6080  0.0484 -0.5688
 4465SOL    HW125028   3.895   1.056   1.728  0.4501 -1.9000  0.8881
 4465SOL    HW225029   3.843   0.997   1.850  1.9771  0.0561 -1.6106
 4466SOL     OW25030   2.973   3.047   7.998  0.0937 -0.2142  0.3668
 4466SOL    HW125031   2.966   3.087   7.911 -0.2585 -1.5582 -0.2265
 4466SOL    HW225032   3.002   2.958   7.975  1.7418 -0.2869  2.8001
 4467SOL     OW25033   4.137   3.902   8.669  0.5967 -0.1981  0.4109
 4467SOL    HW125034   4.164   3.978   8.619 -0.4462 -1.4405 -2.0545
 4467SOL    HW225035   4.072   3.949   8.721  0.5480 -1.4976  1.5374
 4468SOL     OW25036   3.087   1.744   4.724 -0.2487 -0.1158 -0.0335
 4468SOL    HW125037   3.019   1.677   4.716 -0.4346  0.1160 -0.4393
 4468SOL    HW225038   3.165   1.688   4.723 -0.8450 -0.9584  2.5265
 4469SOL     OW25039   3.630   0.057   6.608 -0.2057 -0.4807 -0.0878
 4469SOL    HW125040   3.669   4.711   6.569  1.4786  0.5184 -0.4340
 4469SOL    HW225041   3.700   0.098   6.660 -1.0729  0.7665  0.0724
 4470SOL     OW25042   1.570   1.715   6.959 -0.3447 -0.3279 -0.2003
 4470SOL    HW125043   1.653   1.675   6.934  0.5320  1.8599 -0.7830
 4470SOL    HW225044   1.516   1.712   6.880 -1.0016  1.3743  0.1855
 4471SOL     OW25045   3.988   0.299   7.409  0.0161 -0.3174 -0.2649
 4471SOL    HW125046   3.902   0.336   7.390 -0.1301 -1.4056 -1.6760
 4471SOL    HW225047   3.994   0.286   7.504 -2.4675  0.7808  0.0427
 4472SOL     OW25048   1.956   3.250  15.668  0.1063 -0.0053 -0.2709
 4472SOL    HW125049   2.016   3.261  15.594 -0.0812  0.7685 -0.3169
 4472SOL    HW225050   1.996   3.310  15.731  1.1336 -1.3148  0.3098
 4473SOL     OW25051   2.872   0.219   5.061 -0.5835  0.3103  0.5355
 4473SOL    HW125052   2.883   0.127   5.034  2.2036  0.8170  0.0206
 4473SOL    HW225053   2.789   0.232   5.015 -0.1467  2.1654  0.2997
 4474SOL     OW25054   1.039   2.293  14.982  0.0522 -0.6058 -0.4664
 4474SOL    HW125055   1.075   2.349  15.051  1.4550 -4.4864  1.9633
 4474SOL    HW225056   0.943   2.297  14.986 -0.0957 -3.0445 -0.9955
 4475SOL     OW25057   3.999   2.841   3.949  0.6188 -0.0463 -0.0038
 4475SOL    HW125058   3.939   2.779   3.990  3.1188 -2.0615  0.5781
 4475SOL    HW225059   4.081   2.818   3.993 -0.5402 -1.8315  1.2166
 4476SOL     OW25060   0.253   1.637   5.352 -0.3045  0.3504  0.5139
 4476SOL    HW125061   0.187   1.569   5.334  0.6089 -0.4473  0.2098
 4476SOL    HW225062   0.288   1.585   5.425 -0.0961  0.9290  0.8244
 4477SOL     OW25063   3.687   0.286   2.898  0.1343  0.8811 -0.7811
 4477SOL    HW125064   3.640   0.241   2.827 -0.2015  1.2772 -0.8131
 4477SOL    HW225065   3.759   0.335   2.858  0.2110  2.1357  0.8852
 4478SOL     OW25066   2.236   3.395   7.129  0.1650  0.0485  0.3085
 4478SOL    HW125067   2.183   3.471   7.153 -1.9183 -0.8198 -1.5133
 4478SOL    HW225068   2.239   3.337   7.205 -0.0816 -0.8040 -0.3266
 4479SOL     OW25069   4.624   4.252   7.249 -0.8045 -0.3394  0.0692
 4479SOL    HW125070   4.632   4.216   7.338 -0.6449  0.3952  0.3556
 4479SOL    HW225071   4.712   4.288   7.235 -0.7547  0.3094  2.0598
 4480SOL     OW25072   3.623   2.770   4.590 -0.2116 -0.3496 -0.8273
 4480SOL    HW125073   3.624   2.817   4.673  0.7933 -2.0407  0.1128
 4480SOL    HW225074   3.569   2.695   4.615 -1.4101  0.7586 -0.0926
 4481SOL     OW25075   0.428   3.632  14.528  0.3606  0.4646 -0.7419
 4481SOL    HW125076   0.461   3.649  14.440 -0.6660 -0.4348 -1.3002
 4481SOL    HW225077   0.341   3.672  14.520  0.2162  0.1594 -0.7132
 4482SOL     OW25078   1.811   2.012   4.841  0.0551  0.4944  0.2573
 4482SOL    HW125079   1.819   2.048   4.929 -0.8266 -0.2701  0.6527
 4482SOL    HW225080   1.883   1.950   4.829  0.9169  1.2936  1.2625
 4483SOL     OW25081   3.330   3.135  16.519  0.2272 -0.3253 -0.1202
 4483SOL    HW125082   3.393   3.196  16.558  0.0807  0.3618 -0.9621
 4483SOL    HW225083   3.339   3.050  16.561  4.7629  1.0308  1.6782
 4484SOL     OW25084   1.319   3.572   6.783 -0.1006 -0.4687  0.3225
 4484SOL    HW125085   1.335   3.602   6.694 -0.6309 -0.2628  0.2938
 4484SOL    HW225086   1.406   3.541   6.807  0.0088  0.2288  0.8554
 4485SOL     OW25087   0.980   0.350   1.121  0.1679  0.0684  0.1808
 4485SOL    HW125088   0.935   0.423   1.164  1.7917  0.7111  0.7726
 4485SOL    HW225089   1.051   0.341   1.185 -1.6620 -2.5481  1.8661
 4486SOL     OW25090   0.118   3.420   9.861  0.4508  0.1493 -0.3045
 4486SOL    HW125091   0.152   3.459   9.942  1.7882 -3.1626  0.7323
 4486SOL    HW225092   0.173   3.342   9.856 -1.9459 -1.7082  2.2459
 4487SOL     OW25093   1.520   2.339   5.804 -0.4018 -0.3131 -0.0439
 4487SOL    HW125094   1.554   2.269   5.748  0.1392  1.2228 -1.6380
 4487SOL    HW225095   1.600   2.358   5.852 -0.9682  0.6895  0.4996
 4488SOL     OW25096   4.103   2.663   5.773  0.6982  0.2610  0.5406
 4488SOL    HW125097   4.176   2.693   5.719  0.1787  0.0826 -0.2664
 4488SOL    HW225098   4.082   2.580   5.730  0.5461  1.7494 -2.2653
 4489SOL     OW25099   2.274   3.540  10.641  0.0412  0.3113 -0.0696
 4489SOL    HW125100   2.196   3.487  10.632  1.1116 -1.1742 -0.5315
 4489SOL    HW225101   2.323   3.489  10.706 -0.4820  1.5116  1.2869
 4490SOL     OW25102   1.199   0.608   1.848 -0.4054 -0.0751  0.4270
 4490SOL    HW125103   1.196   0.698   1.880 -0.1278  0.6448 -1.5957
 4490SOL    HW225104   1.113   0.569   1.865 -0.7144 -0.6342 -2.3927
 4491SOL     OW25105   2.374   1.264   5.871  0.1906 -0.3453 -0.2118
 4491SOL    HW125106   2.410   1.218   5.795 -0.1481  1.0840 -1.2265
 4491SOL    HW225107   2.314   1.193   5.896 -2.3223  0.9993 -2.4216
 4492SOL     OW25108   4.274   1.462   9.742 -0.0658 -0.1379  0.4590
 4492SOL    HW125109   4.340   1.418   9.687 -2.6993 -1.2037 -1.8622
 4492SOL    HW225110   4.189   1.432   9.712 -0.3340 -1.5622  2.5929
 4493SOL     OW25111   1.228   2.243   7.348  0.3322 -0.4430  0.4095
 4493SOL    HW125112   1.216   2.197   7.431 -1.1478  2.3147  1.7030
 4493SOL    HW225113   1.262   2.187   7.278  1.1555 -0.1631  0.5849
 4494SOL     OW25114   2.381   2.271   9.185  0.1578  0.2021  0.1514
 4494SOL    HW125115   2.310   2.334   9.179  1.4242  1.5888 -0.2640
 4494SOL    HW225116   2.397   2.266   9.279 -1.5706  2.4374  0.5682
 4495SOL     OW25117   4.433   1.145  16.341  0.4190  0.0859  0.3022
 4495SOL    HW125118   4.358   1.091  16.366  0.5436  0.6789  1.9594
 4495SOL    HW225119   4.501   1.117  16.402 -0.3687  1.0710  1.6347
 4496SOL     OW25120   0.371   2.844  13.414  0.4564 -0.0013 -0.4658
 4496SOL    HW125121   0.427   2.842  13.336 -1.3731 -3.0259 -1.6831
 4496SOL    HW225122   0.394   2.761  13.456  0.3251  1.3419  2.2285
 4497SOL     OW25123   2.590   3.209   5.737  0.6034 -0.0113 -0.0049
 4497SOL    HW125124   2.655   3.262   5.691 -0.0702 -1.4915 -2.6368
 4497SOL    HW225125   2.647   3.169   5.803 -0.8519 -1.3108  0.4651
 4498SOL     OW25126   4.728   0.625  17.125  0.6812 -0.2761  0.0361
 4498SOL    HW125127   0.035   0.562  17.185  2.6144 -0.8518 -1.8290
 4498SOL    HW225128   4.667   0.664  17.187  1.5497  0.9131  0.1371
 4499SOL     OW25129   3.612   2.745  17.509  0.1428 -0.3340 -0.4789
 4499SOL    HW125130   3.616   2.738  17.604 -0.1232  1.3486 -0.3428
 4499SOL    HW225131   3.686   2.805  17.498  1.8510 -2.8548 -2.8570
 4500SOL     OW25132   1.776   4.718   7.380 -0.2954  0.3304 -0.0965
 4500SOL    HW125133   1.809   4.699   7.468 -0.4286  0.1605 -0.0840
 4500SOL    HW225134   1.763   4.630   7.346 -0.3133  0.1096  0.4800
 4501SOL     OW25135   0.943   0.279   1.713 -0.0175  0.0452 -0.5104
 4501SOL    HW125136   0.946   0.317   1.800 -2.2444  1.7825 -1.1943
 4501SOL    HW225137   0.970   0.355   1.661  1.4488 -2.5211 -3.5662
 4502SOL     OW25138   1.951   2.250   4.690  0.4209 -0.2947  0.3873
 4502SOL    HW125139   1.963   2.158   4.715 -1.9502 -0.3612  1.2488
 4502SOL    HW225140   1.927   2.277   4.779 -0.2948 -2.3790  0.8472
 4503SOL     OW25141   0.537   1.515   5.012 -0.2752  0.0671 -0.0505
 4503SOL    HW125142   0.543   1.605   5.044  2.7361  0.0709 -0.5920
 4503SOL    HW225143   0.458   1.477   5.050  1.0325 -1.8465  0.7717
 4504SOL     OW25144   1.489   2.161   4.485  0.7013 -0.3320 -0.4246
 4504SOL    HW125145   1.547   2.176   4.410  0.2468  0.9001 -0.5397
 4504SOL    HW225146   1.505   2.068   4.496 -0.9838 -0.4007  1.4389
 4505SOL     OW25147   3.197   4.212  16.124  0.5341  0.2489 -0.3171
 4505SOL    HW125148   3.150   4.283  16.168 -0.5009 -0.1930 -0.7227
 4505SOL    HW225149   3.271   4.195  16.183 -0.2491 -2.1924 -0.0650
 4506SOL     OW25150   1.641   3.957   0.623 -0.0144  0.6135 -1.0473
 4506SOL    HW125151   1.700   3.891   0.659  0.4433  0.9530 -1.1745
 4506SOL    HW225152   1.694   3.980   0.546  0.8555 -1.3455 -1.0361
 4507SOL     OW25153   3.942   1.871   3.196  0.2236 -0.4046  0.2174
 4507SOL    HW125154   4.010   1.885   3.129 -0.6296  0.2083 -0.5243
 4507SOL    HW225155   3.887   1.947   3.177  0.8124 -0.0563 -0.1066
 4508SOL     OW25156   0.822   2.441   6.410 -0.4615 -0.4376 -0.1613
 4508SOL    HW125157   0.880   2.458   6.485  1.9659  0.4394 -2.2552
 4508SOL    HW225158   0.741   2.436   6.460 -0.0325 -1.5569  0.4306
 4509SOL     OW25159   3.477   1.968   7.308 -0.0440  0.3456 -0.3948
 4509SOL    HW125160   3.454   1.939   7.219  1.1848  0.8355 -0.8795
 4509SOL    HW225161   3.451   2.060   7.305  0.6951  0.5378 -0.9745
 4510SOL     OW25162   1.738   3.450   3.861  0.1179  0.3481 -0.1029
 4510SOL    HW125163   1.759   3.358   3.850 -2.1892 -0.2133  0.2158
 4510SOL    HW225164   1.824   3.485   3.836 -0.1006  2.2575  1.8337
 4511SOL     OW25165   1.124   3.155  16.901  0.0953 -0.1052 -0.4253
 4511SOL    HW125166   1.050   3.154  16.839 -1.4561  1.1119  1.3998
 4511SOL    HW225167   1.117   3.238  16.948 -1.1787  0.1784 -1.1205
 4512SOL     OW25168   2.954   0.341   1.931 -0.5993 -0.1635 -0.2719
 4512SOL    HW125169   2.879   0.320   1.986 -1.3072 -2.2656 -2.0592
 4512SOL    HW225170   3.007   0.260   1.932 -0.6203 -0.1898 -2.3763
 4513SOL     OW25171   4.292   1.195   2.286 -0.3184  0.3358  0.2171
 4513SOL    HW125172   4.259   1.241   2.209 -0.1966  0.8174  0.4545
 4513SOL    HW225173   4.324   1.114   2.247 -1.7698 -0.7659  1.3366
 4514SOL     OW25174   4.317   2.429   2.494 -0.2893  0.0478 -0.1717
 4514SOL    HW125175   4.374   2.384   2.433  1.2948  1.8388  0.0039
 4514SOL    HW225176   4.316   2.369   2.569  2.2672 -0.4892 -0.5714
 4515SOL     OW25177   3.729   2.719   3.815  0.8539 -0.1606 -0.3437
 4515SOL    HW125178   3.749   2.625   3.807  0.7952 -0.1644 -0.4585
 4515SOL    HW225179   3.708   2.727   3.908  0.6797  2.6073 -0.6210
 4516SOL     OW25180   2.864   2.043   2.324  0.1252  0.3510 -0.3890
 4516SOL    HW125181   2.866   2.139   2.320 -0.0923  0.3518 -0.4795
 4516SOL    HW225182   2.923   2.026   2.251 -0.0781  2.8859 -1.1589
 4517SOL     OW25183   4.546   4.324   1.213 -0.1967  0.6944  0.1993
 4517SOL    HW125184   4.610   4.289   1.150 -1.1241  0.1729 -0.4432
 4517SOL    HW225185   4.584   4.407   1.241  3.2062 -0.9623  0.5953
 4518SOL     OW25186   1.698   3.697   9.429  0.4763 -0.2174  0.2052
 4518SOL    HW125187   1.614   3.673   9.468 -0.1905 -0.7708 -1.5450
 4518SOL    HW225188   1.760   3.630   9.459  0.2257 -1.3257 -1.7156
 4519SOL     OW25189   4.225   4.079   1.926  0.3261 -0.1020  0.0148
 4519SOL    HW125190   4.178   4.082   1.843 -1.0174 -0.2086  0.7689
 4519SOL    HW225191   4.154   4.040   1.977  0.5542 -1.0001 -0.3447
 4520SOL     OW25192   0.401   0.777  11.983 -0.2745  0.3510  0.0978
 4520SOL    HW125193   0.310   0.762  12.008  0.0072  0.5070  1.1901
 4520SOL    HW225194   0.443   0.803  12.065  0.5579  1.0039 -0.5384
 4521SOL     OW25195   3.741   2.985   8.596 -0.6732 -0.0768 -0.8300
 4521SOL    HW125196   3.775   3.049   8.533  0.8803 -0.1338 -0.0331
 4521SOL    HW225197   3.655   2.970   8.557 -0.0875 -1.3479 -1.6011
 4522SOL     OW25198   0.592   0.165   3.615  0.3163  0.5981 -0.0665
 4522SOL    HW125199   0.573   0.258   3.599 -2.6479  0.0850  0.5538
 4522SOL    HW225200   0.565   0.156   3.706 -1.4808 -1.7026 -0.8209
 4523SOL     OW25201   4.141   1.605   4.705  0.0624  0.2307 -0.5931
 4523SOL    HW125202   4.205   1.641   4.766 -0.1185 -1.2448  0.4698
 4523SOL    HW225203   4.086   1.546   4.756 -2.3240  1.1178 -2.1245
 4524SOL     OW25204   4.028   4.659   2.358  0.1129  0.1688 -0.3504
 4524SOL    HW125205   4.068   0.013   2.351  2.3547 -0.7119  1.5123
 4524SOL    HW225206   4.098   4.601   2.388 -1.5666 -0.6816  1.9271
 4525SOL     OW25207   3.193   1.669   3.982  0.0553  0.2794  0.3416
 4525SOL    HW125208   3.099   1.663   3.996 -0.3602  0.9898 -2.1030
 4525SOL    HW225209   3.206   1.645   3.890  1.7300 -0.1548  0.6867
 4526SOL     OW25210   0.768   3.423   2.621  0.4486  0.1933 -0.2077
 4526SOL    HW125211   0.752   3.517   2.612 -1.3765 -0.0324  0.6184
 4526SOL    HW225212   0.859   3.425   2.649  0.2808  0.1146  0.3563
 4527SOL     OW25213   4.078   2.871  15.604  0.1325  0.3593  0.2476
 4527SOL    HW125214   4.120   2.793  15.566 -0.7341 -0.1728  0.3727
 4527SOL    HW225215   4.131   2.878  15.683  0.0326  0.5056  0.3011
 4528SOL     OW25216   2.346   1.895  16.888  0.2089 -0.1928  0.2005
 4528SOL    HW125217   2.403   1.832  16.932 -0.0384  0.4377  1.4458
 4528SOL    HW225218   2.323   1.952  16.961 -1.6634  2.1817 -2.2568
 4529SOL     OW25219   0.975   2.909   4.555  0.5783  0.0018  0.3353
 4529SOL    HW125220   1.016   2.920   4.641  0.9501  1.1806  0.0130
 4529SOL    HW225221   0.969   3.000   4.525  1.7171 -0.0906 -0.1599
 4530SOL     OW25222   4.292   0.270  10.547 -0.1174  0.1419 -0.2359
 4530SOL    HW125223   4.255   0.266  10.459 -1.6084  2.6975  0.2505
 4530SOL    HW225224   4.271   0.357  10.581  1.1268 -0.2965  1.6587
 4531SOL     OW25225   0.218   2.164   6.446 -0.0641 -0.0916 -0.1714
 4531SOL    HW125226   0.210   2.129   6.357  2.2629  0.9848 -0.8245
 4531SOL    HW225227   0.226   2.087   6.502 -1.2581  0.1164  0.2719
 4532SOL     OW25228   4.241   0.673  13.761  0.6041 -0.8240 -0.0091
 4532SOL    HW125229   4.193   0.753  13.782 -0.2451 -1.6949  1.3538
 4532SOL    HW225230   4.268   0.642  13.847 -2.2139 -0.4013  0.9988
 4533SOL     OW25231   1.358   1.356  10.885  0.2024 -0.4994 -0.2590
 4533SOL    HW125232   1.340   1.450  10.873 -1.5961 -0.5006  2.4390
 4533SOL    HW225233   1.274   1.313  10.897  0.7663 -1.3672  0.6344
 4534SOL     OW25234   2.118   1.312  16.250 -0.1978 -0.3621 -0.1683
 4534SOL    HW125235   2.173   1.260  16.191  1.2770  0.7741  0.2097
 4534SOL    HW225236   2.030   1.302  16.215 -0.6700 -1.8253  1.4432
 4535SOL     OW25237   4.119   3.670   2.527 -0.3566  0.1042 -0.0526
 4535SOL    HW125238   4.141   3.577   2.517  0.2796  0.1232  1.1621
 4535SOL    HW225239   4.024   3.670   2.518 -0.3622  0.8724  0.0061
 4536SOL     OW25240   3.944   2.340   7.639  0.1435  0.3360  0.3060
 4536SOL    HW125241   3.979   2.429   7.627 -0.3299  0.5747  0.6877
 4536SOL    HW225242   3.855   2.364   7.664 -0.9918 -2.8895 -0.6390
 4537SOL     OW25243   4.625   2.386   3.644  0.1556 -0.2827  0.3876
 4537SOL    HW125244   4.588   2.300   3.661  0.8586 -0.9326 -1.3292
 4537SOL    HW225245   4.654   2.383   3.553 -0.5970  1.3993  0.0993
 4538SOL     OW25246   2.233   2.648   6.487 -0.2072 -0.3390 -0.2477
 4538SOL    HW125247   2.209   2.703   6.562 -0.3059 -0.0479 -0.4970
 4538SOL    HW225248   2.210   2.563   6.525  1.1571 -0.2220  0.8729
 4539SOL     OW25249   2.822   1.645   6.676 -0.5813  0.1707  0.6459
 4539SOL    HW125250   2.777   1.590   6.613  2.0540 -0.3053 -0.8427
 4539SOL    HW225251   2.809   1.609   6.764  2.1044  0.4055  1.1462
 4540SOL     OW25252   3.354   1.508   2.314 -0.0632  0.2587  0.0534
 4540SOL    HW125253   3.323   1.444   2.249  0.9173 -0.8651  0.7113
 4540SOL    HW225254   3.426   1.546   2.263  0.3529 -3.4526 -2.0942
 4541SOL     OW25255   4.448   0.075   4.987  0.0773 -0.6422 -0.1145
 4541SOL    HW125256   4.494   0.153   5.019 -0.0767 -1.4991  2.1864
 4541SOL    HW225257   4.393   0.112   4.918  0.3747 -1.4947 -0.8046
 4542SOL     OW25258   1.651   3.304   5.189  0.0576 -0.0477  0.2857
 4542SOL    HW125259   1.635   3.280   5.280  0.1233  1.8180  0.7808
 4542SOL    HW225260   1.744   3.322   5.200  0.0720 -0.6410  1.1357
 4543SOL     OW25261   3.240   2.524  13.257 -0.2812  0.0207 -0.6110
 4543SOL    HW125262   3.304   2.460  13.226 -1.5506 -2.2840  1.5468
 4543SOL    HW225263   3.220   2.571  13.176 -2.7838  1.5061  0.8716
 4544SOL     OW25264   1.130   3.038  11.996 -0.3470 -0.1689 -0.3848
 4544SOL    HW125265   1.057   3.062  12.053 -0.4676 -1.5946  0.0562
 4544SOL    HW225266   1.201   3.055  12.059 -0.3851  3.5641 -1.3405
 4545SOL     OW25267   2.308   4.158   5.455  0.0363 -0.6524  0.2055
 4545SOL    HW125268   2.399   4.162   5.486  0.2186  0.8267 -0.5487
 4545SOL    HW225269   2.324   4.128   5.366 -0.7495 -0.3036 -0.0432
 4546SOL     OW25270   1.817   2.550   7.303 -0.4718  0.4213 -0.3135
 4546SOL    HW125271   1.722   2.557   7.319  0.0336  1.3710  2.2577
 4546SOL    HW225272   1.831   2.502   7.221  0.1004  1.0381 -0.5696
 4547SOL     OW25273   3.556   4.430   5.097 -0.1385 -0.0130 -0.5667
 4547SOL    HW125274   3.589   4.479   5.172  0.2452 -1.1005 -0.0288
 4547SOL    HW225275   3.581   4.338   5.111 -0.2242  0.0156 -0.2294
 4548SOL     OW25276   3.194   1.570   6.188  0.3736 -0.5786 -0.1958
 4548SOL    HW125277   3.172   1.482   6.156 -1.5624 -0.2960  0.3831
 4548SOL    HW225278   3.162   1.620   6.113  1.8467 -0.2279 -0.5917
 4549SOL     OW25279   3.266   3.550  13.318  0.2882  0.2582 -0.2450
 4549SOL    HW125280   3.243   3.514  13.403 -0.1019  0.2252 -0.3611
 4549SOL    HW225281   3.281   3.643  13.334 -1.5123  0.6650 -0.8564
 4550SOL     OW25282   2.302   3.486   7.921 -0.2757  0.0734  0.5106
 4550SOL    HW125283   2.306   3.442   8.006 -0.0818 -2.3912 -0.7639
 4550SOL    HW225284   2.221   3.536   7.927 -1.3716 -1.5525 -0.5093
 4551SOL     OW25285   3.460   3.152  12.981  0.0538 -0.0478 -0.0615
 4551SOL    HW125286   3.546   3.154  13.023  1.5177  2.0096 -3.0928
 4551SOL    HW225287   3.405   3.217  13.026 -1.5045 -0.5849 -1.2006
 4552SOL     OW25288   4.091   1.429   2.666 -0.2466 -0.3426  0.4222
 4552SOL    HW125289   4.166   1.437   2.726  0.8169  1.4495 -1.1561
 4552SOL    HW225290   4.119   1.352   2.616  0.7394  1.0756 -1.1766
 4553SOL     OW25291   4.707   2.530   7.644 -0.2142  0.2484 -0.0669
 4553SOL    HW125292   0.040   2.462   7.627 -0.4046  0.0362  0.0690
 4553SOL    HW225293   4.705   2.536   7.739  1.2334  0.9033 -0.0776
 4554SOL     OW25294   2.956   0.930   3.588 -0.5373 -0.1185 -0.3933
 4554SOL    HW125295   2.896   0.981   3.533  2.7391  1.2322 -2.7533
 4554SOL    HW225296   2.904   0.909   3.665  0.3060 -0.7687  0.0015
 4555SOL     OW25297   1.030   0.830   8.327  0.1053 -0.1407 -0.1402
 4555SOL    HW125298   1.087   0.849   8.253 -0.5461 -3.0028 -1.3740
 4555SOL    HW225299   1.097   0.809   8.393 -0.8557  0.7002  1.0865
 4556SOL     OW25300   0.859   3.529   2.182 -0.0082  0.1285 -0.4143
 4556SOL    HW125301   0.927   3.540   2.249 -0.1906 -0.4411 -0.1403
 4556SOL    HW225302   0.832   3.621   2.173  1.1082  0.7520  2.3821
 4557SOL     OW25303   4.525   2.963   4.696  0.1861  0.9767  0.3732
 4557SOL    HW125304   4.495   2.872   4.688  0.0069  1.1247 -0.7414
 4557SOL    HW225305   4.598   2.947   4.635  0.2306 -0.0015  0.6776
 4558SOL     OW25306   0.461   1.949   3.645 -0.0307  0.1026 -0.3698
 4558SOL    HW125307   0.527   2.017   3.661  1.6668 -1.4221 -0.8276
 4558SOL    HW225308   0.389   1.997   3.607 -0.9044 -0.7878  0.1546
 4559SOL     OW25309   0.064   3.485   4.496 -0.2415  0.3934 -0.1322
 4559SOL    HW125310   0.033   3.424   4.563 -0.2949 -1.3921 -1.7878
 4559SOL    HW225311   0.107   3.555   4.546  1.2675 -0.8466  0.3041
 4560SOL     OW25312   1.000   1.701  11.182 -0.1087  0.2546 -0.5385
 4560SOL    HW125313   1.054   1.737  11.253  0.4731  0.3246 -1.0128
 4560SOL    HW225314   1.062   1.666  11.118 -0.9960 -0.4198 -1.0232
 4561SOL     OW25315   1.750   0.856   8.137 -0.8626  0.0186  0.0239
 4561SOL    HW125316   1.753   0.801   8.215 -2.2454 -2.4236 -1.6680
 4561SOL    HW225317   1.720   0.940   8.174 -0.6906  0.2687 -0.4001
 4562SOL     OW25318   2.077   3.287   6.915 -0.7142 -0.2522 -0.5752
 4562SOL    HW125319   2.127   3.328   6.986  2.1757 -0.0130 -2.7827
 4562SOL    HW225320   2.071   3.199   6.953  1.3535 -0.0393  0.2082
 4563SOL     OW25321   1.714   0.665  13.001 -0.2482 -0.0648 -0.2587
 4563SOL    HW125322   1.678   0.690  13.086 -1.2045 -0.0401 -0.6776
 4563SOL    HW225323   1.676   0.578  12.989 -1.1400  0.3557 -0.4448
 4564SOL     OW25324   0.706   2.881   9.989  0.7980  0.3345 -0.6185
 4564SOL    HW125325   0.749   2.820  10.049 -1.4587  0.4941  1.1461
 4564SOL    HW225326   0.775   2.888   9.923  3.5163  2.6893  2.4852
 4565SOL     OW25327   4.050   0.656  13.557  0.3183 -0.2734 -0.1100
 4565SOL    HW125328   4.036   0.562  13.546 -4.2139  0.2387  1.2116
 4565SOL    HW225329   4.090   0.657  13.644 -0.9231  0.5993  0.4563
 4566SOL     OW25330   0.077   0.264   7.744 -0.0855 -0.7535 -0.4518
 4566SOL    HW125331   0.153   0.273   7.800 -0.5391 -1.5098  0.2796
 4566SOL    HW225332   0.001   0.250   7.801 -0.4774 -2.1593 -1.3229
 4567SOL     OW25333   1.787   0.433   7.387  0.0115 -0.4536 -0.4524
 4567SOL    HW125334   1.875   0.423   7.349 -0.0685 -0.0209 -0.7498
 4567SOL    HW225335   1.738   0.446   7.306  0.6117  1.2476 -0.5485
 4568SOL     OW25336   0.386   2.142   0.797  0.0659  0.2428  0.0172
 4568SOL    HW125337   0.390   2.050   0.824  0.2406 -0.0619 -1.0409
 4568SOL    HW225338   0.363   2.127   0.705  0.1867 -0.1275  0.0465
 4569SOL     OW25339   1.483   2.511  11.351 -0.2935 -0.1138 -0.1831
 4569SOL    HW125340   1.485   2.451  11.425  1.9979  0.5468  0.2845
 4569SOL    HW225341   1.413   2.571  11.380 -1.3557 -1.2128 -0.4877
 4570SOL     OW25342   0.278   0.905   7.406  0.0257  0.1575  0.4337
 4570SOL    HW125343   0.212   0.947   7.461  1.1870 -1.5149  3.0970
 4570SOL    HW225344   0.224   0.868   7.336  0.9807  0.6240 -0.5555
 4571SOL     OW25345   3.138   4.361   3.651  0.2322 -0.0774 -0.0836
 4571SOL    HW125346   3.083   4.413   3.592  0.7765  1.3143  0.6155
 4571SOL    HW225347   3.185   4.311   3.585  1.6977  0.5510  0.4876
 4572SOL     OW25348   0.663   4.168  11.352 -1.0344  0.2774  0.6410
 4572SOL    HW125349   0.616   4.102  11.402 -0.7771  0.4106  1.0512
 4572SOL    HW225350   0.615   4.189  11.272 -1.8779 -1.4002  0.7109
 4573SOL     OW25351   3.251   0.602   5.521  0.2392  0.0161  0.5640
 4573SOL    HW125352   3.158   0.606   5.497  0.3561 -0.6948 -0.0118
 4573SOL    HW225353   3.254   0.509   5.544  0.2261 -0.5314 -1.6900
 4574SOL     OW25354   1.881   1.857  11.249  0.2024  0.2318  1.1340
 4574SOL    HW125355   1.903   1.785  11.307 -0.5393  1.5873  3.1031
 4574SOL    HW225356   1.786   1.857  11.238  0.1258 -0.0382  1.8385
 4575SOL     OW25357   1.698   0.349   0.183  0.4656 -0.1970 -0.0311
 4575SOL    HW125358   1.636   0.422   0.192 -1.2660 -1.7061  0.2614
 4575SOL    HW225359   1.766   0.380   0.244  0.5663 -1.3424  0.4341
 4576SOL     OW25360   1.013   2.034   1.651 -0.1453  0.5755  0.5095
 4576SOL    HW125361   1.006   1.975   1.576  0.9907 -1.0249  1.6689
 4576SOL    HW225362   0.922   2.031   1.684 -0.0525 -0.6211  0.6808
 4577SOL     OW25363   0.507   1.184   8.845 -0.6060  0.1284 -0.3122
 4577SOL    HW125364   0.548   1.268   8.825 -0.8219  0.0393 -1.1369
 4577SOL    HW225365   0.457   1.218   8.919 -1.4499 -1.0107 -0.3545
 4578SOL     OW25366   1.324   2.446   7.731  0.5123  0.0856 -0.1166
 4578SOL    HW125367   1.344   2.501   7.807 -0.4580  1.6064 -0.9497
 4578SOL    HW225368   1.290   2.368   7.774 -0.9912  0.4001 -0.7316
 4579SOL     OW25369   1.998   3.051   2.806 -0.2932  0.0754  0.4267
 4579SOL    HW125370   2.020   2.958   2.801  1.2593  0.3988  1.3667
 4579SOL    HW225371   1.904   3.050   2.820 -0.3584  0.6700  0.0300
 4580SOL     OW25372   2.014   4.219   2.353  0.4093  0.2637 -0.3850
 4580SOL    HW125373   1.941   4.276   2.331  0.5775  0.5429 -0.2304
 4580SOL    HW225374   2.021   4.220   2.448 -0.3328  0.6380 -0.3383
 4581SOL     OW25375   3.502   3.995   8.915  0.2763  0.3452 -0.5281
 4581SOL    HW125376   3.550   4.051   8.976  0.6686  4.1366 -4.2863
 4581SOL    HW225377   3.558   3.918   8.907  0.2396  0.3081 -0.4212
 4582SOL     OW25378   1.979   0.710  12.973  0.6017  0.2808 -0.4094
 4582SOL    HW125379   1.892   0.685  13.005  0.2191 -0.7378 -2.2218
 4582SOL    HW225380   2.023   0.635  13.014 -0.0097 -0.4055 -0.9915
 4583SOL     OW25381   3.505   1.249  12.123  0.5116  0.7034  0.2149
 4583SOL    HW125382   3.491   1.266  12.217  2.1591 -0.7019  0.7134
 4583SOL    HW225383   3.543   1.333  12.098  0.1186  0.7273 -0.3099
 4584SOL     OW25384   0.921   2.418   7.686 -0.0701  0.1976 -0.0699
 4584SOL    HW125385   0.870   2.454   7.613  0.0098 -1.3489 -0.8839
 4584SOL    HW225386   0.925   2.324   7.668 -0.0976  0.2262 -0.2262
 4585SOL     OW25387   2.560   3.858   1.095 -0.1711  0.7872 -0.4829
 4585SOL    HW125388   2.618   3.820   1.029 -0.2560 -3.2332  1.7829
 4585SOL    HW225389   2.550   3.778   1.146 -0.5422 -0.1734 -2.0642
 4586SOL     OW25390   3.136   2.837   5.220 -0.6049  0.1196  0.0279
 4586SOL    HW125391   3.158   2.814   5.311  0.4691 -1.8662 -0.7382
 4586SOL    HW225392   3.044   2.810   5.217 -0.1755 -1.3461 -0.1431
 4587SOL     OW25393   3.451   3.021   2.800 -0.3184  0.0610 -0.2520
 4587SOL    HW125394   3.525   3.075   2.830 -0.0695  0.0278 -0.8019
 4587SOL    HW225395   3.376   3.077   2.821  0.5113  1.3583 -0.7059
 4588SOL     OW25396   2.477   2.897   9.292 -0.2063  0.1257 -0.3260
 4588SOL    HW125397   2.527   2.862   9.218  2.5113  1.1099  1.0202
 4588SOL    HW225398   2.386   2.897   9.262 -0.7197 -1.5962  1.2586
 4589SOL     OW25399   1.507   2.341   7.152 -0.6468  0.2471  0.0137
 4589SOL    HW125400   1.460   2.274   7.202  1.4416 -0.0071  1.6467
 4589SOL    HW225401   1.584   2.294   7.120  0.8484  1.6391  1.6221
 4590SOL     OW25402   3.384   4.053   4.905 -0.1015  1.0749 -0.3474
 4590SOL    HW125403   3.327   4.125   4.932 -0.3278 -0.1892  2.5157
 4590SOL    HW225404   3.445   4.101   4.848  1.4028 -0.8076 -0.3164
 4591SOL     OW25405   3.916   3.596   3.848 -0.0951  0.0519  0.5071
 4591SOL    HW125406   3.885   3.578   3.937 -0.0873 -0.1590  0.4671
 4591SOL    HW225407   3.966   3.677   3.860  1.3185 -0.4832 -1.6840
 4592SOL     OW25408   3.624   1.914  11.824 -0.1123 -0.5650 -0.2547
 4592SOL    HW125409   3.546   1.941  11.776 -0.9092 -1.1897  0.6863
 4592SOL    HW225410   3.686   1.926  11.752  1.7095 -0.6519  1.3146
 4593SOL     OW25411   2.129   0.723   6.057 -0.1622  0.3376 -0.0841
 4593SOL    HW125412   2.182   0.802   6.069 -0.4930  0.5325  0.0758
 4593SOL    HW225413   2.168   0.692   5.975 -1.3532  1.1356 -0.9382
 4594SOL     OW25414   1.153   1.228  16.435  0.2616 -0.1706  0.0091
 4594SOL    HW125415   1.228   1.212  16.377 -1.1513 -0.2057 -1.8179
 4594SOL    HW225416   1.181   1.309  16.477  0.6160  0.7334 -1.9907
 4595SOL     OW25417   4.435   2.642   5.082  0.1962 -0.2190 -0.3753
 4595SOL    HW125418   4.363   2.694   5.045  1.2279  0.3919 -1.5213
 4595SOL    HW225419   4.395   2.556   5.093  1.3328 -0.5610  1.0498
 4596SOL     OW25420   4.689   3.861  17.093 -0.0758  0.2585  0.2417
 4596SOL    HW125421   4.619   3.897  17.039  0.6539  2.5001  0.8010
 4596SOL    HW225422   4.715   3.780  17.049 -1.7778 -0.2387  0.1430
 4597SOL     OW25423   0.586   3.382   0.882  0.5697 -0.5181 -0.1296
 4597SOL    HW125424   0.663   3.396   0.829 -0.5096  0.6186 -1.3932
 4597SOL    HW225425   0.518   3.426   0.830  0.4017 -1.5635 -0.7872
 4598SOL     OW25426   3.653   1.257   2.127  0.1321 -0.1209  0.3142
 4598SOL    HW125427   3.675   1.309   2.204 -0.9368 -1.6647  1.6513
 4598SOL    HW225428   3.573   1.218   2.160  0.9956 -0.4296  2.0307
 4599SOL     OW25429   2.934   1.385   2.584  0.1431  0.5814 -0.1719
 4599SOL    HW125430   2.840   1.367   2.573  0.2113 -0.7206  1.3733
 4599SOL    HW225431   2.952   1.455   2.521 -0.1284 -0.3856 -1.3142
 4600SOL     OW25432   0.928   3.963   3.754  0.1535  0.2155 -0.0724
 4600SOL    HW125433   0.988   3.899   3.718  0.0646 -1.2059  2.3347
 4600SOL    HW225434   0.883   3.909   3.818 -1.2559  1.4324 -0.0246
 4601SOL     OW25435   2.979   0.754   5.469 -0.1591  0.5122 -0.2332
 4601SOL    HW125436   3.008   0.763   5.378  0.3458 -2.2272 -0.3453
 4601SOL    HW225437   2.912   0.686   5.470  0.1170  0.2716  2.6736
 4602SOL     OW25438   2.645   0.881  13.581 -0.7222  0.4032  0.0322
 4602SOL    HW125439   2.553   0.907  13.584 -0.7300  0.6617 -2.1680
 4602SOL    HW225440   2.689   0.966  13.578 -0.5317  0.3139  0.3175
 4603SOL     OW25441   2.125   3.708   8.481  0.0267 -0.7143 -0.4608
 4603SOL    HW125442   2.053   3.732   8.423  0.9901 -1.6933 -2.0773
 4603SOL    HW225443   2.166   3.793   8.492  0.3299 -0.7924 -0.9662
 4604SOL     OW25444   0.899   4.262   5.554  0.2269  0.4766  0.0821
 4604SOL    HW125445   0.933   4.192   5.610 -1.5310  0.1056  0.7010
 4604SOL    HW225446   0.984   4.288   5.519  0.0493  1.6108  0.4864
 4605SOL     OW25447   2.673   1.567   6.467 -0.7220  0.0053  0.3648
 4605SOL    HW125448   2.687   1.557   6.373 -2.4336  2.5454 -0.1629
 4605SOL    HW225449   2.585   1.602   6.480 -1.9624 -2.6700 -1.0435
 4606SOL     OW25450   2.402   2.280   2.393  0.0710 -0.6105 -0.5293
 4606SOL    HW125451   2.360   2.353   2.437  2.3138  0.5891 -0.3630
 4606SOL    HW225452   2.422   2.216   2.461 -0.4976  1.4134  1.5468
 4607SOL     OW25453   1.101   3.359   1.762  0.3026 -0.4070  0.1361
 4607SOL    HW125454   1.158   3.310   1.703 -0.5777  0.2163 -1.2244
 4607SOL    HW225455   1.059   3.415   1.697 -0.0506  0.5591  1.1993
 4608SOL     OW25456   0.150   0.017  11.756  0.0747 -0.3216 -0.2540
 4608SOL    HW125457   0.238   0.052  11.769  0.6102 -1.0231 -1.9769
 4608SOL    HW225458   0.127   0.059  11.673  0.4309  0.9046  0.2766
 4609SOL     OW25459   3.988   3.925   9.043  0.5875 -0.6834 -0.6158
 4609SOL    HW125460   3.988   3.881   9.127  0.2999  1.9627  0.7719
 4609SOL    HW225461   4.078   3.953   9.028 -0.2017  1.1932 -1.9912
 4610SOL     OW25462   2.452   3.885   2.393  0.1006  1.0245  0.7934
 4610SOL    HW125463   2.520   3.842   2.340 -2.3210  1.4644 -2.6713
 4610SOL    HW225464   2.381   3.821   2.385  0.8616  0.4082 -1.0924
 4611SOL     OW25465   2.090   3.290   8.065 -0.2157 -0.7226 -0.4907
 4611SOL    HW125466   2.178   3.262   8.040  0.9106  2.2225  0.1343
 4611SOL    HW225467   2.039   3.216   8.100  0.8032 -1.1169  0.1679
 4612SOL     OW25468   1.508   0.091   7.247 -0.4239 -0.0719  0.0615
 4612SOL    HW125469   1.592   0.055   7.217 -1.9112 -3.0220 -0.5172
 4612SOL    HW225470   1.462   0.019   7.290  1.7492 -1.5117 -0.0106
 4613SOL     OW25471   3.302   1.240   8.573 -0.5123  0.1262 -0.4699
 4613SOL    HW125472   3.242   1.169   8.553  0.1043 -0.2017 -1.1431
 4613SOL    HW225473   3.294   1.288   8.491  1.4486  0.3915 -0.5153
 4614SOL     OW25474   4.245   0.936   8.456  0.1929 -0.0001  0.2997
 4614SOL    HW125475   4.171   0.992   8.431  1.0212  0.5940 -0.8353
 4614SOL    HW225476   4.292   0.976   8.529  2.3859  0.6276 -1.4378
 4615SOL     OW25477   0.252   2.679   0.852  0.1011 -0.3945  0.0803
 4615SOL    HW125478   0.227   2.603   0.800 -2.3070 -1.4747  2.8135
 4615SOL    HW225479   0.308   2.630   0.912 -0.6001 -0.3805  0.7590
 4616SOL     OW25480   2.013   0.957   2.407  0.1061  0.1204 -0.2493
 4616SOL    HW125481   2.038   1.050   2.404  0.8219 -0.0224  1.2790
 4616SOL    HW225482   1.943   0.949   2.342 -0.2685 -0.4631  0.2287
 4617SOL     OW25483   1.291   4.131   9.093  0.1754 -0.9838  0.2176
 4617SOL    HW125484   1.246   4.065   9.146 -0.5524  0.2494  1.1213
 4617SOL    HW225485   1.238   4.209   9.104  1.1049  0.0245 -2.4283
 4618SOL     OW25486   0.068   0.646   8.953 -0.3928 -0.1228  0.1694
 4618SOL    HW125487   0.133   0.576   8.946  1.9621  1.9555  1.0808
 4618SOL    HW225488   0.094   0.690   8.872  3.3764  0.6343  1.7907
 4619SOL     OW25489   3.368   4.394   7.803  0.2135 -0.3367  0.2338
 4619SOL    HW125490   3.358   4.423   7.712 -0.1164  0.0724  0.4017
 4619SOL    HW225491   3.287   4.350   7.828  0.2795 -0.0800  0.8981
 4620SOL     OW25492   2.940   0.878  14.207  0.0255  0.4138 -0.4136
 4620SOL    HW125493   2.956   0.831  14.289  0.4949 -0.5717 -1.0792
 4620SOL    HW225494   2.945   0.803  14.148 -2.1527  0.5035 -0.7176
 4621SOL     OW25495   4.719   2.771   2.331 -0.4128 -0.8742  0.0751
 4621SOL    HW125496   4.638   2.762   2.381 -0.3750  0.1776  0.3245
 4621SOL    HW225497   4.717   2.699   2.268  0.7828 -0.8279 -0.0123
 4622SOL     OW25498   3.215   1.827  16.421  0.1000 -0.0651 -0.0783
 4622SOL    HW125499   3.146   1.760  16.414  0.5203 -0.5058  0.0184
 4622SOL    HW225500   3.160   1.904  16.436  0.5529  0.4193 -0.9099
 4623SOL     OW25501   2.144   2.734   5.676  0.3449 -0.0371  0.3265
 4623SOL    HW125502   2.200   2.666   5.714  1.0588 -0.6349 -1.7906
 4623SOL    HW225503   2.115   2.775   5.758  1.7422 -0.0374  0.8340
 4624SOL     OW25504   4.568   3.699  17.693  0.9001  0.1653 -0.9442
 4624SOL    HW125505   4.596   3.771   0.021  2.5186 -2.0317  1.0152
 4624SOL    HW225506   4.612   3.628   0.010 -0.3270 -0.0001 -0.0126
 4625SOL     OW25507   0.675   0.341   6.531  0.1236 -0.6446  0.1454
 4625SOL    HW125508   0.580   0.329   6.539 -0.3326  2.1954 -0.6741
 4625SOL    HW225509   0.672   0.416   6.471  0.7605  0.9564  2.1201
 4626SOL     OW25510   2.940   1.523  15.892  0.1705 -0.5234 -0.1867
 4626SOL    HW125511   2.901   1.595  15.941 -0.7988  0.0837 -1.8533
 4626SOL    HW225512   2.859   1.473  15.878  0.5677 -1.1528 -0.2460
 4627SOL     OW25513   2.993   0.885   8.251 -0.1579 -0.3087  0.4418
 4627SOL    HW125514   2.976   0.896   8.158 -2.2471 -0.4297  0.8205
 4627SOL    HW225515   2.959   0.796   8.261  0.6873 -0.5428  1.3353
 4628SOL     OW25516   0.019   1.503  14.002 -0.3771  0.1584 -0.0132
 4628SOL    HW125517   0.013   1.440  14.074  0.3735  1.7784  1.4447
 4628SOL    HW225518   4.681   1.473  13.944 -0.5245 -1.3740  0.9493
 4629SOL     OW25519   0.644   1.414  14.712  0.4373 -0.6124  0.1314
 4629SOL    HW125520   0.602   1.356  14.648 -2.4448  0.9494  0.5810
 4629SOL    HW225521   0.609   1.377  14.793 -2.2244  0.8218 -0.3282
 4630SOL     OW25522   2.452   2.534  15.743  0.3603  0.6368  0.0673
 4630SOL    HW125523   2.443   2.592  15.667 -3.2887  0.9189  0.7230
 4630SOL    HW225524   2.482   2.451  15.705  2.0615  1.4468 -0.3751
 4631SOL     OW25525   0.140   3.810   5.650 -0.2183  0.1699 -0.6236
 4631SOL    HW125526   0.204   3.774   5.589  1.4460 -1.1659  1.9020
 4631SOL    HW225527   0.108   3.735   5.700  0.1568  0.2470 -0.2678
 4632SOL     OW25528   4.220   1.903  16.928  0.1029 -0.2864 -0.4884
 4632SOL    HW125529   4.253   1.824  16.884 -1.5239 -0.6527 -1.0291
 4632SOL    HW225530   4.135   1.866  16.951  0.6140 -0.5714  0.9222
 4633SOL     OW25531   2.272   2.969   8.196  0.2931 -0.1633  0.2420
 4633SOL    HW125532   2.238   2.933   8.114  0.1116  0.5998 -0.0132
 4633SOL    HW225533   2.235   2.903   8.254 -0.4826 -0.5493 -0.7001
 4634SOL     OW25534   3.118   1.866   9.892  0.1930 -0.6058 -0.0545
 4634SOL    HW125535   3.149   1.800   9.954  0.5254  1.2318  1.7272
 4634SOL    HW225536   3.126   1.814   9.812  0.6373 -0.5392 -0.0545
 4635SOL     OW25537   3.692   0.760   4.706  0.3384  0.3785 -0.4707
 4635SOL    HW125538   3.692   0.753   4.802  3.0144  1.9286 -0.3697
 4635SOL    HW225539   3.755   0.831   4.703  1.8096 -0.8199  1.7349
 4636SOL     OW25540   4.004   2.422   9.519  0.0273 -0.3680 -0.2427
 4636SOL    HW125541   4.077   2.473   9.554 -0.5439 -0.8158  1.6301
 4636SOL    HW225542   3.932   2.448   9.577 -0.6801 -0.2359 -1.1832
 4637SOL     OW25543   4.361   3.972  17.108  0.2269 -0.4156 -0.1662
 4637SOL    HW125544   4.409   4.023  17.043 -1.7118  2.5500  0.7434
 4637SOL    HW225545   4.348   3.890  17.060  0.2798 -0.4548 -0.1132
 4638SOL     OW25546   1.827   2.201   8.374 -0.0057 -0.6324 -0.3257
 4638SOL    HW125547   1.851   2.185   8.283 -1.7786  1.0566 -1.0962
 4638SOL    HW225548   1.891   2.146   8.420 -0.7751 -0.8844  0.4345
 4639SOL     OW25549   0.711   4.155  11.823 -0.2260  0.0273 -0.5396
 4639SOL    HW125550   0.734   4.126  11.734  2.1417  0.8153 -0.1782
 4639SOL    HW225551   0.696   4.249  11.814  2.3843  0.5022  0.0898
 4640SOL     OW25552   1.613   1.063  14.905 -0.6464 -0.1233  0.0350
 4640SOL    HW125553   1.528   1.075  14.948  0.5524  5.2051  0.8961
 4640SOL    HW225554   1.612   1.123  14.831  0.0662 -1.1348 -0.7826
 4641SOL     OW25555   3.843   3.170  15.562 -0.2004  0.0569 -0.4075
 4641SOL    HW125556   3.895   3.221  15.501 -1.2406  2.6435  0.8722
 4641SOL    HW225557   3.862   3.210  15.647  2.4751  1.9814 -1.9284
 4642SOL     OW25558   0.352   2.737  10.342 -0.1998  0.5094 -0.1446
 4642SOL    HW125559   0.327   2.655  10.300 -1.0358  0.6825  0.0133
 4642SOL    HW225560   0.299   2.799  10.293  0.6686 -0.9609 -2.9461
 4643SOL     OW25561   0.767   4.355   3.511 -0.2750  0.6151 -0.5958
 4643SOL    HW125562   0.779   4.440   3.551  1.4267 -0.8586  2.0229
 4643SOL    HW225563   0.735   4.301   3.583  1.1951  0.1205 -0.3108
 4644SOL     OW25564   0.872   0.155   6.609 -0.3727 -0.0247 -0.9585
 4644SOL    HW125565   0.806   0.093   6.640 -1.4136  0.7926 -1.5539
 4644SOL    HW225566   0.817   0.231   6.594 -0.7279 -0.2287 -0.7010
 4645SOL     OW25567   3.442   0.022   7.227  0.2283 -0.2680  0.1853
 4645SOL    HW125568   3.534   4.731   7.230 -0.2314 -2.0620  0.0450
 4645SOL    HW225569   3.415   4.722   7.142  0.7568  1.4390 -0.6322
 4646SOL     OW25570   3.160   3.136   9.256  0.2752  0.4408 -0.1179
 4646SOL    HW125571   3.204   3.170   9.335  0.5329 -0.6974  0.2352
 4646SOL    HW225572   3.210   3.056   9.239  0.5072  1.3355 -3.5063
 4647SOL     OW25573   2.413   3.124   8.952 -0.0649 -0.1038  0.1176
 4647SOL    HW125574   2.348   3.107   8.883 -2.2845  1.9652  1.7284
 4647SOL    HW225575   2.358   3.188   8.996 -0.7402  0.6614 -1.8130
 4648SOL     OW25576   0.400   3.272   8.883 -0.1017 -0.4373  0.2772
 4648SOL    HW125577   0.322   3.227   8.918  1.1008 -1.6877  1.3758
 4648SOL    HW225578   0.401   3.344   8.946  2.1571  1.3620 -1.8064
 4649SOL     OW25579   4.643   0.386   8.761 -0.5345 -0.0228 -0.4479
 4649SOL    HW125580   4.671   0.345   8.679  1.2965 -1.0797  0.6954
 4649SOL    HW225581   4.594   0.312   8.798 -0.6871  1.2920  1.9653
 4650SOL     OW25582   3.992   3.286  12.997 -0.5293 -0.1779 -0.5263
 4650SOL    HW125583   3.966   3.343  12.925 -1.0983 -1.3683 -1.2713
 4650SOL    HW225584   4.086   3.305  12.988 -0.7296  0.3448 -1.4921
 4651SOL     OW25585   1.251   1.339   4.349  0.2418 -0.1470 -0.2838
 4651SOL    HW125586   1.199   1.406   4.304  0.7808  0.0853 -0.5555
 4651SOL    HW225587   1.244   1.265   4.288  0.7951 -0.8794  0.5307
 4652SOL     OW25588   2.845   3.690   6.865  0.0565  0.0054  0.7879
 4652SOL    HW125589   2.805   3.678   6.951  0.0198 -2.8882  0.3702
 4652SOL    HW225590   2.918   3.748   6.887 -1.6691  2.0232  1.1863
 4653SOL     OW25591   2.150   1.466  11.224  0.3968 -0.4787  0.4119
 4653SOL    HW125592   2.111   1.411  11.292  0.7487 -0.1579  0.8841
 4653SOL    HW225593   2.073   1.472  11.168  0.2274 -0.0839  0.6827
 4654SOL     OW25594   3.562   0.743   8.927  0.1145 -0.3419  0.1987
 4654SOL    HW125595   3.552   0.666   8.871 -0.4933  0.3590 -0.6701
 4654SOL    HW225596   3.562   0.701   9.013  0.5080 -0.7377  0.0010
 4655SOL     OW25597   2.800   2.175   9.837 -0.1642  0.3975 -0.4940
 4655SOL    HW125598   2.743   2.179   9.761  0.8724 -0.0075 -1.2834
 4655SOL    HW225599   2.887   2.173   9.798 -1.1406  1.5313 -2.7391
 4656SOL     OW25600   0.372   0.933   2.630  0.2903 -0.0347 -0.1956
 4656SOL    HW125601   0.368   0.862   2.694  0.4346  0.4119  0.3160
 4656SOL    HW225602   0.395   1.003   2.692 -1.2620  0.3093 -0.0128
 4657SOL     OW25603   0.611   0.405   1.100  0.5629 -0.4299 -0.3601
 4657SOL    HW125604   0.526   0.370   1.073  0.2638  0.0337 -0.0340
 4657SOL    HW225605   0.626   0.374   1.189 -0.5814  3.0205  1.0550
 4658SOL     OW25606   1.948   1.879   8.152  0.1005  0.0600  0.0293
 4658SOL    HW125607   1.961   1.817   8.080 -1.6187 -0.2870  0.0219
 4658SOL    HW225608   1.863   1.847   8.181 -0.5203  1.0414 -0.7041
 4659SOL     OW25609   0.616   4.083   5.110 -0.0408  0.6368 -0.1771
 4659SOL    HW125610   0.677   4.155   5.125  0.6404 -0.1056  0.5945
 4659SOL    HW225611   0.579   4.112   5.026 -0.0422 -0.4804 -0.5668
 4660SOL     OW25612   4.153   3.136   7.491 -0.3591  0.4214  0.0989
 4660SOL    HW125613   4.234   3.116   7.443  0.7567  2.1393  1.2510
 4660SOL    HW225614   4.182   3.140   7.582  0.8863  0.2819 -0.2839
 4661SOL     OW25615   0.555   3.075   5.556 -0.3299  0.0313  0.0829
 4661SOL    HW125616   0.506   3.024   5.620  0.6794 -1.3486 -0.2382
 4661SOL    HW225617   0.503   3.155   5.545  2.1715  1.6475 -0.0634
 4662SOL     OW25618   0.452   4.077   4.862 -0.5285  0.1158 -0.0729
 4662SOL    HW125619   0.357   4.077   4.848 -0.6988 -1.9913  0.9740
 4662SOL    HW225620   0.471   3.986   4.840 -1.8683 -0.0765 -0.4497
 4663SOL     OW25621   0.622   2.211   5.796  0.0792  0.4914  0.4010
 4663SOL    HW125622   0.546   2.265   5.775 -0.3577 -0.8670 -1.4726
 4663SOL    HW225623   0.592   2.160   5.872  0.1616  0.9973  0.7708
 4664SOL     OW25624   0.170   4.036   8.596  0.2107  0.1490  0.4628
 4664SOL    HW125625   0.150   3.943   8.606  2.6133 -0.3859  0.1368
 4664SOL    HW225626   0.263   4.048   8.611  0.1459  0.6547  0.4679
 4665SOL     OW25627   1.166   4.237   8.642 -0.0631  0.0668 -0.0254
 4665SOL    HW125628   1.132   4.180   8.711 -1.2283 -1.3169 -1.7155
 4665SOL    HW225629   1.223   4.169   8.606 -1.6291 -1.7391  0.9039
 4666SOL     OW25630   0.493   0.780   9.721  0.1829 -0.1504  0.0974
 4666SOL    HW125631   0.414   0.832   9.736 -1.5108 -2.5200 -0.6984
 4666SOL    HW225632   0.492   0.732   9.804 -0.6465 -1.4716 -0.6754
 4667SOL     OW25633   0.895   4.714   6.293  0.4844  0.4209  0.3604
 4667SOL    HW125634   0.862   4.680   6.210 -1.3343 -0.4060  1.4376
 4667SOL    HW225635   0.890   4.629   6.337  0.1912 -0.1340 -0.7421
 4668SOL     OW25636   3.711   1.641   5.185  0.3319 -0.3752 -0.1932
 4668SOL    HW125637   3.623   1.663   5.215  0.6120  1.1009 -0.4477
 4668SOL    HW225638   3.740   1.600   5.267 -0.9322 -3.4538 -1.2889
 4669SOL     OW25639   0.654   1.136   3.779 -0.2067  0.2871  0.0568
 4669SOL    HW125640   0.603   1.096   3.850 -0.4428 -1.7184 -1.2400
 4669SOL    HW225641   0.716   1.067   3.758  0.6331  0.8160  0.8039
 4670SOL     OW25642   1.498   2.374   8.198 -0.1271  0.4022 -0.1022
 4670SOL    HW125643   1.559   2.393   8.270  0.4779  2.1101 -1.0842
 4670SOL    HW225644   1.556   2.329   8.136  1.4340 -1.0943  2.3863
 4671SOL     OW25645   0.464   4.131   0.702 -0.0046 -0.1039 -0.2105
 4671SOL    HW125646   0.464   4.057   0.641 -0.2763  1.3271 -1.9369
 4671SOL    HW225647   0.371   4.148   0.718  0.6863  3.1446  0.3439
 4672SOL     OW25648   0.102   3.978   5.913  0.4463  0.3764 -0.1418
 4672SOL    HW125649   0.177   4.011   5.862  1.8207 -1.1948  0.8664
 4672SOL    HW225650   0.034   3.966   5.847 -0.1803  3.2749 -0.0632
 4673SOL     OW25651   0.453   3.544   7.897  0.1176 -0.5440 -0.0799
 4673SOL    HW125652   0.441   3.557   7.990  3.9010  0.2935  0.2788
 4673SOL    HW225653   0.365   3.529   7.862  0.1250  0.7856 -0.6825
 4674SOL     OW25654   4.507   2.534   7.294 -0.3944  0.2942  0.2060
 4674SOL    HW125655   4.504   2.482   7.375 -0.1080  0.4729  0.3331
 4674SOL    HW225656   4.501   2.469   7.224  1.8565  1.5903 -1.2034
 4675SOL     OW25657   2.043   0.454   7.286  0.2650 -0.0900  0.0203
 4675SOL    HW125658   2.018   0.543   7.262  0.1736 -0.4452 -1.1910
 4675SOL    HW225659   2.126   0.465   7.241 -0.0533  1.8973 -0.0472
 4676SOL     OW25660   3.016   4.319   6.326  0.1045  0.1630  0.1357
 4676SOL    HW125661   2.939   4.350   6.375 -0.4061  0.6819 -0.9965
 4676SOL    HW225662   3.063   4.263   6.388 -0.4361 -0.6167 -0.1596
 4677SOL     OW25663   2.734   0.699   8.511 -0.3557  0.0178  0.0710
 4677SOL    HW125664   2.645   0.733   8.499 -0.3473 -0.5592 -1.6310
 4677SOL    HW225665   2.769   0.697   8.422 -0.2382  2.2110  0.0839
 4678SOL     OW25666   2.693   3.262   5.050 -0.9200  0.4419  0.0516
 4678SOL    HW125667   2.648   3.199   4.993  0.0680  0.7743 -1.1023
 4678SOL    HW225668   2.695   3.339   4.992  1.9839  1.4820  1.5061
 4679SOL     OW25669   4.544   4.129   4.475  0.3100  0.1943  0.8958
 4679SOL    HW125670   4.472   4.189   4.492  0.1063  0.4615 -0.9188
 4679SOL    HW225671   4.505   4.041   4.471  0.1365  0.2979  0.3852
 4680SOL     OW25672   3.057   0.606   3.305  0.2348 -0.0697  0.3047
 4680SOL    HW125673   3.056   0.523   3.257 -0.3707 -1.5707  2.8964
 4680SOL    HW225674   3.125   0.579   3.367 -0.5286  0.7286  1.4997
 4681SOL     OW25675   3.380   0.929   5.805  0.4605 -0.0803  0.3749
 4681SOL    HW125676   3.377   0.855   5.866  1.6055  1.7202  2.6403
 4681SOL    HW225677   3.358   0.881   5.725  1.4403  1.8114 -1.0433
 4682SOL     OW25678   1.348   4.234   8.366 -0.1773 -0.3978 -0.4089
 4682SOL    HW125679   1.307   4.152   8.394 -3.1213  0.6393 -1.7203
 4682SOL    HW225680   1.438   4.210   8.343 -0.4996 -1.4561 -0.5697
 4683SOL     OW25681   3.702   3.184   7.690 -0.0125 -0.1957  0.0588
 4683SOL    HW125682   3.643   3.168   7.616 -1.3136  1.0345  0.8494
 4683SOL    HW225683   3.785   3.202   7.645  0.5023 -0.0834  1.0619
 4684SOL     OW25684   0.730   0.991   7.335 -0.0925 -0.2092  0.5163
 4684SOL    HW125685   0.775   1.032   7.409 -0.5732  1.1560  0.0437
 4684SOL    HW225686   0.639   1.006   7.360 -0.5736 -0.1036 -1.2891
 4685SOL     OW25687   2.763   4.487   7.803 -0.0830 -0.0998 -0.2781
 4685SOL    HW125688   2.758   4.404   7.850  0.1696 -0.0973 -0.2485
 4685SOL    HW225689   2.755   4.555   7.870 -0.9763  1.0120 -1.5013
 4686SOL     OW25690   3.836   4.402   5.864 -0.3026 -0.1786 -0.0813
 4686SOL    HW125691   3.889   4.446   5.931 -2.6209  3.2842 -0.5271
 4686SOL    HW225692   3.878   4.438   5.786  0.1702  0.1877  0.3428
 4687SOL     OW25693   2.266   1.726   9.622  0.2211  0.0521 -0.1619
 4687SOL    HW125694   2.337   1.785   9.600  0.0908 -0.6311 -2.4261
 4687SOL    HW225695   2.315   1.647   9.600 -1.0996 -1.2514  1.5690
 4688SOL     OW25696   3.723   3.409  10.618  0.5324  0.8132 -0.2323
 4688SOL    HW125697   3.791   3.476  10.612  1.0800  0.3109  0.3079
 4688SOL    HW225698   3.654   3.466  10.653 -0.2539  0.3056 -0.9726
 4689SOL     OW25699   0.540   0.328  11.604  1.1000 -0.2303 -0.0742
 4689SOL    HW125700   0.625   0.368  11.588  1.3714 -0.4982  0.7014
 4689SOL    HW225701   0.565   0.260  11.666 -2.7183 -0.6169  1.0809
 4690SOL     OW25702   0.530   2.677  11.439 -0.0529  0.7914  0.1857
 4690SOL    HW125703   0.619   2.682  11.474 -0.6565  0.4234  1.7552
 4690SOL    HW225704   0.502   2.588  11.459  2.0080  0.3356  1.0463
 4691SOL     OW25705   4.352   3.305   4.540  0.3613 -0.4496 -1.2742
 4691SOL    HW125706   4.356   3.238   4.471 -0.9878 -1.7265 -0.1175
 4691SOL    HW225707   4.336   3.252   4.618  0.9946 -0.5144 -1.1883
 4692SOL     OW25708   3.372   4.670   8.440 -0.0364 -0.7597 -0.1118
 4692SOL    HW125709   3.463   4.641   8.427  0.1486 -0.4513  0.5076
 4692SOL    HW225710   3.353   4.722   8.362 -0.8041 -2.7857 -1.2842
 4693SOL     OW25711   4.354   2.188   7.131  0.1315 -0.3566 -0.4784
 4693SOL    HW125712   4.359   2.162   7.224  0.0318 -0.6885 -0.5671
 4693SOL    HW225713   4.316   2.274   7.146  0.5974 -0.4737  1.4828
 4694SOL     OW25714   2.407   4.503   5.334 -0.0761 -0.0896 -0.0570
 4694SOL    HW125715   2.451   4.578   5.294  2.3959 -0.6363  1.5986
 4694SOL    HW225716   2.484   4.446   5.339 -0.3963 -0.5304 -0.1763
 4695SOL     OW25717   0.585   1.111   6.802 -0.3518  0.1977  0.7779
 4695SOL    HW125718   0.588   1.180   6.868  0.5503  1.7138 -0.8481
 4695SOL    HW225719   0.505   1.122   6.750 -0.2601  0.6631  0.7277
 4696SOL     OW25720   2.741   1.108   3.661 -0.2966 -0.5002 -0.1379
 4696SOL    HW125721   2.795   1.074   3.732  0.6513  1.9056  0.3003
 4696SOL    HW225722   2.660   1.137   3.704 -0.6106 -0.4605 -0.7439
 4697SOL     OW25723   4.475   1.540  10.738 -0.1418  0.2005 -0.2807
 4697SOL    HW125724   4.533   1.554  10.813  0.8731  0.9123 -1.2142
 4697SOL    HW225725   4.417   1.616  10.741  0.7213  0.8657 -0.6143
 4698SOL     OW25726   1.116   0.788  12.407 -0.1777 -0.1391  0.3689
 4698SOL    HW125727   1.176   0.823  12.472 -1.0204 -0.5981  1.3897
 4698SOL    HW225728   1.037   0.835  12.433 -0.6493 -1.7000  1.8121
 4699SOL     OW25729   3.345   2.580   0.332  0.2528 -0.1611  0.7663
 4699SOL    HW125730   3.410   2.650   0.340 -2.3468  2.5841 -2.1789
 4699SOL    HW225731   3.274   2.631   0.371  1.6398  1.1969  1.5110
 4700SOL     OW25732   3.700   2.691   8.583  0.1466  0.1200 -0.1954
 4700SOL    HW125733   3.618   2.702   8.632  0.5390 -0.7683  0.6502
 4700SOL    HW225734   3.742   2.634   8.646 -0.3562 -1.7135 -1.5301
 4701SOL     OW25735   1.098   3.757   2.557 -0.2767 -0.3834 -0.0741
 4701SOL    HW125736   1.087   3.727   2.467 -0.7331  0.9399 -0.4628
 4701SOL    HW225737   1.119   3.681   2.612  2.9162  0.2116 -0.4591
 4702SOL     OW25738   1.370   3.452   4.563 -0.4806  0.3693  0.1097
 4702SOL    HW125739   1.301   3.497   4.611 -1.5271  1.1107 -2.1352
 4702SOL    HW225740   1.431   3.526   4.564  2.0576 -1.7237  0.1526
 4703SOL     OW25741   3.527   0.724   9.404 -0.2690  0.4161 -0.0779
 4703SOL    HW125742   3.605   0.689   9.446  0.7895 -0.2217 -2.5772
 4703SOL    HW225743   3.453   0.720   9.465 -1.9577 -1.9255 -2.2880
 4704SOL     OW25744   3.616   2.851  14.238  0.5564 -0.3858 -0.0189
 4704SOL    HW125745   3.660   2.908  14.302  0.3827 -0.7995  0.4637
 4704SOL    HW225746   3.531   2.894  14.248  1.1782  1.0646 -0.8554
 4705SOL     OW25747   4.145   1.695  17.217  0.5685  0.0911  0.5224
 4705SOL    HW125748   4.206   1.760  17.252  0.2974  0.6585 -0.0525
 4705SOL    HW225749   4.101   1.741  17.146 -0.4503 -1.7912 -0.0633
 4706SOL     OW25750   1.969   3.093   3.371 -0.2188  0.4645 -0.2864
 4706SOL    HW125751   1.941   3.046   3.449 -0.2091  1.3238  0.2436
 4706SOL    HW225752   2.045   3.135   3.412 -1.9119  2.7967  0.4609
 4707SOL     OW25753   0.638   1.912   8.315 -0.7639  0.4814  1.0847
 4707SOL    HW125754   0.598   1.975   8.256  1.0849 -0.9584 -1.7048
 4707SOL    HW225755   0.674   1.971   8.382  2.6183 -0.1457 -0.1866
 4708SOL     OW25756   0.406   2.860   9.841  0.1388  0.0880  0.4854
 4708SOL    HW125757   0.471   2.902   9.785 -1.2596 -0.7192 -1.7529
 4708SOL    HW225758   0.373   2.798   9.776  0.7568  0.8599 -0.5580
 4709SOL     OW25759   0.413   0.247   5.594 -0.0528  0.1608  0.3363
 4709SOL    HW125760   0.372   0.184   5.535  2.4089 -1.1577  0.0309
 4709SOL    HW225761   0.506   0.237   5.573 -0.1890  1.3733 -0.8029
 4710SOL     OW25762   0.609   2.231  14.117  0.3318 -0.3244  0.5787
 4710SOL    HW125763   0.604   2.272  14.030  1.4552  0.9095  1.1051
 4710SOL    HW225764   0.529   2.177  14.121  0.4731 -0.5964 -0.2099
 4711SOL     OW25765   3.859   3.532   4.990 -0.2807  0.3098  0.4275
 4711SOL    HW125766   3.852   3.469   5.062  0.9732 -0.0400  0.2398
 4711SOL    HW225767   3.929   3.499   4.933  0.0759  1.1729  0.3752
 4712SOL     OW25768   4.320   4.422  15.598 -0.5913  0.8328  0.4392
 4712SOL    HW125769   4.383   4.475  15.550 -0.3635  0.2601  0.0981
 4712SOL    HW225770   4.260   4.392  15.529 -1.2174  0.1913  1.2768
 4713SOL     OW25771   3.519   3.018   7.818  0.2971 -0.2488 -1.1413
 4713SOL    HW125772   3.596   3.066   7.789 -0.3648  0.2705 -2.0308
 4713SOL    HW225773   3.467   3.093   7.847  1.9532  0.4045  0.1618
 4714SOL     OW25774   0.898   4.145  16.551  0.1705  0.0235 -0.0246
 4714SOL    HW125775   0.969   4.199  16.584 -0.2930  0.7294 -0.1748
 4714SOL    HW225776   0.837   4.132  16.624  1.0340  1.7852  1.0136
 4715SOL     OW25777   3.892   0.233   1.414  0.4691  0.4302  0.4338
 4715SOL    HW125778   3.829   0.201   1.349  0.0393  1.0502  0.5498
 4715SOL    HW225779   3.859   0.197   1.497 -0.8597 -1.4076 -0.8737
 4716SOL     OW25780   0.107   4.542   8.735  0.1166 -0.6311 -0.2197
 4716SOL    HW125781   0.151   4.596   8.800 -1.8640 -0.1243  0.6949
 4716SOL    HW225782   0.072   4.467   8.783 -0.8530  1.0840  1.7313
 4717SOL     OW25783   1.298   1.878   3.919  0.2370 -0.5466  0.6310
 4717SOL    HW125784   1.202   1.873   3.921  0.1911 -0.4815 -1.1372
 4717SOL    HW225785   1.320   1.804   3.976  2.1701  0.0999  0.6956
 4718SOL     OW25786   0.647   3.469  14.610  0.1075  0.0276 -0.2122
 4718SOL    HW125787   0.566   3.502  14.570 -1.6843 -1.5342  2.1282
 4718SOL    HW225788   0.679   3.545  14.659  3.9219 -0.1520 -2.3827
 4719SOL     OW25789   1.694   2.594   4.352 -0.1786  0.1200  0.7918
 4719SOL    HW125790   1.733   2.611   4.266 -1.5801 -1.2308 -0.1045
 4719SOL    HW225791   1.760   2.534   4.386 -0.6525 -1.4079 -0.9664
 4720SOL     OW25792   3.290   1.632   8.481 -0.2597 -0.0670  0.2358
 4720SOL    HW125793   3.254   1.679   8.405  0.0344  0.3037  0.3242
 4720SOL    HW225794   3.209   1.584   8.500 -0.6864 -0.4432 -2.4897
 4721SOL     OW25795   1.552   1.582   2.556  0.2997 -0.1337 -0.2884
 4721SOL    HW125796   1.515   1.513   2.612  2.6474  0.1354  1.5735
 4721SOL    HW225797   1.505   1.559   2.476 -1.6729 -3.3335  1.7694
 4722SOL     OW25798   4.123   3.299  16.175 -0.0350 -0.1787 -0.5949
 4722SOL    HW125799   4.180   3.365  16.135 -3.4808  2.4019 -1.2290
 4722SOL    HW225800   4.183   3.278  16.247  0.4324 -1.1021 -1.2488
 4723SOL     OW25801   0.178   1.192   5.281 -0.1254  0.4090  0.5320
 4723SOL    HW125802   0.128   1.111   5.276 -0.5693  0.6440  1.1555
 4723SOL    HW225803   0.108   1.257   5.288  0.2395  1.1305 -2.7469
 4724SOL     OW25804   0.284   3.283   6.610 -0.0313  0.0607 -0.2014
 4724SOL    HW125805   0.206   3.319   6.651 -1.0208  1.4292 -3.2953
 4724SOL    HW225806   0.237   3.233   6.543 -0.2028 -0.1298  0.0609
 4725SOL     OW25807   2.567   3.230   7.508  0.2449  0.0629  0.5864
 4725SOL    HW125808   2.563   3.270   7.595 -0.7359  2.8949 -0.7413
 4725SOL    HW225809   2.497   3.279   7.465 -0.4275 -1.8771 -0.5209
 4726SOL     OW25810   2.040   3.406   6.679 -0.0654  0.0432  0.4438
 4726SOL    HW125811   2.041   3.366   6.766 -0.4317 -0.8666  0.0334
 4726SOL    HW225812   1.947   3.389   6.666 -0.2440  1.3648 -0.0260
 4727SOL     OW25813   3.121   0.060   2.878  0.3782 -0.1182 -0.3478
 4727SOL    HW125814   3.108   4.708   2.834 -3.2309  1.4607 -2.3288
 4727SOL    HW225815   3.188   0.046   2.944 -0.2420 -1.6324 -0.0246
 4728SOL     OW25816   1.898   0.850  14.020  0.3816  0.4297 -0.4532
 4728SOL    HW125817   1.960   0.895  13.963  1.4866 -2.0933 -1.1925
 4728SOL    HW225818   1.931   0.888  14.102 -3.6381 -0.9809  1.8171
 4729SOL     OW25819   2.206   0.165   2.324  0.0406 -0.2269 -0.4618
 4729SOL    HW125820   2.254   0.089   2.292  0.0631 -0.0164 -0.9335
 4729SOL    HW225821   2.156   0.185   2.245 -0.4109  2.1325  0.3947
 4730SOL     OW25822   2.407   0.481   0.481 -0.2040 -0.4957 -0.0916
 4730SOL    HW125823   2.400   0.393   0.444  2.3030 -1.7031  2.3003
 4730SOL    HW225824   2.467   0.517   0.416 -1.2129  3.7513  1.3722
 4731SOL     OW25825   2.518   0.501  12.801 -0.3178 -0.4895 -0.2220
 4731SOL    HW125826   2.484   0.484  12.713  1.0796  1.1489 -1.0843
 4731SOL    HW225827   2.610   0.478  12.788  0.3877  2.4610 -0.2915
 4732SOL     OW25828   0.778   2.798   5.746 -0.0081  0.1536  0.7396
 4732SOL    HW125829   0.751   2.710   5.721  0.6130 -0.0122  0.6553
 4732SOL    HW225830   0.800   2.786   5.838 -1.2348  1.7515  1.2533
 4733SOL     OW25831   0.082   2.215   0.610 -0.0995  0.4079 -0.0231
 4733SOL    HW125832   0.128   2.235   0.691 -0.1330  1.4852 -0.2662
 4733SOL    HW225833   4.731   2.259   0.626  0.2788  0.4254  1.8168
 4734SOL     OW25834   1.852   0.054   0.375 -0.5560  0.6903 -0.3090
 4734SOL    HW125835   1.849   0.056   0.279 -1.5730 -1.0986 -0.3173
 4734SOL    HW225836   1.762   0.025   0.385 -0.4950 -0.0588 -1.9352
 4735SOL     OW25837   1.852   1.307   3.244  0.0738 -0.1754  0.1954
 4735SOL    HW125838   1.907   1.384   3.234 -1.4052  0.8757  0.1175
 4735SOL    HW225839   1.804   1.332   3.323 -1.5985  3.2588 -1.9246
 4736SOL     OW25840   1.603   3.813   6.837 -0.4239  0.7549  0.9113
 4736SOL    HW125841   1.539   3.804   6.908  1.0657 -3.5148  1.7394
 4736SOL    HW225842   1.674   3.845   6.892  0.7238 -0.0864 -0.0726
 4737SOL     OW25843   2.937   4.456  13.231  0.6415  0.2603 -0.3905
 4737SOL    HW125844   2.855   4.506  13.228  0.8731  0.3604 -4.2780
 4737SOL    HW225845   2.907   4.366  13.218 -0.1873  0.8199 -2.2987
 4738SOL     OW25846   3.927   0.142   3.050  0.2802  0.1461  0.0601
 4738SOL    HW125847   3.966   0.131   2.963  1.1576 -1.5267  0.6711
 4738SOL    HW225848   3.836   0.142   3.022 -0.0838  0.0698  1.2661
 4739SOL     OW25849   3.844   4.301   2.106 -0.2332 -0.0455 -0.0630
 4739SOL    HW125850   3.932   4.305   2.067  0.5584  0.3123  1.7412
 4739SOL    HW225851   3.848   4.209   2.132 -1.3709 -0.8135 -2.6256
 4740SOL     OW25852   1.856   2.134  11.273 -0.2321  0.4363  0.1516
 4740SOL    HW125853   1.950   2.141  11.294  0.3166  2.3247 -2.9543
 4740SOL    HW225854   1.852   2.040  11.287  2.1000  0.2948  0.0018
 4741SOL     OW25855   4.232   2.243  10.131  0.2046  0.1245  0.3376
 4741SOL    HW125856   4.295   2.177  10.101  0.7066  1.2857 -1.1625
 4741SOL    HW225857   4.263   2.312  10.073 -1.9931  1.2270  0.5136
 4742SOL     OW25858   1.811   3.381   6.912  0.6544 -0.0381  0.2984
 4742SOL    HW125859   1.888   3.324   6.904  0.3289 -0.1732 -1.7645
 4742SOL    HW225860   1.810   3.381   7.008 -1.6963 -1.2084  0.2930
 4743SOL     OW25861   1.863   0.691   9.054  0.0923  0.0263  0.3760
 4743SOL    HW125862   1.954   0.721   9.050  1.1920 -3.4033 -0.2684
 4743SOL    HW225863   1.848   0.649   9.138  1.3178  1.4444  1.3099
 4744SOL     OW25864   2.915   4.269   4.498  0.5852  0.6061  0.6541
 4744SOL    HW125865   2.897   4.196   4.439  1.2048  1.8839 -1.1473
 4744SOL    HW225866   2.828   4.304   4.514 -0.0216 -3.3161  5.4652
 4745SOL     OW25867   1.767   1.058   7.848 -0.0490 -0.2887  0.0440
 4745SOL    HW125868   1.774   0.982   7.905  2.3057  1.3192  1.8857
 4745SOL    HW225869   1.795   1.015   7.767  0.1742 -0.0475 -0.0059
 4746SOL     OW25870   1.962   0.503   6.580 -0.2953  0.1622 -0.2798
 4746SOL    HW125871   1.871   0.514   6.605 -0.3069  0.4155 -0.4299
 4746SOL    HW225872   1.989   0.594   6.566  0.4171  0.2663  1.7798
 4747SOL     OW25873   4.069   4.384   5.540 -0.0531 -0.0722  0.2219
 4747SOL    HW125874   3.990   4.339   5.510  0.5313 -0.8068 -0.2201
 4747SOL    HW225875   4.131   4.338   5.482  1.1854 -0.2387  1.6885
 4748SOL     OW25876   3.606   0.560  17.621 -0.0726 -0.3036 -0.2083
 4748SOL    HW125877   3.560   0.615  17.685 -0.5750 -0.8751 -0.0760
 4748SOL    HW225878   3.532   0.504  17.597 -1.5912  1.5033  0.1991
 4749SOL     OW25879   1.356   3.114  12.119  0.4729  0.2952  0.2629
 4749SOL    HW125880   1.426   3.093  12.057  1.0580  2.0815  0.3141
 4749SOL    HW225881   1.376   3.208  12.124 -2.5616  0.9377  0.2578
 4750SOL     OW25882   1.763   0.120   1.814  0.1901  0.5767 -0.1794
 4750SOL    HW125883   1.818   0.197   1.796 -0.1927  0.6336 -1.1025
 4750SOL    HW225884   1.829   0.051   1.820 -0.8629 -0.2607  1.6687
 4751SOL     OW25885   1.319   0.202   4.367  0.1759  0.6641 -0.2991
 4751SOL    HW125886   1.385   0.138   4.341  0.0517  0.4715 -0.1338
 4751SOL    HW225887   1.287   0.238   4.284 -1.2403  0.7926  0.2934
 4752SOL     OW25888   0.615   2.338  14.355 -1.1137 -0.4748 -0.2951
 4752SOL    HW125889   0.612   2.295  14.270 -1.3985 -0.0355 -0.5049
 4752SOL    HW225890   0.520   2.350  14.362 -1.1194 -0.9058  0.3760
 4753SOL     OW25891   0.979   3.783  17.515  0.2684  0.3791 -0.5547
 4753SOL    HW125892   0.905   3.797  17.574  0.7092  1.8596 -0.3548
 4753SOL    HW225893   1.043   3.738  17.571 -1.5208 -0.8417  0.4894
 4754SOL     OW25894   4.086   3.391   6.632 -0.2430  0.5883 -0.4653
 4754SOL    HW125895   4.122   3.304   6.650  2.6974  1.7741 -0.5208
 4754SOL    HW225896   4.135   3.441   6.698 -0.0882  0.3527 -0.3987
 4755SOL     OW25897   0.173   2.199   0.992 -0.5045  0.1447 -0.1586
 4755SOL    HW125898   0.173   2.125   1.054  0.1173  1.4058  1.3490
 4755SOL    HW225899   0.253   2.180   0.944  0.3400 -3.1765  2.4924
 4756SOL     OW25900   1.351   1.428   8.769  0.0676  0.1232 -0.2417
 4756SOL    HW125901   1.355   1.358   8.704  0.7267 -1.3727  1.3891
 4756SOL    HW225902   1.334   1.374   8.846 -0.9580  0.2015 -0.4155
 4757SOL     OW25903   1.867   1.662   6.333  0.3578 -0.3148  0.0209
 4757SOL    HW125904   1.776   1.678   6.359  0.3890 -0.6346  0.3314
 4757SOL    HW225905   1.848   1.595   6.267 -0.6378  1.9956 -2.0747
 4758SOL     OW25906   0.857   3.751   1.134  0.1149 -0.1586 -0.1833
 4758SOL    HW125907   0.868   3.657   1.120  1.7761  0.1321 -0.8890
 4758SOL    HW225908   0.823   3.754   1.223  0.2753  1.2895 -0.1716
 4759SOL     OW25909   0.569   4.309   9.018 -0.3613  0.2464  0.2319
 4759SOL    HW125910   0.536   4.227   8.981  0.4998  1.0126 -2.2090
 4759SOL    HW225911   0.529   4.304   9.105  0.8914  1.6565  0.8786
 4760SOL     OW25912   1.902   4.312   9.101  0.3023  0.5104  0.3135
 4760SOL    HW125913   1.963   4.243   9.126 -2.4595 -1.1124  2.6865
 4760SOL    HW225914   1.963   4.365   9.051  1.1878 -1.4481 -0.6715
 4761SOL     OW25915   2.303   1.982   4.630 -0.4235  0.0185 -0.2078
 4761SOL    HW125916   2.367   2.031   4.682  0.6545 -1.8375  0.2116
 4761SOL    HW225917   2.356   1.971   4.551  0.6181  1.5906  0.2612
 4762SOL     OW25918   0.937   1.457  12.124 -0.7088 -0.4420  0.0573
 4762SOL    HW125919   0.993   1.476  12.199 -0.4166 -4.8451  0.9489
 4762SOL    HW225920   0.991   1.386  12.087 -0.8406  0.4793 -1.9128
 4763SOL     OW25921   4.624   3.635   7.341  0.5341  0.5541 -0.4729
 4763SOL    HW125922   4.666   3.705   7.292 -0.6466  1.7837  0.2650
 4763SOL    HW225923   4.535   3.659   7.314 -0.2795  0.3617  2.0417
 4764SOL     OW25924   1.646   1.135   3.858 -0.7209 -0.3244  0.1938
 4764SOL    HW125925   1.665   1.178   3.942  1.7194  0.7905 -0.9281
 4764SOL    HW225926   1.566   1.184   3.837 -0.3279 -0.0903 -0.7520
 4765SOL     OW25927   2.330   2.322   4.406  0.2895  0.0057  0.0348
 4765SOL    HW125928   2.398   2.316   4.339 -0.7302 -1.5857 -0.8397
 4765SOL    HW225929   2.324   2.417   4.413 -2.5521 -0.2014  0.1838
 4766SOL     OW25930   4.202   3.059  10.312  0.4515 -0.4906 -0.3086
 4766SOL    HW125931   4.163   3.145  10.294 -0.2378 -1.0534 -1.5429
 4766SOL    HW225932   4.228   3.071  10.403  1.1217 -0.3855 -0.5176
 4767SOL     OW25933   3.562   3.642   1.761 -0.2722 -0.1812 -0.3615
 4767SOL    HW125934   3.562   3.643   1.666 -0.3257  0.1762 -0.3557
 4767SOL    HW225935   3.529   3.552   1.768  0.9237 -0.5831  0.0669
 4768SOL     OW25936   2.712   1.980  12.552 -1.0218  0.0826 -0.0868
 4768SOL    HW125937   2.762   1.947  12.626 -1.2759  1.0024  0.4958
 4768SOL    HW225938   2.626   1.938  12.556 -1.7228  1.8779  2.9859
 4769SOL     OW25939   2.921   4.299   2.405  0.9182 -0.0107  0.0466
 4769SOL    HW125940   2.952   4.382   2.441 -0.7971  1.4004 -1.7302
 4769SOL    HW225941   2.880   4.253   2.479  0.3786 -1.0670 -0.9194
 4770SOL     OW25942   0.595   4.559   0.397 -0.5183  0.2806  0.3430
 4770SOL    HW125943   0.525   4.624   0.398  0.6358  1.5224  0.8658
 4770SOL    HW225944   0.568   4.491   0.458 -0.9589  0.4307  0.3141
 4771SOL     OW25945   1.922   3.223   4.651  0.0045 -0.2032  0.7301
 4771SOL    HW125946   1.982   3.279   4.601 -2.1938  0.4288 -1.1970
 4771SOL    HW225947   1.901   3.147   4.597  0.9106  0.2326 -0.2289
 4772SOL     OW25948   1.137   1.376   7.478 -0.3046 -0.2520  0.0742
 4772SOL    HW125949   1.129   1.294   7.429  0.8512 -0.7674  0.7563
 4772SOL    HW225950   1.160   1.441   7.411 -1.1365  2.3280  2.3046
 4773SOL     OW25951   3.234   1.130  12.981 -0.3150 -0.4248  0.3669
 4773SOL    HW125952   3.325   1.138  13.006 -0.5077 -0.3337  1.0309
 4773SOL    HW225953   3.219   1.036  12.974 -2.0367  0.0433 -2.4373
 4774SOL     OW25954   2.679   4.663   6.633  0.1279  0.3321  0.1238
 4774SOL    HW125955   2.585   4.684   6.642  0.4176  0.9597  1.7896
 4774SOL    HW225956   2.694   4.608   6.710 -0.5887 -0.1787 -0.1064
 4775SOL     OW25957   4.031   0.675   8.486  0.7095  0.2193  0.5433
 4775SOL    HW125958   4.027   0.581   8.502 -1.6815  0.3324  0.5532
 4775SOL    HW225959   4.091   0.700   8.557  0.2604  0.7549  0.7348
 4776SOL     OW25960   3.900   0.892  13.150 -0.0912  0.5616  0.9362
 4776SOL    HW125961   3.827   0.918  13.094 -1.3345 -3.0421  0.9122
 4776SOL    HW225962   3.926   0.981  13.175  1.9455  0.2722 -0.1419
 4777SOL     OW25963   1.615   0.176  12.825  0.4450 -1.3460 -0.0714
 4777SOL    HW125964   1.537   0.173  12.770  1.7856  0.1465 -2.0815
 4777SOL    HW225965   1.595   0.255  12.875 -2.0457 -2.8796  1.3551
 4778SOL     OW25966   2.505   1.698   5.670  0.5780 -0.6597  0.2669
 4778SOL    HW125967   2.590   1.742   5.675 -1.0366  2.6014 -0.4825
 4778SOL    HW225968   2.488   1.700   5.576  0.7925  1.5649  0.2788
 4779SOL     OW25969   0.962   1.499   5.081 -0.1039  0.6122 -0.5452
 4779SOL    HW125970   0.947   1.487   4.987  0.6598 -1.2569 -0.4203
 4779SOL    HW225971   0.974   1.594   5.078 -1.0755  0.6865 -1.9632
 4780SOL     OW25972   1.616   2.591   7.076  0.6134  0.0803  0.3911
 4780SOL    HW125973   1.567   2.513   7.102  0.6545 -0.6020 -1.6140
 4780SOL    HW225974   1.580   2.658   7.134 -0.9444 -1.2613  0.9860
 4781SOL     OW25975   0.033   0.190   5.061  0.1451 -0.5516  0.5431
 4781SOL    HW125976   0.053   0.113   5.114 -2.8361 -1.7180 -0.0157
 4781SOL    HW225977   0.112   0.242   5.076  0.6065 -1.0428 -0.2155
 4782SOL     OW25978   0.315   4.290   2.076 -0.5975  0.0887 -0.8108
 4782SOL    HW125979   0.264   4.281   2.156  1.4840 -0.9175  0.4085
 4782SOL    HW225980   0.255   4.319   2.008 -0.9991 -1.5353 -1.1385
 4783SOL     OW25981   3.087   3.355   5.270  0.7439 -0.1145  0.4277
 4783SOL    HW125982   3.052   3.427   5.217  1.0423 -1.5156 -1.6665
 4783SOL    HW225983   3.181   3.371   5.284  0.9648 -0.8978 -0.2173
 4784SOL     OW25984   3.227   2.334  11.571  0.2728 -0.0272 -0.8792
 4784SOL    HW125985   3.256   2.252  11.612  0.7300 -1.0874 -3.2967
 4784SOL    HW225986   3.136   2.338  11.602  0.2991  0.1691 -0.8294
 4785SOL     OW25987   0.741   3.687   6.076  0.2030 -0.1253  0.1569
 4785SOL    HW125988   0.799   3.655   6.006  2.3022  3.2583  0.3321
 4785SOL    HW225989   0.756   3.611   6.132 -0.0658 -1.2147 -1.2400
 4786SOL     OW25990   1.664   3.596   2.993 -0.0566  0.2764  0.3409
 4786SOL    HW125991   1.750   3.631   2.970  0.1654  0.4888  1.4660
 4786SOL    HW225992   1.665   3.518   2.937  0.0954  1.2924 -1.0608
 4787SOL     OW25993   3.752   2.547   8.340  0.7074 -0.2812 -0.8252
 4787SOL    HW125994   3.668   2.556   8.295 -0.0992 -0.5302  0.6283
 4787SOL    HW225995   3.742   2.600   8.419  0.1586 -1.8308  0.1592
 4788SOL     OW25996   1.098   2.249   8.656  0.3435 -0.1556  0.2951
 4788SOL    HW125997   1.086   2.191   8.580  2.1529  1.3372 -1.1262
 4788SOL    HW225998   1.031   2.220   8.718 -0.0709 -1.1062 -0.5911
 4789SOL     OW25999   0.101   4.238   8.758  0.0643  0.1056  0.3461
 4789SOL    HW126000   0.148   4.231   8.841  2.1587 -0.7700 -0.9212
 4789SOL    HW226001   0.124   4.162   8.704  1.5778 -0.3515  1.6537
 4790SOL     OW26002   1.856   4.730  15.634  0.6628 -0.1969 -0.1569
 4790SOL    HW126003   1.925   0.048  15.677 -0.3559  0.2600  0.9643
 4790SOL    HW226004   1.780   0.050  15.660  1.3476  1.8805 -2.4211
 4791SOL     OW26005   4.149   2.223   9.181  0.0174 -0.9359  0.6746
 4791SOL    HW126006   4.078   2.165   9.205 -0.4089 -0.9494 -0.6061
 4791SOL    HW226007   4.127   2.234   9.088  1.3779 -0.9317  0.3526
 4792SOL     OW26008   4.270   2.631   8.625 -0.0842 -0.1511 -0.3186
 4792SOL    HW126009   4.324   2.606   8.701 -0.6075  0.2462  0.1840
 4792SOL    HW226010   4.303   2.720   8.613  1.2250 -0.6241 -0.2674
 4793SOL     OW26011   1.119   4.359   5.167 -0.1220 -0.2317  0.2716
 4793SOL    HW126012   1.197   4.368   5.222 -1.1280  3.7971  0.9795
 4793SOL    HW226013   1.116   4.263   5.170  1.5895 -0.3366 -0.9739
 4794SOL     OW26014   4.517   3.892   7.216  0.5353  0.2958  0.4229
 4794SOL    HW126015   4.424   3.896   7.240  0.5670 -0.7170  0.7386
 4794SOL    HW226016   4.525   3.978   7.175 -1.8307 -0.2116 -1.0808
 4795SOL     OW26017   4.215   0.989  16.372  0.4846  0.4365 -0.2731
 4795SOL    HW126018   4.211   0.926  16.444 -0.7243 -0.5321 -1.1884
 4795SOL    HW226019   4.122   0.995  16.350  1.1085  0.5624 -2.8584
 4796SOL     OW26020   0.469   1.804   2.416 -0.1882  0.1987 -0.6433
 4796SOL    HW126021   0.437   1.883   2.372  0.5238  1.2697  0.7281
 4796SOL    HW226022   0.452   1.826   2.508  0.2932 -0.7351 -0.3344
 4797SOL     OW26023   2.026   0.556   6.245  0.0958 -0.1848  0.1261
 4797SOL    HW126024   2.119   0.532   6.244 -0.1979 -1.2558 -1.4297
 4797SOL    HW226025   2.027   0.641   6.201  1.7497 -0.2032  0.1343
 4798SOL     OW26026   3.431   0.211   2.477 -0.0021 -0.0270  0.6237
 4798SOL    HW126027   3.402   0.174   2.393 -0.8283 -0.1875  0.9719
 4798SOL    HW226028   3.522   0.232   2.458 -0.3992  0.6391 -0.5585
 4799SOL     OW26029   3.520   0.366  13.779  0.0765  0.2036 -0.3197
 4799SOL    HW126030   3.490   0.385  13.867  0.4623 -0.5130 -0.0304
 4799SOL    HW226031   3.610   0.398  13.786 -0.0996  1.0358 -1.8298
 4800SOL     OW26032   0.528   3.393   6.992 -0.0860 -0.3142  0.1035
 4800SOL    HW126033   0.567   3.347   7.067 -0.4576 -1.6318 -0.5068
 4800SOL    HW226034   0.523   3.327   6.922  3.6387  1.1513 -1.5287
 4801SOL     OW26035   1.739   3.934   5.784  0.2732  0.0702  0.4661
 4801SOL    HW126036   1.827   3.965   5.803  0.3722 -0.2665  0.5554
 4801SOL    HW226037   1.704   4.004   5.730  0.8734  0.5634  0.7298
 4802SOL     OW26038   0.485   3.130   8.446 -0.1450 -0.0965  0.3004
 4802SOL    HW126039   0.570   3.108   8.408 -0.4532 -0.7583  0.0020
 4802SOL    HW226040   0.442   3.053   8.410  1.9735 -1.3140  0.4047
 4803SOL     OW26041   0.677   2.618   4.314  0.3844 -0.4334 -0.0530
 4803SOL    HW126042   0.722   2.703   4.313 -2.2810  0.9539 -0.9503
 4803SOL    HW226043   0.745   2.551   4.307 -1.1229 -2.0924  1.4856
 4804SOL     OW26044   0.037   4.161   6.112 -0.0534 -0.5787  0.2555
 4804SOL    HW126045   0.068   4.098   6.047  0.0011  0.0793 -0.3571
 4804SOL    HW226046   0.078   4.241   6.080  1.1190 -1.3744 -0.2400
 4805SOL     OW26047   4.591   0.580   1.443 -0.7113 -0.3009 -0.0532
 4805SOL    HW126048   4.653   0.646   1.412 -2.6964  0.3418 -2.6882
 4805SOL    HW226049   4.584   0.519   1.369 -1.1011 -0.2626 -0.0500
 4806SOL     OW26050   1.030   4.539   8.824  0.8614 -0.2393  0.2168
 4806SOL    HW126051   0.954   4.487   8.852  2.1459 -1.4389  1.4591
 4806SOL    HW226052   0.987   4.620   8.797  0.6581 -0.1560  0.8003
 4807SOL     OW26053   4.347   3.256   8.045 -0.4787  0.3154  0.5837
 4807SOL    HW126054   4.394   3.182   8.008 -0.2047  0.8110 -0.0634
 4807SOL    HW226055   4.256   3.228   8.036 -0.5274  0.6038  0.1907
 4808SOL     OW26056   1.245   1.213   3.112 -0.8647 -0.3882  0.3136
 4808SOL    HW126057   1.295   1.175   3.184 -0.3322  0.6019  0.4658
 4808SOL    HW226058   1.261   1.305   3.132 -0.1163 -0.4719  0.0834
 4809SOL     OW26059   3.657   3.057  11.455 -0.4738 -0.0906  0.1559
 4809SOL    HW126060   3.573   3.013  11.468 -0.2244 -0.0779  1.7409
 4809SOL    HW226061   3.645   3.145  11.492  1.0546 -0.7602  2.2327
 4810SOL     OW26062   4.310   4.051   6.057 -0.4189 -0.1726 -0.4543
 4810SOL    HW126063   4.246   4.065   5.987 -0.5737 -1.7526 -0.6283
 4810SOL    HW226064   4.270   3.990   6.119  0.0653 -1.1939 -1.1552
 4811SOL     OW26065   0.344   2.878   6.041  0.6926 -0.1551  0.2380
 4811SOL    HW126066   0.374   2.851   6.127  3.1301 -1.6231 -1.0847
 4811SOL    HW226067   0.375   2.968   6.034 -0.5967  0.3571  1.0307
 4812SOL     OW26068   3.981   1.665   7.415 -0.1394 -0.0645 -0.0725
 4812SOL    HW126069   3.930   1.666   7.334 -2.2019  1.4160  1.2576
 4812SOL    HW226070   3.964   1.580   7.455 -0.0493 -0.8318 -1.6644
 4813SOL     OW26071   1.000   4.086   7.583  0.7329  0.7305 -0.1582
 4813SOL    HW126072   1.065   4.125   7.642 -0.4061  1.8876  0.3314
 4813SOL    HW226073   1.052   4.060   7.507  0.3711  0.7215 -0.3980
 4814SOL     OW26074   3.759   3.947  17.154  0.3702 -0.6440 -0.3700
 4814SOL    HW126075   3.830   3.986  17.103 -1.3474  2.5951 -0.2223
 4814SOL    HW226076   3.685   3.944  17.094 -0.8001 -1.8064  1.1080
 4815SOL     OW26077   1.265   3.213   4.084  0.3365 -0.7986  0.2584
 4815SOL    HW126078   1.291   3.233   4.174  1.3860  2.3901 -0.7693
 4815SOL    HW226079   1.344   3.163   4.063  0.0188 -1.8694  1.6242
 4816SOL     OW26080   2.527   0.768  12.874 -0.0394 -0.2335 -0.2598
 4816SOL    HW126081   2.485   0.688  12.905  0.8442 -0.5845  0.0359
 4816SOL    HW226082   2.614   0.769  12.913  0.5905  2.7535 -1.7096
 4817SOL     OW26083   0.122   4.483   4.132  0.3979 -0.1643 -0.0327
 4817SOL    HW126084   0.170   4.563   4.109  1.7299  0.1067  3.7612
 4817SOL    HW226085   0.093   4.453   4.046  2.0284  2.8493 -1.6395
 4818SOL     OW26086   2.425   3.208   3.268  0.0208 -0.0974 -0.2594
 4818SOL    HW126087   2.350   3.251   3.226  0.0920  0.6541  0.3788
 4818SOL    HW226088   2.474   3.191   3.188  0.5536  1.6604 -0.3157
 4819SOL     OW26089   2.284   4.432  15.814  0.7282  0.1642 -0.3009
 4819SOL    HW126090   2.189   4.435  15.824  0.5050 -0.8977 -1.9836
 4819SOL    HW226091   2.299   4.408  15.905  0.2907  0.2640 -0.2051
 4820SOL     OW26092   3.983   3.858  15.416  0.4467 -0.3537 -0.1852
 4820SOL    HW126093   3.909   3.866  15.356  0.0742 -1.0614  0.1847
 4820SOL    HW226094   3.983   3.766  15.442 -0.5659 -0.1967  0.3579
 4821SOL     OW26095   3.576   0.689   8.314 -0.0016 -0.2977 -0.4950
 4821SOL    HW126096   3.550   0.779   8.331 -0.1512 -0.8362  2.1224
 4821SOL    HW226097   3.656   0.712   8.267  0.2617 -0.0889  0.0555
 4822SOL     OW26098   4.611   3.444   9.226 -0.2074 -0.1458 -0.4202
 4822SOL    HW126099   4.589   3.537   9.220 -1.2178 -0.5585 -2.9409
 4822SOL    HW226100   4.528   3.404   9.200 -1.2840  0.2538  2.4056
 4823SOL     OW26101   0.078   2.099   4.489  0.1415  0.5702  0.4196
 4823SOL    HW126102   0.069   2.108   4.584 -0.2193  0.2529  0.4156
 4823SOL    HW226103   0.156   2.044   4.486  0.9116  1.7072 -0.1834
 4824SOL     OW26104   2.842   1.576   3.577  0.1238 -0.4793 -0.3180
 4824SOL    HW126105   2.869   1.488   3.602 -0.4703 -1.1379 -2.0258
 4824SOL    HW226106   2.793   1.561   3.496 -1.3359 -2.2694  0.9079
 4825SOL     OW26107   3.025   3.212   6.177 -0.4256  0.2121  0.0515
 4825SOL    HW126108   3.110   3.168   6.175 -0.7408 -0.4171  0.5024
 4825SOL    HW226109   3.026   3.247   6.088  1.1492  2.6655  1.0159
 4826SOL     OW26110   2.423   3.475   6.762 -0.4181 -0.3011  0.6303
 4826SOL    HW126111   2.470   3.551   6.796 -1.2706  0.6327 -0.2932
 4826SOL    HW226112   2.365   3.458   6.836 -1.4724  2.5512  0.4603
 4827SOL     OW26113   4.706   0.143   0.870  0.0985  0.2004 -0.0487
 4827SOL    HW126114   0.056   0.096   0.881 -1.1641 -2.1056 -0.4126
 4827SOL    HW226115   4.650   0.067   0.855  1.4388 -0.7791 -0.0884
 4828SOL     OW26116   2.027   1.031  11.550 -0.5940  0.5461  0.3098
 4828SOL    HW126117   2.034   0.987  11.635 -0.2047  1.5049  0.7788
 4828SOL    HW226118   1.935   1.011  11.532 -0.6094 -0.0346  1.0323
 4829SOL     OW26119   0.036   3.947  13.594  0.6679 -0.0456  0.4488
 4829SOL    HW126120   4.714   4.015  13.634  1.6211  1.6403 -1.1053
 4829SOL    HW226121   0.078   3.903  13.668 -1.5280  0.4414  1.9634
 4830SOL     OW26122   4.681   1.442   4.925  0.3540  0.5405  0.2109
 4830SOL    HW126123   4.621   1.444   5.000  2.3488 -0.2775  1.8289
 4830SOL    HW226124   4.626   1.467   4.851  1.0336  1.3558 -0.0195
 4831SOL     OW26125   2.824   0.021   1.680  0.4155  0.0602 -0.0900
 4831SOL    HW126126   2.862   0.080   1.615  1.4528  0.4102  0.8228
 4831SOL    HW226127   2.861   0.046   1.765  2.0072  1.2069 -1.1200
 4832SOL     OW26128   4.422   3.768   0.349 -0.3837 -0.4591 -0.6405
 4832SOL    HW126129   4.449   3.858   0.329 -1.7780  0.1521  0.1870
 4832SOL    HW226130   4.447   3.715   0.273  0.3613 -0.8453 -0.1153
 4833SOL     OW26131   3.739   4.037   0.502  0.1989 -0.7578  0.1003
 4833SOL    HW126132   3.711   4.106   0.562  2.5313 -0.6243  1.0260
 4833SOL    HW226133   3.751   4.091   0.424  5.6740 -1.3437  0.5314
 4834SOL     OW26134   0.530   3.572  10.655 -0.4859 -0.5442  0.0526
 4834SOL    HW126135   0.531   3.654  10.606 -1.5907  0.1455  1.1609
 4834SOL    HW226136   0.501   3.594  10.744 -1.7429 -1.0763 -0.2258
 4835SOL     OW26137   1.148   2.024  10.878 -0.2414 -0.3378  0.1418
 4835SOL    HW126138   1.054   2.019  10.863  0.0105 -1.9755 -0.9288
 4835SOL    HW226139   1.155   2.118  10.868  1.3407 -0.7171 -2.2274
 4836SOL     OW26140   4.332   0.814   5.095  0.0116  0.5750  0.7173
 4836SOL    HW126141   4.273   0.739   5.087 -1.5222  1.8368  0.1491
 4836SOL    HW226142   4.356   0.830   5.004 -0.4372  1.3228  0.7344
 4837SOL     OW26143   4.307   0.622   3.672 -0.0798 -0.2161 -0.5955
 4837SOL    HW126144   4.236   0.684   3.653 -0.5849 -0.5415  0.2579
 4837SOL    HW226145   4.296   0.566   3.596  0.5363  1.9084 -2.2736
 4838SOL     OW26146   1.073   0.555   6.683  0.5292 -0.2532  0.0804
 4838SOL    HW126147   0.994   0.595   6.648  0.6138  0.4423  0.6992
 4838SOL    HW226148   1.111   0.518   6.603  0.8185 -0.3075  0.2406
 4839SOL     OW26149   4.305   3.580   3.900  0.6018  0.3198  0.6479
 4839SOL    HW126150   4.275   3.516   3.965  0.6843 -0.0912  0.2781
 4839SOL    HW226151   4.395   3.548   3.894 -0.5573 -2.3740 -2.4471
 4840SOL     OW26152   3.043   2.154   0.830  0.6426 -0.8608  0.1530
 4840SOL    HW126153   3.037   2.160   0.735 -2.9545 -0.2240  0.4344
 4840SOL    HW226154   3.109   2.085   0.836  1.0038 -0.4268  1.2982
 4841SOL     OW26155   3.245   4.222   6.525  0.4241  0.1769  0.1098
 4841SOL    HW126156   3.194   4.288   6.572 -1.3753  1.3839 -3.5539
 4841SOL    HW226157   3.238   4.148   6.585 -0.1079  1.2444  1.3605
 4842SOL     OW26158   1.180   4.598   6.440 -0.3749 -0.5511 -0.4836
 4842SOL    HW126159   1.260   4.631   6.398  0.0283  1.4488  1.8595
 4842SOL    HW226160   1.146   4.681   6.472 -0.9947 -1.4388  1.1039
 4843SOL     OW26161   4.088   0.437   4.538 -0.0667 -0.2724  0.0138
 4843SOL    HW126162   4.026   0.376   4.497  1.3306 -1.6525 -0.0675
 4843SOL    HW226163   4.103   0.391   4.621  0.9108 -0.8086 -0.4534
 4844SOL     OW26164   3.130   4.625  12.753  0.3891  0.6350  0.4294
 4844SOL    HW126165   3.162   4.545  12.713 -1.5506 -0.6713  1.5081
 4844SOL    HW226166   3.037   4.623  12.729  0.2650  1.1515  0.8730
 4845SOL     OW26167   2.566   3.978   4.389  0.2534  0.1624 -0.2438
 4845SOL    HW126168   2.615   3.975   4.306 -0.0046  0.3664 -0.4007
 4845SOL    HW226169   2.590   4.064   4.422 -5.3447  1.6531 -0.1611
 4846SOL     OW26170   0.155   0.623   1.928  0.2659 -0.1989 -0.0749
 4846SOL    HW126171   0.117   0.706   1.898  1.2807  0.7699  1.2920
 4846SOL    HW226172   0.239   0.658   1.960  0.9888 -1.1580 -0.9040
 4847SOL     OW26173   1.810   1.858   6.748 -0.5373 -0.2484  0.0995
 4847SOL    HW126174   1.862   1.883   6.672 -0.1139  0.5240  0.6398
 4847SOL    HW226175   1.779   1.778   6.706  1.3695 -0.6489 -0.5283
 4848SOL     OW26176   1.830   3.317   5.731  0.2627 -0.5258 -0.3920
 4848SOL    HW126177   1.856   3.391   5.676 -0.6853 -0.8288 -1.2445
 4848SOL    HW226178   1.912   3.300   5.777 -0.2802 -2.3573 -0.0755
 4849SOL     OW26179   1.318   1.220   1.195 -0.4972  0.9188  0.3057
 4849SOL    HW126180   1.312   1.234   1.290 -1.1543 -1.1263  0.5713
 4849SOL    HW226181   1.308   1.311   1.169  2.5545  1.1430 -0.0853
 4850SOL     OW26182   1.025   0.544   4.856 -0.2398 -0.0202  0.4930
 4850SOL    HW126183   1.051   0.525   4.946  0.5229 -0.5952  0.1434
 4850SOL    HW226184   0.937   0.577   4.874 -0.4424 -1.3547  1.9688
 4851SOL     OW26185   1.624   1.053   0.043 -0.0992  0.0514 -0.3978
 4851SOL    HW126186   1.631   1.075   0.136 -2.9317  1.9050 -0.6351
 4851SOL    HW226187   1.538   1.082   0.014  0.5253  0.2325 -2.0753
 4852SOL     OW26188   0.032   4.157   9.192  0.0233  0.1425  0.0761
 4852SOL    HW126189   0.050   4.149   9.286 -1.8246 -1.0304  0.3246
 4852SOL    HW226190   4.669   4.156   9.183 -0.0823 -0.2015  1.2877
 4853SOL     OW26191   3.459   2.154   8.293 -0.0540 -0.0153  0.4657
 4853SOL    HW126192   3.396   2.202   8.239  0.9140  0.6314 -0.0767
 4853SOL    HW226193   3.530   2.217   8.305  0.0549 -0.2597  1.1192
 4854SOL     OW26194   0.655   1.367   8.701  0.5935  0.2199  0.7072
 4854SOL    HW126195   0.657   1.439   8.764  0.0332 -0.8657  1.9720
 4854SOL    HW226196   0.734   1.392   8.653  2.0170 -3.4338  1.1064
 4855SOL     OW26197   0.816   1.004   8.956  0.2017 -0.5434 -0.4657
 4855SOL    HW126198   0.739   1.008   9.012  0.1914 -1.4517 -0.4195
 4855SOL    HW226199   0.884   0.963   9.010 -0.3325 -1.7728 -0.7431
 4856SOL     OW26200   2.155   1.816  11.833 -0.5828  0.4176  0.1479
 4856SOL    HW126201   2.220   1.844  11.897  2.0907 -1.2096 -1.8385
 4856SOL    HW226202   2.149   1.896  11.781  1.4966  1.5544  1.6558
 4857SOL     OW26203   4.219   4.534   2.508  0.0604 -0.1207  0.3725
 4857SOL    HW126204   4.302   4.580   2.512 -0.6209  1.2121 -0.7004
 4857SOL    HW226205   4.189   4.568   2.592  3.6980  1.9316  0.8287
 4858SOL     OW26206   3.926   1.835  12.351  0.7250 -0.1508 -0.2344
 4858SOL    HW126207   4.018   1.820  12.371 -0.0497 -2.6732  1.3721
 4858SOL    HW226208   3.888   1.840  12.439  0.7250  1.3373 -0.3161
 4859SOL     OW26209   1.823   0.363  17.664  0.4623 -0.0310 -0.1381
 4859SOL    HW126210   1.819   0.344   0.029  2.7929 -0.1220 -0.0517
 4859SOL    HW226211   1.781   0.282  17.633 -1.2021  1.0924 -0.7844
 4860SOL     OW26212   3.430   1.295   6.134 -0.5647 -0.6834  0.3726
 4860SOL    HW126213   3.452   1.203   6.149 -0.5306 -0.8618 -0.7847
 4860SOL    HW226214   3.501   1.347   6.171 -0.7563 -0.9978  1.1915
 4861SOL     OW26215   2.969   2.987   8.332 -0.2331 -0.0916 -0.7117
 4861SOL    HW126216   2.928   3.004   8.247  0.5995  2.7704 -0.5603
 4861SOL    HW226217   2.923   3.042   8.395  2.2200 -0.7784  1.6813
 4862SOL     OW26218   0.609   2.216  13.837  0.1114 -0.0260  0.4144
 4862SOL    HW126219   0.534   2.226  13.777  0.6814  2.9959  0.2149
 4862SOL    HW226220   0.646   2.132  13.813 -0.5605  0.1654 -1.3052
 4863SOL     OW26221   3.281   0.699   7.534 -0.2072  0.3463  0.0461
 4863SOL    HW126222   3.255   0.791   7.545 -1.7358 -0.1152  0.3889
 4863SOL    HW226223   3.279   0.659   7.621  3.4040  0.7965  0.3166
 4864SOL     OW26224   2.993   2.345  13.094  0.4568 -0.2997 -0.1410
 4864SOL    HW126225   2.957   2.281  13.034  1.6028 -0.3806 -0.7415
 4864SOL    HW226226   3.070   2.377  13.047 -1.3149  2.8849 -0.9188
 4865SOL     OW26227   0.578   0.169  16.769  0.0397 -0.3286 -0.5945
 4865SOL    HW126228   0.562   0.245  16.714 -2.7176  0.8052  1.8107
 4865SOL    HW226229   0.543   0.193  16.854 -0.4222  1.0026 -1.1646
 4866SOL     OW26230   4.245   0.369   2.755  0.2762 -0.4834 -0.6974
 4866SOL    HW126231   4.260   0.363   2.849  0.4123 -0.8859 -0.7436
 4866SOL    HW226232   4.305   0.441   2.738 -2.1774  1.0591 -2.8345
 4867SOL     OW26233   4.317   3.338   9.145 -0.5101 -0.2587 -0.0642
 4867SOL    HW126234   4.286   3.417   9.188 -0.4818 -0.7597  0.8826
 4867SOL    HW226235   4.295   3.356   9.053 -0.5878 -0.2367 -0.0415
 4868SOL     OW26236   4.576   4.147   3.932 -0.2118  0.2639  0.0522
 4868SOL    HW126237   4.603   4.179   4.018 -2.7653  0.8429  0.6282
 4868SOL    HW226238   4.526   4.228   3.920  1.2822  1.2988  0.7877
 4869SOL     OW26239   2.555   2.864  14.621  0.2526  0.5521 -0.5568
 4869SOL    HW126240   2.619   2.825  14.562 -0.3121  0.0678 -0.8519
 4869SOL    HW226241   2.538   2.949  14.581  0.7507  0.4660 -0.9473
 4870SOL     OW26242   2.879   2.266   7.095 -0.4208  0.3779 -0.2504
 4870SOL    HW126243   2.792   2.228   7.087 -0.1765 -0.7286  2.5128
 4870SOL    HW226244   2.884   2.330   7.024 -1.9571  0.2776 -0.4361
 4871SOL     OW26245   2.474   4.343   7.027 -0.0707  0.1561 -0.0772
 4871SOL    HW126246   2.461   4.364   7.120  1.1848 -0.0920  0.1518
 4871SOL    HW226247   2.478   4.248   7.041  1.4819 -0.3141 -3.8194
 4872SOL     OW26248   1.004   4.130   6.671  0.0162 -0.0131 -0.1438
 4872SOL    HW126249   0.916   4.151   6.701  0.9958  1.7530  1.4521
 4872SOL    HW226250   1.020   4.208   6.617  3.4202 -1.3538 -1.0855
 4873SOL     OW26251   2.504   0.504  11.848 -0.1009  0.0436 -0.0091
 4873SOL    HW126252   2.437   0.531  11.785  1.1360 -0.8767 -1.7265
 4873SOL    HW226253   2.528   0.419  11.811 -1.2474 -0.4359  0.3673
 4874SOL     OW26254   3.482   3.147   9.155 -0.3149 -0.0941  0.0913
 4874SOL    HW126255   3.520   3.082   9.215 -0.3294 -0.2942 -0.1159
 4874SOL    HW226256   3.567   3.181   9.126 -0.7922  0.9886 -0.0021
 4875SOL     OW26257   3.206   2.534  16.865 -0.4588  0.4957 -0.2396
 4875SOL    HW126258   3.214   2.625  16.839 -1.8217  0.8948  0.7600
 4875SOL    HW226259   3.297   2.504  16.869 -0.5752  0.2031  0.1948
 4876SOL     OW26260   0.091   0.716   3.842 -0.6543 -0.1796  0.2048
 4876SOL    HW126261   0.043   0.700   3.761  0.0530 -0.9949 -0.0511
 4876SOL    HW226262   0.030   0.780   3.878 -0.5667  0.3246 -0.5306
 4877SOL     OW26263   1.159   4.689   2.457 -0.3508  0.1625 -0.6865
 4877SOL    HW126264   1.137   4.662   2.546  0.7620  0.6539 -0.2660
 4877SOL    HW226265   1.247   4.651   2.454  0.2270  1.5293 -0.9102
 4878SOL     OW26266   2.015   0.934  10.787  0.0677 -0.1827 -0.1410
 4878SOL    HW126267   1.969   0.954  10.706  1.8144  1.1092 -0.7849
 4878SOL    HW226268   1.964   0.991  10.845  0.3670  1.6236 -1.6933
 4879SOL     OW26269   3.135   0.617  12.206  0.3724  0.0938 -0.1172
 4879SOL    HW126270   3.079   0.633  12.282  1.6082 -1.0168  1.0469
 4879SOL    HW226271   3.086   0.657  12.135  1.4233 -0.8100 -1.3634
 4880SOL     OW26272   0.395   3.044   3.890 -0.1364 -0.2756  0.2646
 4880SOL    HW126273   0.381   3.070   3.799 -1.0395  0.1257  0.5211
 4880SOL    HW226274   0.344   2.966   3.873 -1.4939  0.6977 -0.1042
 4881SOL     OW26275   0.412   3.325   5.531  0.0367 -0.0894 -0.4483
 4881SOL    HW126276   0.348   3.347   5.463  0.3099 -0.1010 -0.7127
 4881SOL    HW226277   0.492   3.350   5.484  0.3816  0.5890  0.4932
 4882SOL     OW26278   3.083   4.205  12.900  0.5637 -0.7681  0.0030
 4882SOL    HW126279   2.988   4.208  12.907  0.5365 -0.7054 -0.4101
 4882SOL    HW226280   3.097   4.206  12.805  1.0789 -0.1226  0.0866
 4883SOL     OW26281   2.525   2.237   3.466  0.8552  0.5498  0.8006
 4883SOL    HW126282   2.579   2.276   3.535  0.4934  1.6520  0.4464
 4883SOL    HW226283   2.510   2.151   3.507  3.3630 -0.1365  0.2796
 4884SOL     OW26284   0.869   4.021   8.812  0.1054  0.0759  0.1081
 4884SOL    HW126285   0.837   4.095   8.761  2.4850  3.0817  2.9104
 4884SOL    HW226286   0.962   4.036   8.796  0.0618  1.7514  1.3296
 4885SOL     OW26287   4.283   0.390   5.381  0.1097  0.1216 -0.6391
 4885SOL    HW126288   4.343   0.424   5.314  1.6081  0.4657  0.8971
 4885SOL    HW226289   4.199   0.421   5.347 -0.4761 -0.2367  0.4906
 4886SOL     OW26290   3.528   3.541  13.423 -0.2040  0.4953  0.0537
 4886SOL    HW126291   3.457   3.605  13.426 -0.8198 -0.1076 -1.6267
 4886SOL    HW226292   3.555   3.554  13.332 -0.3888 -0.7989 -0.1830
 4887SOL     OW26293   1.793   4.085  11.575  0.5282  0.1554  0.2223
 4887SOL    HW126294   1.732   4.097  11.502 -0.1091  0.3975  0.7957
 4887SOL    HW226295   1.844   4.020  11.528 -0.5247 -1.2913  1.0803
 4888SOL     OW26296   3.680   3.281   6.041  0.5565  0.4808  0.0901
 4888SOL    HW126297   3.737   3.355   6.064 -0.5275  1.3686 -0.1149
 4888SOL    HW226298   3.675   3.222   6.116  1.3062  1.3315  0.8082
 4889SOL     OW26299   1.712   2.552   2.800  0.2235  0.4023  0.5844
 4889SOL    HW126300   1.623   2.524   2.775 -0.0663  0.8167  1.1675
 4889SOL    HW226301   1.744   2.593   2.719  1.7683  0.7339  1.3779
 4890SOL     OW26302   3.386   3.353   1.524  0.7816 -0.3787  0.7364
 4890SOL    HW126303   3.325   3.389   1.459  0.0316 -1.1869  0.9973
 4890SOL    HW226304   3.465   3.346   1.469  0.2616  3.1656 -0.5001
 4891SOL     OW26305   4.358   3.137   4.803 -0.4184 -0.5504  0.3045
 4891SOL    HW126306   4.290   3.074   4.825  0.1687 -0.9104  1.0818
 4891SOL    HW226307   4.425   3.075   4.774  1.3038  1.4075  0.1456
 4892SOL     OW26308   1.975   0.497   0.755  0.1167  0.1878  0.0624
 4892SOL    HW126309   1.911   0.564   0.731  0.9741  0.8636 -0.3538
 4892SOL    HW226310   1.922   0.432   0.800 -0.8889  2.1021  1.6366
 4893SOL     OW26311   0.977   0.938   5.734 -0.3412  0.0232 -0.3822
 4893SOL    HW126312   0.954   0.912   5.645 -2.4556 -1.7888  0.6844
 4893SOL    HW226313   0.957   1.031   5.736 -0.0740  0.1161 -2.0355
 4894SOL     OW26314   1.019   4.536  17.171 -0.3593 -0.0532  0.0788
 4894SOL    HW126315   0.964   4.569  17.242  0.0198  0.8189 -0.0414
 4894SOL    HW226316   1.015   4.442  17.193  1.5150  0.2993  1.9904
 4895SOL     OW26317   0.115   4.352   3.884  0.0022  0.1902  0.1488
 4895SOL    HW126318   0.208   4.334   3.876  0.3390  1.3941  1.3225
 4895SOL    HW226319   0.107   4.418   3.815  0.3245  0.3195  0.2372
 4896SOL     OW26320   3.734   1.078   5.423  0.0019  1.1723 -0.0070
 4896SOL    HW126321   3.744   1.038   5.510  2.5902 -0.2714 -0.9557
 4896SOL    HW226322   3.644   1.109   5.429 -0.0084  1.0729  0.3601
 4897SOL     OW26323   0.565   0.264  12.755  0.0729  0.1343 -0.0878
 4897SOL    HW126324   0.617   0.343  12.765  0.1778  0.0196  0.2595
 4897SOL    HW226325   0.481   0.304  12.776 -0.2513  0.4999 -2.0451
 4898SOL     OW26326   2.714   3.782   3.976 -0.4764 -0.0224  0.4192
 4898SOL    HW126327   2.637   3.773   4.031 -0.1488  0.1412  0.9031
 4898SOL    HW226328   2.787   3.758   4.034  0.9357  3.4493  0.0685
 4899SOL     OW26329   0.163   2.429   3.966 -0.1747  0.5026 -0.2209
 4899SOL    HW126330   0.112   2.359   3.925  1.5513 -0.7040 -0.3232
 4899SOL    HW226331   0.206   2.470   3.891 -0.5160  0.3013 -0.5243
 4900SOL     OW26332   2.149   2.860   0.671  0.9551 -0.5080  0.1352
 4900SOL    HW126333   2.142   2.885   0.578  2.9424  3.5360  1.0627
 4900SOL    HW226334   2.095   2.782   0.678  0.9560 -0.3913  1.4618
 4901SOL     OW26335   0.659   3.142   3.786 -0.4141  0.0186 -0.3941
 4901SOL    HW126336   0.605   3.120   3.710  1.2532  0.2626 -1.6186
 4901SOL    HW226337   0.608   3.112   3.862 -0.3702 -1.6231 -1.0277
 4902SOL     OW26338   4.232   4.554   7.171  0.1050 -0.2811 -0.6390
 4902SOL    HW126339   4.265   4.464   7.169  0.7125 -0.1572  2.8246
 4902SOL    HW226340   4.294   4.595   7.111 -0.8984  2.0645 -0.0767
 4903SOL     OW26341   0.443   2.550   6.243 -0.2992 -0.1394 -0.5594
 4903SOL    HW126342   0.449   2.485   6.173  0.3630  1.3944 -1.9402
 4903SOL    HW226343   0.349   2.549   6.260 -0.2623 -3.6267 -0.4450
 4904SOL     OW26344   3.308   0.867   5.550 -0.2321  0.3411 -0.0955
 4904SOL    HW126345   3.233   0.926   5.551 -0.6199 -0.1179 -2.1543
 4904SOL    HW226346   3.267   0.782   5.531  0.4743  0.3345 -1.5835
 4905SOL     OW26347   3.543   3.353   1.893 -0.1257  0.2334 -0.3307
 4905SOL    HW126348   3.506   3.353   1.981  1.5664 -2.5688  0.3756
 4905SOL    HW226349   3.614   3.288   1.894  0.7581  1.2110  0.6018
 4906SOL     OW26350   2.366   2.219   6.432  0.3599 -0.2554 -0.3945
 4906SOL    HW126351   2.336   2.129   6.449 -1.9446  0.0584 -2.7639
 4906SOL    HW226352   2.333   2.272   6.504 -1.8097 -1.8755 -0.1735
 4907SOL     OW26353   3.387   3.116   8.296  0.3288  0.1860  0.5146
 4907SOL    HW126354   3.453   3.179   8.267 -0.0543  0.7431  0.8649
 4907SOL    HW226355   3.309   3.170   8.282 -0.1567 -0.6839 -0.1697
 4908SOL     OW26356   3.933   4.465   0.381  0.1881  0.1179 -0.4025
 4908SOL    HW126357   3.965   4.483   0.469 -0.3042 -1.6699  0.1402
 4908SOL    HW226358   3.909   4.549   0.341  0.1108 -0.2667 -1.1673
 4909SOL     OW26359   1.304   0.230   5.658  0.4413 -0.1524 -0.2739
 4909SOL    HW126360   1.227   0.186   5.694  0.6023 -1.0471 -1.0287
 4909SOL    HW226361   1.276   0.245   5.568  2.4660  0.5710 -0.7730
 4910SOL     OW26362   1.948   3.272   9.011  0.6181  0.0963  0.0996
 4910SOL    HW126363   1.889   3.234   8.946  0.3653  1.7097 -0.6192
 4910SOL    HW226364   1.914   3.359   9.034 -0.1290 -0.1651 -0.0202
 4911SOL     OW26365   4.326   2.481   4.837 -0.1524  0.3304  0.4672
 4911SOL    HW126366   4.283   2.452   4.918  0.7809 -0.2777  0.7503
 4911SOL    HW226367   4.347   2.391   4.811 -2.5651 -0.4554  1.1771
 4912SOL     OW26368   3.677   1.858  15.126 -0.0303  0.0360  0.4076
 4912SOL    HW126369   3.718   1.940  15.155  2.7292 -1.2227 -0.0413
 4912SOL    HW226370   3.646   1.879  15.038  0.4468  2.5407  0.8197
 4913SOL     OW26371   3.080   3.636   2.585 -0.1773  0.5907  0.2416
 4913SOL    HW126372   3.094   3.603   2.496  0.5120 -1.8815  1.2513
 4913SOL    HW226373   2.987   3.657   2.584  0.0764  1.7608  1.6730
 4914SOL     OW26374   2.932   4.659   0.363 -0.2648 -0.0049 -0.2274
 4914SOL    HW126375   3.024   4.674   0.387 -1.0816  0.7859  2.4230
 4914SOL    HW226376   2.916   4.572   0.399 -0.1534  0.3250  0.6265
 4915SOL     OW26377   0.874   2.544  14.884  0.0180  0.2347  0.0103
 4915SOL    HW126378   0.823   2.612  14.840 -1.5428 -0.6550  0.4383
 4915SOL    HW226379   0.910   2.589  14.960 -1.5559 -1.2362  1.6201
 4916SOL     OW26380   0.809   3.248   5.087  0.2238 -0.0100  0.0776
 4916SOL    HW126381   0.871   3.247   5.160  0.7955  2.4955 -0.3824
 4916SOL    HW226382   0.870   3.240   5.013 -0.2555  1.9343 -0.5183
 4917SOL     OW26383   0.964   4.607   5.819  0.2365  0.3844 -0.0748
 4917SOL    HW126384   0.949   4.516   5.847  1.4865 -0.3046 -1.6084
 4917SOL    HW226385   0.883   4.631   5.774  0.0240  1.1871  0.7468
 4918SOL     OW26386   2.258   2.032   7.224  0.0699  0.0901  0.3636
 4918SOL    HW126387   2.176   2.073   7.252 -1.1919 -2.0650 -0.2075
 4918SOL    HW226388   2.335   2.087   7.240  0.2928  0.3009 -1.4536
 4919SOL     OW26389   3.302   0.591   8.296 -0.2442 -0.2955 -0.2955
 4919SOL    HW126390   3.323   0.565   8.206 -2.5726 -0.0837 -0.8867
 4919SOL    HW226391   3.338   0.680   8.296 -3.2605  0.8975  0.3380
 4920SOL     OW26392   0.833   1.041   4.960 -0.0571 -0.2089 -0.1581
 4920SOL    HW126393   0.767   0.985   5.001  0.1321  0.8406  1.5893
 4920SOL    HW226394   0.775   1.117   4.951  1.7862  1.1419 -0.5701
 4921SOL     OW26395   4.124   3.233   9.661  0.1231  0.4973  0.1121
 4921SOL    HW126396   4.219   3.228   9.655 -0.0247 -0.7914 -1.1660
 4921SOL    HW226397   4.113   3.239   9.755  1.2851  0.8124  0.2258
 4922SOL     OW26398   0.429   2.649   7.811 -0.3158  0.2439  0.1410
 4922SOL    HW126399   0.410   2.577   7.750 -0.4176 -1.3722  2.0662
 4922SOL    HW226400   0.366   2.707   7.769  0.5335  0.4788 -0.8196
 4923SOL     OW26401   1.835   3.196   9.312 -0.6591 -0.2694  0.3000
 4923SOL    HW126402   1.815   3.122   9.255  0.8020 -0.7348  0.4047
 4923SOL    HW226403   1.918   3.227   9.275 -1.5894  1.3387 -0.4560
 4924SOL     OW26404   2.642   0.049   3.810 -0.2310 -0.0073  0.1402
 4924SOL    HW126405   2.703   4.707   3.815 -0.7042 -0.3993  0.0385
 4924SOL    HW226406   2.710   0.112   3.834 -1.7308  2.0216 -0.9533
 4925SOL     OW26407   3.654   4.577   6.892  0.0044 -0.0440  0.2570
 4925SOL    HW126408   3.693   4.594   6.806  1.0925 -1.3767  0.4821
 4925SOL    HW226409   3.693   4.491   6.909  0.7139 -0.2362 -2.2846
 4926SOL     OW26410   0.371   2.069  13.128  0.3215 -0.6288 -0.0554
 4926SOL    HW126411   0.430   2.057  13.054 -0.7075 -1.6730 -0.6990
 4926SOL    HW226412   0.288   2.027  13.105 -0.3432 -0.4565  1.9606
 4927SOL     OW26413   4.196   1.483   1.773  0.2060  0.1148  0.4261
 4927SOL    HW126414   4.156   1.435   1.700  0.0022 -0.5717  0.9915
 4927SOL    HW226415   4.168   1.569   1.742 -2.1282 -0.0288  2.0709
 4928SOL     OW26416   3.668   0.211   3.860 -0.1307  0.4341  0.0498
 4928SOL    HW126417   3.720   0.219   3.940  2.0122 -0.6639 -1.2369
 4928SOL    HW226418   3.705   0.280   3.806 -0.7467  1.4475  0.9158
 4929SOL     OW26419   1.655   3.514  15.652 -0.4932 -0.1513 -0.1803
 4929SOL    HW126420   1.648   3.422  15.627 -2.3822 -0.4744  1.5711
 4929SOL    HW226421   1.596   3.524  15.726  0.0772 -3.1283  0.6774
 4930SOL     OW26422   3.243   4.562   2.353 -0.1568  0.0443 -0.4779
 4930SOL    HW126423   3.196   4.555   2.437 -1.9784  0.8784 -1.4383
 4930SOL    HW226424   3.273   4.472   2.344 -1.2780 -0.2561 -1.2580
 4931SOL     OW26425   0.593   4.221   1.417  0.3319 -0.3623 -0.2109
 4931SOL    HW126426   0.610   4.219   1.323  0.8792  1.9191 -0.1586
 4931SOL    HW226427   0.652   4.296   1.424  2.2970 -1.9506  0.5252
 4932SOL     OW26428   3.464   4.664   4.352  0.2199  0.4093  0.8063
 4932SOL    HW126429   3.542   4.651   4.407  0.4403  1.8085  0.8167
 4932SOL    HW226430   3.461   4.573   4.322  1.5881  0.6068  0.0483
 4933SOL     OW26431   1.654   1.343  12.492 -0.1584 -0.4791  0.2845
 4933SOL    HW126432   1.585   1.353  12.558 -1.5425 -0.1871 -1.1858
 4933SOL    HW226433   1.732   1.332  12.546 -0.4562  1.0840  1.0232
 4934SOL     OW26434   3.354   2.892   4.743  0.3459  0.4351 -0.1925
 4934SOL    HW126435   3.328   2.859   4.828 -0.6539 -1.2850 -1.1689
 4934SOL    HW226436   3.445   2.919   4.756  1.3620 -4.8238  3.4033
 4935SOL     OW26437   3.884   3.579  14.700 -0.3057 -0.0283  0.5020
 4935SOL    HW126438   3.828   3.565  14.623  1.1441 -0.0596 -0.5559
 4935SOL    HW226439   3.962   3.622  14.663 -0.3906  0.7394  1.2093
 4936SOL     OW26440   0.736   4.100  15.180  0.2373  0.2951  0.0580
 4936SOL    HW126441   0.668   4.133  15.239  0.8182 -2.9080  2.5031
 4936SOL    HW226442   0.694   4.113  15.095 -0.7211 -0.5432  0.3877
 4937SOL     OW26443   0.897   0.820   5.437  0.6876  0.1190  0.0750
 4937SOL    HW126444   0.938   0.887   5.381  0.1554 -1.7270 -2.5322
 4937SOL    HW226445   0.960   0.748   5.428  0.3757 -0.1796  0.3207
 4938SOL     OW26446   1.125   0.724  12.123  0.0884 -0.2932 -0.3682
 4938SOL    HW126447   1.081   0.639  12.135 -0.1361  0.0702  1.4656
 4938SOL    HW226448   1.137   0.739  12.217 -0.0273 -0.6522 -0.2949
 4939SOL     OW26449   0.464   3.701   4.419 -0.2560  0.3577 -0.3067
 4939SOL    HW126450   0.404   3.776   4.424 -2.2308 -1.0802 -1.9564
 4939SOL    HW226451   0.542   3.752   4.442  0.7631 -1.7622  0.8865
 4940SOL     OW26452   3.919   2.938   4.809  0.1656 -0.0182  0.3237
 4940SOL    HW126453   3.978   2.865   4.826  0.8750  0.7135  0.9803
 4940SOL    HW226454   3.832   2.901   4.825 -0.9419  1.9318 -1.2163
 4941SOL     OW26455   0.856   3.184   6.210  0.2398  0.3451 -0.3878
 4941SOL    HW126456   0.888   3.118   6.272  2.3106  2.6539  0.9975
 4941SOL    HW226457   0.861   3.141   6.125 -0.8102  0.8474 -0.7088
 4942SOL     OW26458   2.909   0.360   1.242  0.3341  0.5305 -0.1647
 4942SOL    HW126459   2.922   0.449   1.275 -0.0266 -0.3398  2.3790
 4942SOL    HW226460   2.886   0.381   1.152  0.2162 -0.7600 -0.4229
 4943SOL     OW26461   0.707   0.386   0.818 -0.1245  0.3600  0.5570
 4943SOL    HW126462   0.801   0.395   0.837  0.8840 -2.5674 -3.0976
 4943SOL    HW226463   0.673   0.416   0.902 -2.3706 -0.1828 -0.1728
 4944SOL     OW26464   0.913   2.211  10.628  0.0362  0.5849 -0.4887
 4944SOL    HW126465   0.912   2.123  10.665 -0.1820  0.8072  0.0449
 4944SOL    HW226466   0.888   2.265  10.704 -0.3687 -1.6713  0.9669
 4945SOL     OW26467   2.946   1.380   6.450  0.0236  0.3659  0.6780
 4945SOL    HW126468   2.862   1.425   6.457  1.1962  2.6524  0.1328
 4945SOL    HW226469   2.933   1.359   6.357 -1.0006  1.0567  0.6679
 4946SOL     OW26470   3.282   2.595   2.892  0.1810 -0.2224 -0.1294
 4946SOL    HW126471   3.301   2.507   2.859 -2.8475 -1.5327  1.6209
 4946SOL    HW226472   3.248   2.571   2.978  1.5598  1.3290  0.8431
 4947SOL     OW26473   0.907   1.453   9.531  0.3770 -0.1455 -0.2561
 4947SOL    HW126474   0.846   1.492   9.593  1.7163  0.0900  0.9085
 4947SOL    HW226475   0.942   1.539   9.511  0.1535 -0.0412 -0.1990
 4948SOL     OW26476   0.423   2.850  13.868 -0.2813 -0.2471 -0.0005
 4948SOL    HW126477   0.442   2.801  13.788 -0.9577  0.6423 -0.6875
 4948SOL    HW226478   0.509   2.878  13.901 -0.7054  0.9037  0.0970
 4949SOL     OW26479   1.410   4.409   5.094 -0.1031  0.3892 -0.1805
 4949SOL    HW126480   1.373   4.406   5.182  0.1491 -1.5637 -0.1397
 4949SOL    HW226481   1.367   4.336   5.050  0.1678  0.0797  0.0679
 4950SOL     OW26482   2.741   4.581   6.260  0.4795  0.1152 -0.9392
 4950SOL    HW126483   2.792   4.556   6.183  1.4641 -1.5006  0.2422
 4950SOL    HW226484   2.739   4.501   6.313  1.3318  1.1672  0.6975
 4951SOL     OW26485   0.077   3.977   1.141 -0.7366  0.1746 -0.0269
 4951SOL    HW126486   0.091   3.898   1.088  1.3932  0.1304  0.6106
 4951SOL    HW226487   0.072   3.955   1.234 -0.1311  2.1656  0.4793
 4952SOL     OW26488   4.224   4.663   9.153 -0.1090 -0.5623  0.3315
 4952SOL    HW126489   4.215   4.570   9.132 -1.8686 -0.3815  0.2393
 4952SOL    HW226490   4.307   4.660   9.200  0.7731  2.6688 -1.0223
 4953SOL     OW26491   2.785   3.382   9.200  0.4219  0.0753  0.0757
 4953SOL    HW126492   2.845   3.348   9.266 -1.8664  0.0487  2.1613
 4953SOL    HW226493   2.713   3.319   9.198  1.7985 -1.4661 -0.3603
 4954SOL     OW26494   1.173   0.956   3.096  0.0508  0.2044  0.0505
 4954SOL    HW126495   1.172   1.050   3.115  1.3052 -0.0231  1.2321
 4954SOL    HW226496   1.239   0.946   3.027 -0.8417  1.2580 -0.9414
 4955SOL     OW26497   2.091   2.247  14.922 -0.1320  0.3232 -0.1777
 4955SOL    HW126498   2.083   2.328  14.973  1.4703  0.1585  0.3592
 4955SOL    HW226499   2.057   2.187  14.988  0.2881 -0.5002 -0.7202
 4956SOL     OW26500   3.942   3.531   5.814 -0.1754 -0.1170  0.5943
 4956SOL    HW126501   3.890   3.507   5.890  0.1512 -2.0562  0.1945
 4956SOL    HW226502   4.007   3.461   5.810  0.2705  0.3859 -1.0411
 4957SOL     OW26503   1.816   3.191   4.191 -0.3963 -0.2082 -0.1077
 4957SOL    HW126504   1.846   3.106   4.221 -0.0991  0.8771  2.6809
 4957SOL    HW226505   1.895   3.240   4.168 -0.7478  0.7421  0.6916
 4958SOL     OW26506   4.141   0.814   3.586 -0.4323  0.1453  0.3075
 4958SOL    HW126507   4.198   0.884   3.556 -1.9380  0.1291 -2.5572
 4958SOL    HW226508   4.084   0.866   3.644  0.9168  1.5037  0.4124
 4959SOL     OW26509   1.320   3.907   5.179 -0.6669 -0.3792  0.6544
 4959SOL    HW126510   1.364   3.992   5.181  1.0200 -1.2198 -1.2064
 4959SOL    HW226511   1.399   3.853   5.178 -0.7049 -0.4265  0.3091
 4960SOL     OW26512   1.188   0.616   6.440  0.1452  0.8463  0.0123
 4960SOL    HW126513   1.110   0.658   6.404  0.2357  0.1531 -0.9886
 4960SOL    HW226514   1.196   0.538   6.385 -3.7110  0.7422 -0.3653
 4961SOL     OW26515   2.225   3.008   6.363  0.2681 -0.0406 -0.3172
 4961SOL    HW126516   2.307   2.986   6.407 -1.0258 -3.2740  0.5309
 4961SOL    HW226517   2.180   3.061   6.428  0.3616  1.4814 -1.4998
 4962SOL     OW26518   1.202   3.855  16.405 -0.0651  0.4324  0.3685
 4962SOL    HW126519   1.292   3.823  16.392  0.5315  2.3515 -0.1468
 4962SOL    HW226520   1.211   3.930  16.463  0.1690  1.2335 -0.6927
 4963SOL     OW26521   4.722   4.321   0.519  0.1165 -0.2445  0.7089
 4963SOL    HW126522   4.700   4.413   0.528  1.3054  0.2795 -1.8081
 4963SOL    HW226523   4.655   4.302   0.454 -0.4521 -1.2932  1.6067
 4964SOL     OW26524   3.469   0.635   4.578  0.4977  0.2722 -0.1047
 4964SOL    HW126525   3.541   0.687   4.614 -0.3051  1.2178  0.1097
 4964SOL    HW226526   3.393   0.672   4.622 -0.0113  1.0754 -1.6730
 4965SOL     OW26527   3.608   2.864  14.895  0.1992 -0.0185  0.4062
 4965SOL    HW126528   3.553   2.938  14.920 -1.4792 -1.0344 -0.3338
 4965SOL    HW226529   3.687   2.882  14.947  1.2843 -2.3456 -0.4356
 4966SOL     OW26530   0.697   2.389   8.007 -0.5780 -0.6495 -0.2524
 4966SOL    HW126531   0.616   2.339   8.008 -1.4362  0.7481 -0.4501
 4966SOL    HW226532   0.738   2.366   8.090 -0.2842  3.5224  0.7162
 4967SOL     OW26533   4.460   1.569   8.247  0.3543  0.0388  0.0081
 4967SOL    HW126534   4.399   1.552   8.318  1.2901  0.7674  0.9782
 4967SOL    HW226535   4.534   1.542   8.301 -0.2119 -2.7635 -0.6081
 4968SOL     OW26536   2.199   4.195  14.340 -0.2988  0.2562  0.2926
 4968SOL    HW126537   2.250   4.249  14.400 -1.1490  3.6592 -2.0264
 4968SOL    HW226538   2.115   4.177  14.384  0.7842 -0.7788  1.9547
 4969SOL     OW26539   1.972   3.898   8.695  0.6559 -0.5021 -0.2771
 4969SOL    HW126540   2.053   3.899   8.644  1.1594 -0.9403  0.5171
 4969SOL    HW226541   2.001   3.870   8.782  1.4068 -1.5050 -0.8478
 4970SOL     OW26542   3.285   1.819  11.847 -0.3219 -0.6001  0.1034
 4970SOL    HW126543   3.267   1.845  11.937 -1.1904 -0.0950 -0.2159
 4970SOL    HW226544   3.313   1.899  11.803 -2.5287 -0.0293 -0.2657
 4971SOL     OW26545   3.010   1.172  10.290  0.4103  0.4961 -0.2867
 4971SOL    HW126546   3.105   1.186  10.297  0.2659  0.3879  1.9283
 4971SOL    HW226547   2.981   1.214  10.371  2.5684 -1.6668  1.6039
 4972SOL     OW26548   1.241   3.224  12.901 -0.2548 -0.5131 -0.1922
 4972SOL    HW126549   1.309   3.178  12.851  0.2023  1.2067 -1.1644
 4972SOL    HW226550   1.245   3.299  12.841 -1.7400  0.5984  1.1201
 4973SOL     OW26551   2.548   0.832   1.340  0.4603 -0.4729 -0.3373
 4973SOL    HW126552   2.631   0.859   1.301 -1.1806  1.1893 -2.7051
 4973SOL    HW226553   2.538   0.913   1.390 -1.3702  0.3223 -1.9957
 4974SOL     OW26554   2.567   3.491  15.890  0.5352  0.0399 -0.1696
 4974SOL    HW126555   2.595   3.561  15.830  0.7780 -0.5255 -0.7185
 4974SOL    HW226556   2.635   3.483  15.957  0.1935 -0.5320  0.1109
 4975SOL     OW26557   0.260   0.236   7.040 -0.0326  0.1389 -0.1615
 4975SOL    HW126558   0.276   0.149   7.004  2.7231  0.0379  1.2662
 4975SOL    HW226559   0.225   0.214   7.126  1.1998  0.0550  0.3162
 4976SOL     OW26560   0.548   3.074   5.209  0.0262 -0.1977 -0.6247
 4976SOL    HW126561   0.582   3.073   5.299 -0.5484  0.9287 -0.4023
 4976SOL    HW226562   0.623   3.092   5.153 -0.0417 -0.0946 -0.6813
 4977SOL     OW26563   4.696   0.347  12.524  0.3617 -0.1885  0.1370
 4977SOL    HW126564   0.009   0.415  12.475 -0.0738 -0.1528 -0.2186
 4977SOL    HW226565   4.708   0.381  12.612  0.0686 -0.8802  0.4468
 4978SOL     OW26566   0.505   4.103  11.132 -0.4949 -0.3434  0.7099
 4978SOL    HW126567   0.441   4.117  11.062  2.3929 -1.7291 -2.1751
 4978SOL    HW226568   0.565   4.037  11.096 -0.1991 -0.4791  1.4518
 4979SOL     OW26569   0.625   1.961  13.566 -0.1264  0.2484  0.5391
 4979SOL    HW126570   0.587   1.891  13.619 -1.4374 -0.9647 -1.9891
 4979SOL    HW226571   0.555   1.987  13.506 -0.6970 -4.4260 -0.8576
 4980SOL     OW26572   1.571   2.038   8.756  0.3275 -0.0100 -0.0290
 4980SOL    HW126573   1.548   2.103   8.690  0.4869 -0.2691 -0.3403
 4980SOL    HW226574   1.605   2.090   8.829 -1.2401 -0.4344  1.0105
 4981SOL     OW26575   0.088   4.464   3.456  0.3066  0.1730 -0.1425
 4981SOL    HW126576   0.170   4.490   3.415  0.1144 -2.4440 -2.1734
 4981SOL    HW226577   0.117   4.391   3.511  0.9428 -1.4870 -2.6925
 4982SOL     OW26578   4.715   1.646   9.745  0.0622  0.6358  0.4598
 4982SOL    HW126579   0.052   1.649   9.811 -1.1236  1.3663  1.6679
 4982SOL    HW226580   4.651   1.599   9.798  0.6161 -1.6976 -0.9265
 4983SOL     OW26581   1.550   0.232   3.925  0.4842 -0.6333 -0.0315
 4983SOL    HW126582   1.549   0.325   3.906 -1.1192 -0.2756  1.8189
 4983SOL    HW226583   1.456   0.222   3.911  0.1565  2.0039  0.3107
 4984SOL     OW26584   0.812   0.257   8.206  0.5994  0.2757  0.1465
 4984SOL    HW126585   0.854   0.339   8.231  1.4337 -0.4687  1.1942
 4984SOL    HW226586   0.832   0.190   8.271 -0.7204 -1.0233 -0.7819
 4985SOL     OW26587   0.127   4.421  17.425  0.8436  0.1307  0.2316
 4985SOL    HW126588   0.199   4.369  17.388 -0.3283 -1.4823  0.2438
 4985SOL    HW226589   0.054   4.359  17.417  0.3997  0.6000  0.6719
 4986SOL     OW26590   4.320   2.194   9.678 -0.3331  0.3955  0.2044
 4986SOL    HW126591   4.340   2.113   9.631  1.7390  1.3742 -0.5980
 4986SOL    HW226592   4.271   2.243   9.613  1.0153 -0.8876 -1.8000
 4987SOL     OW26593   4.657   3.390   5.990 -0.7881 -0.6823 -0.4070
 4987SOL    HW126594   4.711   3.419   6.063 -0.4497 -1.9262 -0.1654
 4987SOL    HW226595   4.701   3.439   5.921 -0.1076 -1.9718 -0.8782
 4988SOL     OW26596   0.295   0.072   3.240  0.2342 -0.5247 -0.0727
 4988SOL    HW126597   0.245   0.049   3.318 -0.8919 -3.0150 -1.5374
 4988SOL    HW226598   0.370   0.090   3.297 -0.3658 -1.2674  0.9407
 4989SOL     OW26599   3.553   1.886   7.727 -0.2422  0.5060 -0.3634
 4989SOL    HW126600   3.638   1.853   7.696  0.9481  0.9729  2.3278
 4989SOL    HW226601   3.537   1.842   7.811  0.8457  0.9926  0.1050
 4990SOL     OW26602   2.925   4.524   2.128 -0.1820 -0.3329  0.0529
 4990SOL    HW126603   3.019   4.521   2.147  0.1020  0.6758 -1.1905
 4990SOL    HW226604   2.883   4.531   2.213 -1.3539 -0.4228 -0.5144
 4991SOL     OW26605   4.146   3.559   9.218 -0.5571  0.4373 -0.2626
 4991SOL    HW126606   4.149   3.651   9.245 -0.3117  0.4807 -0.4343
 4991SOL    HW226607   4.111   3.521   9.299 -0.4598 -0.7735 -0.7928
 4992SOL     OW26608   0.259   0.937   5.515 -0.9798  0.6934  0.2544
 4992SOL    HW126609   0.299   1.023   5.505 -0.8710  0.5241 -0.7691
 4992SOL    HW226610   0.256   0.935   5.611 -1.8787 -0.0398  0.2125
 4993SOL     OW26611   0.953   1.073   8.492  0.0088  0.1330  0.2446
 4993SOL    HW126612   0.962   1.044   8.582  0.4053  0.2141  0.2312
 4993SOL    HW226613   0.964   0.991   8.444 -1.5654 -0.0581  0.2076
 4994SOL     OW26614   4.241   1.163   8.158  0.1010  0.6365  0.6455
 4994SOL    HW126615   4.283   1.181   8.242  1.0584  0.3386  0.2300
 4994SOL    HW226616   4.176   1.098   8.185 -0.0857  0.9507  0.9555
 4995SOL     OW26617   1.093   2.654  11.262  0.7124  0.5224  0.0727
 4995SOL    HW126618   1.029   2.722  11.282 -1.6941 -0.8897 -2.8558
 4995SOL    HW226619   1.148   2.635  11.338  1.4171 -0.1170 -0.5928
 4996SOL     OW26620   3.395   0.362   4.543 -0.2510 -0.1273 -0.1073
 4996SOL    HW126621   3.436   0.448   4.545  0.4920 -0.4481 -1.2801
 4996SOL    HW226622   3.420   0.329   4.629  0.0903  1.6959  0.4786
 4997SOL     OW26623   3.065   0.850   6.036 -0.3245 -0.7710 -0.0966
 4997SOL    HW126624   3.087   0.943   6.027  0.2850 -1.1426 -2.6578
 4997SOL    HW226625   3.032   0.856   6.125  0.9098  2.7212  0.1438
 4998SOL     OW26626   1.011   2.927   0.116 -0.4181  0.2779 -0.4449
 4998SOL    HW126627   1.014   3.022   0.127 -0.1806  0.3679 -1.3046
 4998SOL    HW226628   0.936   2.905   0.172  0.0083  0.8238  0.3329
 4999SOL     OW26629   4.560   4.556   3.173 -0.4454 -0.0623 -0.2461
 4999SOL    HW126630   4.636   4.499   3.156 -0.1764 -0.1227  1.1662
 4999SOL    HW226631   4.502   4.489   3.209  1.3215 -2.0882 -1.1670
 5000SOL     OW26632   2.499   2.737   3.948 -0.1060 -0.1268 -0.3047
 5000SOL    HW126633   2.499   2.812   4.008  2.5017  0.4737 -1.0489
 5000SOL    HW226634   2.522   2.784   3.868 -1.0216  1.2261  0.2232
 5001SOL     OW26635   3.609   4.039  11.540 -0.0485  0.2596  0.4011
 5001SOL    HW126636   3.562   4.043  11.457  1.3946  4.7163 -0.1936
 5001SOL    HW226637   3.695   4.001  11.521 -0.6039 -1.8815  2.0617
 5002SOL     OW26638   0.815   2.564   2.564  0.5284  0.4298  0.6138
 5002SOL    HW126639   0.734   2.583   2.612  0.2003  0.5880 -0.0040
 5002SOL    HW226640   0.842   2.654   2.544 -3.1216  1.3220 -0.3958
 5003SOL     OW26641   3.568   4.019   6.218 -0.6987 -0.8170 -0.1618
 5003SOL    HW126642   3.505   4.086   6.245  0.5467  0.4954 -0.4536
 5003SOL    HW226643   3.528   3.936   6.243  0.4330 -0.5694  2.5283
 5004SOL     OW26644   0.230   0.941  12.251 -0.4093 -0.3504  0.4373
 5004SOL    HW126645   0.257   0.988  12.173 -1.0714 -1.4424 -0.4475
 5004SOL    HW226646   0.205   0.852  12.224 -1.3384 -0.8978  3.0248
 5005SOL     OW26647   1.119   1.655   6.711  0.6815 -0.3663 -0.1636
 5005SOL    HW126648   1.104   1.575   6.662  0.9470 -1.5444  1.6841
 5005SOL    HW226649   1.080   1.636   6.796 -1.4528  1.3394 -0.7663
 5006SOL     OW26650   3.978   0.593   6.195 -0.1532  0.7601  0.4248
 5006SOL    HW126651   4.016   0.641   6.269  0.9959 -1.9799  1.6078
 5006SOL    HW226652   3.917   0.527   6.229  0.8824 -0.4717 -0.1190
 5007SOL     OW26653   1.051   1.939   3.340  0.0166 -0.4169  0.3059
 5007SOL    HW126654   0.969   1.901   3.371 -2.2110  1.5075 -3.2375
 5007SOL    HW226655   1.020   2.026   3.314  1.7828  0.6908  1.8782
 5008SOL     OW26656   3.542   4.063  12.927  0.1258 -0.3177 -0.0080
 5008SOL    HW126657   3.553   4.152  12.894 -2.7864  0.6558  1.6366
 5008SOL    HW226658   3.631   4.035  12.905 -0.6178 -2.1936 -0.6223
 5009SOL     OW26659   1.693   4.614   4.702  0.2670 -0.3682  0.0887
 5009SOL    HW126660   1.672   4.621   4.795  0.4285  3.9202 -0.2255
 5009SOL    HW226661   1.784   4.585   4.704  1.0115  1.9354 -0.3363
 5010SOL     OW26662   3.046   2.334   6.558  0.3816 -0.7929 -0.1259
 5010SOL    HW126663   2.997   2.254   6.579  0.5693 -0.0297  3.3500
 5010SOL    HW226664   3.127   2.308   6.514  1.2479 -1.9189  2.0796
 5011SOL     OW26665   3.735   3.928   3.146 -0.0516  0.1463  0.2342
 5011SOL    HW126666   3.724   3.878   3.065 -0.7816 -2.3034  1.8286
 5011SOL    HW226667   3.773   3.864   3.207  0.5171  0.4360  0.1807
 5012SOL     OW26668   4.262   2.419   4.324 -0.5244 -0.0221  0.6360
 5012SOL    HW126669   4.243   2.510   4.347 -0.3702  0.3334 -0.6408
 5012SOL    HW226670   4.354   2.416   4.348 -1.1864 -0.7901  3.1469
 5013SOL     OW26671   2.089   4.533   2.200 -0.5360  0.0194  0.0543
 5013SOL    HW126672   2.169   4.585   2.203  0.3169 -1.0327 -3.5766
 5013SOL    HW226673   2.117   4.444   2.219 -0.9863  0.1745  1.4079
 5014SOL     OW26674   3.467   0.250   3.348  0.3280 -0.1361 -0.3061
 5014SOL    HW126675   3.533   0.281   3.287 -0.5062 -0.1850 -1.2280
 5014SOL    HW226676   3.504   0.177   3.397  0.8463 -0.2700 -0.9035
 5015SOL     OW26677   4.641   0.048   3.787 -0.3428 -0.0061  0.1135
 5015SOL    HW126678   4.649   0.044   3.882 -2.0648 -1.9178  0.1663
 5015SOL    HW226679   4.561   0.099   3.779 -1.6027 -2.5686 -3.3378
 5016SOL     OW26680   1.918   2.826  12.489 -0.8424 -0.1069  0.0873
 5016SOL    HW126681   1.903   2.907  12.538 -0.4851 -0.2117  0.3663
 5016SOL    HW226682   1.893   2.762  12.556 -0.5888  0.1259  0.4046
 5017SOL     OW26683   2.979   4.090  15.718  0.1078 -1.4191  0.0456
 5017SOL    HW126684   3.055   4.120  15.769 -1.8410  1.8509  1.0249
 5017SOL    HW226685   3.005   4.126  15.633  1.9092 -2.2355  0.2499
 5018SOL     OW26686   0.309   2.542   8.044  0.1879  0.1237  0.1685
 5018SOL    HW126687   0.261   2.494   7.977 -0.3536  0.9067 -0.0002
 5018SOL    HW226688   0.351   2.606   7.987  1.5096  0.1881  1.2111
 5019SOL     OW26689   2.207   3.844   8.148  0.4621 -0.3060 -0.5206
 5019SOL    HW126690   2.261   3.924   8.152  3.2936 -2.2915  0.8393
 5019SOL    HW226691   2.118   3.875   8.136  1.9295  3.2664 -2.3963
 5020SOL     OW26692   2.519   3.012  12.598 -0.4933  0.0014 -0.2260
 5020SOL    HW126693   2.593   3.048  12.646  0.1029 -0.9503 -0.4547
 5020SOL    HW226694   2.469   3.094  12.604  0.2311  0.4339 -0.1745
 5021SOL     OW26695   4.555   0.576  13.329 -0.1385  0.0566  0.2605
 5021SOL    HW126696   4.463   0.552  13.335 -0.6149  1.6309 -0.7544
 5021SOL    HW226697   4.581   0.543  13.415 -1.9305  0.4553  0.9517
 5022SOL     OW26698   0.431   2.637   5.558 -0.9386 -0.2025  0.1425
 5022SOL    HW126699   0.464   2.707   5.502  1.6656 -0.2844  1.5935
 5022SOL    HW226700   0.400   2.683   5.637  2.6362  1.7090  0.4174
 5023SOL     OW26701   4.546   3.852   7.871 -0.2240  0.3308  0.4241
 5023SOL    HW126702   4.520   3.777   7.925  0.2216 -0.5429 -0.5700
 5023SOL    HW226703   4.571   3.916   7.937  0.1962 -0.4633  1.0178
 5024SOL     OW26704   4.448   4.252   9.992 -0.0294  0.3106 -1.1959
 5024SOL    HW126705   4.412   4.336  10.019  1.4373  1.1205 -1.7825
 5024SOL    HW226706   4.530   4.262  10.039 -1.5235 -1.6968  1.8460
 5025SOL     OW26707   0.029   2.533   6.818  0.0532 -0.0616  0.0997
 5025SOL    HW126708   0.006   2.589   6.891  1.0165  1.1027 -0.4868
 5025SOL    HW226709   0.115   2.570   6.798  0.1601  0.0001  0.6873
 5026SOL     OW26710   3.960   1.852  17.023  0.3670  0.5918 -0.3126
 5026SOL    HW126711   3.909   1.861  16.943 -0.3925 -1.2979 -0.0491
 5026SOL    HW226712   3.896   1.828  17.090  1.4318 -0.3734  0.3721
 5027SOL     OW26713   2.477   4.634   5.578  0.1069 -0.5052  0.6382
 5027SOL    HW126714   2.431   4.614   5.497 -1.7582  2.4670  0.9802
 5027SOL    HW226715   2.520   4.717   5.558  1.0194 -0.7901  1.3784
 5028SOL     OW26716   2.473   3.907   2.668  0.7322  0.4018 -0.7510
 5028SOL    HW126717   2.382   3.928   2.687  0.4665  0.8385 -2.5542
 5028SOL    HW226718   2.464   3.893   2.574  1.2646  0.6115 -0.8320
 5029SOL     OW26719   0.996   4.245   4.354 -0.6225  0.2981  0.6676
 5029SOL    HW126720   1.060   4.177   4.373 -0.7137  0.3501  1.1637
 5029SOL    HW226721   1.047   4.318   4.318  0.2755  0.1965  1.7573
 5030SOL     OW26722   2.158   0.940   7.661  0.0009 -0.3745 -0.5185
 5030SOL    HW126723   2.238   0.993   7.659  0.5836 -1.2108  0.7699
 5030SOL    HW226724   2.182   0.855   7.625 -1.8402 -0.1726 -2.2543
 5031SOL     OW26725   4.373   0.342  17.231  0.0241  0.0932 -0.5307
 5031SOL    HW126726   4.292   0.299  17.201 -0.1932  0.4225 -0.4149
 5031SOL    HW226727   4.348   0.434  17.235  1.5666  0.3994  1.4844
 5032SOL     OW26728   2.403   3.983   7.753  0.1796  0.7897 -0.1374
 5032SOL    HW126729   2.317   4.010   7.722 -0.7744 -0.3360  1.5594
 5032SOL    HW226730   2.385   3.907   7.807  1.6838  1.5916  1.4922
 5033SOL     OW26731   1.891   2.636   3.567 -0.2316 -0.6295 -0.0719
 5033SOL    HW126732   1.962   2.606   3.510  1.6275  0.2626  1.7761
 5033SOL    HW226733   1.929   2.626   3.654  0.6697 -0.9277 -0.4952
 5034SOL     OW26734   2.224   2.759   6.241  0.7383 -0.8210  0.2988
 5034SOL    HW126735   2.194   2.846   6.268 -0.9812 -1.9810  2.0693
 5034SOL    HW226736   2.221   2.721   6.329  2.0175  1.6869  1.4245
 5035SOL     OW26737   4.602   0.205  11.212 -0.5274  0.3362  0.7650
 5035SOL    HW126738   4.607   0.111  11.228 -0.5825  0.4256  1.3215
 5035SOL    HW226739   4.662   0.239  11.278  0.2165 -0.9246  0.7322
 5036SOL     OW26740   0.997   4.464  16.484  0.1482  0.0500  0.6958
 5036SOL    HW126741   0.999   4.531  16.552 -1.5820  1.0833 -0.2801
 5036SOL    HW226742   1.071   4.405  16.499 -0.4538 -1.1633 -1.1809
 5037SOL     OW26743   3.098   0.248  16.481 -0.2808  0.7034 -0.5490
 5037SOL    HW126744   3.031   0.181  16.495  2.7019 -2.3690 -0.7717
 5037SOL    HW226745   3.112   0.254  16.386  0.7175 -0.5703 -0.4856
 5038SOL     OW26746   4.454   1.373  11.012  0.0219  0.1191 -0.1595
 5038SOL    HW126747   4.520   1.433  10.978  0.2069  0.5599  0.9889
 5038SOL    HW226748   4.380   1.388  10.954 -0.4759 -4.2520 -0.6972
 5039SOL     OW26749   2.835   1.290  11.914  0.1394 -0.1906  0.2107
 5039SOL    HW126750   2.866   1.249  11.994 -0.0514 -0.8150 -0.0374
 5039SOL    HW226751   2.908   1.350  11.898  0.8188 -1.6510 -2.2790
 5040SOL     OW26752   0.927   0.167   3.321  0.0010 -0.0425 -0.0204
 5040SOL    HW126753   0.883   0.170   3.236 -1.0530 -2.2374  0.4497
 5040SOL    HW226754   0.975   0.084   3.310  0.7299  0.2344  1.1089
 5041SOL     OW26755   3.491   4.546   8.007 -1.0097  0.0047  0.1119
 5041SOL    HW126756   3.513   4.482   7.939  1.4561  1.0944 -0.1206
 5041SOL    HW226757   3.441   4.607   7.952 -2.4683 -1.2930  0.0131
 5042SOL     OW26758   1.692   3.954  11.072  0.0793 -0.3901 -0.1184
 5042SOL    HW126759   1.672   4.015  11.001  0.6792 -2.0523 -1.7289
 5042SOL    HW226760   1.772   3.911  11.041  0.5970  0.4497  0.0608
 5043SOL     OW26761   0.922   2.896   9.781  0.3817 -0.2727  0.4606
 5043SOL    HW126762   0.953   2.852   9.702  1.1618 -1.0463  1.1977
 5043SOL    HW226763   1.003   2.908   9.831 -0.5576  0.1840  1.8663
 5044SOL     OW26764   3.581   3.579   9.190 -0.5280  0.2179  0.2110
 5044SOL    HW126765   3.623   3.545   9.269 -0.2687 -0.1021 -0.0687
 5044SOL    HW226766   3.489   3.557   9.206 -0.4801  0.9769  1.5913
 5045SOL     OW26767   1.193   0.811  17.720 -0.1690  0.5256 -0.6761
 5045SOL    HW126768   1.285   0.836  17.723  0.1363 -0.5988 -0.5400
 5045SOL    HW226769   1.154   0.876  17.661 -0.9820  0.2257 -0.4667
 5046SOL     OW26770   0.974   3.467   9.080 -0.1305  0.6620 -0.2401
 5046SOL    HW126771   1.010   3.439   8.996 -2.0124 -1.4427 -0.3642
 5046SOL    HW226772   0.889   3.423   9.079  0.0902  0.2409 -0.5602
 5047SOL     OW26773   2.940   3.017   3.110 -0.2119 -0.0741  0.3134
 5047SOL    HW126774   2.896   3.006   3.026  2.5344 -1.2296 -1.0028
 5047SOL    HW226775   3.027   3.023   3.071  0.6290 -1.2803  1.9970
 5048SOL     OW26776   2.499   2.021   9.871 -0.2701 -0.2830  0.4539
 5048SOL    HW126777   2.517   1.929   9.890 -0.0429 -0.2171  0.5600
 5048SOL    HW226778   2.577   2.068   9.899 -0.3741  0.0330  0.2056
 5049SOL     OW26779   4.495   1.132   1.816 -1.0293  0.1856 -0.4178
 5049SOL    HW126780   4.563   1.117   1.881 -1.1193 -0.0180 -0.3732
 5049SOL    HW226781   4.473   1.223   1.836 -1.2037  0.2268 -0.7977
 5050SOL     OW26782   0.848   4.384   8.930  0.2377 -0.1170 -0.3918
 5050SOL    HW126783   0.759   4.362   8.955  0.4103  0.2869  0.5824
 5050SOL    HW226784   0.862   4.330   8.852  2.1607 -0.9536  0.5268
 5051SOL     OW26785   2.937   0.338   4.088  0.1573  0.1671  0.9671
 5051SOL    HW126786   3.013   0.390   4.061  0.0375 -0.4267 -0.5380
 5051SOL    HW226787   2.948   0.310   4.179  3.5410  1.0683  0.8578
 5052SOL     OW26788   2.018   0.882   1.265  0.8932 -0.0470  0.1849
 5052SOL    HW126789   2.033   0.875   1.359  2.5507 -1.5458 -0.1970
 5052SOL    HW226790   2.096   0.835   1.236  1.3618 -0.0279  1.3819
 5053SOL     OW26791   1.297   2.679   9.780  0.6572 -0.2083  0.0543
 5053SOL    HW126792   1.308   2.654   9.872  1.0295  0.9645  0.3223
 5053SOL    HW226793   1.263   2.767   9.795 -0.6429 -0.1635 -3.2257
 5054SOL     OW26794   4.574   0.494   4.714 -1.0135 -0.1948 -0.5812
 5054SOL    HW126795   4.526   0.543   4.648  0.4559 -0.7893 -2.0867
 5054SOL    HW226796   4.626   0.567   4.749 -0.6871  0.1941 -1.8839
 5055SOL     OW26797   0.767   1.978   2.705  0.0625  0.3692  0.3357
 5055SOL    HW126798   0.711   1.908   2.738  0.1313 -0.4552 -1.2902
 5055SOL    HW226799   0.824   1.919   2.656 -1.5819 -0.9407  0.0074
 5056SOL     OW26800   0.447   4.293   5.121  0.1708 -0.5226  0.1010
 5056SOL    HW126801   0.379   4.226   5.132  0.2443 -0.5250  0.5332
 5056SOL    HW226802   0.520   4.245   5.159 -0.6599 -2.8962 -1.3063
 5057SOL     OW26803   4.649   2.941   9.094 -0.6184  0.2193 -0.2516
 5057SOL    HW126804   4.696   2.899   9.022 -0.2701  0.5383 -0.2171
 5057SOL    HW226805   4.557   2.935   9.070 -0.6141  1.2035 -0.5247
 5058SOL     OW26806   4.524   3.747   8.302  0.4035 -0.1712 -0.1376
 5058SOL    HW126807   4.609   3.771   8.339  0.6979 -0.6975 -0.4744
 5058SOL    HW226808   4.470   3.755   8.380  0.7185 -3.3369  0.4099
 5059SOL     OW26809   2.538   3.084   8.457  0.2342 -0.2283  0.2199
 5059SOL    HW126810   2.458   3.131   8.479 -0.1131 -0.2216 -1.0793
 5059SOL    HW226811   2.575   3.051   8.540  1.1360  2.4158  0.8849
 5060SOL     OW26812   3.257   2.845   7.055 -0.4326 -0.0486 -1.2122
 5060SOL    HW126813   3.269   2.821   7.147 -2.0085  1.0026 -0.7196
 5060SOL    HW226814   3.175   2.895   7.051 -1.0653 -1.0386 -0.4812
 5061SOL     OW26815   2.773   0.456   7.598  0.7639  0.0770 -0.2707
 5061SOL    HW126816   2.735   0.498   7.521  1.6162  1.3834  0.0291
 5061SOL    HW226817   2.824   0.525   7.640 -0.8641  0.4713  1.0826
 5062SOL     OW26818   0.194   0.830   8.760  0.5365 -0.3805  0.5161
 5062SOL    HW126819   0.205   0.825   8.665 -0.7973  2.8478  0.1757
 5062SOL    HW226820   0.270   0.781   8.791 -0.3149 -1.9980  0.0278
 5063SOL     OW26821   2.400   1.960   2.384 -0.0970 -0.3497 -0.8656
 5063SOL    HW126822   2.451   1.997   2.456  1.2939  2.5522 -3.3666
 5063SOL    HW226823   2.467   1.961   2.316 -1.0832  0.3364 -1.8081
 5064SOL     OW26824   0.944   0.532   4.308 -0.9392 -0.4498 -0.2091
 5064SOL    HW126825   0.922   0.471   4.238  0.8269 -2.3429  0.9107
 5064SOL    HW226826   0.946   0.480   4.389  0.1492 -0.3958 -0.1977
 5065SOL     OW26827   2.924   1.320   3.594  0.0130  0.1874  0.2203
 5065SOL    HW126828   2.868   1.250   3.627 -2.9045  1.8469 -1.2046
 5065SOL    HW226829   2.946   1.286   3.507  0.5437 -0.7830  0.7403
 5066SOL     OW26830   0.998   4.591  15.750 -0.6775 -0.0854  0.5419
 5066SOL    HW126831   1.087   4.605  15.782 -1.1795  1.4524  1.3016
 5066SOL    HW226832   0.967   4.535  15.821  0.1568 -0.7249  0.3947
 5067SOL     OW26833   2.798   2.468   7.745 -0.2762  0.3763  0.2345
 5067SOL    HW126834   2.819   2.496   7.656 -1.3035  1.1699  0.2467
 5067SOL    HW226835   2.752   2.542   7.785 -1.4661 -0.2433 -0.0125
 5068SOL     OW26836   0.527   4.416   5.892 -0.4372  0.1663 -0.4694
 5068SOL    HW126837   0.610   4.390   5.850 -0.7001 -1.5390  0.0814
 5068SOL    HW226838   0.509   4.500   5.850 -1.5777  0.1536  0.0082
 5069SOL     OW26839   1.593   3.344   8.526  0.0221 -0.0522 -0.0597
 5069SOL    HW126840   1.583   3.388   8.442  2.2987  1.4436  0.4458
 5069SOL    HW226841   1.593   3.254   8.492 -1.4134  0.4927 -1.5076
 5070SOL     OW26842   3.087   3.173   3.953 -0.2321 -0.3913 -0.0844
 5070SOL    HW126843   3.088   3.140   3.863 -2.0567  0.4703 -0.4211
 5070SOL    HW226844   3.180   3.160   3.975 -0.0518 -2.1225 -1.8861
 5071SOL     OW26845   0.414   4.577   9.150  0.1740  0.2619 -0.5065
 5071SOL    HW126846   0.484   4.620   9.199  0.1374  1.3390 -1.3819
 5071SOL    HW226847   0.436   4.486   9.170 -1.4744 -0.0473 -0.1299
 5072SOL     OW26848   2.945   3.771   6.173 -0.1308 -0.0507  0.3127
 5072SOL    HW126849   2.875   3.777   6.238  0.2228 -0.6650  0.7473
 5072SOL    HW226850   2.891   3.748   6.098  2.3834  0.0786 -1.5313
 5073SOL     OW26851   1.718   4.392   9.855  0.2187  0.3601 -0.1003
 5073SOL    HW126852   1.738   4.400   9.948 -1.1555  0.5306  0.1844
 5073SOL    HW226853   1.650   4.325   9.865  1.0660 -0.6688 -1.2985
 5074SOL     OW26854   4.606   3.395   5.623 -0.0612  0.2692  0.2524
 5074SOL    HW126855   4.557   3.317   5.648 -1.1728  0.7229 -0.5337
 5074SOL    HW226856   4.683   3.341   5.606 -0.7747 -0.7263  0.2038
 5075SOL     OW26857   1.128   0.604  10.386 -0.0781 -0.1377  0.4974
 5075SOL    HW126858   1.045   0.578  10.345 -0.7690  3.5881 -0.4225
 5075SOL    HW226859   1.125   0.696  10.363  0.1455 -0.5385 -1.1711
 5076SOL     OW26860   2.131   3.316   5.528 -1.0817 -0.2049  0.4419
 5076SOL    HW126861   2.192   3.294   5.599 -1.5991 -0.9222  0.6583
 5076SOL    HW226862   2.189   3.330   5.453 -1.2214  0.3206  0.4285
 5077SOL     OW26863   0.367   0.562   6.151 -0.5931  0.0535 -0.0648
 5077SOL    HW126864   0.353   0.574   6.245 -1.3063  1.8396 -0.4121
 5077SOL    HW226865   0.366   0.466   6.147  0.6706  0.1058 -1.8268
 5078SOL     OW26866   0.182   2.397  16.046  0.3784  0.8839 -0.1868
 5078SOL    HW126867   0.174   2.352  16.130 -1.1789 -0.3414 -0.9967
 5078SOL    HW226868   0.276   2.386  16.033  0.4442  1.0431  0.1561
 5079SOL     OW26869   3.091   1.573   3.136  0.4172  0.0547  0.3433
 5079SOL    HW126870   3.048   1.568   3.051  0.8304 -1.9766  0.2500
 5079SOL    HW226871   3.016   1.611   3.181 -0.0446  0.2037 -0.5559
 5080SOL     OW26872   3.024   1.142  10.751  0.1015 -0.2490 -0.0151
 5080SOL    HW126873   2.972   1.062  10.739  1.3360 -1.2577  1.5625
 5080SOL    HW226874   2.962   1.215  10.758 -1.5436 -1.7308  0.8771
 5081SOL     OW26875   1.679   4.155   1.730  0.3551  0.0874  0.0987
 5081SOL    HW126876   1.773   4.176   1.730  0.1491  1.0571 -1.0927
 5081SOL    HW226877   1.655   4.102   1.805  2.2966  0.4170  0.9660
 5082SOL     OW26878   3.564   2.158   7.675 -0.2060 -0.1894  0.9686
 5082SOL    HW126879   3.543   2.067   7.698 -0.5468  0.1095  1.8351
 5082SOL    HW226880   3.592   2.195   7.758 -1.4749  0.3674  1.1427
 5083SOL     OW26881   3.515   2.803   8.734  0.0765  0.2419 -0.0080
 5083SOL    HW126882   3.495   2.852   8.814  2.9023  1.4568 -0.0691
 5083SOL    HW226883   3.489   2.866   8.667 -0.1223  0.3734  0.1906
 5084SOL     OW26884   2.881   0.224   4.318  0.3122  0.4693 -0.2817
 5084SOL    HW126885   2.787   0.232   4.330  0.1846  1.6808 -1.9815
 5084SOL    HW226886   2.903   0.236   4.410  1.0801 -2.6130 -0.0785
 5085SOL     OW26887   4.555   4.260   8.516 -0.5564 -0.0956  0.1266
 5085SOL    HW126888   4.600   4.342   8.538  0.4775 -0.6677  0.1474
 5085SOL    HW226889   4.463   4.278   8.536  0.1726  1.2878  2.1813
 5086SOL     OW26890   3.438   1.126   7.262  0.7542  0.4674  0.0385
 5086SOL    HW126891   3.375   1.123   7.189  1.2755  1.3714 -0.4493
 5086SOL    HW226892   3.479   1.039   7.255  1.2957  0.7837 -0.7849
 5087SOL     OW26893   2.264   3.928   3.223 -0.0294  0.4545 -0.3404
 5087SOL    HW126894   2.273   4.005   3.280  1.3742 -1.0065  1.3971
 5087SOL    HW226895   2.267   3.967   3.135  2.3492  0.7459 -0.1352
 5088SOL     OW26896   1.307   4.653  17.677 -0.5207 -0.1831 -0.4365
 5088SOL    HW126897   1.315   4.602   0.029 -0.2403 -1.0931 -1.0285
 5088SOL    HW226898   1.281   4.585  17.615  2.4971 -0.4061 -1.4635
 5089SOL     OW26899   3.534   4.436   4.134 -0.1631  0.1354  0.6330
 5089SOL    HW126900   3.438   4.431   4.130 -0.1702 -0.6084  1.7772
 5089SOL    HW226901   3.557   4.377   4.206 -0.7670  1.6971  2.0917
 5090SOL     OW26902   0.319   0.429   2.859 -0.3351 -0.2604  0.0563
 5090SOL    HW126903   0.241   0.405   2.809 -0.2264  0.6114 -0.5314
 5090SOL    HW226904   0.283   0.484   2.928  0.1275 -0.8171  0.7305
 5091SOL     OW26905   0.535   1.452   9.345 -0.0253 -0.1270 -0.8766
 5091SOL    HW126906   0.565   1.539   9.371 -0.5539 -0.6968  1.6366
 5091SOL    HW226907   0.502   1.407   9.423 -0.0059  1.8475  0.2743
 5092SOL     OW26908   2.532   0.255  12.239 -0.0022 -0.1393  0.7994
 5092SOL    HW126909   2.446   0.297  12.234  0.4461  0.7208  0.3634
 5092SOL    HW226910   2.525   0.238  12.146  0.3549 -1.7813  1.0769
 5093SOL     OW26911   2.133   1.991  12.841  0.5276 -0.1937 -0.0696
 5093SOL    HW126912   2.053   1.990  12.894  0.0394 -2.4057 -0.8386
 5093SOL    HW226913   2.103   1.956  12.757  0.0083  2.1663 -0.8787
 5094SOL     OW26914   1.078   0.333   6.853  0.0030 -0.4852 -0.5288
 5094SOL    HW126915   0.985   0.350   6.861  0.3215  0.7511  0.5197
 5094SOL    HW226916   1.110   0.407   6.802 -2.1976  1.4486  0.9102
 5095SOL     OW26917   1.835   1.004   3.250 -0.5189  0.3936 -0.2587
 5095SOL    HW126918   1.749   1.039   3.274 -0.3686  2.2980 -2.5089
 5095SOL    HW226919   1.810   0.912   3.236  0.4641 -0.0851  1.0537
 5096SOL     OW26920   0.489   1.878  15.717  0.0342 -0.0023 -0.2112
 5096SOL    HW126921   0.394   1.872  15.726 -0.0959 -0.0668 -1.6139
 5096SOL    HW226922   0.506   1.914  15.630  1.2064  3.8705  1.6314
 5097SOL     OW26923   1.570   0.797   7.246 -0.1286  0.2433  0.3668
 5097SOL    HW126924   1.505   0.727   7.249  0.2754 -0.3525 -4.2979
 5097SOL    HW226925   1.581   0.797   7.151 -0.4406  1.3451  0.3367
 5098SOL     OW26926   1.242   0.183  17.207  0.0422  0.1440  0.2553
 5098SOL    HW126927   1.241   0.110  17.145  0.4605  0.2334  0.1433
 5098SOL    HW226928   1.334   0.183  17.235 -0.5796  0.7752  2.2971
 5099SOL     OW26929   1.474   2.482   2.683  0.1109 -0.6139  0.4906
 5099SOL    HW126930   1.474   2.522   2.596 -1.5027 -0.0634  0.7392
 5099SOL    HW226931   1.431   2.400   2.660  0.5815 -0.3036 -1.5114
 5100SOL     OW26932   2.669   2.894  14.021  0.3458  0.5610 -0.3090
 5100SOL    HW126933   2.636   2.957  14.085 -0.7534  0.0733 -0.4025
 5100SOL    HW226934   2.657   2.951  13.944  0.7702  1.0675  0.0018
 5101SOL     OW26935   3.293   2.633  17.486 -0.4389  0.3009  0.1981
 5101SOL    HW126936   3.375   2.676  17.510 -1.2353  1.0963  1.5129
 5101SOL    HW226937   3.276   2.596  17.572  1.8644 -2.2019 -0.4333
 5102SOL     OW26938   2.101   2.539   8.198 -0.3782 -0.1525 -0.3874
 5102SOL    HW126939   2.195   2.534   8.213 -0.8247 -0.0743  2.5292
 5102SOL    HW226940   2.088   2.634   8.191 -2.6804 -0.6679 -3.3666
 5103SOL     OW26941   2.923   1.995   9.153  0.4259  0.0078 -0.6877
 5103SOL    HW126942   2.962   1.979   9.067 -0.8634 -0.1699 -1.2473
 5103SOL    HW226943   2.831   1.973   9.140  0.7410 -0.8526 -1.4467
 5104SOL     OW26944   4.202   2.880   2.738  0.4792  0.0558 -0.3858
 5104SOL    HW126945   4.163   2.900   2.653 -1.2416 -0.2547  0.3244
 5104SOL    HW226946   4.163   2.951   2.790 -0.2361 -0.7149  0.1189
 5105SOL     OW26947   1.326   2.533   5.256 -0.1962  0.6490 -0.1054
 5105SOL    HW126948   1.420   2.545   5.265  0.0315 -1.6020  0.6044
 5105SOL    HW226949   1.306   2.570   5.170  1.9067 -1.8794 -1.6819
 5106SOL     OW26950   1.383   4.017   6.562  0.4498  0.1425 -0.6537
 5106SOL    HW126951   1.323   4.023   6.487  0.5293  2.1535 -0.5530
 5106SOL    HW226952   1.415   4.107   6.559  1.2839 -0.1782 -1.1641
 5107SOL     OW26953   2.875   4.212   3.659 -0.2058 -0.2228  0.1437
 5107SOL    HW126954   2.867   4.224   3.564  2.1317 -0.9878 -0.1415
 5107SOL    HW226955   2.959   4.250   3.683 -0.7940 -1.1612  3.6877
 5108SOL     OW26956   2.827   2.308  11.530  0.0399 -0.3432  0.5341
 5108SOL    HW126957   2.770   2.299  11.455  0.3476  0.0618  0.2489
 5108SOL    HW226958   2.778   2.365  11.589  1.6296  0.0220  1.5099
 5109SOL     OW26959   2.830   3.578   3.280  0.0780 -0.2956  0.2331
 5109SOL    HW126960   2.891   3.504   3.279 -0.9178 -1.1141 -0.2211
 5109SOL    HW226961   2.873   3.652   3.236  0.7278 -0.4142  0.6643
 5110SOL     OW26962   3.515   1.118  16.491  0.6253  0.1451 -0.7447
 5110SOL    HW126963   3.610   1.105  16.488  0.5011 -0.8580 -0.3368
 5110SOL    HW226964   3.497   1.137  16.399  1.2186 -0.6107 -1.0244
 5111SOL     OW26965   1.845   0.465   1.342  0.8494  0.0201  0.2001
 5111SOL    HW126966   1.822   0.547   1.299  2.8752  0.3849 -0.1800
 5111SOL    HW226967   1.940   0.474   1.339  0.7955  0.4043 -0.5728
 5112SOL     OW26968   2.264   1.055   3.281 -0.1086 -0.2821 -0.0713
 5112SOL    HW126969   2.172   1.083   3.285  0.5884  1.9921  0.0559
 5112SOL    HW226970   2.292   1.120   3.216  1.2406 -0.8597 -0.0548
 5113SOL     OW26971   2.900   1.667   7.013  0.0908  0.0969 -0.1522
 5113SOL    HW126972   2.917   1.579   7.046 -0.4103  0.5179  1.2438
 5113SOL    HW226973   2.813   1.683   7.050  0.4027  3.2490 -0.7366
 5114SOL     OW26974   1.273   1.777   7.086 -0.1903  0.0065 -0.0238
 5114SOL    HW126975   1.188   1.800   7.048 -0.2106  3.5245  2.2604
 5114SOL    HW226976   1.327   1.751   7.011 -0.1573  0.4959 -0.1663
 5115SOL     OW26977   4.588   1.465   5.483 -0.5725 -0.5576  0.1017
 5115SOL    HW126978   4.550   1.546   5.515 -3.9794 -2.3688  0.6443
 5115SOL    HW226979   4.589   1.413   5.563 -2.0480 -0.8858 -0.0814
 5116SOL     OW26980   3.723   4.623  16.480 -0.3859 -0.3419  0.3108
 5116SOL    HW126981   3.770   4.707  16.474 -0.6235 -0.1007  1.8760
 5116SOL    HW226982   3.686   4.614  16.392  1.1092  0.3929 -0.3949
 5117SOL     OW26983   3.164   2.627   2.563 -0.0312 -0.2245 -0.4895
 5117SOL    HW126984   3.124   2.662   2.643  0.6438 -1.0596  0.2216
 5117SOL    HW226985   3.091   2.575   2.530 -0.6608  0.5834 -0.3874
 5118SOL     OW26986   2.957   2.010  12.768  0.6346 -0.0578  0.4260
 5118SOL    HW126987   2.921   2.055  12.845 -1.0600  1.1939 -1.0898
 5118SOL    HW226988   3.046   2.044  12.754 -0.0997  0.8787 -2.0536
 5119SOL     OW26989   4.257   1.049   7.157  0.0070  0.2794  0.1894
 5119SOL    HW126990   4.212   0.975   7.116 -0.5653  0.7442 -0.0222
 5119SOL    HW226991   4.178   1.104   7.161 -0.0977  0.2026 -0.6873
 5120SOL     OW26992   0.989   3.312   1.395 -0.0520  0.2527  0.1573
 5120SOL    HW126993   0.918   3.348   1.448 -0.3012 -2.1747  1.4502
 5120SOL    HW226994   0.978   3.343   1.305  1.3420 -0.5125 -0.2946
 5121SOL     OW26995   1.198   1.251  15.147 -0.4042  0.0271  0.2950
 5121SOL    HW126996   1.177   1.334  15.103 -0.3495  0.3522  0.8730
 5121SOL    HW226997   1.142   1.251  15.225 -0.3022 -1.3868  0.3644
 5122SOL     OW26998   1.070   4.717   5.475 -0.7333 -0.7816 -0.4053
 5122SOL    HW126999   0.985   0.014   5.441 -0.8023 -0.2446  0.2360
 5122SOL    HW227000   1.113   4.720   5.389 -0.5686 -2.0915 -0.3695
 5123SOL     OW27001   4.305   0.218   7.693  0.3175  0.2530 -0.1878
 5123SOL    HW127002   4.354   0.264   7.625  2.2251 -1.9026 -0.2982
 5123SOL    HW227003   4.284   0.139   7.642  0.5307 -0.1883  0.4100
 5124SOL     OW27004   3.602   1.465   4.513  0.7059 -0.0978  0.0089
 5124SOL    HW127005   3.573   1.394   4.456 -0.1675  0.4312 -0.2081
 5124SOL    HW227006   3.656   1.418   4.576 -0.5585  0.8402  1.8089
 5125SOL     OW27007   0.829   3.749   3.423 -0.1170  0.1457 -0.0698
 5125SOL    HW127008   0.898   3.810   3.450 -1.1521  1.9774 -1.5577
 5125SOL    HW227009   0.863   3.702   3.347  0.1932  0.8339 -0.3637
 5126SOL     OW27010   4.296   3.911   5.278 -0.1862 -1.0100  0.7163
 5126SOL    HW127011   4.251   3.840   5.324  2.5879 -2.9940  0.4227
 5126SOL    HW227012   4.222   3.969   5.261 -0.0221 -0.9391  0.2446
 5127SOL     OW27013   2.406   1.025   3.990  0.0802  0.0362  0.2386
 5127SOL    HW127014   2.314   1.023   3.965  0.3983  0.2483 -0.9682
 5127SOL    HW227015   2.391   1.067   4.074 -0.9412 -0.7643  0.4623
 5128SOL     OW27016   3.019   1.426   0.796  0.2099  0.0743  0.1426
 5128SOL    HW127017   2.964   1.499   0.824 -0.2739  0.2519 -1.3234
 5128SOL    HW227018   2.963   1.379   0.735  0.2898  0.8671 -0.5315
 5129SOL     OW27019   4.720   3.234   6.269  0.3825 -0.4818 -0.3600
 5129SOL    HW127020   0.005   3.290   6.345  0.3756 -0.3988 -0.4194
 5129SOL    HW227021   0.066   3.223   6.215  0.2141 -1.5050 -0.3862
 5130SOL     OW27022   2.577   4.625   2.219  0.1176  0.5239  0.0462
 5130SOL    HW127023   2.621   4.612   2.135 -0.8178 -1.9205 -0.0437
 5130SOL    HW227024   2.613   4.549   2.264 -1.1551  0.4501  0.9458
 5131SOL     OW27025   3.823   4.356   4.200  0.0715 -0.3580  0.3845
 5131SOL    HW127026   3.830   4.435   4.253  0.0811 -0.8862  1.1660
 5131SOL    HW227027   3.790   4.292   4.263  0.2042  0.6206  1.4492
 5132SOL     OW27028   0.321   4.573   6.119 -0.3203 -0.1868 -0.2522
 5132SOL    HW127029   0.270   4.651   6.143 -0.4956 -0.5839  0.6745
 5132SOL    HW227030   0.401   4.613   6.085 -1.4161  0.2559 -2.3040
 5133SOL     OW27031   3.646   3.528   8.927  0.0599  0.0543 -0.3748
 5133SOL    HW127032   3.633   3.530   9.022  0.0731 -0.0619 -0.3703
 5133SOL    HW227033   3.558   3.541   8.891  0.2958  0.2661 -0.8614
 5134SOL     OW27034   2.722   2.187   9.518  0.5012 -0.0546 -0.0625
 5134SOL    HW127035   2.629   2.178   9.500  0.5558  1.8027 -1.2853
 5134SOL    HW227036   2.760   2.204   9.431  1.3208 -2.9921 -0.2677
 5135SOL     OW27037   1.263   2.525   7.477 -0.2339 -0.2877 -0.6976
 5135SOL    HW127038   1.237   2.449   7.424  0.7677  0.2642 -1.9594
 5135SOL    HW227039   1.276   2.484   7.563 -0.0378 -0.0803 -0.6321
 5136SOL     OW27040   1.081   3.455   3.982  0.2252 -0.3919 -0.1923
 5136SOL    HW127041   1.052   3.491   3.899 -0.4980 -2.4442 -0.8279
 5136SOL    HW227042   1.068   3.360   3.975  1.6069 -0.8050  2.6692
 5137SOL     OW27043   3.012   2.424  17.542 -0.2852 -0.4941 -0.6164
 5137SOL    HW127044   2.947   2.487  17.574 -1.5403 -0.8504 -2.4670
 5137SOL    HW227045   3.093   2.452  17.584  0.9570 -0.5541 -2.9787
 5138SOL     OW27046   0.245   3.492   7.740  0.7772  0.0890  0.1958
 5138SOL    HW127047   0.182   3.540   7.688  0.6507  0.9259  1.1299
 5138SOL    HW227048   0.241   3.407   7.695 -1.6141  0.4342 -0.2450
 5139SOL     OW27049   0.078   3.951  17.653 -0.1609 -0.0205  0.3292
 5139SOL    HW127050   0.044   3.911   0.004  0.8565  1.0547  1.3089
 5139SOL    HW227051   4.727   3.975  17.613 -0.3152  3.1657  2.6003
 5140SOL     OW27052   0.137   4.480  10.600 -0.0483  0.1562  0.6371
 5140SOL    HW127053   0.121   4.420  10.672 -1.0120  2.7584  2.5870
 5140SOL    HW227054   0.216   4.531  10.622  1.1186 -0.7792 -1.3878
 5141SOL     OW27055   1.409   0.782   2.430 -0.9553 -0.0562 -0.0305
 5141SOL    HW127056   1.487   0.736   2.461  0.1544  1.7810 -0.1072
 5141SOL    HW227057   1.345   0.712   2.421 -3.1960  1.9441  0.3450
 5142SOL     OW27058   1.467   3.532   1.488 -0.4977 -0.4123  0.1720
 5142SOL    HW127059   1.466   3.554   1.582 -1.4287  0.1601  0.0299
 5142SOL    HW227060   1.373   3.514   1.484 -0.6930  0.9842 -1.2913
 5143SOL     OW27061   2.523   0.358   7.797 -1.0219  0.1481  0.2162
 5143SOL    HW127062   2.606   0.349   7.844 -0.2843  0.8646 -0.9666
 5143SOL    HW227063   2.546   0.435   7.746 -2.3067 -0.1536 -0.8111
 5144SOL     OW27064   3.738   3.815   8.924  0.0346 -0.0210  0.0589
 5144SOL    HW127065   3.825   3.835   8.959 -0.9367  1.6754  1.5149
 5144SOL    HW227066   3.708   3.726   8.947 -0.7187  0.2840  0.2515
 5145SOL     OW27067   3.427   0.132   1.330 -0.4265  0.0443 -0.1965
 5145SOL    HW127068   3.456   0.143   1.421  3.3822 -1.9327 -1.1679
 5145SOL    HW227069   3.335   0.157   1.340  0.3383  3.1965 -0.8295
 5146SOL     OW27070   1.416   0.808   5.879 -0.2681  0.4648 -0.1227
 5146SOL    HW127071   1.494   0.756   5.897 -0.8043 -0.6708 -1.0462
 5146SOL    HW227072   1.356   0.746   5.921  1.3711 -0.9943  0.0530
 5147SOL     OW27073   1.334   1.179   3.394  0.4097 -0.0003  0.1041
 5147SOL    HW127074   1.278   1.253   3.418 -1.5653 -1.4321  0.0078
 5147SOL    HW227075   1.273   1.108   3.415  1.4971 -1.8053 -2.7154
 5148SOL     OW27076   2.582   2.628   6.994 -0.3446  0.0700 -0.1070
 5148SOL    HW127077   2.674   2.616   6.971 -1.1202 -1.6149 -2.3062
 5148SOL    HW227078   2.604   2.702   7.051 -2.6379 -0.3366  1.3270
 5149SOL     OW27079   3.846   0.900  11.616  0.1403 -0.4752  0.0719
 5149SOL    HW127080   3.799   0.817  11.628  0.3779 -0.5544  0.4324
 5149SOL    HW227081   3.809   0.956  11.684  0.0000 -2.3470  1.5289
 5150SOL     OW27082   1.571   2.298   7.755 -0.6224 -0.1545  0.2375
 5150SOL    HW127083   1.481   2.328   7.751 -0.4427  0.4425  0.8608
 5150SOL    HW227084   1.562   2.224   7.694  1.7779 -0.2155 -0.0692
 5151SOL     OW27085   4.575   0.974   3.454  0.1374  0.4218  0.5527
 5151SOL    HW127086   4.617   1.001   3.373  4.3657 -3.5396  1.4463
 5151SOL    HW227087   4.624   0.892   3.467 -0.3089  0.1213  0.3357
 5152SOL     OW27088   2.084   0.413   1.536 -0.4446  0.7198  0.4788
 5152SOL    HW127089   2.118   0.424   1.447  2.2663  2.2755  1.6937
 5152SOL    HW227090   2.086   0.506   1.560  2.1106  0.8525 -0.1892
 5153SOL     OW27091   0.059   3.385   6.736 -0.0496 -0.1506  0.6430
 5153SOL    HW127092   0.032   3.462   6.786  0.7122 -1.4330  3.0472
 5153SOL    HW227093   0.055   3.315   6.801  0.6373 -1.7351 -1.0386
 5154SOL     OW27094   3.402   1.840   3.104  0.3721 -0.0404 -0.3840
 5154SOL    HW127095   3.441   1.903   3.165 -2.8665  0.7864  0.8817
 5154SOL    HW227096   3.307   1.855   3.114  0.5450  0.8339 -0.0547
 5155SOL     OW27097   0.518   0.196   9.959  0.1868 -0.7032  0.3429
 5155SOL    HW127098   0.449   0.183  10.024  0.0556 -0.4226  0.2595
 5155SOL    HW227099   0.484   0.273   9.914 -1.0919 -0.7092  1.2979
 5156SOL     OW27100   2.594   3.179   9.215  0.2285  0.2134 -0.1410
 5156SOL    HW127101   2.651   3.109   9.248 -0.1057 -0.0826 -0.1852
 5156SOL    HW227102   2.535   3.140   9.150 -1.1097  0.2284  1.0662
 5157SOL     OW27103   1.083   3.917   5.056 -0.1283  0.1871  0.0204
 5157SOL    HW127104   1.105   3.869   4.976 -0.5275 -1.4499  0.8894
 5157SOL    HW227105   1.166   3.909   5.103  1.0414 -2.2386 -2.4714
 5158SOL     OW27106   4.347   1.616   5.814 -0.1491  0.4826 -0.0361
 5158SOL    HW127107   4.431   1.640   5.774  0.3935  0.1428  0.9187
 5158SOL    HW227108   4.373   1.624   5.906 -1.0718 -1.3507  0.3830
 5159SOL     OW27109   4.505   2.839  10.501 -0.1692  0.4314 -0.3384
 5159SOL    HW127110   4.455   2.799  10.430 -0.1460 -0.8145  0.3469
 5159SOL    HW227111   4.447   2.913  10.517  0.5659  0.9867 -0.2436
 5160SOL     OW27112   4.279   1.055   5.673  0.0483  0.5324  0.1865
 5160SOL    HW127113   4.268   0.960   5.675  0.9820  0.4313  0.7547
 5160SOL    HW227114   4.361   1.070   5.721 -0.1903 -1.3254  1.1823
 5161SOL     OW27115   1.941   4.264   1.806  0.1478  0.2494 -0.6674
 5161SOL    HW127116   1.981   4.179   1.824  0.8942  0.2760 -2.2138
 5161SOL    HW227117   1.952   4.311   1.889  1.8277  1.2302 -1.4416
 5162SOL     OW27118   0.267   2.161   3.775  0.0882  0.5246  0.1465
 5162SOL    HW127119   0.352   2.193   3.806  1.1605 -1.7736 -0.3587
 5162SOL    HW227120   0.217   2.146   3.855  1.2690 -1.1390  0.5753
 5163SOL     OW27121   3.944   4.099   8.791 -0.0992 -0.1212 -0.0007
 5163SOL    HW127122   3.868   4.102   8.732 -1.7318  1.1046  2.1486
 5163SOL    HW227123   3.954   4.193   8.803 -0.1754 -0.1563  0.3315
 5164SOL     OW27124   1.111   1.103   7.481  0.1214 -0.4629  0.2472
 5164SOL    HW127125   1.176   1.058   7.535  0.2965 -1.2434 -0.6157
 5164SOL    HW227126   1.155   1.095   7.396 -2.1797  1.6043 -1.1403
 5165SOL     OW27127   0.357   0.306   8.644 -0.5195 -0.3835  0.0275
 5165SOL    HW127128   0.409   0.313   8.724  0.3192 -1.6691 -0.4007
 5165SOL    HW227129   0.402   0.359   8.578 -0.1884 -2.0787 -1.1169
 5166SOL     OW27130   4.579   1.957   4.389 -0.1093 -0.2204  0.7787
 5166SOL    HW127131   4.652   1.971   4.449  2.3662  0.5345 -2.3998
 5166SOL    HW227132   4.615   2.003   4.313  0.9413 -0.0318  1.3907
 5167SOL     OW27133   1.500   1.864   5.949  0.0658  0.6377 -1.0538
 5167SOL    HW127134   1.421   1.879   5.897  1.0456 -0.5230 -2.8948
 5167SOL    HW227135   1.519   1.777   5.914  1.4233 -0.1907  1.6766
 5168SOL     OW27136   0.366   1.972   1.052  0.3473 -0.3311  0.6052
 5168SOL    HW127137   0.426   2.020   1.108 -0.9693  0.9351  0.9435
 5168SOL    HW227138   0.420   1.949   0.977  1.7838 -1.2441  1.9233
 5169SOL     OW27139   2.071   1.746  12.122  0.0642  0.8736  0.0387
 5169SOL    HW127140   1.981   1.766  12.149 -0.1744  1.0809 -0.8852
 5169SOL    HW227141   2.055   1.732  12.028 -0.4359  0.1224  0.2341
 5170SOL     OW27142   2.810   2.604  13.602 -0.3116  0.6445 -0.3460
 5170SOL    HW127143   2.862   2.610  13.521 -0.6853 -1.6084 -0.7727
 5170SOL    HW227144   2.863   2.554  13.663  0.5950 -0.9943 -2.4464
 5171SOL     OW27145   4.471   0.401   7.962 -0.7433 -0.0419  0.1530
 5171SOL    HW127146   4.560   0.422   7.988 -0.6118 -0.7497  0.2518
 5171SOL    HW227147   4.481   0.408   7.867  0.0955 -0.1627  0.2356
 5172SOL     OW27148   1.606   0.843  17.385  0.1406 -0.1310 -0.3552
 5172SOL    HW127149   1.589   0.751  17.365 -0.9796 -0.0434  0.1637
 5172SOL    HW227150   1.686   0.837  17.436 -0.5110 -1.1011  0.5495
 5173SOL     OW27151   3.007   3.413  17.568 -0.7837  0.3850 -0.9181
 5173SOL    HW127152   3.100   3.423  17.589 -0.6314 -1.4022 -0.8047
 5173SOL    HW227153   2.994   3.498  17.524 -1.3825  0.9302  0.3277
 5174SOL     OW27154   4.030   0.930   9.425 -0.3584 -0.0755 -0.0397
 5174SOL    HW127155   4.065   0.944   9.337  0.8654 -1.0427  0.2917
 5174SOL    HW227156   4.036   1.020   9.455 -1.2402 -0.6203  1.7671
 5175SOL     OW27157   1.760   1.895   5.518  0.0799  0.0135 -0.0090
 5175SOL    HW127158   1.684   1.950   5.536  1.9850  2.5673  0.2017
 5175SOL    HW227159   1.823   1.964   5.499  0.6326 -0.8195 -1.2369
 5176SOL     OW27160   3.517   2.637   0.596  0.0651  0.2804 -0.4037
 5176SOL    HW127161   3.426   2.614   0.615  0.5555  0.5630  2.2795
 5176SOL    HW227162   3.511   2.697   0.522 -2.3955  1.9594  1.1674
 5177SOL     OW27163   1.578   3.225  16.902 -0.1395  0.5902 -0.0910
 5177SOL    HW127164   1.508   3.180  16.855  0.5714 -0.0573 -0.5261
 5177SOL    HW227165   1.563   3.199  16.993 -0.3979  0.9305 -0.0348
 5178SOL     OW27166   0.268   3.333   3.423  0.1457 -0.7663  0.1750
 5178SOL    HW127167   0.173   3.336   3.435  0.0991  0.7079 -0.5622
 5178SOL    HW227168   0.284   3.424   3.398  1.0952 -1.7034 -2.5776
 5179SOL     OW27169   4.253   1.114   6.846 -0.1448  0.0621  0.0482
 5179SOL    HW127170   4.208   1.128   6.929 -0.4506  1.6577 -0.3838
 5179SOL    HW227171   4.321   1.182   6.843  0.3229 -0.5250 -3.1595
 5180SOL     OW27172   4.125   3.723   5.707 -0.1990 -0.3029 -0.3852
 5180SOL    HW127173   4.061   3.657   5.734 -0.6828 -0.0384 -0.8832
 5180SOL    HW227174   4.082   3.806   5.687 -0.0654 -0.0614  0.3580
 5181SOL     OW27175   2.291   0.598   8.858 -0.2844  0.2151 -0.7727
 5181SOL    HW127176   2.285   0.668   8.793  0.6821  2.4754  1.5529
 5181SOL    HW227177   2.382   0.568   8.856 -0.4107 -0.0908 -2.4791
 5182SOL     OW27178   4.222   1.563   8.436  0.7773  0.0743 -0.4349
 5182SOL    HW127179   4.140   1.579   8.389  0.4801 -0.6164 -0.1583
 5182SOL    HW227180   4.199   1.583   8.527  0.7758 -1.6789 -0.0584
 5183SOL     OW27181   4.171   1.786   5.058 -0.4848  0.0613 -0.2360
 5183SOL    HW127182   4.132   1.777   5.145 -1.4921 -0.3348 -0.7298
 5183SOL    HW227183   4.101   1.836   5.017 -1.1212  0.3436  1.1993
 5184SOL     OW27184   1.823   3.717   5.459  0.0919  0.1793 -0.4019
 5184SOL    HW127185   1.878   3.640   5.476  1.4916  0.8893 -1.7155
 5184SOL    HW227186   1.748   3.702   5.516 -0.3873 -0.7739 -1.3137
 5185SOL     OW27187   3.975   1.407  11.679  0.0349 -0.1324 -0.4277
 5185SOL    HW127188   4.031   1.352  11.734 -1.3077 -0.4885  0.6050
 5185SOL    HW227189   4.031   1.472  11.637 -0.4865  2.2692  2.5381
 5186SOL     OW27190   4.564   2.854   6.139  0.0801 -0.0715  0.3438
 5186SOL    HW127191   4.647   2.835   6.181 -0.7712  1.4541  2.7559
 5186SOL    HW227192   4.590   2.905   6.063 -0.5037 -0.3734 -0.0558
 5187SOL     OW27193   4.071   4.114   7.542 -0.1896  0.2560 -0.4060
 5187SOL    HW127194   4.049   4.124   7.635 -3.2682 -1.8627 -0.9073
 5187SOL    HW227195   4.123   4.194   7.542 -0.3956  0.3895 -0.3648
 5188SOL     OW27196   2.412   3.440  10.911  0.5435 -0.1453 -0.2052
 5188SOL    HW127197   2.398   3.505  10.980 -0.7073 -1.5637  0.8906
 5188SOL    HW227198   2.346   3.372  10.926  1.0507 -0.3008  1.4034
 5189SOL     OW27199   0.361   0.699  14.916 -0.2556  0.4401  0.1153
 5189SOL    HW127200   0.401   0.708  14.830 -0.8421  1.6144 -0.0411
 5189SOL    HW227201   0.405   0.624  14.955 -0.9510  0.9170  1.8215
 5190SOL     OW27202   2.201   3.018  11.854  0.1510 -0.1688  0.6377
 5190SOL    HW127203   2.176   2.999  11.763 -1.4711  0.0686  1.0365
 5190SOL    HW227204   2.121   2.988  11.897 -1.3757  1.7367 -0.8917
 5191SOL     OW27205   4.216   0.500   6.113 -0.0018  0.5848 -0.2660
 5191SOL    HW127206   4.265   0.562   6.166 -0.2361  1.9545 -1.6353
 5191SOL    HW227207   4.132   0.547   6.109  0.6669  1.7323 -0.8092
 5192SOL     OW27208   4.280   3.939  15.075 -0.0349 -0.5749  0.4810
 5192SOL    HW127209   4.315   4.026  15.094 -0.0456 -0.5332  0.3085
 5192SOL    HW227210   4.206   3.949  15.134 -1.4138  1.0106 -1.5379
 5193SOL     OW27211   0.308   2.526   6.626 -0.1740  0.3649 -0.2808
 5193SOL    HW127212   0.303   2.446   6.679  0.9368  0.6443  0.2469
 5193SOL    HW227213   0.222   2.528   6.584  0.7091  1.3521 -2.0044
 5194SOL     OW27214   0.531   2.183   2.274  0.0913  0.1282 -0.6906
 5194SOL    HW127215   0.437   2.201   2.270  0.3181  1.3242 -0.8318
 5194SOL    HW227216   0.523   2.172   2.368  3.1317 -2.2438 -0.6979
 5195SOL     OW27217   0.545   3.812   5.967 -0.4099  0.1574 -0.1687
 5195SOL    HW127218   0.623   3.783   6.015 -0.3653 -1.5818 -1.2751
 5195SOL    HW227219   0.543   3.907   5.978 -0.8398  0.1898 -0.5440
 5196SOL     OW27220   0.578   3.424   0.471  0.1896  0.5687  0.2064
 5196SOL    HW127221   0.584   3.413   0.376 -1.0145 -1.0740  0.3157
 5196SOL    HW227222   0.671   3.434   0.493  0.0617 -0.0738  1.0477
 5197SOL     OW27223   4.426   2.096   3.300  0.2242  0.0612 -0.1842
 5197SOL    HW127224   4.483   2.170   3.280  0.3979 -0.6912 -2.4952
 5197SOL    HW227225   4.452   2.033   3.233  0.3850  1.7222 -1.6826
 5198SOL     OW27226   2.544   4.027   3.320  0.4595 -0.7832 -0.4728
 5198SOL    HW127227   2.501   3.976   3.388  1.5221 -0.5282  0.3992
 5198SOL    HW227228   2.487   4.104   3.325  0.2998 -0.9139 -0.3196
 5199SOL     OW27229   0.992   1.879   4.697 -0.6934 -0.7314  0.0815
 5199SOL    HW127230   1.039   1.924   4.767 -0.6889  1.2264 -1.1800
 5199SOL    HW227231   0.904   1.901   4.729 -0.3258 -0.3812  0.8393
 5200SOL     OW27232   1.909   2.789   0.928 -0.3058 -0.8635  0.5782
 5200SOL    HW127233   1.903   2.864   0.868  0.2254  0.5129  2.2275
 5200SOL    HW227234   1.927   2.841   1.006 -0.0161 -1.8748  1.1802
 5201SOL     OW27235   2.675   0.528   7.358 -0.0329 -0.0161  0.2357
 5201SOL    HW127236   2.760   0.538   7.315 -0.5178 -2.3395 -1.2443
 5201SOL    HW227237   2.667   0.434   7.345  1.9093  0.0620 -1.5374
 5202SOL     OW27238   4.353   0.471  16.861 -0.1259  0.2497  0.1543
 5202SOL    HW127239   4.330   0.533  16.930 -0.5094  1.0584 -0.6960
 5202SOL    HW227240   4.270   0.467  16.812  0.1161  0.1684 -0.2487
 5203SOL     OW27241   0.147   0.472  15.678 -0.3996  0.0476  0.1154
 5203SOL    HW127242   0.104   0.548  15.718 -2.0564  0.4102 -2.3309
 5203SOL    HW227243   0.117   0.477  15.587 -0.4140  1.6773  0.2065
 5204SOL     OW27244   1.516   0.092   6.593 -0.1541  0.1414 -0.3395
 5204SOL    HW127245   1.458   0.082   6.668 -0.3531  1.7943 -0.2727
 5204SOL    HW227246   1.575   0.019   6.614  3.1112  2.7722 -0.3440
 5205SOL     OW27247   2.474   4.535  17.087 -0.4536 -0.4168  0.1269
 5205SOL    HW127248   2.457   4.555  17.179 -1.0475 -2.7751  0.5047
 5205SOL    HW227249   2.472   4.624  17.051  0.9229 -0.7327 -0.7249
 5206SOL     OW27250   1.999   0.952  13.748  0.3383  0.7186  0.7872
 5206SOL    HW127251   1.908   0.924  13.735  0.4698  1.1355 -1.0801
 5206SOL    HW227252   2.017   1.010  13.673  0.8607  1.9943  1.9103
 5207SOL     OW27253   0.351   2.087   5.131 -0.4265 -0.0752  0.5924
 5207SOL    HW127254   0.399   2.044   5.202  0.0699 -0.0714  0.2639
 5207SOL    HW227255   0.279   2.025   5.124  1.7478 -2.7824  2.0634
 5208SOL     OW27256   1.824   0.479   4.285  0.0342 -0.1029  0.4064
 5208SOL    HW127257   1.739   0.436   4.297 -0.1739 -0.2307 -1.4977
 5208SOL    HW227258   1.813   0.488   4.190  0.4839 -1.8163  0.1852
 5209SOL     OW27259   0.333   0.447   5.406 -0.1396 -0.3060  0.4713
 5209SOL    HW127260   0.349   0.525   5.458 -0.6453 -0.7489  1.2822
 5209SOL    HW227261   0.345   0.385   5.477 -0.1346 -0.5806  0.2334
 5210SOL     OW27262   0.746   2.717   1.603  0.4093 -0.4531 -0.4875
 5210SOL    HW127263   0.839   2.696   1.608  0.1839 -1.4596 -0.5735
 5210SOL    HW227264   0.729   2.669   1.684  0.8559 -0.8867 -0.6516
 5211SOL     OW27265   0.053   3.798   8.710 -0.2046 -0.0667  0.2608
 5211SOL    HW127266   4.715   3.859   8.686 -1.0931 -0.3456  2.1106
 5211SOL    HW227267   0.024   3.719   8.664 -1.7625  0.7304 -0.1366
 5212SOL     OW27268   2.294   0.861   8.764 -0.7811 -0.2165  0.2968
 5212SOL    HW127269   2.275   0.897   8.677 -2.2297 -1.8094 -0.0345
 5212SOL    HW227270   2.390   0.864   8.767 -0.8742  2.9704  0.2546
 5213SOL     OW27271   2.225   3.705  13.707 -0.0470 -0.2072 -0.4166
 5213SOL    HW127272   2.284   3.631  13.719 -0.5642 -0.2325  1.9499
 5213SOL    HW227273   2.247   3.757  13.784 -1.0293  0.8560 -0.8500
 5214SOL     OW27274   2.915   0.805   6.564 -0.8996  0.0329  0.1974
 5214SOL    HW127275   2.851   0.760   6.509  0.8113 -3.0195  0.6586
 5214SOL    HW227276   2.865   0.818   6.644 -1.6222 -0.7503 -0.1205
 5215SOL     OW27277   2.548   1.157  12.179 -0.2740 -0.0613  0.2700
 5215SOL    HW127278   2.589   1.110  12.252  0.0056 -1.7689 -0.9887
 5215SOL    HW227279   2.571   1.096  12.109 -1.6616 -1.4652  1.0249
 5216SOL     OW27280   1.555   3.450   6.345 -0.0213 -0.2638  0.4407
 5216SOL    HW127281   1.644   3.452   6.381  0.3623 -1.2182 -0.4716
 5216SOL    HW227282   1.529   3.359   6.355 -1.1844 -0.2707 -2.5826
 5217SOL     OW27283   0.812   2.039   9.806 -0.2978  0.0486 -0.0717
 5217SOL    HW127284   0.841   1.955   9.840 -0.7040 -0.0084  0.1348
 5217SOL    HW227285   0.747   2.025   9.737  1.3158 -0.5322 -1.4698
 5218SOL     OW27286   3.717   3.576   4.497  0.0755 -0.0212  0.3169
 5218SOL    HW127287   3.735   3.596   4.588  1.4443 -1.4049  0.3535
 5218SOL    HW227288   3.780   3.507   4.473 -0.0406  0.5388 -1.6034
 5219SOL     OW27289   3.545   1.220   4.400 -0.6007 -0.0235  0.2551
 5219SOL    HW127290   3.490   1.150   4.435 -1.3209  0.2681 -0.2954
 5219SOL    HW227291   3.518   1.220   4.309 -0.5838  1.6996  0.2431
 5220SOL     OW27292   1.877   1.161   7.436 -0.1232 -0.1498 -0.5426
 5220SOL    HW127293   1.814   1.116   7.380 -0.3076  0.5789 -0.9285
 5220SOL    HW227294   1.865   1.115   7.519 -2.4922 -0.8165 -1.2353
 5221SOL     OW27295   2.618   1.076   2.854 -0.3160  0.7462  0.5889
 5221SOL    HW127296   2.648   1.124   2.931  1.1141  0.3945  0.2663
 5221SOL    HW227297   2.640   0.985   2.873  0.5146  1.1024  1.3467
 5222SOL     OW27298   3.412   0.324   3.916 -0.3951  0.0714  0.3853
 5222SOL    HW127299   3.375   0.259   3.856 -1.5487 -0.3543  1.5418
 5222SOL    HW227300   3.504   0.300   3.912 -0.1972  1.5446 -3.3995
 5223SOL     OW27301   4.464   0.363   6.290 -0.1124 -0.0639  0.5412
 5223SOL    HW127302   4.391   0.399   6.241 -0.2103 -2.9384 -1.3972
 5223SOL    HW227303   4.509   0.441   6.322 -0.8631  0.2686  0.7894
 5224SOL     OW27304   0.491   2.060   6.511 -0.1748  0.1663  0.0005
 5224SOL    HW127305   0.565   2.112   6.542 -0.9652  0.1832  1.9031
 5224SOL    HW227306   0.421   2.118   6.480 -2.6829 -2.2210  1.1721
 5225SOL     OW27307   0.972   4.060  11.882  0.1754 -0.2747  0.1882
 5225SOL    HW127308   0.996   4.110  11.961  0.0955  1.2963 -0.7967
 5225SOL    HW227309   0.887   4.092  11.853  1.0659  2.7954  0.9652
 5226SOL     OW27310   3.187   0.149  12.571  0.0510  0.1000 -0.1980
 5226SOL    HW127311   3.223   0.145  12.482  2.6431 -1.1474  0.9381
 5226SOL    HW227312   3.147   0.063  12.577 -0.9761  0.2846 -4.0375
 5227SOL     OW27313   0.317   1.660  15.708 -0.2532 -0.3470 -0.1178
 5227SOL    HW127314   0.336   1.566  15.708  0.9863 -0.0951 -0.4360
 5227SOL    HW227315   0.406   1.681  15.736 -0.4709 -1.5928  1.5749
 5228SOL     OW27316   2.932   3.802   7.515 -0.2223  0.2833  0.5674
 5228SOL    HW127317   2.880   3.758   7.448  0.5587 -1.5737  1.2005
 5228SOL    HW227318   2.949   3.878   7.459 -2.5632  1.7280  1.8435
 5229SOL     OW27319   2.039   0.206   1.181 -0.0576  0.0803 -0.0090
 5229SOL    HW127320   2.036   0.299   1.161 -0.4018  0.9658  4.0417
 5229SOL    HW227321   2.127   0.211   1.220  0.1782  0.1345 -0.5518
 5230SOL     OW27322   0.991   0.447   3.053  0.4700  0.7399  0.5074
 5230SOL    HW127323   1.039   0.363   3.053 -1.3393 -0.2942  0.8402
 5230SOL    HW227324   1.031   0.497   2.982  0.8692 -0.6362 -0.2445
 5231SOL     OW27325   2.674   0.087  15.461  0.0379  0.2743 -0.1137
 5231SOL    HW127326   2.622   0.161  15.492 -0.0869  0.7912 -1.5946
 5231SOL    HW227327   2.712   0.053  15.543 -0.3636 -0.4996 -0.2429
 5232SOL     OW27328   4.710   2.237  16.748 -0.5834 -0.5470 -0.4527
 5232SOL    HW127329   4.665   2.305  16.798  0.7624  0.2481 -0.3281
 5232SOL    HW227330   0.015   2.282  16.673 -0.7970  0.3889  0.0075
 5233SOL     OW27331   3.602   0.231   7.872 -0.4786  0.4081  0.3086
 5233SOL    HW127332   3.646   0.162   7.921  0.7625  0.8174 -0.2408
 5233SOL    HW227333   3.669   0.298   7.884 -0.1723  0.0741  0.4458
 5234SOL     OW27334   3.230   2.928   3.094  0.0279  0.4943 -0.0665
 5234SOL    HW127335   3.304   2.874   3.065 -0.4975 -0.0122 -0.4647
 5234SOL    HW227336   3.196   2.866   3.158 -1.2745  0.9870 -0.2689
 5235SOL     OW27337   0.778   0.090  15.496 -0.3604  0.3884  0.3931
 5235SOL    HW127338   0.734   0.167  15.533 -1.8356  0.3916 -1.3781
 5235SOL    HW227339   0.730   0.026  15.550 -1.3427  1.8678  1.2667
 5236SOL     OW27340   3.681   0.877   6.597 -0.0113 -0.1941 -0.4245
 5236SOL    HW127341   3.590   0.849   6.607  0.7262 -2.0249  1.2176
 5236SOL    HW227342   3.733   0.807   6.636  0.0698 -0.4448 -0.9843
 5237SOL     OW27343   4.248   1.698   3.159  0.0804  0.1375  0.0613
 5237SOL    HW127344   4.189   1.633   3.122  2.2363 -1.0785 -1.3083
 5237SOL    HW227345   4.213   1.774   3.112 -0.7862  0.0968  0.6545
 5238SOL     OW27346   2.373   2.509   2.998 -0.5330 -0.0664  0.3493
 5238SOL    HW127347   2.296   2.504   3.055  0.3371  0.1016  1.5225
 5238SOL    HW227348   2.325   2.519   2.915  0.5153 -1.1999 -0.3951
 5239SOL     OW27349   2.965   4.714   7.592 -0.2747  0.3543 -0.1118
 5239SOL    HW127350   2.912   0.051   7.632  2.0128  2.9461 -1.5674
 5239SOL    HW227351   3.053   0.010   7.619 -0.0987  1.4066 -1.7753
 5240SOL     OW27352   3.970   3.209   6.966  0.7198 -0.3409 -1.0035
 5240SOL    HW127353   3.945   3.286   7.017 -1.2154 -0.3376 -1.9670
 5240SOL    HW227354   3.894   3.201   6.909 -0.8783 -0.1783  1.1455
 5241SOL     OW27355   4.135   1.000   7.773 -0.6107 -0.0084  0.2205
 5241SOL    HW127356   4.150   0.938   7.701  1.2386  0.1132  0.4952
 5241SOL    HW227357   4.161   0.962   7.856  2.0515 -0.7177 -0.9127
 5242SOL     OW27358   1.225   0.224   7.552 -1.1163  0.0252 -0.0960
 5242SOL    HW127359   1.288   0.277   7.505 -0.5758 -1.4891 -1.0573
 5242SOL    HW227360   1.210   0.158   7.484  0.2206 -1.4448  1.0146
 5243SOL     OW27361   2.840   3.794   7.765  0.6550 -0.1498  0.6189
 5243SOL    HW127362   2.870   3.874   7.808 -1.1378  2.1237 -2.4237
 5243SOL    HW227363   2.869   3.810   7.676  0.1078  0.3461  0.5350
 5244SOL     OW27364   0.086   3.071   6.514  0.3001  0.2917 -0.4069
 5244SOL    HW127365   0.099   2.997   6.573  1.4529  0.1992 -0.7793
 5244SOL    HW227366   0.067   3.033   6.428  1.4718  0.0447 -0.5522
 5245SOL     OW27367   3.740   3.255   5.080 -0.8144  0.3584  0.1260
 5245SOL    HW127368   3.794   3.190   5.124  0.9966  0.8658 -1.3345
 5245SOL    HW227369   3.781   3.247   4.993  0.2481 -2.6793  0.8968
 5246SOL     OW27370   0.379   3.444  10.087 -0.6580  0.3987  0.5096
 5246SOL    HW127371   0.363   3.512  10.152  0.5118  0.5053  0.6931
 5246SOL    HW227372   0.331   3.372  10.126 -0.9045  1.4097  2.0756
 5247SOL     OW27373   4.686   3.130   4.442 -0.3009  0.3999  0.5472
 5247SOL    HW127374   4.687   3.037   4.462 -0.1806  0.0949 -0.8822
 5247SOL    HW227375   0.044   3.163   4.451 -0.7204  1.0803  2.2275
 5248SOL     OW27376   1.294   2.187   8.151 -0.1665  0.2116  0.4524
 5248SOL    HW127377   1.346   2.253   8.196 -0.4822  0.2616  0.7501
 5248SOL    HW227378   1.284   2.119   8.218  1.0839  0.6739  1.1121
 5249SOL     OW27379   2.399   2.839  11.235 -0.1178  0.6941  0.1251
 5249SOL    HW127380   2.409   2.825  11.329  0.9879 -0.4919 -0.1687
 5249SOL    HW227381   2.309   2.809  11.238  0.3788 -0.8780 -0.8408
 5250SOL     OW27382   1.687   2.479   7.594 -0.2133 -0.3067 -0.1388
 5250SOL    HW127383   1.626   2.474   7.520  0.8689 -0.2873 -1.0382
 5250SOL    HW227384   1.646   2.416   7.654  1.7915 -1.1505  0.3312
 5251SOL     OW27385   0.794   1.784   8.567 -0.4194 -0.0983  0.5139
 5251SOL    HW127386   0.804   1.867   8.521  1.2556 -0.8799 -0.5445
 5251SOL    HW227387   0.736   1.803   8.640  0.6379  0.1476  1.2934
 5252SOL     OW27388   3.750   3.260  12.436 -0.2288  0.4611 -0.8127
 5252SOL    HW127389   3.712   3.184  12.392  1.8718 -1.2961  0.4373
 5252SOL    HW227390   3.843   3.242  12.423 -0.6952 -1.2817 -1.8258
 5253SOL     OW27391   0.049   1.455   5.259 -0.2624 -0.7198  0.0302
 5253SOL    HW127392   4.728   1.503   5.195 -0.3631 -0.4371  0.3251
 5253SOL    HW227393   4.725   1.472   5.334 -0.5445  1.4014 -0.6763
 5254SOL     OW27394   2.087   2.553   3.433  0.0986  0.5090  0.1975
 5254SOL    HW127395   2.162   2.506   3.470 -1.4951 -1.5434  0.8276
 5254SOL    HW227396   2.119   2.591   3.351 -2.2656 -1.2723 -1.5441
 5255SOL     OW27397   3.781   2.471   3.804 -0.3418 -0.0204 -0.1916
 5255SOL    HW127398   3.756   2.421   3.881 -3.2687 -1.2925 -1.9934
 5255SOL    HW227399   3.849   2.414   3.767 -1.3325 -1.7207  0.6462
 5256SOL     OW27400   0.938   3.215   3.970  0.1064 -0.8208 -0.2970
 5256SOL    HW127401   0.850   3.252   3.979  0.1286 -1.1719  1.2225
 5256SOL    HW227402   0.923   3.145   3.906  0.7880 -0.5791 -0.7202
 5257SOL     OW27403   2.098   0.520  15.796  0.2016 -0.2019  0.7394
 5257SOL    HW127404   2.163   0.509  15.727  1.2296 -0.6825  1.7781
 5257SOL    HW227405   2.046   0.585  15.750  4.2536  2.1228 -0.6018
 5258SOL     OW27406   2.158   1.547  16.408  0.3155  0.0592  0.8742
 5258SOL    HW127407   2.136   1.471  16.354 -1.9884  3.2016 -2.5968
 5258SOL    HW227408   2.248   1.524  16.431  0.6543 -1.8206 -2.3550
 5259SOL     OW27409   4.590   2.921   8.265 -0.5351 -0.0656 -0.1845
 5259SOL    HW127410   4.658   2.958   8.321 -1.9090  1.8460  0.1965
 5259SOL    HW227411   4.631   2.894   8.182 -0.2930 -1.4314  0.3836
 5260SOL     OW27412   1.424   2.456   3.523 -0.2019 -0.0232 -0.5161
 5260SOL    HW127413   1.366   2.387   3.491  0.6576 -1.0803  0.2062
 5260SOL    HW227414   1.478   2.486   3.451 -1.3140 -2.0973 -2.2042
 5261SOL     OW27415   4.149   1.418  10.102 -0.2128 -0.5208 -0.3564
 5261SOL    HW127416   4.068   1.413  10.152  0.0274 -0.3120  0.0546
 5261SOL    HW227417   4.123   1.378  10.019 -1.0788  0.7852 -0.7210
 5262SOL     OW27418   2.414   0.865   5.116 -0.2509  0.3863 -0.3569
 5262SOL    HW127419   2.463   0.794   5.075  0.4923 -0.1863  1.5134
 5262SOL    HW227420   2.442   0.848   5.206 -1.0155 -1.1991 -0.4163
 5263SOL     OW27421   1.405   3.752  14.842  0.4580  0.4218 -0.7543
 5263SOL    HW127422   1.482   3.762  14.786  1.5271  1.4471  0.8843
 5263SOL    HW227423   1.428   3.672  14.889  1.2310  1.0577 -0.0278
 5264SOL     OW27424   0.656   1.959   5.238 -0.3029 -0.0671  0.2637
 5264SOL    HW127425   0.586   1.913   5.283 -1.9221  0.9871 -1.1475
 5264SOL    HW227426   0.622   1.958   5.148 -1.0375  1.3081  0.5228
 5265SOL     OW27427   1.323   4.189   1.349 -0.0961  0.2758  0.2205
 5265SOL    HW127428   1.283   4.252   1.410 -0.8923 -1.5509  1.6032
 5265SOL    HW227429   1.410   4.175   1.386  0.1460  1.2818  0.0387
 5266SOL     OW27430   2.435   1.177  13.710 -0.1825  0.7896 -0.1961
 5266SOL    HW127431   2.519   1.204  13.747 -0.3693  1.5513 -0.3266
 5266SOL    HW227432   2.411   1.099  13.760  2.6862 -0.2107 -0.3720
 5267SOL     OW27433   0.083   0.783   5.032 -0.8945  0.5636  0.4216
 5267SOL    HW127434   0.081   0.878   5.023  0.3685  0.5637  0.1229
 5267SOL    HW227435   0.103   0.775   5.125 -1.5110 -0.3699  0.4773
 5268SOL     OW27436   0.566   3.370   3.176  0.1546  0.4080  0.3165
 5268SOL    HW127437   0.509   3.300   3.209 -1.8706  2.4863  1.2231
 5268SOL    HW227438   0.546   3.440   3.238 -0.5837  2.7841 -2.6008
 5269SOL     OW27439   0.886   2.119   5.787 -0.0388 -0.1175 -0.3881
 5269SOL    HW127440   0.911   2.187   5.725 -3.6095  1.3567 -0.1852
 5269SOL    HW227441   0.800   2.153   5.809 -0.4495 -1.2054 -0.2859
 5270SOL     OW27442   0.366   2.874  12.817  0.3279 -0.4070 -0.2734
 5270SOL    HW127443   0.435   2.917  12.867  0.9576 -2.0798  0.2842
 5270SOL    HW227444   0.317   2.950  12.786 -0.2101 -1.4564 -2.0281
 5271SOL     OW27445   2.642   2.972   7.525  0.2512  0.0217  0.3459
 5271SOL    HW127446   2.599   3.057   7.528 -0.7457 -0.5268  1.9603
 5271SOL    HW227447   2.590   2.924   7.589 -2.0863  0.8837 -0.9382
 5272SOL     OW27448   2.864   1.654  13.522  0.5836  0.0030  0.5266
 5272SOL    HW127449   2.794   1.712  13.552  0.5742  0.0365  0.4385
 5272SOL    HW227450   2.806   1.577  13.523  1.3803 -0.5936  1.3658
 5273SOL     OW27451   0.247   2.671   8.753 -0.0489 -0.1852 -0.1451
 5273SOL    HW127452   0.274   2.662   8.662 -0.4341  2.3748 -0.5166
 5273SOL    HW227453   0.327   2.650   8.800  0.8529  0.2693 -1.4859
 5274SOL     OW27454   2.666   0.803  11.655 -0.1576  0.3553  0.3369
 5274SOL    HW127455   2.706   0.748  11.723 -3.0197  0.6647  2.3089
 5274SOL    HW227456   2.729   0.791  11.585 -0.1659  4.4448 -0.3524
 5275SOL     OW27457   1.253   4.243   1.855  0.6468  0.1571 -0.4905
 5275SOL    HW127458   1.342   4.245   1.890  1.3418  2.2116 -2.3908
 5275SOL    HW227459   1.225   4.334   1.846  0.9798  0.4041  0.9817
 5276SOL     OW27460   3.781   1.210   8.622 -0.1436  0.1318 -0.2764
 5276SOL    HW127461   3.805   1.291   8.667 -1.3495  0.4468 -0.2028
 5276SOL    HW227462   3.710   1.171   8.673 -0.7283  1.1580 -0.2976
 5277SOL     OW27463   4.305   3.607  15.256  0.2074 -0.4025  0.5740
 5277SOL    HW127464   4.385   3.558  15.274  0.2055 -0.6192 -0.0076
 5277SOL    HW227465   4.327   3.700  15.262  1.5190 -0.7970  1.6387
 5278SOL     OW27466   4.495   1.017   4.257 -0.0680 -0.3959  0.2389
 5278SOL    HW127467   4.468   1.008   4.348  2.5842 -0.5809  1.0062
 5278SOL    HW227468   4.581   1.058   4.266 -1.4901  2.6587 -0.2153
 5279SOL     OW27469   3.960   1.411   8.715 -0.2079  0.1398 -0.0734
 5279SOL    HW127470   4.034   1.354   8.695 -0.2670  0.6051 -1.6257
 5279SOL    HW227471   4.010   1.493   8.709 -1.6000  0.9054 -1.3813
 5280SOL     OW27472   2.722   0.201  16.397 -0.3847  0.6372  0.0915
 5280SOL    HW127473   2.654   0.223  16.461  0.9887 -1.4952  2.2868
 5280SOL    HW227474   2.787   0.166  16.457  0.2863  2.0799  0.1908
 5281SOL     OW27475   2.842   0.835  10.331 -0.0671 -0.1470 -0.2277
 5281SOL    HW127476   2.921   0.864  10.286  1.0101 -0.7192  1.2896
 5281SOL    HW227477   2.784   0.911  10.332 -0.0503 -0.1507  0.6415
 5282SOL     OW27478   0.037   2.138   4.762 -0.2758 -0.0169  0.3969
 5282SOL    HW127479   0.066   2.184   4.841  0.2798 -0.6777  0.5744
 5282SOL    HW227480   4.730   2.060   4.802 -0.0354 -1.6946 -2.6808
 5283SOL     OW27481   3.650   1.961   6.481 -0.4745 -0.1733 -0.0468
 5283SOL    HW127482   3.602   1.905   6.419 -1.0826  1.0941 -0.7140
 5283SOL    HW227483   3.712   1.903   6.525 -1.2756 -0.5610  0.5759
 5284SOL     OW27484   0.060   1.009  12.959  0.1067 -0.1557  0.4319
 5284SOL    HW127485   4.702   1.010  12.991 -0.5055  0.5620 -1.3336
 5284SOL    HW227486   0.053   1.035  12.867 -1.8302  0.7371  0.8500
 5285SOL     OW27487   2.089   3.927  11.689 -0.3774  0.1427  0.5140
 5285SOL    HW127488   2.117   3.871  11.617 -2.3914  0.5786 -0.5977
 5285SOL    HW227489   2.170   3.977  11.704 -0.5333  0.5582 -0.0233
 5286SOL     OW27490   0.784   3.099  11.755  0.3180 -0.2356 -0.2781
 5286SOL    HW127491   0.804   3.165  11.689  0.0646  1.0534  0.9189
 5286SOL    HW227492   0.850   3.034  11.733 -1.5606 -2.4143  0.5435
 5287SOL     OW27493   4.484   1.232   6.696  0.1464 -0.5244 -0.2947
 5287SOL    HW127494   4.574   1.214   6.669  0.1876 -0.4303 -0.2200
 5287SOL    HW227495   4.460   1.315   6.655  0.2538  0.0494  0.7992
 5288SOL     OW27496   2.634   4.193  17.041  0.3245  0.0077 -0.1769
 5288SOL    HW127497   2.622   4.098  17.036  5.0803 -0.7696  3.2166
 5288SOL    HW227498   2.657   4.203  17.133 -3.1480  0.5196  0.6470
 5289SOL     OW27499   2.717   3.354  11.797 -0.5848  0.0893  0.4957
 5289SOL    HW127500   2.807   3.371  11.825 -0.6919  1.6286 -0.0701
 5289SOL    HW227501   2.682   3.318  11.878 -1.1891 -0.8063 -0.1691
 5290SOL     OW27502   0.712   0.318  10.136  0.1147  0.3204 -0.2407
 5290SOL    HW127503   0.785   0.259  10.155  0.1045  0.6734  0.8904
 5290SOL    HW227504   0.646   0.266  10.090 -0.4197  0.9853 -0.2183
 5291SOL     OW27505   2.325   0.825   2.948 -0.6085 -0.4942  1.2375
 5291SOL    HW127506   2.399   0.880   2.973  0.0960 -0.5890 -0.6445
 5291SOL    HW227507   2.289   0.884   2.881 -0.5926 -0.7668  0.9907
 5292SOL     OW27508   1.840   1.140  12.672  0.3846  0.2319 -0.8286
 5292SOL    HW127509   1.891   1.195  12.612 -0.2696  2.7234  0.9261
 5292SOL    HW227510   1.900   1.121  12.744  0.4091  2.1353 -0.3463
 5293SOL     OW27511   0.146   3.359   2.206  0.8191  0.6732 -0.4512
 5293SOL    HW127512   0.107   3.363   2.294  0.1516 -2.0009 -0.6421
 5293SOL    HW227513   0.226   3.408   2.229  1.0977 -0.7420  1.6119
 5294SOL     OW27514   0.981   1.137   7.903 -0.4530 -0.0858  0.8693
 5294SOL    HW127515   0.993   1.200   7.973 -1.1786  1.4002 -0.3431
 5294SOL    HW227516   0.992   1.196   7.829  1.2076 -0.2729  0.9799
 5295SOL     OW27517   3.985   1.111  13.329 -0.4578  0.3050 -0.4005
 5295SOL    HW127518   3.930   1.189  13.319  1.9011  1.8386 -1.6745
 5295SOL    HW227519   3.953   1.082  13.414 -1.8511  2.8385 -0.0731
 5296SOL     OW27520   4.695   4.569   0.604  0.1223 -0.3230  0.1777
 5296SOL    HW127521   4.620   4.627   0.591 -0.0849 -0.8188 -0.8639
 5296SOL    HW227522   0.007   4.609   0.679 -0.1275 -1.1602  0.7779
 5297SOL     OW27523   0.154   1.724   6.933 -0.2066  0.1526  0.2659
 5297SOL    HW127524   0.156   1.752   7.024 -0.5796  0.3579  0.2095
 5297SOL    HW227525   0.106   1.641   6.937  2.7495 -1.5967 -0.0992
 5298SOL     OW27526   3.181   3.747   2.824  0.2514 -0.2972 -0.0361
 5298SOL    HW127527   3.127   3.714   2.753  2.0246  0.2000 -1.6117
 5298SOL    HW227528   3.200   3.836   2.794 -2.6828  0.0321 -0.9615
 5299SOL     OW27529   1.250   0.283   5.361  0.8153 -0.1926  0.4876
 5299SOL    HW127530   1.345   0.277   5.348  0.6802 -1.0710 -0.0574
 5299SOL    HW227531   1.223   0.210   5.305 -0.1663 -1.4177  2.5634
 5300SOL     OW27532   2.022   0.356  15.401  0.0475  0.9030  0.1034
 5300SOL    HW127533   1.984   0.430  15.449 -1.5043 -0.9685  1.7657
 5300SOL    HW227534   1.965   0.335  15.327 -1.5349  1.5655  1.1175
 5301SOL     OW27535   2.786   2.026  16.127 -0.1172  0.8100  0.3855
 5301SOL    HW127536   2.815   2.072  16.048  1.7774 -0.6342  0.2352
 5301SOL    HW227537   2.692   2.009  16.118  0.0677 -0.4125  0.7464
 5302SOL     OW27538   3.922   1.512  14.829 -0.2407 -0.3075 -0.3204
 5302SOL    HW127539   3.850   1.475  14.881  1.1220 -1.2595  0.9187
 5302SOL    HW227540   3.886   1.600  14.830  1.3978  0.3377  2.5938
 5303SOL     OW27541   1.949   0.740  14.994  0.3366  0.3852 -0.0937
 5303SOL    HW127542   1.943   0.753  14.900 -1.0191 -1.6142 -0.2735
 5303SOL    HW227543   2.044   0.730  14.993  0.2326 -0.7411  1.5499
 5304SOL     OW27544   4.570   3.796  14.367 -0.2003 -0.2530 -0.3723
 5304SOL    HW127545   4.500   3.756  14.315  1.6991 -2.0934 -1.4663
 5304SOL    HW227546   4.644   3.751  14.326  0.4513 -0.8411  1.4290
 5305SOL     OW27547   1.130   4.340  17.620  0.1691 -0.3128  0.2879
 5305SOL    HW127548   1.161   4.407  17.559  1.6357 -0.9631  0.3096
 5305SOL    HW227549   1.037   4.358  17.609  0.1399  0.1955  1.3154
 5306SOL     OW27550   0.348   0.379   2.300 -0.4228 -0.7678  0.3209
 5306SOL    HW127551   0.278   0.439   2.274 -0.9352 -1.0212  1.1212
 5306SOL    HW227552   0.346   0.396   2.394  0.8183 -2.5067  0.6691
 5307SOL     OW27553   0.551   3.957   2.278  0.5861  0.5554 -0.4299
 5307SOL    HW127554   0.535   3.938   2.185  0.8763  0.6926 -0.5065
 5307SOL    HW227555   0.627   4.014   2.270  1.0557  0.0093  0.1399
 5308SOL     OW27556   2.146   2.384   4.923 -0.7751 -0.2105 -0.5368
 5308SOL    HW127557   2.113   2.419   5.005 -0.8520  0.5329 -0.8882
 5308SOL    HW227558   2.102   2.429   4.851  0.3586 -1.5306 -2.0748
 5309SOL     OW27559   0.451   3.145   4.641  0.2997  0.3427 -0.1851
 5309SOL    HW127560   0.500   3.107   4.569  1.5750  2.2713 -0.3465
 5309SOL    HW227561   0.428   3.226   4.596  1.5109 -0.9549 -3.0767
 5310SOL     OW27562   1.086   0.993  17.532  0.3028  0.3598 -0.3185
 5310SOL    HW127563   1.032   0.929  17.486  1.3464 -0.4606 -0.4108
 5310SOL    HW227564   1.042   1.071  17.498  0.6655  0.9904  0.6674
 5311SOL     OW27565   2.278   2.381   3.531 -0.0314  0.4717  0.5918
 5311SOL    HW127566   2.323   2.449   3.580  1.3246 -2.6721  3.6538
 5311SOL    HW227567   2.338   2.351   3.462  2.0500  0.2601  2.4980
 5312SOL     OW27568   1.072   0.430   8.219  0.2872 -0.2086  0.2038
 5312SOL    HW127569   1.109   0.357   8.269  2.7810  1.2582  0.4318
 5312SOL    HW227570   1.146   0.489   8.224 -1.1404  1.3412  2.9062
 5313SOL     OW27571   2.702   2.142   4.913 -0.6293  0.0404 -0.3564
 5313SOL    HW127572   2.781   2.095   4.941  0.3760  2.1247  0.3094
 5313SOL    HW227573   2.704   2.203   4.986 -2.3093  2.3294 -2.2191
 5314SOL     OW27574   2.011   0.183   8.297  0.0928 -0.1875  0.2871
 5314SOL    HW127575   2.075   0.198   8.228 -2.4794  1.7916 -1.6919
 5314SOL    HW227576   2.011   0.268   8.340 -0.4797  0.2915 -0.6768
 5315SOL     OW27577   4.006   2.438   2.884 -0.0664 -0.2533 -0.7084
 5315SOL    HW127578   3.918   2.468   2.908  0.0814 -0.8517  0.5871
 5315SOL    HW227579   4.045   2.520   2.855 -2.1643  0.6968 -0.8677
 5316SOL     OW27580   1.142   1.253  17.080 -0.7650 -0.5255 -0.7468
 5316SOL    HW127581   1.121   1.224  16.991  0.2428  1.3692 -1.6062
 5316SOL    HW227582   1.116   1.344  17.066  0.1868 -0.1396  0.0190
 5317SOL     OW27583   1.766   3.502  16.527  0.8026  0.0167 -0.4573
 5317SOL    HW127584   1.846   3.521  16.479 -0.7388  2.3202 -2.1448
 5317SOL    HW227585   1.791   3.469  16.613 -0.7594  0.9794  0.3798
 5318SOL     OW27586   2.346   3.049   9.922  0.3655  0.2345 -0.0077
 5318SOL    HW127587   2.315   2.978   9.979 -0.9426  1.9098  1.4065
 5318SOL    HW227588   2.377   3.112   9.987 -2.0825  1.3472  0.1095
 5319SOL     OW27589   0.603   2.602   5.211  0.8030 -0.1493 -0.2023
 5319SOL    HW127590   0.534   2.574   5.151 -0.4127  0.0210  1.1143
 5319SOL    HW227591   0.557   2.680   5.241  0.2210 -1.7799  3.1907
 5320SOL     OW27592   4.435   1.241   3.254 -0.1013  0.0228  0.6618
 5320SOL    HW127593   4.353   1.246   3.304 -0.5988  0.6311 -0.2172
 5320SOL    HW227594   4.417   1.295   3.177 -0.9703  0.5407  1.2249
 5321SOL     OW27595   3.743   0.844   8.170 -0.3275  0.3404  0.2761
 5321SOL    HW127596   3.820   0.863   8.224 -0.4959 -1.9336  1.3350
 5321SOL    HW227597   3.771   0.867   8.082  1.7512 -0.7059  0.6679
 5322SOL     OW27598   0.235   4.678   8.964  0.1130 -0.4555  0.3291
 5322SOL    HW127599   0.307   0.003   8.936  0.0651 -1.2799 -1.4538
 5322SOL    HW227600   0.269   4.652   9.050 -1.9509 -1.2876  0.9025
 5323SOL     OW27601   4.473   2.503   6.971  0.0618  0.3655  0.3813
 5323SOL    HW127602   4.426   2.452   6.905 -0.0278  0.5686  0.2886
 5323SOL    HW227603   4.520   2.435   7.019 -1.4765 -1.7751 -1.1286
 5324SOL     OW27604   0.498   3.956   0.999 -0.6866  0.3953 -0.3778
 5324SOL    HW127605   0.508   3.910   0.916  0.7732  1.4956 -0.7948
 5324SOL    HW227606   0.510   3.886   1.064 -1.2047  0.1122 -0.5856
 5325SOL     OW27607   1.448   2.261   9.132  0.1690 -0.0252  0.3236
 5325SOL    HW127608   1.541   2.249   9.114  0.2873 -0.6642  1.3262
 5325SOL    HW227609   1.445   2.316   9.210 -2.4556  0.8823 -0.4204
 5326SOL     OW27610   3.147   0.010   0.067  0.6727  0.3430  0.0534
 5326SOL    HW127611   3.090   4.669   0.046  1.8292  0.1784 -2.4817
 5326SOL    HW227612   3.235   4.706   0.053 -0.8940 -3.2797 -0.2813
 5327SOL     OW27613   0.159   3.954  13.868 -0.5053  0.1841 -0.4295
 5327SOL    HW127614   0.248   3.978  13.844  0.0308 -0.7739  0.6093
 5327SOL    HW227615   0.157   3.925  13.959 -2.0075  4.2864  0.8468
 5328SOL     OW27616   0.164   3.549  16.753  0.1000  0.6416 -0.1497
 5328SOL    HW127617   0.176   3.521  16.663 -3.2022 -2.1361  0.2666
 5328SOL    HW227618   0.257   3.564  16.771 -0.3663  1.4067  1.6120
 5329SOL     OW27619   3.029   1.488   5.377  0.2295 -0.0995  0.2855
 5329SOL    HW127620   3.050   1.513   5.467 -0.4410  1.5406 -0.0089
 5329SOL    HW227621   2.963   1.554   5.354 -0.5393 -1.0578 -0.2381
 5330SOL     OW27622   0.799   2.720  11.542 -0.3945 -0.4500  0.0410
 5330SOL    HW127623   0.842   2.802  11.517  1.3984 -1.4386 -0.0832
 5330SOL    HW227624   0.801   2.722  11.638  0.2177 -3.6204  0.0844
 5331SOL     OW27625   0.358   3.247   5.811 -0.4516 -0.4080  0.3539
 5331SOL    HW127626   0.373   3.269   5.719  0.0261 -1.0466  0.2808
 5331SOL    HW227627   0.449   3.250   5.841 -0.8882 -0.6741  1.6910
 5332SOL     OW27628   2.836   1.557   5.835 -0.3266 -0.0724  0.4634
 5332SOL    HW127629   2.760   1.528   5.885 -0.4201 -2.0692 -0.7881
 5332SOL    HW227630   2.847   1.642   5.877  1.0093 -0.1855  0.3465
 5333SOL     OW27631   4.279   0.705   6.590 -0.0633 -0.4315 -0.1546
 5333SOL    HW127632   4.372   0.690   6.607  0.4365  2.0389 -0.7628
 5333SOL    HW227633   4.248   0.777   6.645 -1.6455  1.2970 -3.3188
 5334SOL     OW27634   4.527   4.023  17.587  0.0737  0.1302  0.1984
 5334SOL    HW127635   4.466   4.002  17.658  0.4970 -1.7017  0.0096
 5334SOL    HW227636   4.496   3.979  17.508  0.5404 -0.0543  0.1220
 5335SOL     OW27637   1.113   2.316   0.069 -0.3524  0.1784  0.7367
 5335SOL    HW127638   1.067   2.268  17.729 -0.4870  3.2522 -1.3128
 5335SOL    HW227639   1.192   2.342   0.022 -1.3275  2.1527  0.2041
 5336SOL     OW27640   3.656   2.365   2.164 -0.0851  0.3083 -0.7629
 5336SOL    HW127641   3.589   2.434   2.172 -1.0720 -0.3487 -3.3968
 5336SOL    HW227642   3.666   2.370   2.069  1.5080 -1.4770 -0.6805
 5337SOL     OW27643   4.251   3.400  13.359  0.1361 -0.3092  0.1098
 5337SOL    HW127644   4.274   3.484  13.399  0.1766  0.0496 -0.6608
 5337SOL    HW227645   4.168   3.375  13.401  0.5267 -0.8233  0.5726
 5338SOL     OW27646   3.335   0.270   7.832 -0.3917 -0.0268 -0.3590
 5338SOL    HW127647   3.428   0.282   7.814 -0.1502 -1.6011 -0.1441
 5338SOL    HW227648   3.340   0.191   7.886  1.0234 -0.0323 -0.5006
 5339SOL     OW27649   4.303   2.863   4.535  0.6028  0.1998 -0.2839
 5339SOL    HW127650   4.358   2.897   4.465  1.8981 -1.1636  0.0825
 5339SOL    HW227651   4.362   2.795   4.568  0.0669  0.0229  0.3276
 5340SOL     OW27652   3.566   0.022   3.703 -0.1721  0.3383 -0.1860
 5340SOL    HW127653   3.646   4.722   3.663 -0.7252  0.8884 -1.7607
 5340SOL    HW227654   3.600   0.088   3.763  1.9493 -1.0410  0.1151
 5341SOL     OW27655   2.291   3.819  10.251  0.7112 -0.0977  0.0865
 5341SOL    HW127656   2.314   3.773  10.332 -0.7949 -1.5541 -0.3110
 5341SOL    HW227657   2.237   3.751  10.210 -0.8020  2.3991 -2.0639
 5342SOL     OW27658   1.002   4.003   9.492  0.0419  0.1777 -0.0111
 5342SOL    HW127659   0.963   3.921   9.522 -1.8205  0.1588 -2.4245
 5342SOL    HW227660   1.092   3.992   9.522  0.9181 -2.3368 -3.5061
 5343SOL     OW27661   0.228   0.793   6.061 -0.3080  0.1957  0.1876
 5343SOL    HW127662   0.257   0.703   6.073  0.6479  0.9466  3.3956
 5343SOL    HW227663   0.148   0.794   6.113  0.3416  0.3321  1.1913
 5344SOL     OW27664   1.684   1.043   5.060  0.2256 -0.0962  0.3344
 5344SOL    HW127665   1.718   0.957   5.038 -0.8310 -0.5079  0.3048
 5344SOL    HW227666   1.715   1.091   4.983 -2.0375  0.8538  0.0003
 5345SOL     OW27667   3.849   1.708   7.173  0.1602 -0.1960 -0.2846
 5345SOL    HW127668   3.767   1.705   7.124 -1.6702  0.3019  2.8336
 5345SOL    HW227669   3.917   1.718   7.106 -0.9278 -0.8551 -1.4986
 5346SOL     OW27670   3.651   2.408   6.721  0.3564 -0.1954  0.2446
 5346SOL    HW127671   3.595   2.337   6.689  0.7554  0.8909 -2.7802
 5346SOL    HW227672   3.584   2.473   6.743  0.8462  1.3087 -2.8090
 5347SOL     OW27673   4.304   1.254   5.410 -0.2512  0.0794  0.3817
 5347SOL    HW127674   4.348   1.260   5.495  0.0352 -0.2404  0.2569
 5347SOL    HW227675   4.256   1.171   5.417 -0.9132  0.4572  0.2620
 5348SOL     OW27676   2.364   3.600  11.126  0.8380 -0.2882 -0.0392
 5348SOL    HW127677   2.271   3.620  11.139  1.4674  1.5416  1.7507
 5348SOL    HW227678   2.397   3.623  11.214  1.3087  0.2282 -0.3500
 5349SOL     OW27679   1.735   0.754   6.377  0.1516  0.0525 -0.2705
 5349SOL    HW127680   1.649   0.796   6.379  0.9253  1.5401  3.2903
 5349SOL    HW227681   1.787   0.833   6.390 -0.1555  0.1280  0.4858
 5350SOL     OW27682   2.172   3.616  15.022 -0.2783  0.2395 -0.2974
 5350SOL    HW127683   2.183   3.674  14.946  2.8021 -0.1577 -0.1561
 5350SOL    HW227684   2.107   3.557  14.984  1.0281  1.8538 -5.1494
 5351SOL     OW27685   1.206   1.605  16.061  0.6049  0.1086  0.1833
 5351SOL    HW127686   1.114   1.626  16.076  1.2062  1.2632  2.2784
 5351SOL    HW227687   1.211   1.521  16.106 -0.4644 -0.1790 -0.2362
 5352SOL     OW27688   1.501   3.695   3.184 -0.0247  0.4023  0.0859
 5352SOL    HW127689   1.567   3.704   3.253 -0.6775 -0.9689  0.8763
 5352SOL    HW227690   1.548   3.666   3.106 -1.3978 -2.8007  0.4842
 5353SOL     OW27691   0.518   2.156  16.182 -0.4341 -0.2507  0.0257
 5353SOL    HW127692   0.479   2.206  16.253  1.3086  1.3184 -0.1072
 5353SOL    HW227693   0.606   2.192  16.192 -0.9037  1.1558 -0.9329
 5354SOL     OW27694   3.837   1.539   2.048 -0.3899  0.4070  0.6952
 5354SOL    HW127695   3.865   1.507   1.963 -1.3250  0.6776  0.2907
 5354SOL    HW227696   3.914   1.581   2.088  1.0496 -1.4167 -0.1225
 5355SOL     OW27697   2.268   4.104   2.635  0.3324 -0.0242 -0.5059
 5355SOL    HW127698   2.222   4.188   2.630 -0.1042 -0.2529 -0.2604
 5355SOL    HW227699   2.190   4.050   2.627 -0.1709  0.6263 -0.0179
 5356SOL     OW27700   2.696   1.192  12.815 -0.1381  0.0160  0.0547
 5356SOL    HW127701   2.681   1.240  12.734  1.4952  1.2521  0.4756
 5356SOL    HW227702   2.734   1.108  12.790  0.3081  0.2754 -0.1452
 5357SOL     OW27703   1.271   3.147  17.146  0.0849 -0.4090  0.3832
 5357SOL    HW127704   1.192   3.141  17.200 -0.5614 -0.1790 -0.5366
 5357SOL    HW227705   1.233   3.137  17.059 -0.0056 -0.3078  0.4096
 5358SOL     OW27706   1.352   1.773   1.953 -0.2627  0.4722 -0.2406
 5358SOL    HW127707   1.277   1.814   1.909 -0.5602 -0.8176 -0.9289
 5358SOL    HW227708   1.304   1.706   2.002  0.8292 -0.0387  0.1272
 5359SOL     OW27709   2.711   3.584   8.125 -0.2522 -0.1559 -0.9246
 5359SOL    HW127710   2.683   3.672   8.101  0.1683  0.7803  2.0395
 5359SOL    HW227711   2.773   3.573   8.053  0.8558 -2.1554  0.3508
 5360SOL     OW27712   0.389   2.494  10.530 -0.4683 -0.3470  0.2836
 5360SOL    HW127713   0.484   2.486  10.542 -0.5855 -1.4681  0.4376
 5360SOL    HW227714   0.371   2.574  10.481 -0.5993  2.4196  4.8188
 5361SOL     OW27715   0.324   4.044  15.301  0.1806 -0.1081  0.4496
 5361SOL    HW127716   0.289   4.054  15.213 -0.1179  2.5989  0.8747
 5361SOL    HW227717   0.368   3.959  15.298 -1.4130 -0.8455 -1.5501
 5362SOL     OW27718   2.500   2.543   3.647  0.3159 -0.5173 -0.1849
 5362SOL    HW127719   2.587   2.514   3.621  0.9255  1.5795 -0.5125
 5362SOL    HW227720   2.529   2.630   3.674  2.2627 -1.0920 -0.4242
 5363SOL     OW27721   4.609   4.392   2.139 -0.1131 -0.1661  0.3464
 5363SOL    HW127722   4.618   4.303   2.171  0.8315 -0.3015 -0.3012
 5363SOL    HW227723   4.604   4.446   2.218 -2.0218  0.3424 -0.1137
 5364SOL     OW27724   1.241   1.595  10.902  0.8168 -0.2561 -0.1147
 5364SOL    HW127725   1.251   1.684  10.937 -0.8869 -0.0338 -0.1901
 5364SOL    HW227726   1.202   1.550  10.977  1.3148 -1.7733 -0.7773
 5365SOL     OW27727   3.850   2.683  14.771 -0.2219 -0.4306 -0.3170
 5365SOL    HW127728   3.840   2.768  14.813  1.9427  0.2876 -1.2579
 5365SOL    HW227729   3.802   2.693  14.689  0.6781  1.1976 -0.6458
 5366SOL     OW27730   4.429   4.698   0.600  0.2599 -0.5314 -0.1053
 5366SOL    HW127731   4.408   4.682   0.508 -2.9077 -0.1366  0.5689
 5366SOL    HW227732   4.376   4.630   0.642 -1.5320 -0.3174 -2.0214
 5367SOL     OW27733   2.414   4.189   5.850  0.2443 -0.1299  0.0975
 5367SOL    HW127734   2.469   4.256   5.809 -0.2123  0.4459  0.4244
 5367SOL    HW227735   2.380   4.231   5.929 -0.2287  0.2858 -0.3306
 5368SOL     OW27736   3.428   0.037   5.467 -0.0320  0.0381  0.0396
 5368SOL    HW127737   3.411   4.676   5.482  1.0014 -0.4136 -1.5116
 5368SOL    HW227738   3.504   0.028   5.525  1.5406 -1.4936 -2.2081
 5369SOL     OW27739   2.149   4.334  14.124 -0.1008 -0.1870 -0.0587
 5369SOL    HW127740   2.181   4.277  14.194 -0.1366 -0.2434 -0.0874
 5369SOL    HW227741   2.122   4.274  14.054  0.4107  0.1671 -0.5621
 5370SOL     OW27742   4.464   2.392   7.523 -0.5313  0.3725 -0.1356
 5370SOL    HW127743   4.537   2.443   7.557  0.0701 -2.1925  2.4541
 5370SOL    HW227744   4.394   2.409   7.587  0.2132 -0.7984  0.9938
 5371SOL     OW27745   4.202   2.870   9.793  0.3219 -0.2491 -0.0402
 5371SOL    HW127746   4.212   2.965   9.787  0.5777 -0.1752  1.5573
 5371SOL    HW227747   4.227   2.847   9.704 -1.4001  0.2686 -0.6534
 5372SOL     OW27748   3.560   1.730   5.433 -0.2098  0.4348  0.3895
 5372SOL    HW127749   3.496   1.735   5.504 -1.9371  1.2759 -1.2393
 5372SOL    HW227750   3.641   1.746   5.483 -0.0682  0.3181  0.1964
 5373SOL     OW27751   4.430   1.282   1.311 -0.2517 -0.1011  0.0408
 5373SOL    HW127752   4.377   1.262   1.234  0.0983 -1.6672  0.2164
 5373SOL    HW227753   4.435   1.378   1.307 -2.9347 -0.0051 -0.6563
 5374SOL     OW27754   2.906   3.965   8.147  0.1478 -1.0213 -0.2063
 5374SOL    HW127755   2.814   3.937   8.148 -0.0449 -0.3531  1.5124
 5374SOL    HW227756   2.914   4.014   8.229 -0.3009  0.1728 -0.8793
 5375SOL     OW27757   1.463   1.373   5.636 -0.2686  0.3069 -0.4615
 5375SOL    HW127758   1.550   1.337   5.654 -0.6673 -0.6660 -0.4655
 5375SOL    HW227759   1.462   1.350   5.543 -4.1409 -1.1747 -0.0519
 5376SOL     OW27760   3.843   2.031   7.698  0.4970 -0.3944  0.3424
 5376SOL    HW127761   3.814   1.948   7.661 -1.4970  0.1267  0.7436
 5376SOL    HW227762   3.815   2.084   7.623 -2.5943  2.1330  3.3163
 5377SOL     OW27763   3.722   0.670  17.175 -0.5078 -0.3558  0.1739
 5377SOL    HW127764   3.727   0.761  17.205  0.1922  0.2652 -1.8040
 5377SOL    HW227765   3.801   0.631  17.213 -0.1239 -1.0195 -1.2901
 5378SOL     OW27766   2.449   3.072   0.555 -0.1453 -0.5205  0.2111
 5378SOL    HW127767   2.537   3.049   0.525 -0.3101  1.7650 -2.0099
 5378SOL    HW227768   2.445   3.036   0.643  1.9113 -1.0899  0.0771
 5379SOL     OW27769   0.668   2.600   3.107  0.0870  0.4040 -0.7442
 5379SOL    HW127770   0.632   2.684   3.079 -0.2025  0.7192  0.6138
 5379SOL    HW227771   0.608   2.540   3.063 -1.8509 -0.4630  3.1206
 5380SOL     OW27772   2.687   1.453  15.873 -0.2369  0.1922  0.0700
 5380SOL    HW127773   2.599   1.465  15.907 -0.3600 -2.8964  0.7978
 5380SOL    HW227774   2.660   1.401  15.797 -0.6359 -0.2809  0.5447
 5381SOL     OW27775   1.840   2.319   4.943 -0.2744  0.3952 -0.0077
 5381SOL    HW127776   1.773   2.372   4.985  0.6038 -1.3083  3.5088
 5381SOL    HW227777   1.905   2.344   5.009  0.5080  1.7395 -1.2989
 5382SOL     OW27778   1.321   4.162   4.956 -0.5107 -0.5258 -0.4975
 5382SOL    HW127779   1.255   4.167   4.887 -1.8163 -2.0485  0.6585
 5382SOL    HW227780   1.404   4.163   4.908 -0.5757 -2.6982 -0.6276
 5383SOL     OW27781   3.403   1.114   3.398 -0.1932  0.3763 -0.1564
 5383SOL    HW127782   3.363   1.132   3.313 -0.0648  0.4729 -0.1966
 5383SOL    HW227783   3.388   1.194   3.447 -1.0578  0.8760 -1.2170
 5384SOL     OW27784   0.410   4.182  12.778  0.5827  0.1666  0.2306
 5384SOL    HW127785   0.446   4.191  12.690 -1.4411 -0.3548 -0.6498
 5384SOL    HW227786   0.474   4.128  12.825 -0.2061  0.2862  1.4303
 5385SOL     OW27787   4.314   1.244   1.581 -0.9246 -0.1175 -0.0542
 5385SOL    HW127788   4.346   1.256   1.491  2.1938  4.5524  1.7016
 5385SOL    HW227789   4.399   1.261   1.621 -0.7883  1.4615 -1.0239
 5386SOL     OW27790   0.051   4.221   4.533  0.5742 -0.2250 -0.3782
 5386SOL    HW127791   4.700   4.174   4.532 -0.5254  1.6968  0.4063
 5386SOL    HW227792   0.080   4.213   4.442  1.3808 -0.4687 -0.0959
 5387SOL     OW27793   0.798   3.591   7.442  0.4587  0.6720  0.2860
 5387SOL    HW127794   0.717   3.567   7.397  0.1183 -0.3989  1.4533
 5387SOL    HW227795   0.816   3.508   7.487 -1.1669  0.0993 -0.1360
 5388SOL     OW27796   1.237   3.798  11.029 -0.7186 -0.0276 -0.2798
 5388SOL    HW127797   1.259   3.706  11.045  3.1219  0.4959 -2.5490
 5388SOL    HW227798   1.304   3.832  11.089 -2.1194 -1.7516  2.2905
 5389SOL     OW27799   4.337   4.514  10.527 -0.6780 -0.2881 -0.0166
 5389SOL    HW127800   4.397   4.466  10.470 -0.3252  0.3004 -0.1419
 5389SOL    HW227801   4.291   4.569  10.464 -0.2372  2.0445  1.7295
 5390SOL     OW27802   0.120   4.278   7.477  0.2505  0.0293  0.0963
 5390SOL    HW127803   0.162   4.298   7.393 -0.0251 -1.2122 -0.3473
 5390SOL    HW227804   0.091   4.187   7.482 -1.3483  0.5022 -0.5615
 5391SOL     OW27805   2.421   1.032   9.070 -0.0613  0.2656 -0.5368
 5391SOL    HW127806   2.454   1.110   9.115 -0.2052  0.6964 -1.1938
 5391SOL    HW227807   2.353   1.063   9.011 -0.1332 -3.1311 -2.2463
 5392SOL     OW27808   1.038   1.679   9.483  0.1096  0.4573 -0.2338
 5392SOL    HW127809   1.054   1.768   9.453  1.7628 -0.0752 -0.8748
 5392SOL    HW227810   1.103   1.619   9.449 -1.0642 -0.9825  0.0693
 5393SOL     OW27811   3.778   1.891   0.830  0.0686  0.1394 -0.5869
 5393SOL    HW127812   3.685   1.912   0.829  0.0826  0.2245 -0.1293
 5393SOL    HW227813   3.805   1.962   0.888  0.6225  0.2694 -1.0062
 5394SOL     OW27814   2.466   4.404   7.736  0.3323  0.8111 -0.4712
 5394SOL    HW127815   2.431   4.492   7.750  0.4138  0.3968  2.2216
 5394SOL    HW227816   2.397   4.366   7.681 -1.4516  1.9032  1.0196
 5395SOL     OW27817   3.728   0.932  10.210 -0.1476  1.1395  0.2945
 5395SOL    HW127818   3.769   0.918  10.124  1.1881  0.3695  1.0577
 5395SOL    HW227819   3.799   0.985  10.248  0.1313 -1.2104  3.0021
 5396SOL     OW27820   3.989   0.375   7.693  0.2132  0.4096 -0.7148
 5396SOL    HW127821   4.075   0.417   7.697  0.5248 -0.2643 -0.2211
 5396SOL    HW227822   3.973   0.376   7.787 -1.7034 -1.5472 -1.0358
 5397SOL     OW27823   2.680   0.820   2.921  0.1851 -0.0781 -0.3862
 5397SOL    HW127824   2.751   0.826   2.857  1.3852  0.1357  0.9787
 5397SOL    HW227825   2.700   0.754   2.987 -0.1559  0.1720 -0.0342
 5398SOL     OW27826   1.189   2.773   7.396 -0.1903 -0.1852  0.1441
 5398SOL    HW127827   1.219   2.843   7.453  2.3610 -0.0436 -1.3753
 5398SOL    HW227828   1.207   2.700   7.455 -0.5580  0.1552  0.6723
 5399SOL     OW27829   3.068   1.787  12.845 -0.0362 -0.1872 -0.0720
 5399SOL    HW127830   3.017   1.857  12.806 -0.3362 -0.5262 -0.2920
 5399SOL    HW227831   3.084   1.822  12.932 -0.9409 -0.6300  0.2628
 5400SOL     OW27832   1.717   1.125   5.884  0.9144 -0.2700  0.3093
 5400SOL    HW127833   1.631   1.126   5.926  0.5038  0.5070 -0.5321
 5400SOL    HW227834   1.759   1.048   5.922 -0.5506 -1.0573  0.3467
 5401SOL     OW27835   1.869   1.520   0.591 -0.1777  0.6593 -0.6910
 5401SOL    HW127836   1.932   1.590   0.574 -0.0626  0.2984 -1.7234
 5401SOL    HW227837   1.929   1.453   0.624 -2.3105 -1.3657 -0.9024
 5402SOL     OW27838   0.946   0.760   3.618  0.0089  0.3899 -0.8921
 5402SOL    HW127839   0.893   0.685   3.592  1.2017 -0.5368 -0.6887
 5402SOL    HW227840   1.034   0.722   3.624  0.0550 -0.1128 -5.4231
 5403SOL     OW27841   2.404   2.524   0.873 -0.2495 -0.3170 -0.1299
 5403SOL    HW127842   2.366   2.515   0.785  0.7149  1.8075 -0.7802
 5403SOL    HW227843   2.332   2.570   0.917 -0.3446 -0.8451  0.2561
 5404SOL     OW27844   0.172   3.925   3.620  0.5334  0.1797  0.2199
 5404SOL    HW127845   0.226   3.958   3.692 -1.1768  0.7046  1.2633
 5404SOL    HW227846   0.115   3.866   3.670  0.9390  0.9950  1.6486
 5405SOL     OW27847   1.203   1.201   8.318 -0.2197 -0.1767  0.1017
 5405SOL    HW127848   1.149   1.176   8.393 -0.4057  0.3086  0.1256
 5405SOL    HW227849   1.264   1.259   8.365 -1.1090 -0.1756  1.2614
 5406SOL     OW27850   2.904   1.028   6.849  0.8252  0.0348  0.2896
 5406SOL    HW127851   2.986   0.982   6.869 -0.4215 -0.6628  3.8420
 5406SOL    HW227852   2.846   0.953   6.837  2.8268 -1.7633  1.9005
 5407SOL     OW27853   0.893   0.531   7.939  0.1777 -0.4264  0.6087
 5407SOL    HW127854   0.919   0.481   8.017 -0.2431 -1.8839 -0.1744
 5407SOL    HW227855   0.970   0.527   7.882 -0.3793  2.5527 -0.3379
 5408SOL     OW27856   3.390   4.080   5.976  0.5218 -0.2150  0.0060
 5408SOL    HW127857   3.468   4.053   5.928  1.1071  0.9860  0.2780
 5408SOL    HW227858   3.419   4.045   6.060  2.1482 -2.8100 -1.6347
 5409SOL     OW27859   1.521   0.292   1.053  0.5233 -0.0585  0.2778
 5409SOL    HW127860   1.572   0.352   0.998 -0.9017 -1.0180 -2.0936
 5409SOL    HW227861   1.588   0.227   1.075  1.5560  0.1311 -2.3024
 5410SOL     OW27862   3.987   0.389  16.443 -0.0133  0.4866  0.5011
 5410SOL    HW127863   3.911   0.363  16.390  2.3205 -1.1916 -2.0379
 5410SOL    HW227864   4.054   0.399  16.375 -0.1599  0.2940  0.3246
 5411SOL     OW27865   4.536   1.001   1.301 -0.2383  0.0690 -0.4989
 5411SOL    HW127866   4.480   1.078   1.291  1.7684  1.6514  0.4343
 5411SOL    HW227867   4.522   0.986   1.395  0.1603  0.0597 -0.4411
 5412SOL     OW27868   0.739   2.497   7.069  0.0522 -0.4586  0.0330
 5412SOL    HW127869   0.702   2.550   6.999 -1.3477 -1.8732 -0.2840
 5412SOL    HW227870   0.827   2.535   7.070 -0.8553  1.6311 -0.1880
 5413SOL     OW27871   0.252   1.718   8.799  0.1422  0.0617 -0.1643
 5413SOL    HW127872   0.333   1.769   8.792  0.0335  0.5320  2.0160
 5413SOL    HW227873   0.195   1.770   8.855  0.7354  0.4862  0.0499
 5414SOL     OW27874   1.935   1.038   1.603  0.1423 -0.4289 -0.3426
 5414SOL    HW127875   2.017   0.998   1.574 -0.2813 -1.4246 -0.1695
 5414SOL    HW227876   1.966   1.125   1.629 -3.3928  0.5851  0.3968
 5415SOL     OW27877   1.408   1.149  16.315  0.2340  0.3092 -0.5484
 5415SOL    HW127878   1.382   1.232  16.275  1.2007  0.2784 -1.2253
 5415SOL    HW227879   1.487   1.138  16.263  0.3710  4.2667 -1.1979
 5416SOL     OW27880   1.905   0.322   6.332 -0.1360 -0.4077  0.2266
 5416SOL    HW127881   1.889   0.323   6.426 -0.2272 -0.7519  0.2165
 5416SOL    HW227882   1.956   0.403   6.332  0.1811 -0.6066 -0.3715
 5417SOL     OW27883   0.020   1.047   4.920 -0.1315  0.6946  0.1619
 5417SOL    HW127884   0.052   1.136   4.902 -1.8793  1.3008  0.1167
 5417SOL    HW227885   4.669   1.044   4.873  0.7949  1.6027 -1.5335
 5418SOL     OW27886   4.184   3.656   8.788 -0.1462  0.1108  0.6237
 5418SOL    HW127887   4.155   3.746   8.774 -0.8595 -0.0650  1.0088
 5418SOL    HW227888   4.135   3.610   8.721 -0.1138 -0.8509  1.2611
 5419SOL     OW27889   3.201   3.492  13.575 -0.4442 -0.1578 -0.6983
 5419SOL    HW127890   3.120   3.459  13.613  0.0436  0.9328  1.2897
 5419SOL    HW227891   3.235   3.531  13.656 -1.7110  0.7946 -0.6197
 5420SOL     OW27892   0.699   2.036  13.145 -0.0779  0.5207 -0.5240
 5420SOL    HW127893   0.761   1.968  13.118  1.3215  1.7132 -0.3379
 5420SOL    HW227894   0.618   2.008  13.103  0.5722 -0.9667 -0.7748
 5421SOL     OW27895   1.453   3.754   3.745  0.4741 -0.1303 -0.6819
 5421SOL    HW127896   1.531   3.798   3.711  0.8740 -1.2465 -1.2032
 5421SOL    HW227897   1.443   3.696   3.670 -0.2741 -0.7664 -0.0914
 5422SOL     OW27898   3.778   2.559   9.843 -0.3931 -0.1935 -0.2130
 5422SOL    HW127899   3.842   2.498   9.880 -0.3270 -0.3186 -0.5335
 5422SOL    HW227900   3.790   2.635   9.900 -0.0686 -1.1830  1.0325
 5423SOL     OW27901   2.116   4.007   5.557 -0.0456 -1.0774 -0.2567
 5423SOL    HW127902   2.203   4.043   5.539 -0.4420  1.2407  2.3748
 5423SOL    HW227903   2.063   4.064   5.501 -0.8855 -1.0593  0.5646
 5424SOL     OW27904   0.558   0.150   0.440  0.3714  0.1045 -0.8317
 5424SOL    HW127905   0.558   0.245   0.427 -1.9413  0.2156  0.0221
 5424SOL    HW227906   0.644   0.118   0.411  1.4222  1.9264  0.2448
 5425SOL     OW27907   0.387   0.062  11.368 -0.1857  0.0955  0.0734
 5425SOL    HW127908   0.443   0.013  11.429 -0.7603  1.4786  1.7057
 5425SOL    HW227909   0.305   0.023  11.398 -0.3914  0.6270  0.1897
 5426SOL     OW27910   2.148   3.035  12.192 -0.0258 -0.1492  0.1442
 5426SOL    HW127911   2.132   2.941  12.193  0.1353 -0.1706  0.5675
 5426SOL    HW227912   2.209   3.036  12.265 -0.8828 -3.5566  0.8711
 5427SOL     OW27913   2.794   3.377   5.633 -0.5674  0.0032 -0.2853
 5427SOL    HW127914   2.812   3.405   5.544 -0.2208  0.9053  0.0735
 5427SOL    HW227915   2.874   3.326   5.649 -2.2856 -2.4291  0.6820
 5428SOL     OW27916   1.763   1.333   5.706 -0.8145  0.1679 -0.1843
 5428SOL    HW127917   1.859   1.333   5.703 -0.8267 -0.2364 -0.6300
 5428SOL    HW227918   1.739   1.275   5.779 -2.5316  0.2679 -0.6788
 5429SOL     OW27919   3.810   2.832   4.371 -0.3418  0.0997 -0.4980
 5429SOL    HW127920   3.847   2.746   4.350 -0.3468 -0.1522  0.5088
 5429SOL    HW227921   3.772   2.808   4.456  0.9281  1.0441  0.3266
 5430SOL     OW27922   4.554   3.358  13.270 -0.6189  0.6830  0.2625
 5430SOL    HW127923   4.628   3.324  13.320  0.5711 -1.0932 -2.6850
 5430SOL    HW227924   4.551   3.452  13.290  0.8345  0.9890 -0.9254
 5431SOL     OW27925   3.181   1.346   8.353 -0.3580 -0.0008  0.3827
 5431SOL    HW127926   3.137   1.261   8.358 -0.9943  0.3926  1.4042
 5431SOL    HW227927   3.132   1.408   8.406 -1.3277  1.5979 -2.3627
 5432SOL     OW27928   4.170   4.611  15.311  0.2129 -0.0772  0.0712
 5432SOL    HW127929   4.155   4.521  15.343 -1.5912  0.2989  0.2734
 5432SOL    HW227930   4.265   4.605  15.324 -0.2371 -2.5233  2.3317
 5433SOL     OW27931   1.257   2.731   7.124 -0.0704 -0.3875 -0.7490
 5433SOL    HW127932   1.242   2.756   7.215  0.3872  0.1504 -0.8229
 5433SOL    HW227933   1.199   2.794   7.082 -1.3511 -0.9636  0.1591
 5434SOL     OW27934   1.697   3.557  14.828  0.2046 -0.3671  0.0936
 5434SOL    HW127935   1.609   3.529  14.853  0.3278 -3.0422 -2.4927
 5434SOL    HW227936   1.669   3.600  14.748 -1.7051 -1.6975  0.0617
 5435SOL     OW27937   3.005   1.534  15.620 -0.4921 -0.0552 -0.1013
 5435SOL    HW127938   2.938   1.495  15.564  0.6253 -1.1699 -0.6272
 5435SOL    HW227939   2.974   1.512  15.707  0.2393  1.3670  0.5269
 5436SOL     OW27940   1.807   1.575   6.883  0.5586 -0.4006 -0.0606
 5436SOL    HW127941   1.893   1.563   6.924 -0.0419  0.1305  1.3220
 5436SOL    HW227942   1.782   1.488   6.854 -0.8062 -0.4139  1.1815
 5437SOL     OW27943   3.600   4.411  12.102  0.4520  0.0537  0.4992
 5437SOL    HW127944   3.538   4.345  12.073  2.0432 -1.6818  1.0610
 5437SOL    HW227945   3.612   4.378  12.191  2.0514  1.5515  0.8512
 5438SOL     OW27946   4.424   3.693   6.871  0.2710 -0.6847 -0.1508
 5438SOL    HW127947   4.380   3.771   6.902  0.3482 -0.4539 -0.6126
 5438SOL    HW227948   4.352   3.631   6.861 -0.5978 -0.2441  3.5720
 5439SOL     OW27949   0.861   3.755   5.030 -0.1454 -0.0203  0.0212
 5439SOL    HW127950   0.947   3.789   5.052  0.0701 -0.0416 -0.7893
 5439SOL    HW227951   0.817   3.831   4.993  0.3570 -0.3676 -1.2624
 5440SOL     OW27952   4.233   2.657  12.300  0.7749 -0.1288  0.0364
 5440SOL    HW127953   4.295   2.633  12.231 -1.6974 -3.8602 -0.8483
 5440SOL    HW227954   4.284   2.714  12.358 -0.5403  2.1169 -0.9801
 5441SOL     OW27955   0.955   1.017   5.265  0.3493 -0.0870  0.0874
 5441SOL    HW127956   0.902   1.007   5.185 -1.1683  1.0340  0.9443
 5441SOL    HW227957   1.012   1.091   5.247  0.7004  0.1389  2.1610
 5442SOL     OW27958   2.937   0.496   5.752 -0.2727 -0.7815  0.2074
 5442SOL    HW127959   2.948   0.509   5.657  1.1788  3.9089  0.9975
 5442SOL    HW227960   3.001   0.564   5.773  0.6873 -1.5776 -0.1212
 5443SOL     OW27961   3.570   1.903   0.439  0.0412  0.0680  0.1614
 5443SOL    HW127962   3.665   1.901   0.447  0.1610 -0.1870 -1.4735
 5443SOL    HW227963   3.549   1.957   0.516 -0.1525 -0.2044  0.3014
 5444SOL     OW27964   0.290   1.531   6.493 -0.2365  0.2762  0.6690
 5444SOL    HW127965   0.358   1.529   6.560 -0.0872  2.6853  0.5921
 5444SOL    HW227966   0.330   1.475   6.426 -0.6673  1.0541 -0.2433
 5445SOL     OW27967   4.083   4.256   4.179 -0.0947 -0.2444  0.1146
 5445SOL    HW127968   4.008   4.314   4.176  0.0943  0.1167  2.2838
 5445SOL    HW227969   4.041   4.184   4.131 -3.0916  0.3417  1.8402
 5446SOL     OW27970   4.335   0.312  14.035  0.2109  0.5513  0.1749
 5446SOL    HW127971   4.416   0.266  14.013  0.2414  0.4600  0.4906
 5446SOL    HW227972   4.358   0.403  14.054 -0.2825  0.4025  1.4764
 5447SOL     OW27973   0.698   0.457   0.479 -0.0111 -0.3801 -0.3437
 5447SOL    HW127974   0.785   0.497   0.490 -0.6346  0.1940  2.5585
 5447SOL    HW227975   0.645   0.526   0.518 -0.2315 -1.4307  1.2234
 5448SOL     OW27976   1.342   0.429   9.108 -0.5683 -0.9436 -0.6294
 5448SOL    HW127977   1.437   0.433   9.113 -0.5881  0.4929 -1.5658
 5448SOL    HW227978   1.327   0.342   9.147  1.0303 -0.1694  1.7263
 5449SOL     OW27979   0.788   2.821  12.093  0.0931 -0.0833  0.6870
 5449SOL    HW127980   0.871   2.846  12.135  0.1480 -0.5475  0.8485
 5449SOL    HW227981   0.765   2.910  12.065  1.0375  0.3037  1.1418
 5450SOL     OW27982   3.808   2.240   0.758  0.0934  0.2619  0.3387
 5450SOL    HW127983   3.894   2.209   0.730 -0.1700  1.5118 -1.8254
 5450SOL    HW227984   3.811   2.225   0.853  0.6682  0.2573  0.3211
 5451SOL     OW27985   4.455   2.648   8.951 -0.6877  0.2200 -0.3208
 5451SOL    HW127986   4.485   2.610   9.033  1.6901  2.1117 -0.3420
 5451SOL    HW227987   4.527   2.619   8.895  0.6009  0.6451  1.1466
 5452SOL     OW27988   2.609   4.208  13.119 -0.7734 -0.2256  0.6882
 5452SOL    HW127989   2.550   4.149  13.071 -0.3571  1.1952 -1.5337
 5452SOL    HW227990   2.546   4.256  13.173 -0.2235  0.5043  0.6738
 5453SOL     OW27991   4.164   2.891   7.138 -0.1428  0.6751  0.1843
 5453SOL    HW127992   4.192   2.802   7.160  2.4125  1.5413  0.5488
 5453SOL    HW227993   4.125   2.878   7.052  1.3756 -1.1984 -0.2403
 5454SOL     OW27994   4.622   3.316   4.632  0.0141 -0.0069  0.0603
 5454SOL    HW127995   4.534   3.350   4.614  0.2566  0.5553 -0.0725
 5454SOL    HW227996   4.618   3.253   4.560  1.4684 -0.7956  0.6845
 5455SOL     OW27997   1.412   1.006   4.198  0.0736  0.1098  0.7339
 5455SOL    HW127998   1.441   0.947   4.268 -2.6474 -0.8977  1.0231
 5455SOL    HW227999   1.485   1.066   4.192  1.4413 -1.4390  1.7601
 5456SOL     OW28000   0.248   3.162  12.155 -0.6560  0.3054 -0.2079
 5456SOL    HW128001   0.334   3.197  12.178 -0.7005 -0.7195  1.4987
 5456SOL    HW228002   0.243   3.085  12.211 -1.1572  0.5888  0.1454
 5457SOL     OW28003   3.925   1.372   3.231 -0.3782 -0.6871 -0.2596
 5457SOL    HW128004   3.906   1.462   3.256  0.5843 -1.2291  2.4017
 5457SOL    HW228005   3.845   1.355   3.181 -1.0883 -1.1562  1.0391
 5458SOL     OW28006   1.947   4.350  15.586  0.6204 -0.2949 -0.3302
 5458SOL    HW128007   2.029   4.399  15.577 -0.4138  1.6109  0.5784
 5458SOL    HW228008   1.977   4.260  15.578 -1.4742 -0.9729 -0.7703
 5459SOL     OW28009   2.534   3.937  10.146  0.2391 -0.1292  0.2051
 5459SOL    HW128010   2.469   3.873  10.117  0.5506 -1.0911  1.6712
 5459SOL    HW228011   2.480   3.988  10.207  0.3269  0.0147  0.1622
 5460SOL     OW28012   1.741   3.963   0.364  0.5328  0.2931 -0.3799
 5460SOL    HW128013   1.783   4.046   0.342 -2.9480  2.0277 -0.5113
 5460SOL    HW228014   1.776   3.906   0.295 -0.2115  1.2235 -1.5295
 5461SOL     OW28015   3.266   4.307   6.826 -0.4552  0.0651 -0.0734
 5461SOL    HW128016   3.277   4.374   6.894 -1.3866  0.7482 -0.6055
 5461SOL    HW228017   3.186   4.341   6.786 -0.0710  0.6064 -0.3919
 5462SOL     OW28018   3.205   0.493   9.709 -0.1981 -0.0255 -0.3103
 5462SOL    HW128019   3.262   0.474   9.784 -0.2446  2.1693  0.2756
 5462SOL    HW228020   3.191   0.405   9.675  1.0975 -0.0664 -0.7472
 5463SOL     OW28021   4.705   2.262   6.725  0.4770 -0.4393 -0.5462
 5463SOL    HW128022   0.013   2.339   6.766  0.4852  0.3759 -2.0843
 5463SOL    HW228023   4.670   2.213   6.800 -0.5052 -0.3318 -0.9375
 5464SOL     OW28024   2.664   4.417   5.400  0.0583  0.3906  0.1622
 5464SOL    HW128025   2.689   4.489   5.458  0.6601  2.8113 -3.0958
 5464SOL    HW228026   2.749   4.409   5.356  0.1497  1.4028  0.1484
 5465SOL     OW28027   1.464   2.316   4.923  0.3021 -0.1097  0.1701
 5465SOL    HW128028   1.530   2.385   4.931  1.4771 -1.2088 -0.1707
 5465SOL    HW228029   1.459   2.297   4.829 -0.4461  0.5727  0.0692
 5466SOL     OW28030   3.318   3.131   9.493  0.0353  0.5110 -0.5509
 5466SOL    HW128031   3.304   3.036   9.496  1.7389  0.3473  2.0816
 5466SOL    HW228032   3.404   3.128   9.450  0.1407  1.6361 -0.4020
 5467SOL     OW28033   4.541   1.727   7.265 -0.2128 -0.4429  0.0194
 5467SOL    HW128034   4.512   1.638   7.286 -2.2808  0.4649  0.9671
 5467SOL    HW228035   4.631   1.702   7.244  0.1064 -0.2015  1.1031
 5468SOL     OW28036   3.701   4.394   7.847 -1.4029  0.3677  0.2567
 5468SOL    HW128037   3.734   4.390   7.758  1.0076 -1.8898  1.2757
 5468SOL    HW228038   3.667   4.309   7.873 -0.0318 -0.5147 -0.8694
 5469SOL     OW28039   3.762   1.035   3.239  0.0981  0.0789 -0.2596
 5469SOL    HW128040   3.687   1.095   3.237  0.0574 -0.0435 -2.5163
 5469SOL    HW228041   3.821   1.073   3.304  2.2012 -0.9167 -1.5952
 5470SOL     OW28042   1.011   2.760  10.030 -0.1524 -0.7660 -0.2847
 5470SOL    HW128043   0.986   2.708   9.953 -0.2586  0.4627 -1.0830
 5470SOL    HW228044   1.082   2.815   9.999 -1.2507  0.8198 -0.0037
 5471SOL     OW28045   1.310   3.547  10.862 -0.1134  0.4121 -0.1065
 5471SOL    HW128046   1.372   3.600  10.811 -0.0433 -1.1407 -1.6396
 5471SOL    HW228047   1.352   3.556  10.947 -2.7539 -1.8885  1.4052
 5472SOL     OW28048   1.939   3.098   6.006  0.0296  0.3854  0.2016
 5472SOL    HW128049   2.021   3.084   6.054  0.0238  1.8098  0.6201
 5472SOL    HW228050   1.983   3.152   5.941 -1.9946  0.2372 -1.2895
 5473SOL     OW28051   0.476   1.895  16.045 -0.5005 -0.1228  0.1690
 5473SOL    HW128052   0.478   1.975  16.098 -2.0257  0.4828 -0.6728
 5473SOL    HW228053   0.402   1.908  15.986  1.3175 -0.9142 -2.3183
 5474SOL     OW28054   4.146   1.531  13.007 -0.4675 -0.4387 -0.5798
 5474SOL    HW128055   4.055   1.540  12.977  0.1847  0.8889 -2.2205
 5474SOL    HW228056   4.156   1.504  13.098 -1.5125  0.6297 -0.1378
 5475SOL     OW28057   1.593   3.309   5.897 -0.0769  0.7363 -0.3538
 5475SOL    HW128058   1.655   3.373   5.932  0.8778  0.2327 -1.1077
 5475SOL    HW228059   1.631   3.290   5.811 -0.1387 -1.4262  0.0791
 5476SOL     OW28060   3.092   4.634   5.440 -0.5088 -0.2261 -0.4152
 5476SOL    HW128061   3.128   4.602   5.523 -0.9968  1.0985  0.3188
 5476SOL    HW228062   3.154   4.595   5.379 -0.4005  1.0317 -1.1058
 5477SOL     OW28063   3.431   0.889   6.928 -0.7471  0.2909  0.6108
 5477SOL    HW128064   3.386   0.839   6.861 -2.1149  2.0563  0.1900
 5477SOL    HW228065   3.462   0.828   6.995  0.7081 -0.4802 -0.7790
 5478SOL     OW28066   1.154   2.276  17.323 -0.0890 -0.0462  0.3890
 5478SOL    HW128067   1.187   2.187  17.329 -1.6544 -0.7446 -1.3266
 5478SOL    HW228068   1.191   2.312  17.242  0.0950 -0.6329  0.2126
 5479SOL     OW28069   3.038   1.121   9.250  0.1153 -0.4490  0.3979
 5479SOL    HW128070   3.056   1.097   9.341 -1.9490 -0.3075  0.8459
 5479SOL    HW228071   3.125   1.112   9.211  0.4729  2.8455  0.3655
 5480SOL     OW28072   0.542   4.428  16.781  0.0884  0.5177  0.0191
 5480SOL    HW128073   0.592   4.361  16.829 -0.3139  1.7975  2.1948
 5480SOL    HW228074   0.565   4.408  16.690  0.4214  0.1290  0.1840
 5481SOL     OW28075   2.331   0.189   1.203  0.4179 -0.1354  0.1162
 5481SOL    HW128076   2.354   0.282   1.196  1.0065 -0.2546  0.4524
 5481SOL    HW228077   2.386   0.160   1.130 -1.7543  0.4398 -1.7408
 5482SOL     OW28078   2.946   0.110   3.087  0.1139  0.3204 -0.3143
 5482SOL    HW128079   2.893   0.178   3.045 -1.2508 -0.0621  0.7920
 5482SOL    HW228080   2.995   0.076   3.012  1.3415 -1.5822  1.3673
 5483SOL     OW28081   1.674   3.602  10.624  0.4799  0.1941 -0.1599
 5483SOL    HW128082   1.707   3.568  10.707  2.2242  0.4322 -0.7626
 5483SOL    HW228083   1.627   3.677  10.659  1.1272  0.7843 -0.5567
 5484SOL     OW28084   0.588   0.943   9.151 -0.0757 -0.5694 -0.1242
 5484SOL    HW128085   0.533   1.022   9.144  1.2560  0.4723  1.1249
 5484SOL    HW228086   0.623   0.968   9.237 -0.1485 -0.1242 -0.2230
 5485SOL     OW28087   1.506   2.298  11.523 -0.5245  0.1398 -0.2284
 5485SOL    HW128088   1.523   2.289  11.617 -3.3894  1.3326  0.3994
 5485SOL    HW228089   1.504   2.208  11.491 -2.0698  0.0323  0.1475
 5486SOL     OW28090   1.415   2.244  14.919  0.3394 -1.1901 -0.4717
 5486SOL    HW128091   1.473   2.266  14.845  0.1287  1.5082  0.1750
 5486SOL    HW228092   1.332   2.227  14.876 -0.8089  1.2331  0.7806
 5487SOL     OW28093   3.836   1.334   2.704 -0.2617  0.1759 -0.2051
 5487SOL    HW128094   3.917   1.365   2.664  0.9768 -2.1154  0.6059
 5487SOL    HW228095   3.868   1.251   2.738  1.4091 -0.1121 -2.4619
 5488SOL     OW28096   3.439   2.372   3.876  0.8078  0.1563  0.3182
 5488SOL    HW128097   3.403   2.364   3.964  2.0075 -2.0422  0.6137
 5488SOL    HW228098   3.522   2.325   3.880  0.8227  0.2009  0.5258
 5489SOL     OW28099   1.774   0.297  11.101  0.0230  0.8231 -0.2562
 5489SOL    HW128100   1.781   0.259  11.013  1.2708 -0.4331  0.3981
 5489SOL    HW228101   1.712   0.369  11.087 -0.5822  0.4512  0.5005
 5490SOL     OW28102   1.519   0.678   1.850  0.5373 -0.4962  0.4266
 5490SOL    HW128103   1.488   0.588   1.837  0.2720 -0.4949  1.0404
 5490SOL    HW228104   1.446   0.731   1.819  0.1655 -0.9362  0.5544
 5491SOL     OW28105   2.344   0.831   4.331 -0.3760  0.4434 -0.5912
 5491SOL    HW128106   2.388   0.758   4.374  2.4685  1.8851 -1.0282
 5491SOL    HW228107   2.307   0.878   4.406 -0.7692 -2.3586  0.9800
 5492SOL     OW28108   1.067   0.618   7.752 -0.1040 -0.0074 -0.3922
 5492SOL    HW128109   1.090   0.681   7.821  0.5887 -1.7501  0.9836
 5492SOL    HW228110   1.124   0.637   7.678 -0.4835 -2.4099 -1.3181
 5493SOL     OW28111   1.527   0.445   5.209 -0.3145  0.2110  0.4160
 5493SOL    HW128112   1.549   0.386   5.281 -2.9249  1.1979  2.0321
 5493SOL    HW228113   1.520   0.530   5.253  1.1439 -0.5764  2.1779
 5494SOL     OW28114   0.491   1.708   7.207  0.5455 -0.1771  0.1414
 5494SOL    HW128115   0.433   1.653   7.259 -2.0812  1.6118 -0.8809
 5494SOL    HW228116   0.555   1.695   7.277 -1.8797 -1.1850  2.1560
 5495SOL     OW28117   1.103   3.334   6.072  0.0487  0.7100  0.3713
 5495SOL    HW128118   1.193   3.326   6.103 -0.3650  0.8567  1.6126
 5495SOL    HW228119   1.052   3.274   6.126 -0.5869 -0.6512 -1.7373
 5496SOL     OW28120   0.265   0.680   4.151  0.2924 -0.0231  0.1427
 5496SOL    HW128121   0.215   0.741   4.096  0.2160  0.1493  0.4041
 5496SOL    HW228122   0.292   0.742   4.219  0.9622  0.0745 -0.2185
 5497SOL     OW28123   2.321   3.643   1.087  0.5296  0.1959 -0.6987
 5497SOL    HW128124   2.244   3.665   1.035 -0.3470  0.7100  0.8187
 5497SOL    HW228125   2.388   3.656   1.019  0.7966  0.9997 -0.2799
 5498SOL     OW28126   1.637   0.428   2.691 -0.1047 -0.8016 -0.1017
 5498SOL    HW128127   1.732   0.430   2.682 -0.1487  0.1990 -0.3342
 5498SOL    HW228128   1.614   0.336   2.704 -1.6998 -0.5518 -1.0942
 5499SOL     OW28129   0.846   0.102   2.381  0.2307  0.0313  1.0272
 5499SOL    HW128130   0.838   0.006   2.383  3.2707 -0.2624 -0.7393
 5499SOL    HW228131   0.866   0.102   2.288 -1.2980 -1.2257  0.6919
 5500SOL     OW28132   2.871   1.300   4.478  0.2863 -0.1041  0.1303
 5500SOL    HW128133   2.776   1.291   4.475  0.0204  2.5348  1.7694
 5500SOL    HW228134   2.902   1.211   4.499  0.3572  0.0398  0.6187
 5501SOL     OW28135   3.727   0.743   3.495  0.0411  0.4056  0.1575
 5501SOL    HW128136   3.652   0.739   3.435  0.6632 -0.4660 -0.5547
 5501SOL    HW228137   3.677   0.768   3.573 -2.7647  0.7829 -1.7597
 5502SOL     OW28138   3.718   4.386   7.553 -0.3343  0.2518  0.1021
 5502SOL    HW128139   3.669   4.307   7.532 -0.4029  0.0444  1.0572
 5502SOL    HW228140   3.769   4.389   7.472 -0.4324 -1.7913 -0.0406
 5503SOL     OW28141   2.262   1.257   4.471  0.1798  0.0956 -0.3892
 5503SOL    HW128142   2.183   1.311   4.469  0.2345  0.3176  2.3605
 5503SOL    HW228143   2.272   1.255   4.566 -1.9607 -2.4505 -0.2277
 5504SOL     OW28144   3.298   1.332   2.945 -0.0561  0.0310  1.1001
 5504SOL    HW128145   3.215   1.333   2.897 -1.2391 -0.5460  3.1490
 5504SOL    HW228146   3.331   1.420   2.923 -1.8832 -0.1336 -2.2376
 5505SOL     OW28147   4.358   3.021   9.053  0.3926  0.0988  0.2859
 5505SOL    HW128148   4.325   3.067   9.130 -0.7570 -0.4399  0.1164
 5505SOL    HW228149   4.312   2.938   9.062 -1.2900  0.9165 -0.7100
 5506SOL     OW28150   3.617   4.543  11.726  0.6383 -0.6640  0.6079
 5506SOL    HW128151   3.696   4.493  11.703 -0.9544 -2.3676 -1.2169
 5506SOL    HW228152   3.557   4.479  11.687  1.7880 -0.8235 -0.9135
 5507SOL     OW28153   1.857   1.988   4.363  0.2604 -0.0997 -0.1833
 5507SOL    HW128154   1.907   2.070   4.365 -1.2959  0.7834  2.3780
 5507SOL    HW228155   1.930   1.928   4.377 -0.6615 -1.1189  0.2359
 5508SOL     OW28156   1.145   3.227   9.160  1.0517  0.1451  0.3163
 5508SOL    HW128157   1.229   3.220   9.115  1.3128 -1.1931  1.0287
 5508SOL    HW228158   1.159   3.314   9.198 -2.1752  0.0677  1.7087
 5509SOL     OW28159   4.305   1.085   6.283 -0.0516  0.2897  0.3189
 5509SOL    HW128160   4.299   1.177   6.311  2.1966  0.5504 -0.0556
 5509SOL    HW228161   4.392   1.065   6.315 -0.7091 -0.2927  1.7436
 5510SOL     OW28162   0.334   4.627   1.041  0.0549 -0.0773 -0.2318
 5510SOL    HW128163   0.343   4.569   1.117 -0.0834  1.0437  0.6352
 5510SOL    HW228164   0.425   4.648   1.023 -0.8541  4.2558  0.2222
 5511SOL     OW28165   2.421   1.742   6.586 -0.0864 -0.2012  0.6135
 5511SOL    HW128166   2.403   1.687   6.510 -0.9329 -0.8994  1.3173
 5511SOL    HW228167   2.404   1.686   6.662 -0.9984 -0.6151  0.0930
 5512SOL     OW28168   4.363   1.169   3.708  0.2197  0.7407  0.2176
 5512SOL    HW128169   4.325   1.237   3.763 -0.4743  0.1488  0.4613
 5512SOL    HW228170   4.407   1.123   3.780 -0.7068 -1.1782 -0.4490
 5513SOL     OW28171   1.082   4.080   0.912 -0.3766 -0.0398 -0.0977
 5513SOL    HW128172   1.163   4.031   0.895  0.3253  1.3294 -0.6133
 5513SOL    HW228173   1.101   4.075   1.006 -0.9776  2.6219  0.1567
 5514SOL     OW28174   4.129   0.173   1.281 -0.0420  0.0891 -0.0265
 5514SOL    HW128175   4.085   0.177   1.196  3.1206  0.0120 -1.6435
 5514SOL    HW228176   4.057   0.185   1.343 -0.8014  0.2227 -0.9294
 5515SOL     OW28177   3.850   4.703   7.746 -0.2856  0.1905 -0.0296
 5515SOL    HW128178   3.769   4.678   7.700 -0.9991  1.0740  0.7396
 5515SOL    HW228179   3.802   4.710   7.829 -1.2405  0.5942 -0.6082
 5516SOL     OW28180   1.814   1.605   5.013  0.1194 -0.0048  0.6248
 5516SOL    HW128181   1.864   1.685   5.028  2.6822 -1.1044 -2.0484
 5516SOL    HW228182   1.732   1.630   4.970  0.0483 -2.2925 -0.5964
 5517SOL     OW28183   0.886   1.630   0.608  0.7826  0.1307  0.3951
 5517SOL    HW128184   0.892   1.559   0.544 -1.7635 -0.3234  0.6701
 5517SOL    HW228185   0.977   1.623   0.639  0.6721  0.7789  0.8691
 5518SOL     OW28186   1.712   2.225   3.410  0.1495 -0.0608  0.9004
 5518SOL    HW128187   1.679   2.135   3.399 -1.0852  0.6423 -1.1705
 5518SOL    HW228188   1.644   2.269   3.360  2.2905  2.1428 -0.0382
 5519SOL     OW28189   0.386   0.200   8.959 -0.2098 -0.4321  0.1202
 5519SOL    HW128190   0.412   0.210   9.051 -0.1990 -0.3349  0.1069
 5519SOL    HW228191   0.470   0.196   8.912 -0.6577 -1.2883 -0.5911
 5520SOL     OW28192   2.126   3.542   0.142  0.4051 -0.4117  0.0802
 5520SOL    HW128193   2.125   3.611   0.076 -0.6007  0.5996  1.1347
 5520SOL    HW228194   2.143   3.456   0.103  0.6429 -0.2829 -0.0973
 5521SOL     OW28195   0.266   2.739   4.772 -0.1365 -0.4347 -0.7140
 5521SOL    HW128196   0.205   2.687   4.825  0.4690 -0.6047 -0.1718
 5521SOL    HW228197   0.338   2.676   4.768 -0.2222 -0.4330 -2.0659
 5522SOL     OW28198   4.179   0.549   3.916  0.0838  0.4372 -0.2234
 5522SOL    HW128199   4.246   0.535   3.849 -1.2936  0.3558 -1.5824
 5522SOL    HW228200   4.152   0.641   3.907 -3.5300 -0.5200  0.9360
 5523SOL     OW28201   2.733   3.586   6.295  0.5171 -0.0740  0.3151
 5523SOL    HW128202   2.782   3.554   6.219 -1.9875  1.7142 -2.0185
 5523SOL    HW228203   2.725   3.503   6.342 -1.9864  0.4899  0.8539
 5524SOL     OW28204   4.115   1.083   4.487  0.1535 -0.1322 -0.0466
 5524SOL    HW128205   4.187   1.114   4.432 -1.2244  0.2196 -1.6625
 5524SOL    HW228206   4.090   1.013   4.426 -0.6073 -0.7017  0.9055
 5525SOL     OW28207   4.528   0.639   8.865  0.4566 -0.4060 -0.3611
 5525SOL    HW128208   4.467   0.612   8.934  0.0966  2.1969  0.3277
 5525SOL    HW228209   4.589   0.566   8.857  0.0628 -1.0221  2.2255
 5526SOL     OW28210   1.147   4.365   6.593  0.0087 -0.1371 -0.5953
 5526SOL    HW128211   1.144   4.448   6.544  0.7484 -0.5822 -1.4019
 5526SOL    HW228212   1.121   4.400   6.678 -0.0099 -2.5162  0.3702
 5527SOL     OW28213   0.169   0.890  10.413 -0.2667 -0.0944  0.0576
 5527SOL    HW128214   0.183   0.886  10.507  3.7639 -3.1362 -0.6708
 5527SOL    HW228215   0.154   0.984  10.401 -1.4647 -0.2671  0.1985
 5528SOL     OW28216   2.066   1.190  11.892 -0.0942  0.0604  0.6686
 5528SOL    HW128217   2.045   1.126  11.960  0.8386  0.7932  1.6616
 5528SOL    HW228218   2.158   1.204  11.917  0.3174  0.8153 -1.2679
 5529SOL     OW28219   0.645   2.565   9.921  0.0560 -0.3250 -0.2027
 5529SOL    HW128220   0.655   2.603   9.834 -2.3399  0.9753  0.0930
 5529SOL    HW228221   0.699   2.486   9.921  0.1372 -0.2701 -2.6859
 5530SOL     OW28222   0.879   3.050   1.459 -0.0221 -0.0661  0.8580
 5530SOL    HW128223   0.788   3.046   1.488 -0.8141 -0.0258 -1.5933
 5530SOL    HW228224   0.895   3.143   1.446  0.7547 -0.8784 -3.9863
 5531SOL     OW28225   1.262   3.110  11.773  0.4618 -0.4548 -0.3856
 5531SOL    HW128226   1.192   3.119  11.707 -0.3186  0.9764  0.6232
 5531SOL    HW228227   1.218   3.108  11.858 -0.2270 -0.3881 -0.7397
 5532SOL     OW28228   0.471   4.087  17.142  0.0207 -0.0446 -0.2386
 5532SOL    HW128229   0.386   4.131  17.152 -0.1166 -0.7143  1.5021
 5532SOL    HW228230   0.476   4.029  17.218  0.4119 -1.6383 -1.4771
 5533SOL     OW28231   0.023   4.153   6.593 -0.5441 -1.3264 -0.0061
 5533SOL    HW128232   0.019   4.221   6.526 -2.3647 -0.5381  0.9155
 5533SOL    HW228233   0.040   4.077   6.537 -2.3393 -2.0481  0.4326
 5534SOL     OW28234   4.092   1.066   6.074  0.8584  0.4119  0.2647
 5534SOL    HW128235   4.121   0.991   6.021  0.0399  1.5070 -1.7359
 5534SOL    HW228236   4.125   1.043   6.161 -1.0279 -0.0386  0.8670
 5535SOL     OW28237   0.251   4.197   3.522  0.4445 -0.3934 -0.1040
 5535SOL    HW128238   0.194   4.191   3.446  1.2972 -1.8722 -0.6224
 5535SOL    HW228239   0.245   4.108   3.555  0.8483  0.5517  2.5634
 5536SOL     OW28240   4.126   0.771  13.073 -0.3542  0.0911 -1.1744
 5536SOL    HW128241   4.165   0.857  13.092  1.0777 -0.4463 -1.7345
 5536SOL    HW228242   4.039   0.797  13.104  0.3140  2.7724 -1.5424
 5537SOL     OW28243   4.307   4.510  15.859 -0.1005 -0.3776 -0.0661
 5537SOL    HW128244   4.282   4.419  15.877  0.1634 -0.0035  2.1567
 5537SOL    HW228245   4.311   4.499  15.764  0.6077 -1.0430  0.0346
 5538SOL     OW28246   0.969   3.760   2.911  0.5484 -0.1225 -0.5408
 5538SOL    HW128247   0.895   3.776   2.969  1.4828 -1.1239  0.9188
 5538SOL    HW228248   0.980   3.853   2.892 -0.3616  0.2628  0.8840
 5539SOL     OW28249   1.451   1.910   2.312 -0.1038  0.0759  0.4412
 5539SOL    HW128250   1.390   1.897   2.384  0.0208 -1.7091  0.2176
 5539SOL    HW228251   1.532   1.866   2.339  1.0828 -0.0335 -3.1319
 5540SOL     OW28252   3.965   3.883   8.440  0.0745  0.5351 -0.6048
 5540SOL    HW128253   4.036   3.854   8.383  0.2412 -2.0709  0.9492
 5540SOL    HW228254   4.010   3.905   8.521 -0.9016  0.2150  0.0172
 5541SOL     OW28255   2.255   0.899  12.279 -0.5143 -0.6876 -0.3012
 5541SOL    HW128256   2.228   0.970  12.336  0.9653 -0.0809 -0.3355
 5541SOL    HW228257   2.263   0.831  12.345  0.6920  1.7364  2.0503
 5542SOL     OW28258   4.527   0.048   7.883 -0.1993  0.2313  0.2162
 5542SOL    HW128259   4.452   0.026   7.938 -1.4888 -1.3046 -2.1369
 5542SOL    HW228260   4.513   0.142   7.870  1.3185  0.2890 -1.0683
 5543SOL     OW28261   2.235   3.134   3.495  0.2500  0.3467  0.5244
 5543SOL    HW128262   2.303   3.148   3.428 -1.5505 -1.1820 -1.6339
 5543SOL    HW228263   2.248   3.039   3.502  0.2498  0.1381 -2.0946
 5544SOL     OW28264   0.216   0.018   5.822  0.2967 -0.4638  0.3135
 5544SOL    HW128265   0.154   0.058   5.884  0.3485  0.6876 -0.3765
 5544SOL    HW228266   0.174   0.037   5.738 -1.2170 -0.5326  1.0387
 5545SOL     OW28267   2.781   4.023   6.969 -0.2652  0.0510 -0.6397
 5545SOL    HW128268   2.721   3.971   7.023 -0.8949  1.7205  0.2527
 5545SOL    HW228269   2.791   4.109   7.010  1.5918 -0.1864 -0.6008
 5546SOL     OW28270   2.374   0.176   4.231  0.6770  0.4444  0.2589
 5546SOL    HW128271   2.413   0.100   4.188 -0.8941 -0.0746 -0.2639
 5546SOL    HW228272   2.283   0.150   4.241  0.0013  1.6490 -2.5828
 5547SOL     OW28273   3.458   2.955  13.315  0.0530  0.3071 -0.1052
 5547SOL    HW128274   3.382   3.000  13.280 -0.2156  0.0260  0.1116
 5547SOL    HW228275   3.509   3.033  13.335 -1.2314  0.8639  1.0266
 5548SOL     OW28276   1.901   1.024   2.771 -0.1693  0.0888  0.5410
 5548SOL    HW128277   1.859   1.110   2.780 -0.6342 -0.1662  0.8578
 5548SOL    HW228278   1.843   0.980   2.709  0.2620 -1.3206  1.1375
 5549SOL     OW28279   0.631   2.794  10.309 -0.1151  0.3831  0.1946
 5549SOL    HW128280   0.650   2.888  10.307 -0.6161  0.4839 -0.0013
 5549SOL    HW228281   0.536   2.781  10.306  0.1304 -1.1625 -0.8902
 5550SOL     OW28282   2.254   2.472   2.067  0.3294  0.2610  0.4434
 5550SOL    HW128283   2.310   2.548   2.079  1.2656 -0.3029 -0.3244
 5550SOL    HW228284   2.294   2.435   1.988 -0.9828  1.6079 -0.8510
 5551SOL     OW28285   1.757   4.332   2.395  0.2027  0.0042  0.2690
 5551SOL    HW128286   1.721   4.343   2.307 -3.4050 -0.6390  1.6424
 5551SOL    HW228287   1.687   4.281   2.437  0.5631 -1.5619 -1.0286
 5552SOL     OW28288   3.139   3.262  15.167  0.1649  0.3425 -0.7726
 5552SOL    HW128289   3.143   3.167  15.179 -1.9571  0.2905 -0.5115
 5552SOL    HW228290   3.096   3.264  15.081  0.7894  2.1138 -1.0408
 5553SOL     OW28291   2.707   1.196   6.856  0.8998  0.1275 -0.1279
 5553SOL    HW128292   2.785   1.140   6.863  2.4622  2.3366  0.2780
 5553SOL    HW228293   2.638   1.130   6.849  0.3171  0.6392  0.7761
 5554SOL     OW28294   2.861   4.211  13.194  0.3809 -0.3470  0.9487
 5554SOL    HW128295   2.768   4.208  13.172  0.6930  4.2062 -0.9597
 5554SOL    HW228296   2.860   4.175  13.283 -0.2504 -2.2147  0.1797
 5555SOL     OW28297   2.507   2.945   3.093  0.3895  0.1279  0.6315
 5555SOL    HW128298   2.536   3.029   3.058 -1.0155 -0.1198 -1.1008
 5555SOL    HW228299   2.540   2.879   3.033  0.2297 -1.1367  1.9374
 5556SOL     OW28300   1.811   1.534  11.453  0.2481  0.5532  0.0521
 5556SOL    HW128301   1.825   1.512  11.361  0.8052 -0.1155  0.3010
 5556SOL    HW228302   1.734   1.488  11.486  1.3492 -0.9257  0.5261
 5557SOL     OW28303   3.805   2.735   6.362 -0.4644  0.2909 -0.2519
 5557SOL    HW128304   3.710   2.720   6.372 -0.0694 -1.0768  1.4789
 5557SOL    HW228305   3.809   2.805   6.297  2.2538 -1.5615 -2.0728
 5558SOL     OW28306   1.141   4.650  12.495 -0.2279  0.1943 -0.2148
 5558SOL    HW128307   1.081   4.646  12.569 -0.6328  0.6899 -0.5171
 5558SOL    HW228308   1.136   4.555  12.483  1.1794  0.3783 -2.2498
 5559SOL     OW28309   4.553   2.676   1.952 -0.6218  0.1366 -0.6208
 5559SOL    HW128310   4.612   2.731   1.900 -0.1976 -0.8648 -1.2005
 5559SOL    HW228311   4.615   2.627   2.005 -0.8148  0.0451 -0.4834
 5560SOL     OW28312   3.832   4.409  16.592  0.1500 -0.3114 -0.0942
 5560SOL    HW128313   3.792   4.492  16.565 -2.6349 -1.6882 -0.2743
 5560SOL    HW228314   3.814   4.356  16.514  0.0738 -0.6808  0.1733
 5561SOL     OW28315   3.995   3.904   6.043 -0.1220 -0.1913 -0.0436
 5561SOL    HW128316   4.046   3.928   6.120  1.2875 -2.1954 -0.3642
 5561SOL    HW228317   4.045   3.945   5.972 -1.0872 -0.4395 -0.8641
 5562SOL     OW28318   4.608   2.463  16.850 -0.2078  0.1742  0.6609
 5562SOL    HW128319   4.620   2.521  16.774  0.5950 -3.1121 -1.7435
 5562SOL    HW228320   4.587   2.516  16.927  2.9163  0.4703  1.2925
 5563SOL     OW28321   2.380   4.245   3.304 -0.2894  0.0376  0.4548
 5563SOL    HW128322   2.380   4.341   3.302  2.4806  0.0306 -0.5177
 5563SOL    HW228323   2.305   4.232   3.362  0.0176 -1.2894  0.5554
 5564SOL     OW28324   1.965   1.476  14.272 -0.2835 -0.0533 -0.1515
 5564SOL    HW128325   1.951   1.548  14.209 -2.5079 -0.0468  0.3266
 5564SOL    HW228326   1.903   1.411  14.237  0.0358 -0.6711  0.4502
 5565SOL     OW28327   1.861   0.520  14.323 -0.0620  0.0368 -0.6767
 5565SOL    HW128328   1.780   0.526  14.272 -0.2774  0.9397 -0.2113
 5565SOL    HW228329   1.826   0.549  14.407  1.8853  3.6139 -1.0935
 5566SOL     OW28330   1.660   2.203   8.019  0.2210  0.4316 -0.0461
 5566SOL    HW128331   1.751   2.229   8.006  0.9300 -1.1271  1.7960
 5566SOL    HW228332   1.616   2.228   7.938 -1.5341 -1.4140  0.3393
 5567SOL     OW28333   0.104   2.950   3.497 -0.3997 -0.0247  0.3534
 5567SOL    HW128334   0.138   2.884   3.437 -1.2066 -0.1875  0.0619
 5567SOL    HW228335   0.181   2.963   3.551  0.7940 -0.4140 -1.2302
 5568SOL     OW28336   3.151   1.618   3.556 -0.1574 -0.2415  0.4248
 5568SOL    HW128337   3.150   1.549   3.489  0.0015  1.8578 -1.7696
 5568SOL    HW228338   3.058   1.626   3.575  0.1613 -3.4242  3.1986
 5569SOL     OW28339   4.581   0.298   5.547 -0.5130  0.2006 -0.0093
 5569SOL    HW128340   4.591   0.275   5.454 -0.0260  1.6652 -0.3187
 5569SOL    HW228341   4.524   0.226   5.574  1.7369 -1.3343  0.5722
 5570SOL     OW28342   3.738   2.717   7.291 -0.1770 -0.6312  0.0920
 5570SOL    HW128343   3.769   2.640   7.338  0.3477  0.8324  2.1271
 5570SOL    HW228344   3.737   2.681   7.202 -1.2587 -1.0390  0.2696
 5571SOL     OW28345   4.406   1.643   7.982  0.5745 -0.8986 -0.0327
 5571SOL    HW128346   4.320   1.665   8.019  0.5218  0.9791 -1.2242
 5571SOL    HW228347   4.462   1.619   8.056  1.3306  0.0756 -0.2942
 5572SOL     OW28348   2.886   0.082  12.475  0.6222  0.4584 -0.4675
 5572SOL    HW128349   2.816   0.147  12.465  0.1047 -0.0821 -0.3391
 5572SOL    HW228350   2.905   0.081  12.381 -0.9641  1.4708 -0.7895
 5573SOL     OW28351   0.332   1.955   3.975 -0.2940 -0.4449 -0.4334
 5573SOL    HW128352   0.422   1.988   3.966 -0.7424  0.4808 -1.3530
 5573SOL    HW228353   0.321   1.981   4.067  2.2656 -0.9454  0.0326
 5574SOL     OW28354   3.136   2.248   1.897 -0.3140  0.7580 -0.0591
 5574SOL    HW128355   3.220   2.293   1.883  0.9332 -1.6919 -0.3984
 5574SOL    HW228356   3.151   2.176   1.835 -1.4579  0.6728 -0.2350
 5575SOL     OW28357   4.619   4.452   2.426 -0.3104 -0.3253  0.2043
 5575SOL    HW128358   4.546   4.390   2.428  0.9186 -1.8191 -1.1297
 5575SOL    HW228359   4.679   4.412   2.489  1.1222 -1.0864 -1.6255
 5576SOL     OW28360   1.259   1.781  11.433 -0.6385 -0.2144  0.0333
 5576SOL    HW128361   1.210   1.701  11.414 -0.0863 -0.4949 -0.2342
 5576SOL    HW228362   1.336   1.766  11.378  1.2613 -1.2911  3.0033
 5577SOL     OW28363   4.221   2.866   7.652 -0.4934 -0.2459  0.0100
 5577SOL    HW128364   4.185   2.886   7.565 -0.6224  0.9068  0.3262
 5577SOL    HW228365   4.305   2.823   7.634 -0.9099 -0.7461 -0.7575
 5578SOL     OW28366   1.915   3.745  16.658 -0.7069  0.7672  0.1469
 5578SOL    HW128367   1.922   3.830  16.701  0.3022  1.0821 -0.6354
 5578SOL    HW228368   1.912   3.761  16.563  0.0699 -1.8076 -0.3224
 5579SOL     OW28369   3.067   1.256  14.644  0.8162 -0.2207  0.4294
 5579SOL    HW128370   3.155   1.278  14.674 -0.0270  0.5608  2.2728
 5579SOL    HW228371   3.062   1.282  14.552  0.2720 -3.2969 -0.4071
 5580SOL     OW28372   0.463   2.176   2.572  0.2904 -0.1359  0.0571
 5580SOL    HW128373   0.440   2.204   2.661 -1.8153  1.6961 -1.0743
 5580SOL    HW228374   0.414   2.094   2.565 -2.1971  1.3492 -0.1314
 5581SOL     OW28375   4.269   3.425   1.114 -0.2140 -0.0409  0.2841
 5581SOL    HW128376   4.358   3.461   1.108 -1.2454  2.4403 -0.0423
 5581SOL    HW228377   4.235   3.422   1.025  1.5038 -0.0434 -0.3680
 5582SOL     OW28378   2.953   3.116   7.566 -0.1552  0.1679 -0.0526
 5582SOL    HW128379   2.914   3.144   7.649  1.2418 -2.0670  1.3402
 5582SOL    HW228380   3.045   3.116   7.592  0.0220 -0.9735 -0.7000
 5583SOL     OW28381   4.597   3.167   7.719  0.1102 -0.1533  0.4339
 5583SOL    HW128382   4.613   3.153   7.626 -1.6661  2.9361 -0.3384
 5583SOL    HW228383   4.611   3.262   7.722  0.0573 -0.1759  1.3112
 5584SOL     OW28384   1.848   1.263   7.140  0.3574 -0.5168  0.1161
 5584SOL    HW128385   1.752   1.259   7.132  0.4297  0.1467 -1.1316
 5584SOL    HW228386   1.872   1.173   7.161 -1.9867 -1.2471 -0.2735
 5585SOL     OW28387   4.368   3.762   8.548  0.1408  0.4468  0.0628
 5585SOL    HW128388   4.302   3.705   8.510  0.7331 -1.2157  1.5030
 5585SOL    HW228389   4.312   3.824   8.595 -1.2492 -1.2661  0.6637
 5586SOL     OW28390   1.056   3.580   5.967  0.3236 -0.4105  0.3763
 5586SOL    HW128391   1.050   3.492   6.004 -1.1035 -0.3825  0.2004
 5586SOL    HW228392   1.144   3.600   5.999  0.7334 -0.8333 -0.4861
 5587SOL     OW28393   2.835   4.261   3.385  0.2480 -0.3235 -0.4820
 5587SOL    HW128394   2.912   4.212   3.357  0.1793 -0.7570  0.0848
 5587SOL    HW228395   2.812   4.313   3.308  0.7925  1.5734  0.6497
 5588SOL     OW28396   4.214   1.349   3.846 -0.2100 -0.0693 -0.1383
 5588SOL    HW128397   4.120   1.337   3.864 -0.0212 -0.1317  0.8289
 5588SOL    HW228398   4.244   1.372   3.934 -1.8731 -0.3816  0.5321
 5589SOL     OW28399   0.637   2.230   3.176  0.4453 -0.0558 -0.0399
 5589SOL    HW128400   0.630   2.193   3.088  0.0788 -0.9176  0.3518
 5589SOL    HW228401   0.724   2.271   3.181  0.8293 -0.7516 -0.9866
 5590SOL     OW28402   4.627   3.502   8.067  0.6315  0.2438  0.1300
 5590SOL    HW128403   4.679   3.553   8.130  0.0704  0.8992  0.0657
 5590SOL    HW228404   4.616   3.419   8.114 -1.0618  0.7198  0.5936
 5591SOL     OW28405   4.119   4.284   6.574  0.3088  0.1153 -0.3932
 5591SOL    HW128406   4.141   4.192   6.560 -0.8922 -0.3038  0.4175
 5591SOL    HW228407   4.197   4.338   6.575  0.2979  0.1356 -1.1356
 5592SOL     OW28408   4.469   4.521   8.236 -0.7345  0.6889  0.3826
 5592SOL    HW128409   4.461   4.595   8.295  0.2000  1.1591 -0.0736
 5592SOL    HW228410   4.563   4.530   8.220 -0.3520 -4.1402 -0.1843
 5593SOL     OW28411   4.047   0.940   9.146 -0.2793 -0.2929  0.3090
 5593SOL    HW128412   4.123   0.930   9.089  0.1301  0.5866  0.6965
 5593SOL    HW228413   4.014   0.852   9.132  1.0476 -0.8061  0.3844
 5594SOL     OW28414   3.457   4.308  11.649 -0.4145  0.1758  0.0032
 5594SOL    HW128415   3.394   4.283  11.717 -0.0492 -0.4319  0.1183
 5594SOL    HW228416   3.506   4.231  11.618  0.7873  0.9091  0.1025
 5595SOL     OW28417   4.236   1.132   5.031 -0.6328 -0.7696 -0.0465
 5595SOL    HW128418   4.225   1.223   5.059 -0.7513 -0.2127 -1.9109
 5595SOL    HW228419   4.232   1.081   5.112 -0.5278  1.5772  1.4137
 5596SOL     OW28420   3.488   3.130   3.657  0.2544 -0.0262 -0.1863
 5596SOL    HW128421   3.512   3.158   3.569 -0.3161 -0.6390 -0.5416
 5596SOL    HW228422   3.533   3.046   3.670  0.7667  0.2226 -0.3438
 5597SOL     OW28423   2.393   3.687   5.900  0.2017  0.7373 -0.1239
 5597SOL    HW128424   2.311   3.658   5.940 -0.0212  0.8210 -0.5183
 5597SOL    HW228425   2.372   3.751   5.832  2.1112 -0.5883 -1.9328
 5598SOL     OW28426   4.526   1.121  16.078 -0.1384 -0.4472 -0.1503
 5598SOL    HW128427   4.436   1.101  16.054  0.9011 -1.4216 -3.2072
 5598SOL    HW228428   4.521   1.124  16.173 -0.9286  0.0843 -0.2039
 5599SOL     OW28429   0.580   0.414   3.969  0.0533 -0.1521  0.0522
 5599SOL    HW128430   0.545   0.475   4.034  2.7410  1.4894 -0.0113
 5599SOL    HW228431   0.627   0.362   4.034 -0.0329  1.0599  1.0941
 5600SOL     OW28432   1.022   0.962   0.318  0.0257  0.5044  0.0102
 5600SOL    HW128433   0.981   0.895   0.373 -1.3108 -0.1608 -1.8193
 5600SOL    HW228434   0.989   0.941   0.231 -0.2688  0.9876  0.0090
 5601SOL     OW28435   4.099   3.712   2.199 -0.0808  0.0431  0.6009
 5601SOL    HW128436   4.052   3.640   2.242  1.3312 -1.0198  0.3786
 5601SOL    HW228437   4.106   3.772   2.273  0.3550 -0.1011  0.6753
 5602SOL     OW28438   0.986   1.980  10.325  0.0770 -0.4645  0.1245
 5602SOL    HW128439   0.949   2.061  10.361 -1.6697 -1.7674  1.2293
 5602SOL    HW228440   0.930   1.960  10.250  1.8076 -0.8461 -1.0513
 5603SOL     OW28441   2.326   3.529   2.765  0.9733 -0.3065 -0.5450
 5603SOL    HW128442   2.311   3.541   2.671 -1.1323 -1.6016 -0.3900
 5603SOL    HW228443   2.321   3.433   2.765  2.5636 -0.3919  2.1116
 5604SOL     OW28444   4.230   0.717  12.070 -0.1007  0.1901  0.5501
 5604SOL    HW128445   4.152   0.712  12.125  0.1398  1.2128  0.9927
 5604SOL    HW228446   4.198   0.789  12.015  0.9225  1.2560  1.3385
 5605SOL     OW28447   2.088   0.847  12.765 -0.0501  0.3065 -0.0198
 5605SOL    HW128448   2.153   0.893  12.818  1.2609 -0.1950 -1.2098
 5605SOL    HW228449   2.044   0.799  12.835 -0.2142  2.4426  1.3556
 5606SOL     OW28450   1.909   1.497   7.252  0.3239 -0.5127  0.0138
 5606SOL    HW128451   1.999   1.511   7.223  0.3918 -2.1873 -0.5573
 5606SOL    HW228452   1.884   1.419   7.203 -0.5964 -1.4099  1.8805
 5607SOL     OW28453   4.002   4.565  14.792 -0.3040 -0.2866 -0.8153
 5607SOL    HW128454   3.907   4.569  14.787 -0.4054 -1.2390  0.1440
 5607SOL    HW228455   4.018   4.606  14.877  1.0769 -0.9478 -0.7501
 5608SOL     OW28456   2.565   4.173   5.477 -0.5871 -0.2479 -0.7459
 5608SOL    HW128457   2.643   4.128   5.446  1.2179  1.3655  1.5109
 5608SOL    HW228458   2.592   4.260   5.448  1.8070 -0.9178 -0.5044
 5609SOL     OW28459   1.209   3.041   5.932 -0.5746  0.3044 -0.2023
 5609SOL    HW128460   1.140   3.085   5.884  2.2787  1.8402 -2.9417
 5609SOL    HW228461   1.256   3.120   5.959  1.9686 -1.0308 -0.7039
 5610SOL     OW28462   0.044   1.482   6.631 -0.5421  0.0295 -0.0605
 5610SOL    HW128463   0.104   1.533   6.577 -1.4161  1.3046  0.1791
 5610SOL    HW228464   0.017   1.415   6.568  0.4185  0.0051 -0.4401
 5611SOL     OW28465   0.820   3.789   2.121  0.4718 -0.0856 -0.1537
 5611SOL    HW128466   0.766   3.825   2.050  1.2091 -1.1497 -1.2454
 5611SOL    HW228467   0.845   3.870   2.165 -0.3232 -0.2329  0.5727
 5612SOL     OW28468   3.637   1.848  17.283  0.0948 -0.1161  0.1653
 5612SOL    HW128469   3.723   1.808  17.284  0.4269  0.5973  0.1560
 5612SOL    HW228470   3.589   1.789  17.342  0.5877 -0.9300 -0.2504
 5613SOL     OW28471   2.739   4.049  15.831 -0.8480  0.0682  0.4222
 5613SOL    HW128472   2.692   4.124  15.795 -0.3791 -0.2615 -0.9032
 5613SOL    HW228473   2.819   4.059  15.780 -0.9568 -1.3667 -0.0471
 5614SOL     OW28474   2.770   1.215   8.301 -0.2655  0.1392  0.1783
 5614SOL    HW128475   2.862   1.193   8.312 -0.0205  0.8993 -0.3528
 5614SOL    HW228476   2.722   1.146   8.346 -1.8479 -0.2422 -2.1018
 5615SOL     OW28477   1.920   2.995   3.121 -0.1358  0.0492  0.2047
 5615SOL    HW128478   2.010   3.000   3.089 -0.2683 -0.3538 -0.2294
 5615SOL    HW228479   1.928   3.035   3.208 -0.0337  0.7815 -0.1399
 5616SOL     OW28480   1.868   2.825  10.033 -0.0613 -0.1888 -0.0061
 5616SOL    HW128481   1.855   2.911   9.993 -1.0060  0.5366  1.8487
 5616SOL    HW228482   1.935   2.849  10.098 -1.3771 -1.0083  1.6741
 5617SOL     OW28483   2.168   4.612  16.442  0.1970  0.1384 -0.3335
 5617SOL    HW128484   2.187   4.706  16.443  0.9384 -0.0212  0.0869
 5617SOL    HW228485   2.079   4.619  16.477 -0.2586 -1.0355 -1.2414
 5618SOL     OW28486   3.488   4.584  16.592  0.4255 -0.0631  0.6086
 5618SOL    HW128487   3.573   4.610  16.555  0.3773  1.6213  1.6630
 5618SOL    HW228488   3.429   4.652  16.559 -0.3933 -1.6348 -1.1674
 5619SOL     OW28489   1.849   2.209  10.638  0.0128  0.7544 -0.2776
 5619SOL    HW128490   1.812   2.190  10.551 -0.8255 -1.4703  0.5766
 5619SOL    HW228491   1.817   2.298  10.651 -1.4095  0.1351  0.3706
 5620SOL     OW28492   3.925   3.596  15.490  0.1394 -0.1027  1.0307
 5620SOL    HW128493   3.937   3.577  15.584  2.3728 -0.5643  0.6629
 5620SOL    HW228494   3.830   3.592  15.486  0.2252 -1.2517  0.0518
 5621SOL     OW28495   4.271   4.593  12.044  0.6674 -0.6033 -0.2783
 5621SOL    HW128496   4.293   4.666  11.986  1.5577 -1.1305 -0.6078
 5621SOL    HW228497   4.204   4.544  11.996  0.6282 -1.7282  0.9194
 5622SOL     OW28498   0.879   0.973   7.099  0.1024 -0.3442 -0.3586
 5622SOL    HW128499   0.832   0.953   7.180 -0.5949 -1.0191 -0.9252
 5622SOL    HW228500   0.860   1.067   7.097 -3.4817 -1.0413  0.1986
 5623SOL     OW28501   2.952   0.550   8.860  0.2394 -0.3328  0.0745
 5623SOL    HW128502   2.890   0.521   8.928 -0.3142  0.1095 -0.2459
 5623SOL    HW228503   2.940   0.645   8.853 -0.3421 -0.5261 -1.4924
 5624SOL     OW28504   0.199   2.104   5.406  0.4229  0.0504 -0.0820
 5624SOL    HW128505   0.210   2.194   5.438  2.8606  0.2189 -1.4205
 5624SOL    HW228506   0.286   2.067   5.420  0.3278 -0.5299 -1.0006
 5625SOL     OW28507   3.697   0.174   1.228 -0.1847 -0.1612 -0.3079
 5625SOL    HW128508   3.610   0.149   1.258  1.2606 -3.4321  1.0947
 5625SOL    HW228509   3.681   0.214   1.142  1.0919 -0.9860 -0.9223
 5626SOL     OW28510   2.547   2.114   2.552 -0.6548  0.1253  0.1278
 5626SOL    HW128511   2.545   2.153   2.640  3.5958 -2.1401  1.2108
 5626SOL    HW228512   2.640   2.100   2.536 -1.1537 -0.7042 -2.0624
 5627SOL     OW28513   2.971   4.093   3.986 -0.5542  0.1633  0.4326
 5627SOL    HW128514   3.019   4.039   3.924  0.0178  3.4342 -2.0050
 5627SOL    HW228515   3.042   4.145   4.023  0.4786 -0.3030 -0.9045
 5628SOL     OW28516   3.403   2.601   8.432  0.1422  0.3837 -0.0344
 5628SOL    HW128517   3.416   2.667   8.500  0.7798  2.0070 -1.7546
 5628SOL    HW228518   3.310   2.579   8.437 -0.3800  2.4554 -0.6497
 5629SOL     OW28519   4.095   0.334   4.767 -0.1548  0.3075  0.4567
 5629SOL    HW128520   4.095   0.239   4.769  1.5939  0.3615  2.1642
 5629SOL    HW228521   4.175   0.362   4.811 -0.3912  0.1492  0.9860
 5630SOL     OW28522   0.688   1.721   6.656 -0.3954 -0.2940 -0.4383
 5630SOL    HW128523   0.699   1.724   6.751  0.9111 -0.9005 -0.5681
 5630SOL    HW228524   0.673   1.815   6.647  0.7933  0.0937  1.7139
 5631SOL     OW28525   2.075   3.689   4.257  0.0328  0.1438 -0.1386
 5631SOL    HW128526   2.154   3.635   4.264  1.6187  2.4596 -0.2516
 5631SOL    HW228527   2.030   3.667   4.338 -0.9321  2.1508 -0.1327
 5632SOL     OW28528   4.031   2.591  10.212  0.1403  0.5228  0.1159
 5632SOL    HW128529   4.021   2.532  10.137  1.3251  0.1021  0.2759
 5632SOL    HW228530   4.002   2.537  10.286  1.1895 -0.6962 -0.3602
 5633SOL     OW28531   4.062   2.750  14.946 -0.2898  0.0610  0.1993
 5633SOL    HW128532   4.046   2.675  14.888  2.7113  1.6611 -2.6743
 5633SOL    HW228533   4.126   2.806  14.902  1.2457 -0.7707  1.3533
 5634SOL     OW28534   3.252   0.969  16.108  0.5832  0.0928 -0.3097
 5634SOL    HW128535   3.176   0.955  16.052  0.7536 -1.2093 -0.2147
 5634SOL    HW228536   3.320   0.959  16.041 -1.4593 -0.6146 -2.2627
 5635SOL     OW28537   2.153   3.586  16.773 -0.3563  0.1386  0.0362
 5635SOL    HW128538   2.168   3.507  16.720  1.3891 -0.2781  1.1423
 5635SOL    HW228539   2.096   3.637  16.715  0.7418  2.8967  1.3828
 5636SOL     OW28540   0.724   3.827   4.419  0.4418 -0.1668  0.6902
 5636SOL    HW128541   0.787   3.834   4.348 -0.5168  2.2691  0.0791
 5636SOL    HW228542   0.790   3.846   4.486  1.1978 -0.8648  0.1421
 5637SOL     OW28543   0.603   4.310   2.125  0.2523 -0.4234  0.1751
 5637SOL    HW128544   0.591   4.402   2.149 -0.2667 -0.3091 -0.5435
 5637SOL    HW228545   0.523   4.292   2.076 -0.4233  1.1321  0.6897
 5638SOL     OW28546   3.037   4.560   7.914  0.4281 -0.3696 -0.4882
 5638SOL    HW128547   3.060   4.468   7.930 -0.9064 -0.5447  0.4384
 5638SOL    HW228548   2.989   4.550   7.832  0.7314 -0.6333 -0.6301
 5639SOL     OW28549   0.828   4.716   1.729  0.0082  0.6444  0.4034
 5639SOL    HW128550   0.785   4.699   1.813  0.5346  2.2343  1.0048
 5639SOL    HW228551   0.900   0.039   1.759  0.2367  0.2882  0.5109
 5640SOL     OW28552   0.639   3.159   7.532  0.0526 -0.0502  0.3943
 5640SOL    HW128553   0.610   3.071   7.556 -3.3568  0.0470 -3.3977
 5640SOL    HW228554   0.627   3.143   7.439 -2.6853  0.2784  0.7037
 5641SOL     OW28555   4.283   1.377  15.563  0.6901  0.0036 -0.3829
 5641SOL    HW128556   4.235   1.331  15.494  1.3349  0.7450 -1.3430
 5641SOL    HW228557   4.215   1.386  15.629  0.9076 -0.2798 -0.1198
 5642SOL     OW28558   1.562   4.253   3.837  0.9759 -0.7463  0.4070
 5642SOL    HW128559   1.492   4.233   3.900 -0.6567  3.1914 -0.1680
 5642SOL    HW228560   1.539   4.346   3.831 -4.7292 -2.1733  0.2510
 5643SOL     OW28561   0.205   1.159   3.295 -0.1174 -0.2866  0.1846
 5643SOL    HW128562   0.268   1.165   3.367  1.9689  1.1251 -1.7925
 5643SOL    HW228563   0.131   1.213   3.322 -1.2675 -1.4030 -0.7361
 5644SOL     OW28564   1.463   1.896   0.757  0.2443 -0.3826 -0.1404
 5644SOL    HW128565   1.371   1.922   0.755  0.1968 -0.6173 -1.0179
 5644SOL    HW228566   1.471   1.849   0.840 -0.7516 -1.3759 -0.6042
 5645SOL     OW28567   3.416   0.427  16.935  0.4598  0.1503  0.0252
 5645SOL    HW128568   3.432   0.521  16.934  0.3853  0.1448 -1.9250
 5645SOL    HW228569   3.465   0.394  17.011 -0.8118  1.5717  1.4339
 5646SOL     OW28570   0.448   1.586   5.913 -0.4971 -0.9422 -0.2971
 5646SOL    HW128571   0.538   1.553   5.910 -0.4704 -1.0049  1.2038
 5646SOL    HW228572   0.450   1.647   5.987  0.9884 -0.9603 -0.3225
 5647SOL     OW28573   1.793   1.612   8.037  0.7867  0.0178  0.1417
 5647SOL    HW128574   1.843   1.622   7.956 -0.4329 -1.2504 -0.7544
 5647SOL    HW228575   1.707   1.646   8.016  0.0664 -0.0365  2.9068
 5648SOL     OW28576   2.106   2.436  16.055  0.2653  0.1887  0.3790
 5648SOL    HW128577   2.067   2.432  16.142  0.0645 -0.6740  0.2494
 5648SOL    HW228578   2.101   2.344  16.029 -0.7768  0.2115  0.4960
 5649SOL     OW28579   3.914   3.587  10.597 -0.4345  0.1300  0.1495
 5649SOL    HW128580   3.990   3.559  10.546 -0.9872  2.9711 -2.1816
 5649SOL    HW228581   3.900   3.666  10.545  0.5590  1.1769  1.4789
 5650SOL     OW28582   1.494   2.658   5.555  0.4877  0.3312  0.1339
 5650SOL    HW128583   1.573   2.663   5.500 -0.1233  0.9302 -0.6915
 5650SOL    HW228584   1.526   2.654   5.645  0.1868 -3.1277  0.1131
 5651SOL     OW28585   4.720   4.057   5.079 -0.7221 -0.2512 -0.1328
 5651SOL    HW128586   0.004   3.967   5.108 -0.8252 -0.9092 -2.1519
 5651SOL    HW228587   0.077   4.089   5.065 -0.1847 -1.8152 -0.2613
 5652SOL     OW28588   3.987   3.457   2.326 -0.2423  0.1806 -0.0691
 5652SOL    HW128589   3.913   3.462   2.266  0.2870  1.6543 -0.5996
 5652SOL    HW228590   3.967   3.391   2.392  0.2537  0.0164 -0.0795
 5653SOL     OW28591   0.853   4.224  14.734  0.4255 -0.1012 -0.2426
 5653SOL    HW128592   0.899   4.278  14.798 -0.8919 -0.2666  0.8420
 5653SOL    HW228593   0.773   4.274  14.718 -0.3352 -0.7413  1.4778
 5654SOL     OW28594   0.207   1.308   2.570 -0.0853  0.3590  0.0947
 5654SOL    HW128595   0.290   1.322   2.525 -0.1927 -1.9099 -0.8242
 5654SOL    HW228596   0.237   1.318   2.660 -0.3839 -1.1122  0.3554
 5655SOL     OW28597   4.443   3.575   5.534 -0.1923 -0.2886 -0.2563
 5655SOL    HW128598   4.414   3.611   5.617 -0.7624 -0.1218 -0.5244
 5655SOL    HW228599   4.506   3.509   5.564  1.5090  1.5852  0.2964
 5656SOL     OW28600   0.315   3.311  12.519 -0.3115 -0.3585  0.1201
 5656SOL    HW128601   0.369   3.313  12.440 -1.5100  0.9135 -0.6724
 5656SOL    HW228602   0.374   3.275  12.585  1.1805  2.4786  0.3012
 5657SOL     OW28603   3.384   2.257   2.851 -0.5779 -0.0217 -0.2124
 5657SOL    HW128604   3.446   2.186   2.871 -2.8191 -1.6136  1.2073
 5657SOL    HW228605   3.455   2.321   2.855 -0.5867  0.1763 -3.5321
 5658SOL     OW28606   0.493   0.002   7.190  0.8149 -0.1067 -0.7130
 5658SOL    HW128607   0.414   4.726   7.136  1.2347  3.9439 -2.0015
 5658SOL    HW228608   0.458   0.046   7.268  1.3336 -2.4260  0.8254
 5659SOL     OW28609   2.827   0.840   4.478 -0.0666 -0.1265 -0.4447
 5659SOL    HW128610   2.733   0.833   4.463  0.2704 -1.3405 -1.9391
 5659SOL    HW228611   2.826   0.925   4.523 -0.1916 -0.0829 -0.5317
 5660SOL     OW28612   3.418   0.631  12.377 -0.5556  0.2098 -0.2379
 5660SOL    HW128613   3.419   0.609  12.284  0.6382 -0.6259 -0.0293
 5660SOL    HW228614   3.371   0.554  12.409  2.2053 -0.8049  1.4359
 5661SOL     OW28615   3.505   4.604  11.951 -0.4824  0.8720 -0.6145
 5661SOL    HW128616   3.554   4.539  12.000 -0.1366  0.7204 -1.1582
 5661SOL    HW228617   3.524   4.579  11.860  0.9542  1.2589 -0.4115
 5662SOL     OW28618   1.940   0.274   8.989  0.4250 -0.2540 -0.3060
 5662SOL    HW128619   1.909   0.276   9.080 -0.7575 -0.5328 -0.6969
 5662SOL    HW228620   2.030   0.303   9.001  0.2536  0.5121 -0.9059
 5663SOL     OW28621   2.189   2.411   7.238 -0.2582  0.4277  0.3945
 5663SOL    HW128622   2.273   2.434   7.198 -0.4724 -0.1519 -0.3864
 5663SOL    HW228623   2.222   2.378   7.322 -1.6591 -2.0665 -0.0340
 5664SOL     OW28624   0.134   2.382  16.577  0.2434  0.1173  0.0723
 5664SOL    HW128625   0.155   2.430  16.497 -2.5527  0.2754 -0.5628
 5664SOL    HW228626   0.189   2.424  16.643  2.0999  2.0334 -2.6927
 5665SOL     OW28627   0.306   0.482   9.619 -0.0385  0.3446 -0.5628
 5665SOL    HW128628   0.344   0.503   9.705 -2.1946  1.2032  0.1606
 5665SOL    HW228629   0.242   0.551   9.605  0.4184  0.6718 -1.0331
 5666SOL     OW28630   2.657   0.917   0.997  0.4974 -0.0560 -0.9488
 5666SOL    HW128631   2.647   0.960   0.912  0.8835 -1.3755 -1.6621
 5666SOL    HW228632   2.567   0.929   1.028  0.7640 -1.7695  0.5108
 5667SOL     OW28633   0.222   3.181   3.696  0.4489 -0.0519  0.5359
 5667SOL    HW128634   0.307   3.224   3.687 -0.2258  1.8496  3.1543
 5667SOL    HW228635   0.175   3.244   3.641  1.2022  0.1391  0.1179
 5668SOL     OW28636   2.999   0.611   2.014 -0.6138  0.4464 -0.7852
 5668SOL    HW128637   2.906   0.624   1.996 -0.5616  1.0865 -0.5829
 5668SOL    HW228638   3.000   0.518   1.992  2.0167  0.6878 -1.7845
 5669SOL     OW28639   1.170   0.495   5.107 -0.6122 -0.1104 -0.3944
 5669SOL    HW128640   1.122   0.576   5.124 -0.7324  0.3779 -3.1222
 5669SOL    HW228641   1.230   0.483   5.180 -0.0807 -0.5641 -0.9065
 5670SOL     OW28642   1.078   0.257   7.288  0.2290  0.3879  0.6389
 5670SOL    HW128643   1.034   0.191   7.235  0.5072  1.0632 -0.4372
 5670SOL    HW228644   0.997   0.301   7.313 -0.8464 -1.4258  0.3405
 5671SOL     OW28645   1.986   2.391   2.577  0.4588  0.2810 -0.3806
 5671SOL    HW128646   2.027   2.398   2.491  0.9192  0.4407 -0.1515
 5671SOL    HW228647   1.953   2.301   2.571  2.6180 -0.7412  2.7432
 5672SOL     OW28648   2.028   4.217  11.728  0.5399  0.5951  0.3904
 5672SOL    HW128649   1.939   4.249  11.739 -0.1820 -1.3783  0.2211
 5672SOL    HW228650   2.035   4.223  11.633  0.1128  0.1705  0.3337
 5673SOL     OW28651   2.536   4.634  11.673  0.3160  0.4769 -0.3819
 5673SOL    HW128652   2.449   4.595  11.666  0.4958 -0.6991  3.7856
 5673SOL    HW228653   2.541   4.671  11.585  0.0957 -2.3606 -1.5673
 5674SOL     OW28654   3.642   4.060  13.818 -0.3601  0.1536 -0.1676
 5674SOL    HW128655   3.722   4.012  13.800 -0.3018  0.8218 -1.6727
 5674SOL    HW228656   3.668   4.152  13.812  0.1797  0.0224  0.1853
 5675SOL     OW28657   3.426   1.542   6.425 -0.4116  0.3565  0.3834
 5675SOL    HW128658   3.428   1.468   6.365 -1.3081 -1.4804  2.6342
 5675SOL    HW228659   3.506   1.534   6.476  1.2273  0.7156 -2.1428
 5676SOL     OW28660   0.767   4.367   1.871 -0.0975  0.0529 -0.1433
 5676SOL    HW128661   0.672   4.376   1.878 -0.1215  0.5338 -1.0536
 5676SOL    HW228662   0.772   4.272   1.879 -0.6073  0.0677  0.4070
 5677SOL     OW28663   3.018   4.652  16.815 -0.2762 -0.1126  0.5532
 5677SOL    HW128664   3.010   0.015  16.811  1.5492 -0.0105 -0.6044
 5677SOL    HW228665   3.083   4.647  16.885 -0.2362  4.5831  0.8538
 5678SOL     OW28666   2.181   2.216   5.403  0.8115  0.2682  0.2562
 5678SOL    HW128667   2.159   2.308   5.418 -0.2075  0.2907 -1.4137
 5678SOL    HW228668   2.275   2.230   5.416  0.5385  1.0652  1.3244
 5679SOL     OW28669   0.519   2.305   3.823 -0.0072 -0.3218  0.4863
 5679SOL    HW128670   0.605   2.347   3.811  0.0992  0.0138  2.3874
 5679SOL    HW228671   0.467   2.373   3.781  1.2576 -0.5332 -1.4207
 5680SOL     OW28672   3.764   4.129  12.054 -0.6453  1.0368  0.4644
 5680SOL    HW128673   3.762   4.061  12.122  1.3255  0.6911  0.1862
 5680SOL    HW228674   3.857   4.151  12.058 -0.3461  0.0737 -1.1272
 5681SOL     OW28675   3.000   3.576   5.492 -0.1327 -0.6828 -0.5518
 5681SOL    HW128676   3.070   3.567   5.428  0.0921  1.2316 -0.5852
 5681SOL    HW228677   2.919   3.581   5.442 -1.7750 -1.5694  2.0164
 5682SOL     OW28678   1.643   3.985   8.115  0.3674  0.2508 -0.2683
 5682SOL    HW128679   1.628   4.074   8.083 -0.7803  0.6989  1.5386
 5682SOL    HW228680   1.676   3.954   8.030 -1.6899 -0.4814 -0.8014
 5683SOL     OW28681   2.131   2.401   1.187  0.4010  0.1371 -0.1862
 5683SOL    HW128682   2.091   2.410   1.274 -0.8848 -1.4589 -0.6013
 5683SOL    HW228683   2.081   2.470   1.143 -0.0318 -1.0880 -1.5893
 5684SOL     OW28684   0.307   1.936   8.237 -0.5820 -0.1908 -0.0651
 5684SOL    HW128685   0.270   1.880   8.306  1.2616 -2.5192 -0.9612
 5684SOL    HW228686   0.347   2.008   8.287 -1.2360  0.5645 -0.6307
 5685SOL     OW28687   3.077   0.901  13.202 -0.2824 -0.1625  0.2892
 5685SOL    HW128688   3.034   0.884  13.286 -2.7812 -0.1866 -0.9818
 5685SOL    HW228689   3.169   0.888  13.221  0.1171  0.6658 -1.0633
 5686SOL     OW28690   3.768   3.917   3.717 -0.3040  0.0381  0.3462
 5686SOL    HW128691   3.761   3.901   3.811  0.3161  0.6749  0.4944
 5686SOL    HW228692   3.818   3.998   3.714  0.9566 -0.8230 -1.7968
 5687SOL     OW28693   4.512   2.557   4.269  0.3584 -0.0847 -0.1616
 5687SOL    HW128694   4.588   2.587   4.218  0.8872 -1.5442 -0.2453
 5687SOL    HW228695   4.452   2.526   4.201 -0.0309  0.1682  0.0710
 5688SOL     OW28696   0.364   1.381   4.178  0.6471  0.2819 -0.0076
 5688SOL    HW128697   0.333   1.417   4.262  0.1945 -1.7469  0.6873
 5688SOL    HW228698   0.288   1.395   4.121 -1.4598 -0.0382  2.7376
 5689SOL     OW28699   2.235   4.239   8.416 -0.0282 -0.2901 -0.0830
 5689SOL    HW128700   2.289   4.295   8.471 -0.5315 -1.8765  2.0158
 5689SOL    HW228701   2.150   4.270   8.445  1.1959 -0.0493  3.1557
 5690SOL     OW28702   3.316   4.432   8.850  0.1042  0.3294  0.1077
 5690SOL    HW128703   3.251   4.496   8.820 -2.9404 -1.9736  1.8165
 5690SOL    HW228704   3.312   4.378   8.771 -0.4473 -1.2402  1.2097
 5691SOL     OW28705   2.638   1.660   2.309  0.1673  0.5163 -0.3477
 5691SOL    HW128706   2.571   1.649   2.376  1.3382  0.7577  0.8775
 5691SOL    HW228707   2.623   1.751   2.288 -0.1002  0.7907  0.9865
 5692SOL     OW28708   3.764   2.686   7.911 -0.3678 -0.2939 -0.3116
 5692SOL    HW128709   3.737   2.616   7.851 -1.8197 -0.4644  0.5386
 5692SOL    HW228710   3.826   2.650   7.975  0.3814 -1.6385 -1.7866
 5693SOL     OW28711   0.044   2.815  14.420  0.6293 -0.0907 -0.3875
 5693SOL    HW128712   0.106   2.774  14.358  2.9106  2.7579  0.0171
 5693SOL    HW228713   0.026   2.737  14.472  1.9298  0.4388  0.8609
 5694SOL     OW28714   3.077   4.731   7.039 -0.0955 -0.3427 -0.0548
 5694SOL    HW128715   3.168   0.026   7.044 -0.2567  0.0107  1.0129
 5694SOL    HW228716   3.056   4.719   6.946 -1.4719 -1.4817  0.4018
 5695SOL     OW28717   4.248   3.613  13.189  0.3739  0.0474 -0.3007
 5695SOL    HW128718   4.246   3.524  13.225  1.6543  0.7220  1.4479
 5695SOL    HW228719   4.187   3.658  13.247  1.5331  0.6723  0.4443
 5696SOL     OW28720   4.587   1.153   2.710 -0.0387  0.1047 -0.1109
 5696SOL    HW128721   4.497   1.131   2.733  1.0319 -3.0878  1.1641
 5696SOL    HW228722   4.624   1.100   2.781  1.4825 -1.3127 -1.9350
 5697SOL     OW28723   0.515   0.184   6.779 -0.1089 -0.5181 -0.5180
 5697SOL    HW128724   0.552   0.182   6.867  1.9093 -0.7568 -1.3616
 5697SOL    HW228725   0.429   0.148   6.799 -0.1768 -0.3570 -0.5230
 5698SOL     OW28726   4.659   2.784   7.254  0.1666  0.0973  0.3775
 5698SOL    HW128727   4.578   2.736   7.274  0.2991 -1.3061 -2.4150
 5698SOL    HW228728   4.724   2.732   7.302 -0.3656 -1.1990 -0.2912
 5699SOL     OW28729   2.116   4.587  14.049 -0.3183 -0.1611  0.2995
 5699SOL    HW128730   2.118   4.496  14.077 -0.2297 -0.0658  0.5966
 5699SOL    HW228731   2.052   4.627  14.108  0.8349  1.8139  0.2106
 5700SOL     OW28732   1.791   0.182   3.489 -0.3129  0.2532  0.5774
 5700SOL    HW128733   1.846   0.246   3.534  1.5190 -1.4402  0.7399
 5700SOL    HW228734   1.743   0.151   3.566 -0.6686 -0.7701 -0.0508
 5701SOL     OW28735   3.212   0.224   5.755 -0.7163 -0.0588  0.2426
 5701SOL    HW128736   3.124   0.191   5.737  0.1673 -0.8665 -2.5381
 5701SOL    HW228737   3.264   0.144   5.760  0.6331  0.8573  1.0080
 5702SOL     OW28738   0.486   2.707   3.777  0.6193 -0.8821 -0.1687
 5702SOL    HW128739   0.580   2.697   3.761  0.7332 -1.6530  1.0219
 5702SOL    HW228740   0.478   2.715   3.872 -1.6872  0.6681 -0.5058
 5703SOL     OW28741   3.976   3.666   7.025  0.6820  0.3113 -0.2396
 5703SOL    HW128742   4.011   3.715   7.099  0.4195 -0.4807  0.4112
 5703SOL    HW228743   3.901   3.723   7.006 -0.8243 -1.5575  0.1366
 5704SOL     OW28744   2.753   4.247   7.119 -0.2070 -0.0353  0.3192
 5704SOL    HW128745   2.835   4.292   7.137 -0.3717 -0.9870  3.5516
 5704SOL    HW228746   2.702   4.252   7.200 -1.6992 -0.0201 -0.6321
 5705SOL     OW28747   4.454   4.079   6.493 -0.1262  0.3810  0.5276
 5705SOL    HW128748   4.452   4.166   6.454  2.7799  0.7196  1.1518
 5705SOL    HW228749   4.494   4.020   6.428  0.6582 -0.4547  1.7842
 5706SOL     OW28750   2.060   0.424   1.031  0.1648  0.3690 -0.4229
 5706SOL    HW128751   2.030   0.475   0.955 -0.6354  0.1961 -0.2222
 5706SOL    HW228752   2.114   0.365   0.979 -0.3060 -1.5397  1.2772
 5707SOL     OW28753   4.333   1.362   6.317  0.0471 -0.2736 -0.0500
 5707SOL    HW128754   4.264   1.392   6.258  0.3355  0.4820 -0.0079
 5707SOL    HW228755   4.404   1.396   6.262 -0.6002  0.6500 -0.3160
 5708SOL     OW28756   1.114   0.797   3.874 -0.1111 -0.0229  0.2411
 5708SOL    HW128757   1.159   0.871   3.832  2.3412 -1.1780  0.7841
 5708SOL    HW228758   1.026   0.833   3.872  0.5366  1.5836  0.8079
 5709SOL     OW28759   0.854   0.036  12.428  0.1602  0.6886  0.1509
 5709SOL    HW128760   0.806   0.102  12.378  0.5981  0.1493 -0.9583
 5709SOL    HW228761   0.788   0.014  12.495 -0.7913  1.0857 -0.6501
 5710SOL     OW28762   0.525   1.348   6.984  0.1331 -0.0989  0.2108
 5710SOL    HW128763   0.608   1.390   6.961 -1.3322  3.7726  2.0144
 5710SOL    HW228764   0.471   1.427   6.981  3.4430  2.1512 -0.1770
 5711SOL     OW28765   2.803   4.627   5.122  0.9762 -0.2200  0.2602
 5711SOL    HW128766   2.851   4.626   5.039  0.2425  0.8746 -0.1700
 5711SOL    HW228767   2.709   4.628   5.103  1.4790 -1.3115 -2.4086
 5712SOL     OW28768   4.480   0.869  15.378 -0.4940  0.1162 -0.1124
 5712SOL    HW128769   4.402   0.924  15.380 -0.7110 -0.2429  1.1318
 5712SOL    HW228770   4.529   0.922  15.315 -2.3944  1.2912 -0.5955
 5713SOL     OW28771   4.524   1.355  13.860 -0.6049 -0.7489  0.0837
 5713SOL    HW128772   4.580   1.310  13.798 -1.0495  0.1064 -0.9393
 5713SOL    HW228773   4.499   1.288  13.924  0.4933 -0.4080  0.8742
 5714SOL     OW28774   3.817   2.888  13.434  0.6482 -0.7176  0.0458
 5714SOL    HW128775   3.844   2.978  13.419  4.2205 -1.6216  0.8003
 5714SOL    HW228776   3.724   2.903  13.451  0.8230  0.4163 -0.0089
 5715SOL     OW28777   1.336   3.549   5.700  0.1837 -0.1819 -0.2582
 5715SOL    HW128778   1.401   3.618   5.691  2.1759 -2.1199 -0.6214
 5715SOL    HW228779   1.334   3.552   5.795  0.5433 -1.0271 -0.2247
 5716SOL     OW28780   0.307   0.271  17.040  0.2097 -0.2657 -0.2243
 5716SOL    HW128781   0.356   0.352  17.028  0.0905 -0.3477 -1.2492
 5716SOL    HW228782   0.372   0.204  17.060  1.9947  1.1768 -1.3039
 5717SOL     OW28783   1.069   4.315  13.900 -0.5012 -0.3787  0.1419
 5717SOL    HW128784   1.087   4.322  13.994  1.4087 -2.6508 -0.0610
 5717SOL    HW228785   1.115   4.391  13.865  0.4283  0.5328  3.3075
 5718SOL     OW28786   2.880   0.068  16.561  0.1568  0.1979  0.0935
 5718SOL    HW128787   2.884   0.075  16.656  1.4357 -2.3869  0.2251
 5718SOL    HW228788   2.840   4.714  16.558 -0.0451  0.2709  0.8243
 5719SOL     OW28789   3.749   3.762   2.161 -0.5670 -0.2905 -0.7206
 5719SOL    HW128790   3.674   3.773   2.103 -1.9626 -0.7366  1.0160
 5719SOL    HW228791   3.818   3.810   2.114 -0.4193  1.3182  1.1483
 5720SOL     OW28792   2.981   3.353   7.457  0.2005  0.3624  0.4601
 5720SOL    HW128793   3.013   3.375   7.545  1.9939 -3.2607  0.7296
 5720SOL    HW228794   2.956   3.262   7.470  2.9349 -0.5854 -0.9466
 5721SOL     OW28795   1.184   3.713  10.525  0.1481  0.3773  0.2028
 5721SOL    HW128796   1.121   3.723  10.454  1.6684  3.8013 -0.6586
 5721SOL    HW228797   1.265   3.696  10.476 -0.4021 -0.6801 -0.3454
 5722SOL     OW28798   4.664   2.206   7.415  0.5918 -0.5778 -0.3432
 5722SOL    HW128799   4.609   2.135   7.449  1.6414  0.3842  3.2853
 5722SOL    HW228800   4.607   2.272   7.454  0.8776 -0.9379  0.6769
 5723SOL     OW28801   4.446   0.775   2.534 -0.0400  0.2941  0.6017
 5723SOL    HW128802   4.439   0.764   2.439  0.4175  0.5434  0.5374
 5723SOL    HW228803   4.368   0.830   2.539 -0.7472 -0.6646  0.1153
 5724SOL     OW28804   1.120   1.998   4.487  0.1306 -0.6592 -0.0894
 5724SOL    HW128805   1.095   1.989   4.579  1.5008 -0.6880  0.2726
 5724SOL    HW228806   1.073   1.927   4.444 -0.9886  0.4858 -0.7641
 5725SOL     OW28807   0.140   2.204  16.241 -0.7978 -1.2804 -0.6279
 5725SOL    HW128808   0.061   2.168  16.281  0.6281 -1.0723  2.3961
 5725SOL    HW228809   0.186   2.121  16.229  0.2197 -0.6511 -1.1018
 5726SOL     OW28810   0.245   3.247   6.150  0.0829 -0.2653 -0.0269
 5726SOL    HW128811   0.329   3.208   6.123  0.0968  1.3260 -2.2936
 5726SOL    HW228812   0.261   3.327   6.199  2.2110 -0.6102 -0.1267
 5727SOL     OW28813   2.142   1.137  16.512  0.5250  0.0693  0.3692
 5727SOL    HW128814   2.231   1.131  16.477  0.7561 -1.6353  1.2197
 5727SOL    HW228815   2.086   1.153  16.437  1.8196 -1.5659 -0.9596
 5728SOL     OW28816   0.902   3.020   6.742  0.1885 -0.1064  0.5347
 5728SOL    HW128817   0.870   2.976   6.664  0.1987  0.2134  0.3480
 5728SOL    HW228818   0.994   3.021   6.717  0.1259 -1.1442  0.2663
 5729SOL     OW28819   2.326   2.109   6.161 -0.2064 -0.3994 -0.6288
 5729SOL    HW128820   2.339   2.057   6.240 -2.5429 -0.6182 -0.3763
 5729SOL    HW228821   2.230   2.104   6.159 -0.2648  0.3321  0.4547
 5730SOL     OW28822   1.899   3.868   2.884  0.6103  0.1548  0.7947
 5730SOL    HW128823   1.894   3.787   2.832  1.6069  0.6901 -0.1397
 5730SOL    HW228824   1.951   3.828   2.954 -0.6641 -2.7262  0.0940
 5731SOL     OW28825   0.348   3.448  14.159  0.2235 -0.2978  0.0528
 5731SOL    HW128826   0.358   3.533  14.201 -2.0595  0.2771 -0.5704
 5731SOL    HW228827   0.297   3.472  14.082 -1.2052 -2.6741  0.2573
 5732SOL     OW28828   2.467   0.819   9.666 -0.4104  0.1471  0.1394
 5732SOL    HW128829   2.409   0.895   9.669  0.8922  1.1253  0.3866
 5732SOL    HW228830   2.402   0.749   9.663  0.9264 -1.0856 -0.0830
 5733SOL     OW28831   2.684   0.309  12.474 -0.2586 -0.4310  0.6263
 5733SOL    HW128832   2.604   0.332  12.522  0.6306  0.1562  1.8271
 5733SOL    HW228833   2.662   0.311  12.381  1.6579  0.0050  0.1846
 5734SOL     OW28834   3.576   4.592   9.248  0.0677  0.3202  0.2408
 5734SOL    HW128835   3.517   4.593   9.172 -3.2662  1.0893  2.8409
 5734SOL    HW228836   3.644   4.533   9.215 -1.0365 -1.0959  0.5299
 5735SOL     OW28837   2.102   0.740   3.897  0.1690 -0.0804 -0.1922
 5735SOL    HW128838   2.109   0.704   3.986  2.2864 -1.6841 -0.9859
 5735SOL    HW228839   2.101   0.835   3.909  0.4366 -0.3105  1.6633
 5736SOL     OW28840   2.766   2.696  11.104  0.0426  0.4889 -0.3992
 5736SOL    HW128841   2.734   2.785  11.090 -0.2289  0.2390 -1.3995
 5736SOL    HW228842   2.857   2.707  11.076 -0.5110  1.5499 -1.8138
 5737SOL     OW28843   3.647   2.881  10.054 -0.1596 -0.3503 -0.4231
 5737SOL    HW128844   3.598   2.952  10.097 -0.3351 -1.2045  0.7992
 5737SOL    HW228845   3.724   2.876  10.111  0.8946  0.9729 -1.7509
 5738SOL     OW28846   2.712   4.609   1.979 -0.2632  0.7555 -0.1327
 5738SOL    HW128847   2.747   4.623   1.891  1.3037  0.1182  0.3899
 5738SOL    HW228848   2.789   4.582   2.029 -0.6271 -0.4065 -0.2155
 5739SOL     OW28849   4.594   1.069   9.553 -0.3929  0.0358  0.1151
 5739SOL    HW128850   4.656   1.041   9.487 -1.8174  1.1007 -1.6622
 5739SOL    HW228851   4.525   1.004   9.539 -1.6368  0.9290  1.9830
 5740SOL     OW28852   2.970   0.760  14.467  0.0778 -0.1574 -0.0434
 5740SOL    HW128853   2.940   0.694  14.530 -0.6262  1.5023  1.3571
 5740SOL    HW228854   3.033   0.705  14.421 -2.3391 -2.0896 -1.0432
 5741SOL     OW28855   2.678   2.963   0.387  0.6540  0.5478 -0.0655
 5741SOL    HW128856   2.676   2.959   0.291 -0.2373  1.9213 -0.1059
 5741SOL    HW228857   2.695   2.871   0.408 -0.9358  0.7958  2.2873
 5742SOL     OW28858   3.527   2.637   5.315  0.1145  0.2840  0.4305
 5742SOL    HW128859   3.460   2.599   5.373  1.5185 -0.3185  1.6699
 5742SOL    HW228860   3.605   2.587   5.341 -0.3144 -0.7954 -0.3761
 5743SOL     OW28861   1.395   2.642   6.394 -0.6181 -0.1390  0.9138
 5743SOL    HW128862   1.309   2.623   6.432 -0.0007  1.7464  3.3092
 5743SOL    HW228863   1.436   2.556   6.385 -0.9858 -0.2412  0.2864
 5744SOL     OW28864   1.338   0.318   7.306 -0.2280  0.1603  0.3640
 5744SOL    HW128865   1.389   0.248   7.265 -0.1289  0.2578  0.3224
 5744SOL    HW228866   1.247   0.295   7.286 -0.9905  2.1520  1.5439
 5745SOL     OW28867   1.521   2.222  12.198 -0.0985  0.0299 -0.3923
 5745SOL    HW128868   1.573   2.190  12.272  0.5512  0.0889 -0.8283
 5745SOL    HW228869   1.557   2.310  12.202  2.6522 -1.2033  1.7896
 5746SOL     OW28870   2.414   1.903  12.611  0.7581  0.0600 -0.1525
 5746SOL    HW128871   2.432   1.810  12.624  0.0576 -0.3705 -2.3730
 5746SOL    HW228872   2.407   1.910  12.516  0.5637 -0.1182 -0.1504
 5747SOL     OW28873   0.145   2.506   5.695  0.1678 -0.4240 -0.6595
 5747SOL    HW128874   0.065   2.472   5.734  0.4335 -1.8399 -1.3710
 5747SOL    HW228875   0.113   2.594   5.675  0.9658  0.0255 -0.0080
 5748SOL     OW28876   2.816   4.101   1.669 -0.1435 -0.0062  0.0993
 5748SOL    HW128877   2.837   4.187   1.707 -1.2050  0.6973 -0.9246
 5748SOL    HW228878   2.880   4.076   1.603  1.3410 -0.8040  1.8171
 5749SOL     OW28879   4.516   3.068   7.957 -0.0676  0.5045  0.6194
 5749SOL    HW128880   4.543   3.098   7.870  1.2767 -2.2081  0.1006
 5749SOL    HW228881   4.575   2.995   7.978 -1.9804 -1.0467  0.5465
 5750SOL     OW28882   0.851   2.492  12.422 -0.2797  0.7678  0.0559
 5750SOL    HW128883   0.820   2.557  12.485 -0.6556  2.3812 -1.8091
 5750SOL    HW228884   0.941   2.524  12.410 -0.0555 -0.0075 -0.3446
 5751SOL     OW28885   4.028   4.589  12.945  0.0114  0.3243 -0.7029
 5751SOL    HW128886   3.979   4.656  12.993  0.4282  1.1582 -1.4250
 5751SOL    HW228887   4.118   4.622  12.947 -1.2139  3.7168 -2.1329
 5752SOL     OW28888   2.388   1.213  17.496 -0.1332  0.3089  0.0723
 5752SOL    HW128889   2.347   1.299  17.485  0.1998  0.8272  3.0634
 5752SOL    HW228890   2.353   1.188  17.581 -0.0486 -0.4976 -0.1308
 5753SOL     OW28891   0.020   2.556   2.152 -1.0037  0.1554 -0.3817
 5753SOL    HW128892   4.706   2.478   2.183  1.5856 -1.5176 -0.6644
 5753SOL    HW228893   0.110   2.526   2.137 -1.4458 -0.5893 -1.5221
 5754SOL     OW28894   3.682   1.548   8.262  0.0766 -0.2294 -0.7245
 5754SOL    HW128895   3.614   1.599   8.217  0.7239  0.3477 -1.0569
 5754SOL    HW228896   3.672   1.573   8.354  0.7013 -0.1480 -0.6771
 5755SOL     OW28897   0.164   2.065   7.931 -0.0333  0.1242 -0.1225
 5755SOL    HW128898   0.235   2.021   7.884 -0.4432 -0.0634 -0.5618
 5755SOL    HW228899   0.107   2.102   7.865  0.5961  4.6014  1.8293
 5756SOL     OW28900   3.852   4.498   8.486 -0.2618  0.8788 -0.0367
 5756SOL    HW128901   3.889   4.442   8.417 -1.6536  0.6156 -0.5544
 5756SOL    HW228902   3.913   4.480   8.558  0.6207 -0.0961 -1.0155
 5757SOL     OW28903   2.660   1.332  10.470  0.2745  0.1932  0.1861
 5757SOL    HW128904   2.698   1.279  10.541 -0.3918  0.0717  0.4558
 5757SOL    HW228905   2.727   1.399  10.456  0.8211  0.1703  2.6037
 5758SOL     OW28906   3.040   1.493   8.557 -0.7099  0.1524  0.0425
 5758SOL    HW128907   2.984   1.568   8.579 -0.5758  0.5941 -1.1281
 5758SOL    HW228908   3.054   1.453   8.643 -1.4724 -1.2792 -0.5117
 5759SOL     OW28909   3.008   3.257   2.827  0.4389  0.6259 -0.7096
 5759SOL    HW128910   2.938   3.195   2.849  1.4243  0.1052  0.9826
 5759SOL    HW228911   2.971   3.344   2.836 -0.5721  0.2078 -0.7764
 5760SOL     OW28912   0.401   1.416  12.073 -0.2958  0.1868 -0.4988
 5760SOL    HW128913   0.493   1.397  12.087 -0.3878 -0.4377 -0.7275
 5760SOL    HW228914   0.396   1.460  11.988  0.6415  2.0066  0.4076
 5761SOL     OW28915   1.957   1.680   4.210 -0.2706 -0.5639  0.2513
 5761SOL    HW128916   2.010   1.633   4.146 -2.0436 -0.5621 -1.2329
 5761SOL    HW228917   1.871   1.648   4.183  0.0197 -0.3424 -0.8990
 5762SOL     OW28918   1.468   0.623  14.956 -0.7852 -0.0642 -0.3768
 5762SOL    HW128919   1.442   0.589  15.042 -0.5713  0.8355  0.0372
 5762SOL    HW228920   1.563   0.614  14.950 -0.8833 -1.1504 -0.4206
 5763SOL     OW28921   2.397   0.601   7.723 -0.4332 -0.2334  0.1321
 5763SOL    HW128922   2.473   0.657   7.710  0.6792 -1.2013  2.5068
 5763SOL    HW228923   2.347   0.608   7.642 -2.9732 -1.1670  1.6217
 5764SOL     OW28924   1.253   2.194  13.523 -0.5011  0.4253  0.1267
 5764SOL    HW128925   1.289   2.185  13.434 -2.4326 -3.9737 -0.2357
 5764SOL    HW228926   1.316   2.248  13.569  0.7147 -0.3004 -0.6846
 5765SOL     OW28927   3.319   2.179   6.371 -0.5562 -0.0159  0.3838
 5765SOL    HW128928   3.248   2.159   6.310 -0.9051  0.3250  0.6799
 5765SOL    HW228929   3.296   2.126   6.447  0.2063 -1.2050 -0.2191
 5766SOL     OW28930   3.481   0.427   5.060 -0.1958 -0.5205 -0.0063
 5766SOL    HW128931   3.394   0.391   5.078  0.3239 -2.2904 -1.0436
 5766SOL    HW228932   3.517   0.431   5.148  0.0687  0.5317 -0.1617
 5767SOL     OW28933   1.448   3.451  14.935  0.2576  0.5194 -0.1183
 5767SOL    HW128934   1.486   3.363  14.941  1.1537  1.0741  2.3449
 5767SOL    HW228935   1.352   3.446  14.938  0.3749 -1.4042  0.8611
 5768SOL     OW28936   1.756   0.297   5.716 -0.4843 -0.5325 -0.2666
 5768SOL    HW128937   1.714   0.214   5.692 -0.5804 -0.6174  0.2078
 5768SOL    HW228938   1.681   0.355   5.723  1.4634  1.8435  0.8242
 5769SOL     OW28939   0.807   2.646  13.236  0.3922  0.5974  0.2662
 5769SOL    HW128940   0.841   2.578  13.177 -0.8756  1.1849 -1.1483
 5769SOL    HW228941   0.844   2.722  13.191 -1.2428  0.3123 -1.5780
 5770SOL     OW28942   3.590   3.547  13.149  0.7791  0.4578 -0.2059
 5770SOL    HW128943   3.618   3.614  13.087 -0.2740  0.0451 -1.1429
 5770SOL    HW228944   3.507   3.526  13.106 -0.1470  1.2706  1.1902
 5771SOL     OW28945   3.446   4.586   2.667 -0.3236  0.4347 -0.1177
 5771SOL    HW128946   3.467   4.500   2.629 -1.5335 -0.2143  0.7000
 5771SOL    HW228947   3.397   4.560   2.744  0.9053  0.7127  0.7639
 5772SOL     OW28948   3.228   0.052   3.465 -0.6415 -0.3557 -0.6546
 5772SOL    HW128949   3.241   0.049   3.371  0.9730 -0.4447 -0.4346
 5772SOL    HW228950   3.142   0.092   3.464 -1.3440 -1.7922  0.5279
 5773SOL     OW28951   1.448   3.369   2.338 -0.0565  0.2387 -0.0011
 5773SOL    HW128952   1.455   3.326   2.423 -2.9773  1.0547  0.6771
 5773SOL    HW228953   1.541   3.376   2.317  0.1090 -0.3868  0.5502
 5774SOL     OW28954   4.631   2.468   7.914  0.2256 -0.1222  0.6074
 5774SOL    HW128955   4.609   2.498   8.002 -0.5289 -0.6074  0.5913
 5774SOL    HW228956   4.561   2.402   7.914  0.1218 -0.0293 -1.6610
 5775SOL     OW28957   1.511   4.163  15.298 -0.4307  0.5785 -0.7280
 5775SOL    HW128958   1.592   4.160  15.247 -1.0001 -1.0416 -1.5408
 5775SOL    HW228959   1.485   4.255  15.295  0.1530  0.8625  2.6229
 5776SOL     OW28960   0.681   0.343  13.967  0.0540 -0.1300  0.7711
 5776SOL    HW128961   0.759   0.300  13.931 -0.3933 -2.2015  2.2850
 5776SOL    HW228962   0.647   0.280  14.030 -1.1644  1.2133  1.4484
 5777SOL     OW28963   0.327   4.564   5.252 -0.5787  0.0788 -0.5178
 5777SOL    HW128964   0.334   4.481   5.300  1.4207  1.4067  1.4743
 5777SOL    HW228965   0.312   4.530   5.164 -0.8572 -0.7764 -0.1389
 5778SOL     OW28966   2.885   4.090   4.943 -0.0052  0.0905 -0.4738
 5778SOL    HW128967   2.942   4.116   5.016 -1.4838 -2.0653  1.4193
 5778SOL    HW228968   2.928   4.123   4.863  1.2929 -1.2743 -0.3364
 5779SOL     OW28969   2.282   0.950   8.508 -0.0590 -0.3629  0.2094
 5779SOL    HW128970   2.206   0.974   8.455  0.1082  1.9706  1.0059
 5779SOL    HW228971   2.309   1.041   8.519  1.0034 -0.6646  0.0815
 5780SOL     OW28972   0.107   0.101  17.677 -0.9818 -0.6532 -0.9376
 5780SOL    HW128973   0.099   0.023  17.623  0.0529 -0.1827 -1.7693
 5780SOL    HW228974   0.071   0.168  17.618 -0.1462  0.5059 -0.1369
 5781SOL     OW28975   1.197   0.545  13.266 -0.6617  0.2280  0.4193
 5781SOL    HW128976   1.137   0.618  13.252 -1.4353 -0.1564  1.7712
 5781SOL    HW228977   1.139   0.475  13.297 -0.1598  0.0832  1.0248
 5782SOL     OW28978   4.471   4.698   9.633 -0.2783  0.2727 -0.3486
 5782SOL    HW128979   4.543   0.003   9.582  1.2820  0.7388  2.1687
 5782SOL    HW228980   4.519   4.629   9.678  0.3000  1.5205  0.9653
 5783SOL     OW28981   0.862   4.580   2.031  0.0583 -0.0866 -0.3060
 5783SOL    HW128982   0.830   4.497   1.995  1.6881 -1.1546  0.7230
 5783SOL    HW228983   0.886   4.560   2.121 -2.1778  0.2988  0.3628
 5784SOL     OW28984   0.403   1.528   8.280  0.0549  0.1334 -0.0681
 5784SOL    HW128985   0.366   1.513   8.193 -1.1707 -0.1716  0.4996
 5784SOL    HW228986   0.438   1.439   8.287  0.9012  0.4082 -0.8382
 5785SOL     OW28987   0.084   4.107   7.837 -0.8432 -0.4833  0.2748
 5785SOL    HW128988   0.153   4.095   7.903  0.0604  0.0270 -0.5752
 5785SOL    HW228989   0.102   4.197   7.810  0.6825 -0.7219  0.4679
 5786SOL     OW28990   4.529   1.499   4.721 -0.1209 -0.4176  0.3290
 5786SOL    HW128991   4.441   1.467   4.700 -0.2936 -0.0283  0.4395
 5786SOL    HW228992   4.544   1.560   4.648 -1.7762 -0.4625 -0.0570
 5787SOL     OW28993   2.989   0.052   1.920 -0.4412  0.0503 -0.4315
 5787SOL    HW128994   2.945   0.058   2.005  0.6229 -2.5907  0.3103
 5787SOL    HW228995   3.061   4.721   1.929 -0.6962  0.0192  1.3609
 5788SOL     OW28996   2.840   0.581  10.437 -0.4693 -0.3888 -0.5764
 5788SOL    HW128997   2.929   0.594  10.471 -1.0476  1.9730  0.0092
 5788SOL    HW228998   2.813   0.667  10.404  0.4752  0.1308 -0.0179
 5789SOL     OW28999   2.456   0.248   0.338  0.1433 -0.4633 -0.2195
 5789SOL    HW129000   2.494   0.204   0.414  1.1240  0.2498 -0.3030
 5789SOL    HW229001   2.479   0.182   0.272  1.2245 -0.1233 -0.1744
 5790SOL     OW29002   4.441   4.281   7.549 -0.6298 -0.2062 -0.0057
 5790SOL    HW129003   4.357   4.323   7.568 -0.7512  0.5931 -2.2242
 5790SOL    HW229004   4.471   4.274   7.639  1.3360  1.2491 -0.5451
 5791SOL     OW29005   0.223   4.425  11.259 -0.0379 -0.5502 -0.2085
 5791SOL    HW129006   0.217   4.334  11.288 -2.8020 -0.2863  0.0634
 5791SOL    HW229007   0.312   4.423  11.224  0.2433 -1.6543  0.5624
 5792SOL     OW29008   0.885   0.481   8.674 -0.8094  0.4251 -0.5890
 5792SOL    HW129009   0.907   0.422   8.602 -2.5593 -0.2973 -0.5296
 5792SOL    HW229010   0.973   0.492   8.712  0.9310 -0.9307 -4.1880
 5793SOL     OW29011   1.113   0.087   4.173 -0.4084  0.3928 -0.2561
 5793SOL    HW129012   1.082   0.174   4.150 -0.0340  1.1570  2.0994
 5793SOL    HW229013   1.053   0.057   4.242  0.9248 -0.2223  0.6270
 5794SOL     OW29014   4.013   2.685  11.180  0.2500 -0.4112 -0.2061
 5794SOL    HW129015   4.075   2.757  11.192 -0.9293  0.5064  0.4573
 5794SOL    HW229016   3.931   2.721  11.214  1.0252  0.7775  0.3926
 5795SOL     OW29017   1.419   0.395   1.296 -0.1546  0.5095 -0.3231
 5795SOL    HW129018   1.494   0.388   1.356 -1.4887  0.1945  1.3109
 5795SOL    HW229019   1.464   0.399   1.212 -0.3654 -1.5390 -0.5215
 5796SOL     OW29020   4.203   2.768   5.020 -0.2123  0.0090  0.2643
 5796SOL    HW129021   4.110   2.747   5.019 -0.2860  0.1440  2.5110
 5796SOL    HW229022   4.206   2.858   4.986 -0.9761  0.0324  0.2568
 5797SOL     OW29023   3.005   1.856   8.529  0.5105  0.5845 -0.0618
 5797SOL    HW129024   3.091   1.838   8.491  0.6247  0.6781  0.1568
 5797SOL    HW229025   3.035   1.911   8.601  1.4589  1.2863 -0.9805
 5798SOL     OW29026   0.741   2.407  12.118 -0.0765  0.3171 -0.5642
 5798SOL    HW129027   0.829   2.405  12.079 -0.0458  0.7805 -0.5226
 5798SOL    HW229028   0.687   2.412  12.040  0.5603 -0.8845 -1.0760
 5799SOL     OW29029   1.821   0.261   9.282  0.3177 -0.1543  0.5779
 5799SOL    HW129030   1.795   0.169   9.286 -1.9886  0.4332 -0.8447
 5799SOL    HW229031   1.810   0.269   9.377  3.2134  0.8373  0.8348
 5800SOL     OW29032   3.129   4.130  12.648 -0.4186  0.0416 -0.0777
 5800SOL    HW129033   3.064   4.117  12.579  1.1712 -2.7616 -1.0782
 5800SOL    HW229034   3.211   4.130  12.598  1.4131 -0.1354  2.9176
 5801SOL     OW29035   3.300   2.795  16.896 -0.3667  0.5047 -0.0014
 5801SOL    HW129036   3.308   2.838  16.811  3.1030 -0.5388 -0.2288
 5801SOL    HW229037   3.359   2.841  16.956  0.7401 -0.1688 -0.5616
 5802SOL     OW29038   2.443   0.334   1.926  0.2571 -0.2328  0.2133
 5802SOL    HW129039   2.415   0.422   1.953 -1.4331 -0.4811 -0.7109
 5802SOL    HW229040   2.449   0.357   1.833  3.6634 -0.1945  0.4622
 5803SOL     OW29041   3.785   4.557  10.992  0.5470  0.4256 -0.2796
 5803SOL    HW129042   3.827   4.637  10.961  0.0200  0.1385 -1.7275
 5803SOL    HW229043   3.777   4.516  10.906 -2.9735 -1.2458  0.8621
 5804SOL     OW29044   3.394   2.747   0.884 -0.7059 -0.1469  0.5198
 5804SOL    HW129045   3.317   2.706   0.843  0.4326 -0.7682 -0.9901
 5804SOL    HW229046   3.391   2.838   0.854 -0.1530 -0.4753 -0.5174
 5805SOL     OW29047   0.282   4.663   0.387 -0.0179 -0.4308 -0.6127
 5805SOL    HW129048   0.299   4.707   0.303 -2.4718 -1.2762 -1.5624
 5805SOL    HW229049   0.187   4.657   0.400  0.2129  0.4084  1.4396
 5806SOL     OW29050   4.700   3.370   7.274 -0.8694  0.1989 -0.2677
 5806SOL    HW129051   4.682   3.449   7.326  1.2167 -0.7495  1.8817
 5806SOL    HW229052   4.652   3.382   7.192 -0.3539 -0.1327 -0.6148
 5807SOL     OW29053   2.922   0.071   8.856  0.2975  0.1044 -0.3779
 5807SOL    HW129054   2.838   0.100   8.891 -1.0918 -2.8173 -1.2810
 5807SOL    HW229055   2.971   0.152   8.862 -0.7992  0.5950  1.6730
 5808SOL     OW29056   0.876   1.779   9.747  0.0125  0.2825 -0.2049
 5808SOL    HW129057   0.945   1.829   9.702  2.3656 -0.3764  2.7065
 5808SOL    HW229058   0.931   1.712   9.788 -1.3659 -0.6798  0.0753
 5809SOL     OW29059   2.602   2.884   7.098  0.2947 -0.9909 -0.2397
 5809SOL    HW129060   2.623   2.947   7.167  0.9130 -1.0322 -0.3915
 5809SOL    HW229061   2.590   2.943   7.024  2.3945  2.5485  2.2493
 5810SOL     OW29062   3.102   2.664   9.461  0.1097 -0.5328 -0.2497
 5810SOL    HW129063   3.108   2.573   9.490  0.2786 -0.3669  0.2334
 5810SOL    HW229064   3.058   2.644   9.378 -0.2290  0.8296 -0.3970
 5811SOL     OW29065   2.267   1.979  17.181  0.0751  0.3923  0.4166
 5811SOL    HW129066   2.216   2.060  17.181 -0.1065  0.2675 -0.7181
 5811SOL    HW229067   2.212   1.918  17.231 -1.3028  0.6956 -0.7150
 5812SOL     OW29068   4.421   1.404   8.762  0.4334  0.1509 -0.0501
 5812SOL    HW129069   4.442   1.412   8.855  1.5077 -0.7482 -0.2157
 5812SOL    HW229070   4.490   1.456   8.721 -0.2936  1.1736  0.0114
 5813SOL     OW29071   4.088   3.829   3.527 -0.5088 -0.5811 -0.2826
 5813SOL    HW129072   4.139   3.865   3.599  0.6638  0.0638 -1.4304
 5813SOL    HW229073   4.090   3.902   3.466 -2.6845 -0.7114 -0.5390
 5814SOL     OW29074   1.456   2.954  13.485 -0.1777  0.4496 -0.2013
 5814SOL    HW129075   1.364   2.935  13.465  0.5671 -3.9029  0.6458
 5814SOL    HW229076   1.473   3.030  13.429 -1.4263  0.1875 -0.9474
 5815SOL     OW29077   4.521   3.684   9.199  0.7650  0.1927 -0.6722
 5815SOL    HW129078   4.570   3.752   9.153 -0.5857 -0.3721 -2.9640
 5815SOL    HW229079   4.450   3.681   9.135 -0.7919  2.1719  0.9541
 5816SOL     OW29080   2.938   4.559  14.543  0.9466  0.1058 -0.1469
 5816SOL    HW129081   2.968   4.648  14.561  2.0948 -0.7825  2.2596
 5816SOL    HW229082   2.930   4.564  14.447 -0.5944  1.6755  0.0703
 5817SOL     OW29083   4.072   2.851  10.868  0.2931  0.0387  0.6099
 5817SOL    HW129084   3.980   2.853  10.895  0.3235  0.5053  0.6772
 5817SOL    HW229085   4.106   2.920  10.925  2.9514 -0.6222 -0.1937
 5818SOL     OW29086   2.268   3.538   6.538 -0.1583 -0.4075 -0.5101
 5818SOL    HW129087   2.344   3.514   6.592  0.0082  1.5848  0.1113
 5818SOL    HW229088   2.192   3.517   6.592  0.0427  1.3832  0.4604
 5819SOL     OW29089   3.658   2.053   6.956 -0.6988  0.5597 -0.5482
 5819SOL    HW129090   3.605   1.980   6.987  0.5961 -0.6836 -1.2871
 5819SOL    HW229091   3.608   2.098   6.888 -0.8306  1.6090  0.2453
 5820SOL     OW29092   4.430   1.085   3.975  0.2571 -0.2308  0.7149
 5820SOL    HW129093   4.433   1.038   4.057  2.0099 -0.5420  0.4759
 5820SOL    HW229094   4.461   1.173   3.997 -1.2267  0.1614  1.2596
 5821SOL     OW29095   4.161   2.065   7.985  0.4191  0.7764  0.5500
 5821SOL    HW129096   4.157   2.047   7.891 -1.9401  0.4222  0.7259
 5821SOL    HW229097   4.076   2.103   8.005 -0.0116 -0.5941  1.2730
 5822SOL     OW29098   2.683   2.133  10.087  0.7060 -0.0171  1.0208
 5822SOL    HW129099   2.717   2.192  10.019  1.8588 -1.4954  0.3020
 5822SOL    HW229100   2.751   2.151  10.153  2.1558  1.6048 -0.9103
 5823SOL     OW29101   2.468   3.369   5.496  0.1366  1.0466  0.6228
 5823SOL    HW129102   2.531   3.309   5.455 -1.4545 -1.4716  1.8687
 5823SOL    HW229103   2.516   3.421   5.559  1.2056  0.1613  0.5456
 5824SOL     OW29104   3.570   3.633   7.255 -0.1161 -0.3010  0.1022
 5824SOL    HW129105   3.644   3.652   7.313 -0.2742 -2.2260  0.9487
 5824SOL    HW229106   3.495   3.656   7.311 -0.4440  1.2821 -0.9872
 5825SOL     OW29107   0.129   3.117   5.842 -0.0479 -0.0338  0.3725
 5825SOL    HW129108   0.130   3.055   5.914 -0.5154  2.0902  2.2225
 5825SOL    HW229109   0.218   3.152   5.848 -0.0367 -0.1989  1.1652
 5826SOL     OW29110   4.400   1.228  13.195  0.0997  0.0092  0.0181
 5826SOL    HW129111   4.453   1.304  13.220 -0.3887  0.5077 -0.4687
 5826SOL    HW229112   4.360   1.207  13.280 -0.2853 -1.0576 -0.4341
 5827SOL     OW29113   3.988   0.082   2.788 -0.9435  1.0357  0.1066
 5827SOL    HW129114   4.043   0.005   2.775 -1.9036  0.0911  1.6073
 5827SOL    HW229115   3.911   0.050   2.740  1.3413 -3.2001 -0.7171
 5828SOL     OW29116   3.922   3.227   2.450  0.1669  0.5888  0.2949
 5828SOL    HW129117   3.839   3.220   2.498  0.1186  4.4908  0.7980
 5828SOL    HW229118   3.903   3.186   2.365 -6.1981  1.9868  1.0484
 5829SOL     OW29119   1.166   0.908   1.392 -0.0935  0.4267 -0.4642
 5829SOL    HW129120   1.174   0.988   1.340  1.6647  1.9314  2.1333
 5829SOL    HW229121   1.258   0.907   1.419  0.1748 -0.1814 -1.4105
 5830SOL     OW29122   0.250   2.514  10.193  0.2017 -0.2326 -0.3896
 5830SOL    HW129123   0.293   2.516  10.108  2.6305  1.4426  0.8950
 5830SOL    HW229124   0.271   2.430  10.232  0.9550  0.9530  1.7460
 5831SOL     OW29125   2.629   4.727   7.707  0.1727 -0.5248 -0.4787
 5831SOL    HW129126   2.706   0.038   7.671  0.6556 -1.8090 -0.9568
 5831SOL    HW229127   2.661   4.638   7.722  0.7082 -0.5134 -1.6151
 5832SOL     OW29128   0.283   1.635   5.660 -0.0151 -0.2416  0.3371
 5832SOL    HW129129   0.207   1.576   5.664 -0.3359  0.0505 -1.6530
 5832SOL    HW229130   0.319   1.617   5.747  1.5990  0.3814 -0.1986
 5833SOL     OW29131   0.242   2.388   7.354 -0.6153 -0.5060 -0.5682
 5833SOL    HW129132   0.224   2.296   7.338  1.3639 -0.7091 -1.5550
 5833SOL    HW229133   0.293   2.414   7.277  0.1227  0.8656  0.3736
 5834SOL     OW29134   1.813   3.422  11.831  0.3090  0.1857 -0.5150
 5834SOL    HW129135   1.862   3.351  11.789  1.9882  0.9018  0.2493
 5834SOL    HW229136   1.872   3.490  11.801  1.1890 -0.8959 -1.2280
 5835SOL     OW29137   4.133   0.842   7.022  0.5092 -0.1973  0.4301
 5835SOL    HW129138   4.140   0.822   6.929 -3.1092 -1.0339  0.3299
 5835SOL    HW229139   4.194   0.785   7.070 -0.3319 -0.9375  0.6215
 5836SOL     OW29140   1.518   4.111   5.175  0.5506  0.5238 -0.0178
 5836SOL    HW129141   1.614   4.112   5.178  0.5208  2.4415  0.3870
 5836SOL    HW229142   1.496   4.145   5.088  2.1297 -1.5315 -1.2091
 5837SOL     OW29143   3.084   1.624   7.550 -0.0077  0.2192  0.6473
 5837SOL    HW129144   3.085   1.720   7.543 -1.2658  0.3622  2.5069
 5837SOL    HW229145   3.160   1.602   7.604 -0.0804 -2.0715 -0.1693
 5838SOL     OW29146   0.740   1.568   1.454 -0.3465 -0.5847  0.2980
 5838SOL    HW129147   0.789   1.487   1.444  2.1026  0.8517  0.5994
 5838SOL    HW229148   0.813   1.624   1.479  1.1361 -2.7270  0.6552
 5839SOL     OW29149   2.047   3.297  16.053  0.0913 -0.5300  0.6043
 5839SOL    HW129150   2.132   3.310  16.096  0.1753 -3.8372  1.4637
 5839SOL    HW229151   2.057   3.330  15.964 -1.9893 -1.2109  0.1218
 5840SOL     OW29152   1.923   1.017  14.881 -0.4294 -0.7148 -0.5991
 5840SOL    HW129153   1.874   0.972  14.950  2.5597 -1.8071  0.8709
 5840SOL    HW229154   1.943   0.946  14.820 -2.8400  1.9755 -4.4649
 5841SOL     OW29155   3.927   4.450   1.390 -0.2373 -0.2064 -0.4899
 5841SOL    HW129156   3.841   4.489   1.405  0.8364  2.2645 -0.5998
 5841SOL    HW229157   3.971   4.525   1.349 -1.7200  0.9723  0.0697
 5842SOL     OW29158   0.692   2.868   2.688  0.4998  0.2991  0.4584
 5842SOL    HW129159   0.706   2.954   2.649 -1.5045 -0.7806 -2.6365
 5842SOL    HW229160   0.781   2.835   2.679  0.5925  0.6399  0.1284
 5843SOL     OW29161   0.235   4.423  16.537  0.1554 -0.1904  0.3796
 5843SOL    HW129162   0.228   4.475  16.458  1.0351 -1.8771 -0.8024
 5843SOL    HW229163   0.243   4.334  16.502  1.2890  0.1318 -0.1702
 5844SOL     OW29164   3.310   2.806   5.006 -0.0268  0.5735  0.1038
 5844SOL    HW129165   3.250   2.822   5.079 -0.9694 -1.0256 -0.3391
 5844SOL    HW229166   3.388   2.783   5.056 -0.8535 -1.0538  0.6433
 5845SOL     OW29167   2.483   1.934   6.912 -0.1223  0.2166 -0.4737
 5845SOL    HW129168   2.540   1.869   6.952  1.6234  1.4460 -0.9957
 5845SOL    HW229169   2.518   1.935   6.824  1.5828  1.6119  0.2351
 5846SOL     OW29170   4.213   3.441   8.188 -0.1538 -0.5818 -0.2650
 5846SOL    HW129171   4.166   3.504   8.132  1.4352  1.3490  0.5757
 5846SOL    HW229172   4.271   3.398   8.125  1.8552 -0.2277  1.3491
 5847SOL     OW29173   1.706   1.567   6.106  0.7074  0.3631  0.0126
 5847SOL    HW129174   1.779   1.561   6.044  2.5572  0.5474  2.1801
 5847SOL    HW229175   1.629   1.558   6.051  0.1025  1.1057  0.7257
 5848SOL     OW29176   3.387   2.003   7.991  0.3881 -0.1956 -0.0755
 5848SOL    HW129177   3.333   1.990   8.069  0.1218  2.6165  0.2032
 5848SOL    HW229178   3.326   2.008   7.918 -0.6378 -1.3106  0.7041
 5849SOL     OW29179   1.514   0.143   0.157 -0.0575 -0.0135  0.0947
 5849SOL    HW129180   1.535   0.085   0.230  2.1827 -0.8327 -1.2046
 5849SOL    HW229181   1.579   0.213   0.161  3.0954 -3.1287  2.6386
 5850SOL     OW29182   2.855   2.644  11.627 -0.6845 -0.5809  0.5302
 5850SOL    HW129183   2.842   2.611  11.538 -0.3329  1.2432 -0.1894
 5850SOL    HW229184   2.913   2.575  11.661  0.7681  0.1100 -0.5712
 5851SOL     OW29185   1.374   2.075   6.426 -0.6282 -0.3806 -0.2403
 5851SOL    HW129186   1.296   2.112   6.467  0.7737  1.6590  0.5571
 5851SOL    HW229187   1.366   2.113   6.339 -0.2114  1.6212  0.5935
 5852SOL     OW29188   1.614   4.323   9.147 -0.0431 -0.0186 -0.1331
 5852SOL    HW129189   1.595   4.403   9.097 -0.1255 -0.0283 -0.1182
 5852SOL    HW229190   1.696   4.302   9.104 -1.1255 -1.6658 -1.3829
 5853SOL     OW29191   4.463   3.447  15.636 -0.5909 -0.1174 -0.5721
 5853SOL    HW129192   4.505   3.361  15.642  1.9621  1.2889  2.3241
 5853SOL    HW229193   4.394   3.432  15.572 -0.1967  0.8178 -1.2159
 5854SOL     OW29194   4.374   1.918   6.508  0.6554 -0.9824  0.1736
 5854SOL    HW129195   4.435   1.991   6.518 -1.7478  1.1960 -1.0831
 5854SOL    HW229196   4.421   1.854   6.562  1.3581 -1.0832 -0.5566
 5855SOL     OW29197   0.170   1.570   3.607  0.1267 -0.4734  0.0473
 5855SOL    HW129198   0.195   1.478   3.616 -2.4547 -1.0665  1.2213
 5855SOL    HW229199   0.203   1.619   3.683 -1.4764 -2.3684  1.9908
 5856SOL     OW29200   4.657   0.018   6.860 -0.3936 -0.0711  0.3593
 5856SOL    HW129201   4.699   0.010   6.945  1.8577  3.6160 -0.3701
 5856SOL    HW229202   4.682   4.669   6.816 -2.5379 -0.8399  0.5617
 5857SOL     OW29203   0.280   0.190   1.119 -0.3419  0.0336 -0.3310
 5857SOL    HW129204   0.281   0.098   1.091  0.3869  0.6468 -2.3106
 5857SOL    HW229205   0.200   0.190   1.171  1.1336  0.0896  1.9487
 5858SOL     OW29206   0.317   1.102  13.268 -0.5018  0.6562  0.0875
 5858SOL    HW129207   0.225   1.109  13.244 -0.9033  0.7750  1.6313
 5858SOL    HW229208   0.351   1.077  13.182 -0.8941  1.2240 -0.2315
 5859SOL     OW29209   2.055   1.363  10.766  0.5880 -0.2104 -0.1629
 5859SOL    HW129210   1.960   1.357  10.769  0.6001 -1.6335 -2.8736
 5859SOL    HW229211   2.080   1.434  10.825 -1.4962  2.3999 -2.3959
 5860SOL     OW29212   0.591   0.053   0.958  0.1190 -0.2983 -0.3496
 5860SOL    HW129213   0.673   0.090   0.991 -0.2603 -0.7361  1.0789
 5860SOL    HW229214   0.606   0.067   0.864  0.4154  0.2394 -0.2246
 5861SOL     OW29215   2.111   1.514   2.605  0.4240  0.1750 -0.3144
 5861SOL    HW129216   2.074   1.602   2.604 -0.1853 -0.0595  0.8366
 5861SOL    HW229217   2.116   1.490   2.513 -1.1465  2.8994 -1.0943
 5862SOL     OW29218   2.064   1.174   0.384  0.1185 -0.5839  0.2160
 5862SOL    HW129219   1.989   1.131   0.426  1.5223 -0.7597  2.5802
 5862SOL    HW229220   2.123   1.101   0.401  1.9005  0.9223  0.4728
 5863SOL     OW29221   1.020   2.712  15.065 -0.2087 -0.4422  0.7011
 5863SOL    HW129222   1.114   2.711  15.048 -0.0034  2.0196  1.6644
 5863SOL    HW229223   1.002   2.805  15.055 -0.2418 -0.4710  0.4930
 5864SOL     OW29224   2.498   0.711   5.458 -0.1944 -0.4129  0.0007
 5864SOL    HW129225   2.410   0.740   5.434 -0.3522 -0.7397  0.1897
 5864SOL    HW229226   2.503   0.752   5.545  2.7064  0.0814 -0.4049
 5865SOL     OW29227   4.531   2.149   0.542  0.5183  0.3868  0.3117
 5865SOL    HW129228   4.558   2.057   0.537  0.5777  0.5382 -1.9535
 5865SOL    HW229229   4.473   2.137   0.617 -1.5568 -1.3373 -1.5660
 5866SOL     OW29230   0.682   2.839   4.917  0.2193 -0.4866 -0.5887
 5866SOL    HW129231   0.649   2.927   4.934  0.9877 -0.2477 -0.3516
 5866SOL    HW229232   0.730   2.802   4.991  0.4614  1.3460  0.1513
 5867SOL     OW29233   3.417   3.602   2.852  0.0102  0.0659 -0.3146
 5867SOL    HW129234   3.466   3.637   2.778  0.6953  0.5017  0.3415
 5867SOL    HW229235   3.348   3.668   2.849  0.4058  0.5794  1.3061
 5868SOL     OW29236   3.087   3.754   3.067  0.0134 -0.3208 -0.7602
 5868SOL    HW129237   2.994   3.757   3.043 -0.3171  0.7134  0.6195
 5868SOL    HW229238   3.134   3.740   2.986  0.4418 -1.7152 -0.2765
 5869SOL     OW29239   2.008   1.250   6.066 -0.1293 -0.4500 -0.1402
 5869SOL    HW129240   2.029   1.200   5.987 -0.5649 -1.2604  0.2627
 5869SOL    HW229241   2.048   1.190   6.129  0.8269  2.3800  1.9655
 5870SOL     OW29242   3.605   4.706   6.308 -0.2867 -0.5020 -0.2358
 5870SOL    HW129243   3.669   4.725   6.239  2.0699 -1.0977  1.7761
 5870SOL    HW229244   3.522   4.681   6.266  0.4796 -0.7691 -1.5978
 5871SOL     OW29245   4.317   0.287   2.160 -0.1609  0.0760 -0.8092
 5871SOL    HW129246   4.408   0.304   2.187  0.0601 -2.4473  0.0455
 5871SOL    HW229247   4.307   0.368   2.109 -1.4533 -0.5309 -1.5019
 5872SOL     OW29248   4.209   4.250   6.180 -0.0959 -0.2361  0.4954
 5872SOL    HW129249   4.261   4.178   6.145 -0.2712 -0.4682  0.7090
 5872SOL    HW229250   4.238   4.325   6.127  1.2356 -0.9911  0.1662
 5873SOL     OW29251   2.747   3.504   5.351 -0.2199  0.2876 -0.3022
 5873SOL    HW129252   2.799   3.519   5.272  2.2439 -1.1369  1.0360
 5873SOL    HW229253   2.720   3.414   5.333 -0.1186  0.2112 -0.0710
 5874SOL     OW29254   3.409   1.006   4.126  0.5220 -0.7459  0.5968
 5874SOL    HW129255   3.429   1.100   4.134  1.4009 -0.7604 -1.4082
 5874SOL    HW229256   3.313   1.002   4.126  0.4078  2.0529  0.0807
 5875SOL     OW29257   1.467   2.368   8.498 -0.1740 -0.3462  0.1301
 5875SOL    HW129258   1.372   2.378   8.485  0.3053  3.9193 -0.2527
 5875SOL    HW229259   1.476   2.273   8.495  2.0353 -0.2007  2.5974
 5876SOL     OW29260   0.772   2.113   5.447 -0.2152 -0.3308 -0.5823
 5876SOL    HW129261   0.748   2.205   5.447  0.7725 -0.0857  1.8056
 5876SOL    HW229262   0.725   2.080   5.370 -0.5233 -0.1946 -0.4526
 5877SOL     OW29263   1.651   0.622   4.615  0.8186 -0.2787 -0.2740
 5877SOL    HW129264   1.628   0.694   4.673 -0.3350  1.1774 -2.5303
 5877SOL    HW229265   1.568   0.575   4.607  0.7868 -0.5412  1.5569
 5878SOL     OW29266   1.101   2.822   6.072 -0.0695 -0.0880  0.5188
 5878SOL    HW129267   1.145   2.902   6.044 -0.4385 -0.2418 -0.5072
 5878SOL    HW229268   1.174   2.761   6.083  0.0058 -0.0433  0.2622
 5879SOL     OW29269   1.955   3.451   7.563  0.0248 -0.8478 -0.3602
 5879SOL    HW129270   1.989   3.403   7.639 -1.4027  0.0487  0.8326
 5879SOL    HW229271   1.866   3.416   7.553 -0.4694 -0.1806  1.6496
 5880SOL     OW29272   0.626   3.685   5.535 -0.3982 -0.2519  0.3547
 5880SOL    HW129273   0.697   3.725   5.484 -0.9170 -0.4852 -0.5401
 5880SOL    HW229274   0.668   3.624   5.596 -0.2307 -0.3034  0.1906
 5881SOL     OW29275   3.625   0.924   7.274  0.3041  0.1876 -0.6667
 5881SOL    HW129276   3.574   0.857   7.321  0.9666 -1.4390 -2.2531
 5881SOL    HW229277   3.716   0.914   7.302 -0.6325 -1.2948  1.8632
 5882SOL     OW29278   2.566   3.705   6.846 -0.1020 -0.1102 -0.5077
 5882SOL    HW129279   2.570   3.690   6.941 -1.2801  0.8210 -0.3109
 5882SOL    HW229280   2.653   3.731   6.816 -0.2179  1.1511  0.2282
 5883SOL     OW29281   3.694   1.281   7.281  0.2980 -0.0923  0.2784
 5883SOL    HW129282   3.663   1.196   7.312 -0.1714 -0.1440 -0.3490
 5883SOL    HW229283   3.720   1.254   7.193 -1.6066 -0.1203 -0.2786
 5884SOL     OW29284   0.354   1.872  14.002  0.8245  0.5218 -0.1222
 5884SOL    HW129285   0.390   1.957  14.025  1.8061  0.5276 -1.6642
 5884SOL    HW229286   0.259   1.880  14.006  0.6755 -0.6396 -1.4060
 5885SOL     OW29287   2.225   1.902   5.524 -0.3383  0.2825 -0.4575
 5885SOL    HW129288   2.172   1.976   5.493  0.4252  0.4296 -1.3978
 5885SOL    HW229289   2.214   1.836   5.456  1.0997  1.7394 -2.1014
 5886SOL     OW29290   2.052   2.351   3.893 -0.4371  0.2972 -0.0731
 5886SOL    HW129291   2.015   2.436   3.871  0.1461  0.4468 -0.4907
 5886SOL    HW229292   2.073   2.323   3.803 -0.3891 -0.8033  0.2749
 5887SOL     OW29293   2.691   3.774   4.541 -0.1850 -0.6610  0.0549
 5887SOL    HW129294   2.773   3.759   4.494 -0.3037 -1.3936  0.0850
 5887SOL    HW229295   2.638   3.828   4.482 -2.6166 -2.5938  0.4876
 5888SOL     OW29296   0.768   4.068  14.333  0.1423 -0.4575  0.3600
 5888SOL    HW129297   0.695   4.128  14.350  1.4843  1.3010 -0.1056
 5888SOL    HW229298   0.713   4.000  14.294 -2.7482  0.8126  2.1665
 5889SOL     OW29299   1.683   3.024  17.356 -0.2990  0.0152 -0.1498
 5889SOL    HW129300   1.636   2.943  17.375  1.6383 -1.1128 -0.2490
 5889SOL    HW229301   1.744   3.022  17.429  0.1334  1.3504 -0.4782
 5890SOL     OW29302   2.958   2.092   4.993  0.2452 -0.6777 -0.1455
 5890SOL    HW129303   2.976   2.076   4.900  0.5649 -2.5485  0.2329
 5890SOL    HW229304   3.021   2.027   5.026 -0.4001 -0.1263  2.2027
 5891SOL     OW29305   1.908   3.092   6.517  0.1178  0.0078 -0.8509
 5891SOL    HW129306   1.903   3.029   6.589 -0.4459  1.6566  0.5334
 5891SOL    HW229307   1.998   3.124   6.511 -0.6617  2.3987  0.7202
 5892SOL     OW29308   0.207   3.214   4.388 -0.5291 -0.1886 -0.0985
 5892SOL    HW129309   0.226   3.244   4.299 -2.1427  0.9056 -0.0796
 5892SOL    HW229310   0.283   3.232   4.442 -0.1623 -0.7977 -0.4107
 5893SOL     OW29311   1.019   2.447   7.958  0.4400  0.8433  0.2445
 5893SOL    HW129312   1.092   2.385   7.963 -1.3973 -1.3417 -0.0417
 5893SOL    HW229313   0.994   2.450   7.866 -0.9200  1.2335  0.6300
 5894SOL     OW29314   3.092   0.766   4.933 -0.1889 -0.1929  0.2508
 5894SOL    HW129315   3.095   0.825   4.858  0.9294  1.1624  1.3463
 5894SOL    HW229316   3.175   0.718   4.933 -0.2806 -0.3772  2.3043
 5895SOL     OW29317   3.861   4.111   4.568 -0.3161  0.3143 -0.0249
 5895SOL    HW129318   3.871   4.108   4.473  0.4358  1.5088  0.0142
 5895SOL    HW229319   3.921   4.183   4.589 -0.1014  0.4573 -1.1411
 5896SOL     OW29320   1.711   1.869  13.673  0.2806 -0.7067  0.1307
 5896SOL    HW129321   1.640   1.805  13.669 -1.0675  0.6109  3.0040
 5896SOL    HW229322   1.669   1.943  13.631  0.9148  0.7788  2.1306
 5897SOL     OW29323   4.169   1.597  12.565  0.1560 -0.2793 -0.3133
 5897SOL    HW129324   4.188   1.621  12.656 -1.2375 -0.9796  0.1720
 5897SOL    HW229325   4.109   1.524  12.582 -1.3375  0.9659 -0.2694
 5898SOL     OW29326   2.820   3.738   3.002 -0.3917 -0.2534 -0.3311
 5898SOL    HW129327   2.747   3.747   3.064 -0.9833 -0.8223 -0.9565
 5898SOL    HW229328   2.789   3.787   2.927 -1.0207 -1.3181 -0.7603
 5899SOL     OW29329   1.974   1.580   8.608 -0.6253  0.2853  0.4392
 5899SOL    HW129330   1.958   1.624   8.691 -0.1547 -0.7435  1.0716
 5899SOL    HW229331   1.940   1.647   8.549 -1.0704 -0.3814 -0.0551
 5900SOL     OW29332   3.063   3.964   7.773  0.4023 -0.5558 -0.5085
 5900SOL    HW129333   2.998   4.029   7.747 -0.3168  0.0581  2.8921
 5900SOL    HW229334   3.147   3.998   7.741  0.3911  2.6131  2.9031
 5901SOL     OW29335   3.180   3.715   6.466 -0.3701  0.7533  0.3274
 5901SOL    HW129336   3.184   3.620   6.455  4.4318  0.8475  1.3992
 5901SOL    HW229337   3.236   3.737   6.540  0.1152 -0.8542  0.4311
 5902SOL     OW29338   3.910   1.954   6.982  0.4626 -0.3606 -0.1748
 5902SOL    HW129339   3.952   2.004   6.912  0.0172 -4.4297 -3.3514
 5902SOL    HW229340   3.818   1.978   6.972 -0.1898 -1.6234  2.7024
 5903SOL     OW29341   1.670   4.283   8.508 -0.2676 -0.2918 -0.3936
 5903SOL    HW129342   1.691   4.375   8.491 -1.1437  0.2321  1.3310
 5903SOL    HW229343   1.701   4.247   8.426 -2.3519  0.8045 -1.6655
 5904SOL     OW29344   0.826   4.650   9.952  0.7081  0.4435 -0.4247
 5904SOL    HW129345   0.813   4.640  10.047  0.3712  0.2386 -0.4916
 5904SOL    HW229346   0.844   4.559   9.931 -0.1582  0.1533  0.0717
 5905SOL     OW29347   1.772   0.732   3.262  0.8657  0.5483  0.0484
 5905SOL    HW129348   1.791   0.711   3.170  4.0911 -0.3685  0.9355
 5905SOL    HW229349   1.752   0.644   3.294  0.2762  0.4133 -0.6735
 5906SOL     OW29350   0.776   0.632   3.408  0.8078  0.0198 -0.2448
 5906SOL    HW129351   0.869   0.621   3.392  1.0406  0.4499  0.8696
 5906SOL    HW229352   0.746   0.545   3.381 -0.7834  0.4248  0.2216
 5907SOL     OW29353   1.367   0.148   8.734  0.0208  0.4300  0.0903
 5907SOL    HW129354   1.419   0.169   8.811 -0.6912 -2.7450  1.4643
 5907SOL    HW229355   1.356   0.055   8.754  4.3365 -0.3553 -1.2070
 5908SOL     OW29356   1.551   2.620  13.529  0.3681 -0.0359  0.0707
 5908SOL    HW129357   1.569   2.667  13.448  1.2963 -0.2912  0.1331
 5908SOL    HW229358   1.473   2.671  13.553  0.0088 -1.2693  1.5164
 5909SOL     OW29359   0.006   1.988   8.274  0.4939 -0.1031 -0.4531
 5909SOL    HW129360   0.029   2.076   8.245 -2.0462  0.1420 -1.6587
 5909SOL    HW229361   0.088   1.940   8.261  1.8486  1.9159  0.6834
 5910SOL     OW29362   3.666   1.809   3.342 -0.3338 -1.0993  0.3714
 5910SOL    HW129363   3.606   1.769   3.405 -0.8855 -0.5435  0.2069
 5910SOL    HW229364   3.605   1.873   3.305  0.1133 -0.6405  0.4238
 5911SOL     OW29365   3.229   2.806   0.435 -0.4009 -0.2486 -0.1780
 5911SOL    HW129366   3.285   2.880   0.458  1.9024 -2.3624  0.9170
 5911SOL    HW229367   3.170   2.796   0.510  0.0985  0.3024  0.2888
 5912SOL     OW29368   2.617   3.556   9.041  0.0726 -0.7533  0.3899
 5912SOL    HW129369   2.698   3.602   9.019  0.0590 -0.8657  0.1036
 5912SOL    HW229370   2.654   3.488   9.097  1.9597  0.9461  1.2112
 5913SOL     OW29371   0.526   4.050   6.639 -1.2407  0.3694  0.2380
 5913SOL    HW129372   0.477   3.970   6.621 -0.8578  0.2379 -0.2191
 5913SOL    HW229373   0.596   4.003   6.684  0.2949  1.8453 -0.5825
 5914SOL     OW29374   4.082   2.589   8.870 -0.1045  0.0514 -0.4632
 5914SOL    HW129375   4.012   2.527   8.891 -0.1610 -0.3696 -1.9100
 5914SOL    HW229376   4.097   2.564   8.779 -2.9033 -0.3119 -0.8202
 5915SOL     OW29377   3.664   4.343  12.389  0.5376  0.0461 -0.4317
 5915SOL    HW129378   3.617   4.295  12.457  2.0402  0.1763  0.6761
 5915SOL    HW229379   3.725   4.394  12.442  0.3344  0.0159 -0.1661
 5916SOL     OW29380   0.285   1.193  11.077  0.0108  0.3762 -0.5393
 5916SOL    HW129381   0.246   1.107  11.096  1.3123  0.0921  0.8584
 5916SOL    HW229382   0.209   1.244  11.104 -1.3023 -0.2806 -2.9590
 5917SOL     OW29383   0.264   2.107   3.509 -0.0166  0.1555  0.0671
 5917SOL    HW129384   0.247   2.138   3.598  2.0386  1.6651 -0.0784
 5917SOL    HW229385   0.317   2.182   3.483  1.2222 -0.1827  1.6460
 5918SOL     OW29386   0.696   1.109   5.443 -0.1624  0.3345  0.0950
 5918SOL    HW129387   0.751   1.030   5.435  1.7557  1.8923 -2.3556
 5918SOL    HW229388   0.745   1.173   5.495 -0.5335  1.7615 -1.3385
 5919SOL     OW29389   1.138   2.991   0.721 -0.3239 -0.4477  0.1805
 5919SOL    HW129390   1.165   2.962   0.808  0.1636  1.8439  0.7909
 5919SOL    HW229391   1.103   2.909   0.687  3.1158 -1.7697 -0.1761
 5920SOL     OW29392   1.994   2.206   6.168  0.2321  0.0479  0.0631
 5920SOL    HW129393   2.007   2.284   6.221  0.6756 -1.9137  2.8161
 5920SOL    HW229394   1.944   2.152   6.230  0.5371  1.6931  1.7478
 5921SOL     OW29395   1.072   0.948   4.491 -0.3418  0.1511  0.0825
 5921SOL    HW129396   1.099   0.948   4.399 -0.2965  0.9651  0.0903
 5921SOL    HW229397   1.074   0.856   4.514 -1.1572  0.2513  0.5388
 5922SOL     OW29398   1.289   0.181   3.821 -0.1686 -0.2486  0.0014
 5922SOL    HW129399   1.258   0.153   3.735 -3.1411  1.7878  0.4170
 5922SOL    HW229400   1.210   0.232   3.840 -0.0908 -0.0369 -0.2433
 5923SOL     OW29401   2.597   4.617  15.300 -0.2564  0.3336  0.4358
 5923SOL    HW129402   2.504   4.599  15.283 -0.0536  0.5427 -0.9061
 5923SOL    HW229403   2.607   4.693  15.356  0.6376 -1.8415  3.2195
 5924SOL     OW29404   3.325   4.293   2.305  0.2896 -0.0224 -0.2834
 5924SOL    HW129405   3.311   4.202   2.332 -2.3107  1.0879  2.0083
 5924SOL    HW229406   3.421   4.289   2.302  0.3361  0.3177  0.7782
 5925SOL     OW29407   2.633   0.436   6.516 -0.1941  0.7546  0.4707
 5925SOL    HW129408   2.716   0.423   6.560 -1.5038 -0.3052  2.6383
 5925SOL    HW229409   2.567   0.439   6.586 -0.7268  2.0284 -0.0890
 5926SOL     OW29410   1.862   1.233  12.342  0.4196 -0.2215  0.3061
 5926SOL    HW129411   1.788   1.264  12.394  0.6568  2.5718 -0.9955
 5926SOL    HW229412   1.838   1.268  12.256  1.0556  0.9372  0.5958
 5927SOL     OW29413   0.808   3.436  14.880 -0.6433 -0.5648  0.7922
 5927SOL    HW129414   0.853   3.472  14.957 -0.9014  0.4679  0.4631
 5927SOL    HW229415   0.777   3.517  14.840 -0.4673 -0.2420  1.3050
 5928SOL     OW29416   2.466   0.857   5.700  0.0426  0.9647  0.0641
 5928SOL    HW129417   2.398   0.843   5.635 -0.8725  2.7673  0.6531
 5928SOL    HW229418   2.483   0.950   5.690 -1.4296  0.8378 -3.6354
 5929SOL     OW29419   0.783   0.371   7.421  0.4033  0.1181 -0.2499
 5929SOL    HW129420   0.859   0.343   7.471 -0.5249 -1.6888  0.1670
 5929SOL    HW229421   0.757   0.448   7.473  0.5547  0.6929 -1.0205
 5930SOL     OW29422   2.429   4.219  16.416  0.5868 -0.2316  0.0714
 5930SOL    HW129423   2.379   4.278  16.360  0.3327 -0.4235  0.0936
 5930SOL    HW229424   2.421   4.259  16.503  1.4864  0.2370 -0.0686
 5931SOL     OW29425   0.510   4.519   3.753 -0.4064 -0.3589 -0.1109
 5931SOL    HW129426   0.593   4.528   3.706 -0.0269 -1.2386  0.3896
 5931SOL    HW229427   0.532   4.567   3.832 -0.1328  0.0857 -0.4596
 5932SOL     OW29428   2.711   1.808   7.714  0.4932  0.6186 -0.1069
 5932SOL    HW129429   2.806   1.804   7.703  0.2792 -1.3928 -1.3948
 5932SOL    HW229430   2.698   1.844   7.801  1.3681 -1.8970  1.0720
 5933SOL     OW29431   0.800   1.013  11.868 -0.3452 -0.1021 -0.5049
 5933SOL    HW129432   0.825   0.987  11.957 -0.7117 -1.2047 -0.7263
 5933SOL    HW229433   0.770   1.102  11.884  1.1043  0.5877 -1.6083
 5934SOL     OW29434   1.724   4.150   2.005  0.9280 -0.0459 -0.3959
 5934SOL    HW129435   1.753   4.099   2.081  3.4790  0.1974 -1.2226
 5934SOL    HW229436   1.786   4.223   2.004 -0.8255  1.4400 -0.4070
 5935SOL     OW29437   0.538   3.448   6.119  0.1335 -0.4646  0.7992
 5935SOL    HW129438   0.464   3.450   6.180  0.1217  0.6804  0.7523
 5935SOL    HW229439   0.607   3.470   6.181  1.2812 -0.3784 -0.5122
 5936SOL     OW29440   3.516   2.739  14.690 -0.3240  0.2710 -0.5077
 5936SOL    HW129441   3.554   2.782  14.766 -0.0275  0.8578 -0.9868
 5936SOL    HW229442   3.520   2.647  14.717  0.8460  0.7914  1.0798
 5937SOL     OW29443   4.119   2.774  13.450 -1.2778 -0.3554 -0.1257
 5937SOL    HW129444   4.068   2.818  13.383 -2.0891 -0.7985  0.2060
 5937SOL    HW229445   4.058   2.722  13.502 -0.2109 -1.8902 -0.3879
 5938SOL     OW29446   1.697   3.959   0.010 -0.1493 -0.5832 -0.3733
 5938SOL    HW129447   1.759   3.909   0.063 -1.3185  1.4115  2.8670
 5938SOL    HW229448   1.711   3.909  17.658 -1.1591 -1.5744  0.0568
 5939SOL     OW29449   4.644   0.821  14.412  0.4569 -0.0635 -0.2999
 5939SOL    HW129450   4.636   0.750  14.475 -2.2453  1.6798  1.3270
 5939SOL    HW229451   4.695   0.879  14.469 -0.8120  2.3447 -1.6282
 5940SOL     OW29452   2.608   2.193   9.030  0.3149  0.3807  0.1842
 5940SOL    HW129453   2.524   2.228   9.061  0.3798 -0.0665  0.8617
 5940SOL    HW229454   2.612   2.223   8.939  0.2947  0.2044  0.1252
 5941SOL     OW29455   2.522   0.304  15.530 -0.0018  0.0404 -0.2128
 5941SOL    HW129456   2.434   0.300  15.491  0.1779  0.0682 -0.6168
 5941SOL    HW229457   2.512   0.355  15.611 -4.3140 -1.3470  0.1366
 5942SOL     OW29458   1.106   2.991   2.791 -0.4283  0.0511 -0.3372
 5942SOL    HW129459   1.175   3.023   2.848 -1.7391  1.5789  0.3945
 5942SOL    HW229460   1.063   2.935   2.855  0.4791  1.4037  1.4403
 5943SOL     OW29461   0.303   3.883  12.939  0.2172 -0.0662  0.7744
 5943SOL    HW129462   0.264   3.954  12.888 -0.1871 -0.2930  0.7623
 5943SOL    HW229463   0.355   3.839  12.872 -1.2562  0.7961 -0.9371
 5944SOL     OW29464   0.509   0.148   2.259 -0.2453  0.4490 -0.3218
 5944SOL    HW129465   0.472   0.106   2.336  0.0711  0.0254 -0.4025
 5944SOL    HW229466   0.461   0.231   2.259 -0.5551  0.2774 -1.8230
 5945SOL     OW29467   2.543   4.307   3.079  0.4950  0.2706 -0.2000
 5945SOL    HW129468   2.475   4.277   3.140 -0.1718  1.4930 -0.3477
 5945SOL    HW229469   2.493   4.311   2.998 -0.4058  0.8332  0.3848
 5946SOL     OW29470   1.963   3.955  10.688  0.3650  0.1656 -0.1885
 5946SOL    HW129471   1.892   4.017  10.673 -0.3489 -0.9767 -1.4566
 5946SOL    HW229472   1.953   3.909  10.605  0.7281  1.6449 -1.0518
 5947SOL     OW29473   4.087   1.014   3.291  0.4422 -0.5127 -0.3614
 5947SOL    HW129474   4.027   1.020   3.366 -0.8587  1.9759 -1.5903
 5947SOL    HW229475   4.129   1.099   3.305 -1.1670  0.4259 -1.1619
 5948SOL     OW29476   1.152   4.585   2.716  0.0956  0.0304  0.2388
 5948SOL    HW129477   1.082   4.618   2.772 -0.1143 -0.6049  0.3445
 5948SOL    HW229478   1.143   4.490   2.713 -0.5850  0.0583  1.3590
 5949SOL     OW29479   0.714   2.404   2.326 -0.2563  0.4208 -0.1428
 5949SOL    HW129480   0.665   2.322   2.325 -0.1445  0.2938  3.5773
 5949SOL    HW229481   0.747   2.402   2.416  0.4140 -0.7511 -0.4153
 5950SOL     OW29482   0.634   0.093  12.577  0.3185 -0.0809  0.4635
 5950SOL    HW129483   0.621   0.169  12.633  0.2069  1.1215 -1.1935
 5950SOL    HW229484   0.547   0.053  12.580 -0.1481  0.9584  0.7113
 5951SOL     OW29485   2.736   2.411   3.268  0.1032 -0.0957  0.1879
 5951SOL    HW129486   2.680   2.366   3.331  2.1922  1.4208  3.1400
 5951SOL    HW229487   2.823   2.412   3.307  0.3916  0.5765 -0.4622
 5952SOL     OW29488   1.020   1.456   7.945 -0.0182  0.1539  0.0374
 5952SOL    HW129489   1.110   1.486   7.959 -0.2041  0.1307  1.2437
 5952SOL    HW229490   1.024   1.398   8.021 -0.3523 -0.7663 -0.6371
 5953SOL     OW29491   2.675   1.154  11.398  0.5998 -0.2565  0.6055
 5953SOL    HW129492   2.648   1.245  11.394  1.4291 -0.0851 -1.1814
 5953SOL    HW229493   2.769   1.153  11.411  0.8290 -0.9887 -1.0624
 5954SOL     OW29494   2.103   2.805   5.423  0.0933 -0.6215  0.3351
 5954SOL    HW129495   2.069   2.893   5.437  0.8830 -0.4103  0.9136
 5954SOL    HW229496   2.128   2.783   5.513 -1.1295 -1.5247  0.4522
 5955SOL     OW29497   4.244   3.318   2.298  0.3970 -0.0268 -0.5531
 5955SOL    HW129498   4.236   3.237   2.248  1.8592 -0.1925 -0.5127
 5955SOL    HW229499   4.155   3.353   2.289 -0.5268 -1.4780  3.0007
 5956SOL     OW29500   4.656   3.962   5.714  0.1511  0.1079 -0.8216
 5956SOL    HW129501   4.606   3.958   5.632 -1.1388 -0.9422  0.0049
 5956SOL    HW229502   0.002   3.926   5.671  0.0418 -1.8376  0.6202
 5957SOL     OW29503   3.641   3.106   3.941 -0.3363 -0.2648 -0.3757
 5957SOL    HW129504   3.709   3.089   3.876  1.2351  2.2181  0.6016
 5957SOL    HW229505   3.632   3.020   3.982  1.2355  0.4759  1.5132
 5958SOL     OW29506   3.675   0.251   5.520 -0.3168 -0.5330  0.0207
 5958SOL    HW129507   3.713   0.230   5.435 -0.8150 -0.8026 -0.1357
 5958SOL    HW229508   3.614   0.317   5.488  2.1328  1.1213 -1.1987
 5959SOL     OW29509   1.390   2.627   4.716 -0.0535  0.1327  0.2502
 5959SOL    HW129510   1.427   2.694   4.658  0.3983  0.4347  0.8952
 5959SOL    HW229511   1.451   2.555   4.700  2.1405  1.2235  3.8193
 5960SOL     OW29512   1.571   2.989   9.649 -0.3372  0.1910  0.0478
 5960SOL    HW129513   1.578   2.906   9.601 -0.2867  0.0274  0.3349
 5960SOL    HW229514   1.610   3.056   9.594  0.5261 -1.1469 -0.9686
 5961SOL     OW29515   2.249   3.180   0.415  0.2520  0.0469  0.0759
 5961SOL    HW129516   2.330   3.168   0.466  0.9848 -0.1419 -1.1360
 5961SOL    HW229517   2.212   3.092   0.408 -0.3231  0.2343  0.8101
 5962SOL     OW29518   2.319   4.685   2.184 -0.6526 -0.1168 -0.6423
 5962SOL    HW129519   2.410   4.675   2.210 -0.6337  0.0605 -0.6373
 5962SOL    HW229520   2.331   4.688   2.089 -0.2125 -0.4107 -0.5946
 5963SOL     OW29521   2.697   2.583   3.998 -0.0074  0.3746  0.0859
 5963SOL    HW129522   2.628   2.635   3.956 -0.2321  0.2488  0.2957
 5963SOL    HW229523   2.748   2.568   3.919  0.2391  0.4453  0.2323
 5964SOL     OW29524   3.413   0.963   2.753  0.3308 -0.1640 -0.5446
 5964SOL    HW129525   3.440   0.906   2.681 -1.3159 -3.1777  1.2182
 5964SOL    HW229526   3.371   0.896   2.807  2.9257 -0.5737  0.9393
 5965SOL     OW29527   1.190   0.436   6.237 -0.3568  0.1216  0.0090
 5965SOL    HW129528   1.132   0.379   6.186 -1.7112 -0.2379  1.9339
 5965SOL    HW229529   1.247   0.376   6.286  1.7217  1.3069 -0.9489
 5966SOL     OW29530   2.384   1.671   8.565 -0.4080  0.1697 -0.6662
 5966SOL    HW129531   2.452   1.724   8.607  0.3178 -3.0210  2.2540
 5966SOL    HW229532   2.307   1.725   8.550 -0.7769  0.0617  0.8510
 5967SOL     OW29533   2.175   2.982   7.547 -0.0345 -0.6732  0.2984
 5967SOL    HW129534   2.196   2.888   7.546  3.5949  0.1568 -0.1287
 5967SOL    HW229535   2.256   3.012   7.588 -0.0529  0.1438 -0.2734
 5968SOL     OW29536   3.492   0.972  10.879  0.5146  0.4939 -0.0917
 5968SOL    HW129537   3.482   1.017  10.795 -1.5612  0.6758  0.2393
 5968SOL    HW229538   3.499   0.884  10.841 -1.5350  0.0164  0.6345
 5969SOL     OW29539   4.053   2.739   6.463  0.9396  0.5739 -0.0789
 5969SOL    HW129540   3.970   2.695   6.444  0.6226  0.7330  0.9557
 5969SOL    HW229541   4.077   2.781   6.380  2.3786  0.1314  0.1269
 5970SOL     OW29542   4.621   4.498   6.069  0.7251 -0.4202  0.4036
 5970SOL    HW129543   4.689   4.479   6.004  0.7965 -0.1306  0.3952
 5970SOL    HW229544   4.575   4.414   6.072 -1.4466  0.7658  0.4612
 5971SOL     OW29545   0.796   1.719   6.243 -0.3918  0.9393 -0.3163
 5971SOL    HW129546   0.891   1.707   6.251 -0.4738  1.5584  1.4574
 5971SOL    HW229547   0.772   1.654   6.308 -1.1496  0.4140 -1.1281
 5972SOL     OW29548   2.983   2.278   1.066  0.1167  0.8979 -0.2124
 5972SOL    HW129549   3.008   2.233   0.985  0.0784  1.4321 -0.5208
 5972SOL    HW229550   2.941   2.357   1.033  1.3608  0.8711 -1.9080
 5973SOL     OW29551   4.001   2.464  11.020 -0.3863  0.2260 -0.2597
 5973SOL    HW129552   4.004   2.539  11.080 -0.0986  0.0407 -0.0404
 5973SOL    HW229553   4.068   2.503  10.964  0.7389  0.6082  1.3538
 5974SOL     OW29554   0.242   0.087   8.548  0.3659  0.1686 -0.8156
 5974SOL    HW129555   0.194   0.078   8.630  2.0231 -0.8643  0.0726
 5974SOL    HW229556   0.294   0.163   8.576  0.5018  0.7169 -2.5529
 5975SOL     OW29557   1.160   3.894   6.663 -0.6265 -0.6268 -0.6466
 5975SOL    HW129558   1.099   3.968   6.658 -0.9618 -0.8584  0.0717
 5975SOL    HW229559   1.248   3.931   6.654  0.1081 -2.1576  0.2911
 5976SOL     OW29560   2.557   0.835   4.147  0.2403  0.1969 -0.3979
 5976SOL    HW129561   2.511   0.876   4.220 -0.5246  0.7457 -1.1803
 5976SOL    HW229562   2.533   0.902   4.084 -0.1664  0.3490 -0.0828
 5977SOL     OW29563   2.639   0.580  12.366 -0.3796 -0.3523  0.2018
 5977SOL    HW129564   2.544   0.587  12.376 -0.5415  0.6799 -2.0837
 5977SOL    HW229565   2.643   0.573  12.271  0.7805  2.1475  0.0675
 5978SOL     OW29566   0.963   1.030   6.315  0.3688  0.0618  0.0074
 5978SOL    HW129567   0.903   1.044   6.242 -0.6472 -2.7159  0.2834
 5978SOL    HW229568   0.897   1.002   6.379  1.7412 -2.2344  0.4195
 5979SOL     OW29569   3.939   1.425   5.970  0.6363  0.3789  0.5458
 5979SOL    HW129570   3.901   1.502   6.011 -1.2436  0.2638 -0.9763
 5979SOL    HW229571   3.913   1.442   5.879  0.8333 -1.7089  0.0915
 5980SOL     OW29572   2.195   2.162   7.636  0.2780 -0.0110  0.1077
 5980SOL    HW129573   2.213   2.198   7.550 -3.4015 -1.7498 -1.3870
 5980SOL    HW229574   2.260   2.202   7.694 -0.8379 -1.4891  2.4168
 5981SOL     OW29575   4.657   0.415   0.810 -0.2904  0.5388 -0.2167
 5981SOL    HW129576   0.014   0.406   0.844 -0.0646  0.5175 -0.8106
 5981SOL    HW229577   4.628   0.324   0.808 -0.9916  0.8491 -3.4661
 5982SOL     OW29578   0.472   0.915   3.040 -0.1167 -0.2695 -0.2106
 5982SOL    HW129579   0.427   0.990   3.080  1.5908 -0.4512  2.0219
 5982SOL    HW229580   0.533   0.886   3.108 -0.2444 -2.2619 -0.9712
 5983SOL     OW29581   0.293   1.149   8.092  0.3880 -0.6824  0.4435
 5983SOL    HW129582   0.279   1.188   8.179  2.7741 -0.9853  0.9770
 5983SOL    HW229583   0.382   1.179   8.072 -0.5371  2.6486  1.2458
 5984SOL     OW29584   3.442   0.022  14.256  0.0974  0.7611  0.1607
 5984SOL    HW129585   3.462   0.072  14.177  0.7038  0.4472  0.1148
 5984SOL    HW229586   3.376   0.081  14.293 -2.9638 -2.8619  0.5322
 5985SOL     OW29587   2.720   2.735  14.428 -0.5781  1.0849  0.0040
 5985SOL    HW129588   2.781   2.670  14.464  0.4272  2.0396  0.0232
 5985SOL    HW229589   2.768   2.769  14.353 -0.5846  0.1832 -0.4046
 5986SOL     OW29590   1.002   2.125  13.262 -0.0535 -0.4779  0.6444
 5986SOL    HW129591   0.937   2.064  13.298 -0.2063 -0.3655  0.5580
 5986SOL    HW229592   0.998   2.193  13.329  0.1542 -0.5780  0.7581
 5987SOL     OW29593   0.451   0.123   8.155 -0.5581  0.4402 -0.1681
 5987SOL    HW129594   0.476   0.215   8.147  0.7659  0.0698 -0.2253
 5987SOL    HW229595   0.468   0.102   8.247 -0.0380 -1.7437 -0.7715
 5988SOL     OW29596   2.892   3.715  10.716  0.1570  0.9132  0.4879
 5988SOL    HW129597   2.874   3.749  10.628  1.7529 -1.6958 -0.8307
 5988SOL    HW229598   2.803   3.717  10.751  0.5439  0.7448  1.4657
 5989SOL     OW29599   2.480   3.725   7.295 -0.2322  0.3756 -0.2630
 5989SOL    HW129600   2.395   3.731   7.338 -0.6856 -0.0477 -1.1224
 5989SOL    HW229601   2.536   3.723   7.373 -1.6250 -0.5391  0.7050
 5990SOL     OW29602   2.672   3.108   7.246  0.1492  0.0661  0.1866
 5990SOL    HW129603   2.692   3.201   7.234  0.2037 -0.1720 -1.5887
 5990SOL    HW229604   2.648   3.106   7.339  0.3215 -3.3779  0.1626
 5991SOL     OW29605   4.726   3.361   3.460 -0.1892 -0.3918  0.2275
 5991SOL    HW129606   4.675   3.407   3.527  0.2969 -0.6197  0.7470
 5991SOL    HW229607   4.699   3.401   3.376 -0.5092  0.2011  0.6091
 5992SOL     OW29608   4.569   1.580   5.141 -0.7520 -0.0020 -0.5003
 5992SOL    HW129609   4.533   1.652   5.089 -3.5338 -1.1194 -0.1103
 5992SOL    HW229610   4.489   1.549   5.182  0.8823 -1.0245  1.9303
 5993SOL     OW29611   1.025   1.051   8.793 -0.0392  0.0169 -0.1595
 5993SOL    HW129612   1.053   0.960   8.798 -0.6827 -0.2269 -0.9078
 5993SOL    HW229613   0.942   1.038   8.839  0.9091  1.2152  1.8695
 5994SOL     OW29614   2.899   3.237   2.542 -0.7349  0.2741  0.2594
 5994SOL    HW129615   2.992   3.217   2.548 -0.4999  1.2362 -0.2117
 5994SOL    HW229616   2.863   3.160   2.586 -0.0626  1.3019  2.5913
 5995SOL     OW29617   0.154   0.094   6.570 -0.1110  0.0305  0.3015
 5995SOL    HW129618   0.070   0.059   6.541  0.4734 -1.7438  0.7342
 5995SOL    HW229619   0.190   0.141   6.495  1.5398 -1.1509  0.3423
 5996SOL     OW29620   2.631   0.003  15.016  0.1314  0.3454 -0.1990
 5996SOL    HW129621   2.603   4.721  15.107  2.0857 -0.0928  0.3375
 5996SOL    HW229622   2.690   4.660  15.018  0.2686  0.3936 -2.1969
 5997SOL     OW29623   0.902   2.902   9.316 -0.2162  0.0507 -0.2187
 5997SOL    HW129624   0.867   2.973   9.263  1.9485  1.8759  0.7902
 5997SOL    HW229625   0.820   2.862   9.344  0.2088  0.2825  1.3871
 5998SOL     OW29626   1.906   3.240  17.718  0.1625  0.3492 -0.1925
 5998SOL    HW129627   1.881   3.333  17.715  0.9724  0.5537 -0.5610
 5998SOL    HW229628   1.833   3.197   0.034  0.2555  1.4221  1.0020
 5999SOL     OW29629   4.707   3.139   5.605  0.3474 -0.5800  0.2776
 5999SOL    HW129630   0.048   3.141   5.666  0.3076  0.0943  0.2960
 5999SOL    HW229631   4.726   3.054   5.565 -1.8432 -0.3940 -1.1761
 6000SOL     OW29632   0.753   3.858   7.465 -0.0802 -0.0515 -0.2722
 6000SOL    HW129633   0.747   3.892   7.555  0.0383  1.7323 -0.9419
 6000SOL    HW229634   0.753   3.762   7.474 -1.5192  0.1146  1.7411
 6001SOL     OW29635   3.185   3.691   9.141 -0.1385 -0.3731 -0.4539
 6001SOL    HW129636   3.241   3.615   9.154 -0.8419 -0.8321 -0.1199
 6001SOL    HW229637   3.098   3.653   9.144  0.0876 -0.6862  1.7447
 6002SOL     OW29638   3.885   3.742  10.396 -0.3732 -0.0446 -0.5323
 6002SOL    HW129639   3.879   3.832  10.429  0.1654  0.3026 -1.3832
 6002SOL    HW229640   3.804   3.729  10.347 -1.2650  0.6070  0.7771
 6003SOL     OW29641   3.798   0.480   4.227 -0.1468  0.1061  0.3143
 6003SOL    HW129642   3.883   0.522   4.216  0.2690 -0.5407  1.1178
 6003SOL    HW229643   3.806   0.441   4.314 -0.3652 -1.1909 -0.2406
 6004SOL     OW29644   1.126   4.497   3.994 -0.2191 -0.0500 -0.0840
 6004SOL    HW129645   1.149   4.454   4.077  0.5990 -0.8854 -0.7414
 6004SOL    HW229646   1.195   4.564   3.991  0.4449 -0.7455 -0.5468
 6005SOL     OW29647   3.250   1.220  10.648  0.2084  0.1019  0.0960
 6005SOL    HW129648   3.302   1.264  10.715  0.7764  2.7834 -2.0782
 6005SOL    HW229649   3.169   1.196  10.693  0.9707 -0.9986  0.8866
 6006SOL     OW29650   4.156   2.002   8.801  0.5118 -0.2668 -0.5451
 6006SOL    HW129651   4.103   1.979   8.724  0.4468 -0.4802 -0.4358
 6006SOL    HW229652   4.181   1.917   8.836  1.1191  0.5779  1.0659
 6007SOL     OW29653   2.405   0.625   6.042  0.3100  0.0353  0.2961
 6007SOL    HW129654   2.482   0.599   5.992 -0.6136  0.4110 -1.3124
 6007SOL    HW229655   2.338   0.627   5.974 -0.3327 -1.1171  0.8934
 6008SOL     OW29656   3.212   2.408   6.990 -0.1730 -0.7716  0.4122
 6008SOL    HW129657   3.125   2.430   6.958  0.9217  3.0584  0.0993
 6008SOL    HW229658   3.185   2.398   7.081  0.8144 -1.6899  0.6128
 6009SOL     OW29659   4.726   0.374  16.462 -0.1097  0.1628  0.2924
 6009SOL    HW129660   0.022   0.445  16.520 -1.6685  1.9192 -1.1141
 6009SOL    HW229661   4.653   0.343  16.515 -1.2995 -0.0295 -1.4766
 6010SOL     OW29662   3.716   3.119   3.247  0.4565  0.2565 -0.4267
 6010SOL    HW129663   3.635   3.137   3.296  1.3072 -0.0435  1.0920
 6010SOL    HW229664   3.751   3.044   3.295 -0.0080 -0.6287 -1.4771
 6011SOL     OW29665   4.151   4.354  15.410 -0.0137  0.2292 -0.7409
 6011SOL    HW129666   4.177   4.266  15.383 -1.6575 -0.2925 -0.6247
 6011SOL    HW229667   4.058   4.337  15.425 -0.3399  2.5912 -0.0722
 6012SOL     OW29668   2.203   4.054   6.766  0.2707  0.1063 -0.0299
 6012SOL    HW129669   2.130   4.002   6.735  0.3083 -0.4069  0.7634
 6012SOL    HW229670   2.274   3.994   6.743 -0.3172 -0.2680 -0.8582
 6013SOL     OW29671   2.602   1.390  17.295  0.2633  0.8023  0.1523
 6013SOL    HW129672   2.601   1.298  17.318  0.9704  1.1539  1.5571
 6013SOL    HW229673   2.510   1.417  17.304  0.6568  1.4417  2.0696
 6014SOL     OW29674   3.601   2.406   2.891  0.8365 -0.1736 -0.6178
 6014SOL    HW129675   3.644   2.484   2.925 -1.3574  0.7664 -0.0199
 6014SOL    HW229676   3.660   2.364   2.829  0.8020 -0.0735 -0.7169
 6015SOL     OW29677   4.255   2.502  14.500  0.4490 -0.3579  0.1883
 6015SOL    HW129678   4.222   2.489  14.411 -2.1228  0.4277  1.0238
 6015SOL    HW229679   4.348   2.495  14.482 -0.0672 -3.0256 -1.4497
 6016SOL     OW29680   3.495   3.478   3.398 -0.5254  0.1135  0.3642
 6016SOL    HW129681   3.516   3.537   3.470 -1.2364 -0.2507  0.8767
 6016SOL    HW229682   3.473   3.539   3.328 -0.2304 -0.9943 -0.7073
 6017SOL     OW29683   3.238   3.530  15.280 -0.1984  0.0843 -0.4888
 6017SOL    HW129684   3.187   3.449  15.285 -0.1317  0.2056  2.3655
 6017SOL    HW229685   3.237   3.533  15.184  1.7782  1.7699 -0.4604
 6018SOL     OW29686   1.257   2.682   2.827 -0.3068  0.1665 -0.2625
 6018SOL    HW129687   1.308   2.629   2.765  0.3398  0.2597  0.1911
 6018SOL    HW229688   1.177   2.632   2.814  0.4533 -0.5451 -2.3524
 6019SOL     OW29689   0.897   3.152   9.186 -0.5132 -0.1986  0.1151
 6019SOL    HW129690   0.987   3.182   9.186 -0.2727 -0.9694 -2.4673
 6019SOL    HW229691   0.841   3.228   9.168 -0.3671 -0.3291 -0.8955
 6020SOL     OW29692   3.607   4.208   9.347  0.5164 -0.4015 -0.9443
 6020SOL    HW129693   3.689   4.206   9.396 -0.8314 -0.0388  1.3423
 6020SOL    HW229694   3.557   4.130   9.374 -1.6632  1.9103  1.6707
 6021SOL     OW29695   3.581   3.018   2.168  0.0815 -0.2688  0.0712
 6021SOL    HW129696   3.537   3.091   2.212 -0.6409  0.3861 -1.6979
 6021SOL    HW229697   3.660   3.004   2.219  0.5651 -0.2157 -0.6617
 6022SOL     OW29698   0.723   0.525  11.520  0.2541  0.1380  0.2569
 6022SOL    HW129699   0.718   0.582  11.597  0.5557 -1.6671  1.6057
 6022SOL    HW229700   0.646   0.559  11.474 -0.0700 -0.2886  0.4838
 6023SOL     OW29701   1.269   2.703  13.532 -0.4002  0.0946 -0.0530
 6023SOL    HW129702   1.217   2.624  13.518 -0.2736  0.1101 -0.6235
 6023SOL    HW229703   1.195   2.755  13.565  1.3751  0.7168  2.8525
 6024SOL     OW29704   2.009   1.169   0.118  0.0583 -0.3011  0.3014
 6024SOL    HW129705   2.035   1.171   0.210  1.6535 -1.4233 -0.1167
 6024SOL    HW229706   2.096   1.182   0.080  1.1833 -0.9948  2.6197
 6025SOL     OW29707   4.690   4.021   4.796  0.0395  0.0341 -0.0656
 6025SOL    HW129708   4.696   3.997   4.889 -3.2771  1.8835  0.6559
 6025SOL    HW229709   4.639   3.948   4.761 -0.7490  0.5242  0.0462
 6026SOL     OW29710   0.005   2.224   3.886 -0.3677 -0.0594  0.1413
 6026SOL    HW129711   4.707   2.276   3.811 -0.7429  0.0983  0.4013
 6026SOL    HW229712   4.663   2.232   3.946 -0.0806 -0.3558  0.5325
 6027SOL     OW29713   0.322   4.331   6.316 -0.7767 -1.1228 -0.3779
 6027SOL    HW129714   0.269   4.381   6.378  2.2654  3.2197 -1.2720
 6027SOL    HW229715   0.310   4.381   6.235 -0.4994  1.5444  1.2227
 6028SOL     OW29716   0.510   2.973  10.136  0.4021 -0.1637 -0.1658
 6028SOL    HW129717   0.424   2.948  10.101  1.2843 -3.8805  0.3166
 6028SOL    HW229718   0.571   2.941  10.069 -2.7504 -1.9667 -2.1968
 6029SOL     OW29719   3.516   1.817  12.083 -0.0117  0.4361 -0.3410
 6029SOL    HW129720   3.552   1.870  12.012  0.5987  1.2069  0.5405
 6029SOL    HW229721   3.422   1.831  12.072 -0.0221 -0.1928 -1.0210
 6030SOL     OW29722   0.349   1.618   9.073  0.5048  0.5507 -0.6558
 6030SOL    HW129723   0.283   1.623   9.142 -0.1965  1.0242 -1.3572
 6030SOL    HW229724   0.306   1.632   8.989 -0.2888 -0.1808 -0.3655
 6031SOL     OW29725   0.673   3.152   1.766  0.0657  0.0107 -0.4180
 6031SOL    HW129726   0.581   3.160   1.789  0.1375  2.5659 -0.9882
 6031SOL    HW229727   0.662   3.080   1.704  2.0363  1.5319 -2.5749
 6032SOL     OW29728   4.586   2.402  15.257  0.5085 -0.6047 -0.2324
 6032SOL    HW129729   4.607   2.459  15.183 -0.3837 -0.5059 -0.4149
 6032SOL    HW229730   4.605   2.458  15.332  2.3641 -0.2025 -1.0086
 6033SOL     OW29731   1.513   2.383   4.653  0.0287  0.5382  0.3612
 6033SOL    HW129732   1.595   2.407   4.612 -0.1982 -0.1276 -0.4714
 6033SOL    HW229733   1.477   2.303   4.614  0.4529 -0.4277  1.9553
 6034SOL     OW29734   2.080   0.499  14.137  0.2854  0.5847  0.7875
 6034SOL    HW129735   2.004   0.522  14.189 -1.8465 -0.8397 -1.6998
 6034SOL    HW229736   2.041   0.436  14.075  1.3665 -0.8111  1.5120
 6035SOL     OW29737   3.893   0.575   5.809 -0.0879  0.2437 -0.6465
 6035SOL    HW129738   3.850   0.496   5.842  1.5081 -0.7945 -1.0635
 6035SOL    HW229739   3.978   0.548   5.774  0.1457  0.4215 -0.2098
 6036SOL     OW29740   1.867   4.265   4.192  0.1981  0.3338  0.4209
 6036SOL    HW129741   1.913   4.184   4.216  2.3807  1.5665  0.3211
 6036SOL    HW229742   1.944   4.317   4.170  0.3745 -0.1981 -0.2304
 6037SOL     OW29743   3.259   0.432   2.470  0.8358 -0.3562 -0.5346
 6037SOL    HW129744   3.305   0.348   2.473  2.1235  0.3031 -2.0176
 6037SOL    HW229745   3.169   0.400   2.473  0.4678  0.8227  1.4184
 6038SOL     OW29746   3.025   2.058   9.742 -0.1924 -0.8904  0.8965
 6038SOL    HW129747   3.106   2.108   9.731  1.0531 -3.1660 -0.1900
 6038SOL    HW229748   3.058   1.993   9.803 -3.8967 -1.3381  2.3826
 6039SOL     OW29749   2.046   4.523  16.072 -0.4843  0.3516  0.6645
 6039SOL    HW129750   1.960   4.532  16.114 -0.6604  0.3216  0.3090
 6039SOL    HW229751   2.026   4.471  15.994  1.5887 -0.1323  0.4812
 6040SOL     OW29752   3.091   0.726  10.540 -0.7012  0.0436 -0.7168
 6040SOL    HW129753   3.067   0.778  10.617 -2.5062 -2.5314  0.4527
 6040SOL    HW229754   3.141   0.790  10.490  0.2972 -1.1227 -1.2125
 6041SOL     OW29755   0.811   3.076  12.027  0.0615  0.3045  0.6027
 6041SOL    HW129756   0.817   3.095  11.933  0.7971 -2.8385 -0.0017
 6041SOL    HW229757   0.760   3.144  12.070  0.9432  2.6933 -2.1109
 6042SOL     OW29758   0.612   0.316   5.172 -0.1233  0.3991 -0.5678
 6042SOL    HW129759   0.554   0.242   5.187 -0.0816  0.3439 -0.6806
 6042SOL    HW229760   0.676   0.296   5.240 -1.4662 -2.2587 -0.0719
 6043SOL     OW29761   0.833   3.361   4.247  0.2757 -0.3236  0.0596
 6043SOL    HW129762   0.781   3.441   4.255 -0.4404 -0.8280  0.4575
 6043SOL    HW229763   0.793   3.308   4.178  0.9152 -0.9497  0.1780
 6044SOL     OW29764   2.089   4.429   4.134  0.6386  0.3360 -0.0317
 6044SOL    HW129765   2.075   4.479   4.054  0.2027 -0.3560 -0.3876
 6044SOL    HW229766   2.120   4.495   4.196  3.0747 -0.0449 -0.8666
 6045SOL     OW29767   3.148   3.276   7.067  0.0552  0.0354  0.0219
 6045SOL    HW129768   3.186   3.316   6.988 -0.9237  1.2981  0.2011
 6045SOL    HW229769   3.130   3.191   7.025 -0.8141  2.1389 -3.8521
 6046SOL     OW29770   1.250   1.890  10.243  0.3536  0.3743 -0.1291
 6046SOL    HW129771   1.195   1.838  10.302 -0.8854  0.1343 -1.4797
 6046SOL    HW229772   1.180   1.910  10.180 -2.6534 -2.4479  2.2479
 6047SOL     OW29773   2.702   1.416   3.118 -0.0142 -0.5886 -0.3538
 6047SOL    HW129774   2.691   1.321   3.130 -1.0605 -0.4464 -0.2047
 6047SOL    HW229775   2.727   1.439   3.207  2.8311 -3.0992 -0.4902
 6048SOL     OW29776   1.922   1.330  11.691 -0.5110  0.2832  0.5983
 6048SOL    HW129777   1.966   1.272  11.754  1.6357  1.5204  0.2268
 6048SOL    HW229778   1.983   1.404  11.686  0.3930 -0.4215  1.2727
 6049SOL     OW29779   0.624   0.505   7.954 -0.5229 -0.1308 -0.0579
 6049SOL    HW129780   0.605   0.481   7.863 -0.0150  1.6638 -0.6458
 6049SOL    HW229781   0.718   0.523   7.956 -0.8327  1.6054 -0.5939
 6050SOL     OW29782   0.283   3.727   7.322 -0.3784  0.3146  0.1452
 6050SOL    HW129783   0.212   3.756   7.264 -0.0599 -1.7342 -1.2715
 6050SOL    HW229784   0.278   3.782   7.400 -1.0022 -0.1681  0.4455
 6051SOL     OW29785   0.702   1.404   5.180  0.2555  0.3203  0.1302
 6051SOL    HW129786   0.789   1.444   5.177 -0.7910  2.7084  1.0931
 6051SOL    HW229787   0.652   1.435   5.104 -1.0221  0.7434  1.1447
 6052SOL     OW29788   3.393   0.179   0.573 -0.2686 -0.3872 -0.4903
 6052SOL    HW129789   3.401   0.272   0.593  1.8613 -0.4511 -1.0708
 6052SOL    HW229790   3.299   0.162   0.579 -0.4982  1.2316  0.4018
 6053SOL     OW29791   1.822   4.694   4.354  0.4925 -0.0906 -0.2023
 6053SOL    HW129792   1.749   0.001   4.305  0.1791 -1.2330 -0.6505
 6053SOL    HW229793   1.870   0.033   4.395  1.4705  0.2166 -1.8508
 6054SOL     OW29794   3.817   0.340   4.473  0.5441 -0.1382 -0.3246
 6054SOL    HW129795   3.777   0.326   4.558 -0.1455 -2.4429 -1.0341
 6054SOL    HW229796   3.777   0.268   4.425 -1.9388 -0.3722  2.1637
 6055SOL     OW29797   2.017   3.071   0.816 -0.2130 -0.1038  0.2964
 6055SOL    HW129798   2.037   3.015   0.741 -0.1804  2.2991 -1.4901
 6055SOL    HW229799   2.103   3.108   0.837 -1.3081  2.1855  0.7598
 6056SOL     OW29800   0.839   3.864   6.283  0.2899 -0.0890  0.0553
 6056SOL    HW129801   0.789   3.827   6.210  2.4089 -1.3079 -0.7939
 6056SOL    HW229802   0.925   3.884   6.245  0.8111 -0.1918  1.2048
 6057SOL     OW29803   4.611   0.210  14.020  0.8360  0.2177 -0.2304
 6057SOL    HW129804   4.680   0.153  13.986 -0.6340 -1.3779 -0.5037
 6057SOL    HW229805   4.652   0.295  14.039  0.5810  0.1963  0.4032
 6058SOL     OW29806   1.077   3.369   5.254 -0.0721 -0.1962  0.1018
 6058SOL    HW129807   1.076   3.376   5.350 -2.4775 -0.0139  0.0688
 6058SOL    HW229808   1.111   3.452   5.221 -1.7783  1.1185  1.6116
 6059SOL     OW29809   0.209   3.524   4.966 -0.3625  0.0324  0.5156
 6059SOL    HW129810   0.141   3.470   4.926 -0.3625  1.1376 -1.0001
 6059SOL    HW229811   0.283   3.500   4.910  0.6890  1.4018  1.3179
 6060SOL     OW29812   3.122   0.889   6.927 -0.1691  0.3343  0.1795
 6060SOL    HW129813   3.108   0.821   6.993  0.3926 -0.2257 -0.2850
 6060SOL    HW229814   3.196   0.939   6.961  1.0260 -0.0341 -1.9171
 6061SOL     OW29815   2.865   3.646   0.673  0.6521 -0.1070 -0.2294
 6061SOL    HW129816   2.958   3.662   0.664  0.7431  0.1465  1.0540
 6061SOL    HW229817   2.851   3.555   0.645 -1.2340  0.2966 -0.6397
 6062SOL     OW29818   2.168   3.734  11.517 -0.0222  0.1460  0.4365
 6062SOL    HW129819   2.216   3.657  11.547 -0.1634 -0.7052 -1.5363
 6062SOL    HW229820   2.160   3.718  11.423 -2.1707 -2.4743  1.0608
 6063SOL     OW29821   1.908   2.870   8.468  0.5195  0.4014  0.1865
 6063SOL    HW129822   1.830   2.860   8.413  2.7235  0.0086 -2.8747
 6063SOL    HW229823   1.878   2.809   8.535 -0.6922  0.2299 -0.5165
 6064SOL     OW29824   2.032   1.128   0.873 -0.1854 -0.3799  0.2374
 6064SOL    HW129825   1.985   1.046   0.857 -1.2230  0.4789 -1.1123
 6064SOL    HW229826   2.115   1.102   0.914 -1.0061 -2.2271  0.6994
 6065SOL     OW29827   0.322   4.054   6.285  0.0944 -0.0485 -0.4442
 6065SOL    HW129828   0.319   4.149   6.275  1.5505  0.0775  0.3641
 6065SOL    HW229829   0.258   4.039   6.355  0.7147 -0.5406  0.0154
 6066SOL     OW29830   2.799   3.439   8.808 -0.5935 -0.0433 -0.0129
 6066SOL    HW129831   2.764   3.352   8.789  0.9586 -0.3024 -1.7224
 6066SOL    HW229832   2.891   3.411   8.813  0.0361  1.6663 -1.9575
 6067SOL     OW29833   3.130   0.657  12.645  0.1304 -0.3733  0.3540
 6067SOL    HW129834   3.172   0.740  12.622  1.3882 -0.8177  1.0029
 6067SOL    HW229835   3.194   0.596  12.608  0.3751 -1.4965  2.5921
 6068SOL     OW29836   4.439   0.979   4.565 -0.4402  0.4261  0.6288
 6068SOL    HW129837   4.422   0.944   4.652 -0.1179 -0.6263  0.2677
 6068SOL    HW229838   4.533   0.982   4.549 -0.4332  0.2007  0.6234
 6069SOL     OW29839   1.249   4.667   8.431 -0.7761  0.3080  0.2895
 6069SOL    HW129840   1.275   4.613   8.505 -0.5543 -0.7233 -0.5454
 6069SOL    HW229841   1.240   4.607   8.357 -0.8776 -0.1741  0.6991
 6070SOL     OW29842   1.724   1.137   8.325 -0.7375  0.2071 -0.1899
 6070SOL    HW129843   1.812   1.170   8.306 -1.5329  1.8339 -1.0324
 6070SOL    HW229844   1.732   1.093   8.410 -0.2588  0.3408 -0.1693
 6071SOL     OW29845   0.043   1.740   1.563 -0.1051 -0.1509 -0.4254
 6071SOL    HW129846   4.689   1.706   1.537  0.1490 -0.7569 -0.4745
 6071SOL    HW229847   0.107   1.688   1.515  0.2080  0.6219 -0.8404
 6072SOL     OW29848   2.097   1.628  12.641 -0.3585 -0.2307  0.7650
 6072SOL    HW129849   2.114   1.722  12.630 -4.1079  0.3891  0.0621
 6072SOL    HW229850   2.109   1.628  12.736 -0.1517  0.8507  0.7449
 6073SOL     OW29851   2.943   4.122  13.555  0.1727  0.3772 -0.0203
 6073SOL    HW129852   2.872   4.057  13.557  1.4710 -0.9721  2.1937
 6073SOL    HW229853   2.903   4.208  13.541 -1.9372 -0.2651  1.9491
 6074SOL     OW29854   3.927   2.236   2.031  0.5446  0.0718  0.0276
 6074SOL    HW129855   3.891   2.260   2.116  1.4025 -0.2442  0.4854
 6074SOL    HW229856   3.981   2.159   2.050 -0.3266 -0.5698 -0.1055
 6075SOL     OW29857   3.958   1.707  12.009  0.1953  0.2801  0.1822
 6075SOL    HW129858   3.936   1.738  11.921 -1.1698 -0.3770  0.2972
 6075SOL    HW229859   3.898   1.634  12.024  0.8915 -0.1237  1.0654
 6076SOL     OW29860   2.199   2.887  10.111 -0.4127  0.0978  0.4817
 6076SOL    HW129861   2.266   2.831  10.151 -0.9140 -0.2565  0.8260
 6076SOL    HW229862   2.143   2.891  10.189  1.9713  1.9924  2.1147
 6077SOL     OW29863   4.361   4.494  10.061 -0.7264 -0.6399  0.2010
 6077SOL    HW129864   4.290   4.555  10.041 -0.5924 -1.0188 -1.3793
 6077SOL    HW229865   4.399   4.532  10.141 -1.7818  0.4575  0.1891
 6078SOL     OW29866   4.224   3.401  15.026  0.0040  0.3887 -0.5682
 6078SOL    HW129867   4.184   3.420  15.111  0.0579 -1.8095 -0.0702
 6078SOL    HW229868   4.144   3.399  14.973  1.0402 -1.2853 -2.0832
 6079SOL     OW29869   1.960   0.355   3.105 -0.0670  0.2902  0.1157
 6079SOL    HW129870   1.875   0.396   3.092  0.1010  0.4789 -0.3820
 6079SOL    HW229871   1.972   0.385   3.195 -1.7032 -3.4240  1.5420
 6080SOL     OW29872   4.248   1.410   5.210 -0.2336  0.0702  0.0304
 6080SOL    HW129873   4.156   1.402   5.184 -0.3694 -0.1122  0.5711
 6080SOL    HW229874   4.264   1.351   5.284 -1.5383  1.4958  1.4535
 6081SOL     OW29875   2.712   0.955   4.975  0.0807  0.0274 -0.1503
 6081SOL    HW129876   2.750   0.868   4.962 -0.6006 -0.2299 -0.4310
 6081SOL    HW229877   2.715   0.959   5.070  3.1756 -2.5930 -0.1589
 6082SOL     OW29878   2.628   0.575   1.313  0.1749 -0.0692 -0.0462
 6082SOL    HW129879   2.702   0.592   1.255 -0.6286 -1.0635 -1.3686
 6082SOL    HW229880   2.598   0.659   1.348 -0.9492 -0.2524 -0.5498
 6083SOL     OW29881   3.885   1.270   0.768 -0.4794 -0.3891  0.0979
 6083SOL    HW129882   3.797   1.254   0.733  0.0549 -1.5656 -0.6968
 6083SOL    HW229883   3.919   1.330   0.701  0.6369 -0.2903  0.7626
 6084SOL     OW29884   1.386   1.691   1.405 -0.1764  0.6647  0.5605
 6084SOL    HW129885   1.317   1.640   1.447  1.6635 -1.8992  0.4834
 6084SOL    HW229886   1.388   1.767   1.464 -0.2134  0.7498  0.4515
 6085SOL     OW29887   2.788   1.415   8.871 -0.8360  0.5935 -0.2164
 6085SOL    HW129888   2.850   1.380   8.936 -1.3569  1.5160  0.7717
 6085SOL    HW229889   2.842   1.483   8.832  1.0008  0.1005  1.4661
 6086SOL     OW29890   2.680   2.942   1.729  0.5075  0.1306 -0.1939
 6086SOL    HW129891   2.706   3.030   1.757  2.3589 -0.6604  0.6425
 6086SOL    HW229892   2.664   2.914   1.819  2.2474  1.1972  0.4608
 6087SOL     OW29893   3.753   2.316  16.186  0.4296  0.7402  0.0279
 6087SOL    HW129894   3.687   2.255  16.218  2.1625 -1.0402  0.2520
 6087SOL    HW229895   3.817   2.311  16.258 -0.5966  1.4372  0.9759
 6088SOL     OW29896   2.079   4.705   9.421  1.0993  0.1380 -0.1601
 6088SOL    HW129897   2.090   4.610   9.432 -1.1440 -0.0779  0.1859
 6088SOL    HW229898   1.993   4.705   9.381  1.1405 -2.1054 -0.2651
 6089SOL     OW29899   1.895   2.890   7.524 -0.3261  0.3852 -0.2648
 6089SOL    HW129900   1.953   2.960   7.555  0.8863 -0.9659  0.4922
 6089SOL    HW229901   1.816   2.940   7.501  0.2153  0.6865 -1.4737
 6090SOL     OW29902   1.676   1.877   5.112 -0.3540  0.2791  0.0818
 6090SOL    HW129903   1.618   1.816   5.158  0.7539  1.5379  3.1608
 6090SOL    HW229904   1.627   1.958   5.122  0.2665  0.4967  1.3243
 6091SOL     OW29905   2.584   3.511   5.923  0.6554  0.2942 -0.1937
 6091SOL    HW129906   2.552   3.498   5.834  1.3776  0.4283 -0.4651
 6091SOL    HW229907   2.521   3.583   5.933  1.3821  0.8615  0.2431
 6092SOL     OW29908   3.080   2.110   3.347 -0.0493  0.1360  0.0154
 6092SOL    HW129909   3.093   2.015   3.350 -0.5063  0.1369  1.8249
 6092SOL    HW229910   3.010   2.112   3.281  1.0395 -0.0831 -1.1580
 6093SOL     OW29911   0.166   3.049   4.694  0.0179 -0.0645  0.5319
 6093SOL    HW129912   0.252   3.090   4.685  0.0717  0.1164  1.9400
 6093SOL    HW229913   0.175   2.992   4.617 -1.8999 -2.5285  2.1322
 6094SOL     OW29914   3.444   2.681  10.256  0.3271  0.2739  0.4298
 6094SOL    HW129915   3.446   2.695  10.161 -1.1128  4.1431  0.9718
 6094SOL    HW229916   3.533   2.658  10.284  1.4626  2.5100 -1.3338
 6095SOL     OW29917   1.099   4.212   5.738  0.2655  0.6130  0.4034
 6095SOL    HW129918   1.131   4.154   5.807 -0.2973 -1.2545 -0.9181
 6095SOL    HW229919   1.050   4.271   5.795  0.0790  0.1958  0.6745
 6096SOL     OW29920   0.519   1.096   5.674 -0.1428  0.4183 -0.6899
 6096SOL    HW129921   0.587   1.073   5.611  1.0489 -0.4022  0.8783
 6096SOL    HW229922   0.453   1.134   5.616 -0.6876 -1.8124 -1.5080
 6097SOL     OW29923   3.192   1.882   1.927  0.1047 -0.4678 -0.1945
 6097SOL    HW129924   3.282   1.914   1.938  0.7962 -1.8362 -1.7595
 6097SOL    HW229925   3.172   1.913   1.839  1.3439  1.4694  0.2180
 6098SOL     OW29926   2.109   3.492  10.885  0.0981  0.1557  0.2841
 6098SOL    HW129927   2.103   3.474  10.791 -1.2745 -1.3079  0.6432
 6098SOL    HW229928   2.129   3.405  10.919 -2.4966 -0.1171  1.1573
 6099SOL     OW29929   2.400   4.041   8.701  0.2201 -0.6455 -0.7354
 6099SOL    HW129930   2.455   4.118   8.717 -2.0207  0.7509  0.2810
 6099SOL    HW229931   2.387   4.023   8.794 -3.1318  2.2728 -0.6491
 6100SOL     OW29932   0.105   1.269   8.594 -0.2374  0.1389 -0.1661
 6100SOL    HW129933   0.074   1.268   8.685 -0.5647  1.8748 -0.2612
 6100SOL    HW229934   0.155   1.350   8.601 -1.0731  0.6481 -0.1324
 6101SOL     OW29935   0.006   4.453  16.658 -0.4518 -0.5406  0.9526
 6101SOL    HW129936   4.691   4.518  16.607  1.5517 -1.1336 -1.6367
 6101SOL    HW229937   0.092   4.461  16.617 -1.9137  2.1539 -1.5278
 6102SOL     OW29938   0.979   3.962   2.309 -0.4999  0.5285  0.0945
 6102SOL    HW129939   1.062   4.009   2.296  0.0253  0.1070  1.8847
 6102SOL    HW229940   0.924   4.037   2.329  0.7927  2.5090 -3.8331
 6103SOL     OW29941   1.133   2.588  14.813 -0.7603  0.2358 -0.4328
 6103SOL    HW129942   1.042   2.571  14.838  0.7632 -3.1231  2.9125
 6103SOL    HW229943   1.125   2.660  14.751  3.0073  0.0725 -1.0823
 6104SOL     OW29944   0.294   2.984   8.018 -0.0370 -0.4284  0.2129
 6104SOL    HW129945   0.256   3.018   8.099 -3.0592  0.1502 -1.4429
 6104SOL    HW229946   0.251   3.040   7.954  1.0824  0.5470  0.3183
 6105SOL     OW29947   2.746   0.582   2.519  0.1903 -0.2471  0.3216
 6105SOL    HW129948   2.770   0.644   2.589 -1.9648  0.9289  0.0391
 6105SOL    HW229949   2.720   0.510   2.576 -0.2865 -0.2249  0.1298
 6106SOL     OW29950   3.347   0.426  12.159  0.0651  0.0020  0.3767
 6106SOL    HW129951   3.269   0.482  12.162 -1.4134 -2.0747  0.8589
 6106SOL    HW229952   3.333   0.377  12.078  0.4814 -1.6963  1.3450
 6107SOL     OW29953   3.933   3.079   4.330 -0.0768 -0.0662 -0.6578
 6107SOL    HW129954   4.020   3.041   4.319  0.8242  1.4716  1.0984
 6107SOL    HW229955   3.876   3.003   4.344  0.8058 -0.5991  0.0512
 6108SOL     OW29956   0.385   4.013   4.280 -0.1956 -0.0224  0.6220
 6108SOL    HW129957   0.361   4.022   4.372  1.0338  0.1184  0.9319
 6108SOL    HW229958   0.390   4.105   4.256 -1.1598 -0.1936 -0.2598
 6109SOL     OW29959   2.261   3.391   1.115  0.3081  0.1777 -0.6006
 6109SOL    HW129960   2.353   3.374   1.135  0.7004 -0.4965 -3.0124
 6109SOL    HW229961   2.259   3.486   1.102  1.8949  0.2802 -0.0908
 6110SOL     OW29962   1.973   0.920   1.965  0.3395  0.3315  0.1273
 6110SOL    HW129963   1.922   0.950   2.040 -1.1972 -2.6580  0.2664
 6110SOL    HW229964   1.993   0.829   1.986 -1.0173  0.0039  0.0141
 6111SOL     OW29965   3.251   1.877   5.350  0.2132 -0.0056  0.1806
 6111SOL    HW129966   3.175   1.885   5.292  0.2391  0.8581  0.2620
 6111SOL    HW229967   3.271   1.967   5.377 -0.6057  0.6000 -1.2495
 6112SOL     OW29968   2.110   2.673   7.836 -0.2775 -0.5931 -0.1754
 6112SOL    HW129969   2.047   2.650   7.768 -0.2797 -0.7558 -0.1170
 6112SOL    HW229970   2.061   2.721   7.903  0.4950  0.6507 -0.4995
 6113SOL     OW29971   1.258   2.960   3.020 -0.2047 -0.0491 -0.3339
 6113SOL    HW129972   1.308   3.038   3.045 -2.7641  2.1541 -1.9837
 6113SOL    HW229973   1.242   2.918   3.104 -1.9771  0.7346 -0.2836
 6114SOL     OW29974   2.376   3.772   6.443  0.1157  0.7606 -0.2146
 6114SOL    HW129975   2.391   3.777   6.537 -2.2058  0.3187  0.1800
 6114SOL    HW229976   2.354   3.679   6.440  0.7602  0.5235  2.2646
 6115SOL     OW29977   2.951   1.904   1.476  0.3199  0.4016  0.0512
 6115SOL    HW129978   2.968   1.821   1.522  0.2023  0.2714 -0.1424
 6115SOL    HW229979   2.966   1.972   1.542  0.5153  2.1079 -1.7875
 6116SOL     OW29980   1.216   1.550   2.626 -0.2910  0.0327 -0.2640
 6116SOL    HW129981   1.279   1.513   2.689 -0.3996  0.3028  0.0027
 6116SOL    HW229982   1.240   1.485   2.560 -0.4420 -0.8328  0.5403
 6117SOL     OW29983   0.929   4.601  10.336  0.0328  0.5834 -0.1774
 6117SOL    HW129984   1.016   4.596  10.297 -0.4951 -2.0171 -1.0311
 6117SOL    HW229985   0.898   4.686  10.305 -1.8429 -0.2395 -0.5868
 6118SOL     OW29986   1.286   0.205   0.020  0.2714 -0.5865 -0.1496
 6118SOL    HW129987   1.368   0.179   0.063 -0.1561 -1.5929  0.0640
 6118SOL    HW229988   1.236   0.123   0.018  1.0178 -1.0921  1.4428
 6119SOL     OW29989   1.657   3.815  10.099  0.1487 -0.1546 -0.0109
 6119SOL    HW129990   1.658   3.772  10.014 -1.0825 -0.1189 -0.0390
 6119SOL    HW229991   1.563   3.831  10.105  0.3712  1.8184 -1.7201
 6120SOL     OW29992   2.390   3.859   3.563 -0.1857 -0.4129  0.4136
 6120SOL    HW129993   2.436   3.777   3.578  1.5404  0.7190  1.3116
 6120SOL    HW229994   2.437   3.903   3.634 -2.2351 -0.4592  1.8117
 6121SOL     OW29995   2.185   0.154  10.001  0.0020 -0.3908  0.2115
 6121SOL    HW129996   2.110   0.130   9.946  0.7645 -1.0069 -0.5517
 6121SOL    HW229997   2.226   0.225   9.952 -2.4129  0.0288 -1.2328
 6122SOL     OW29998   3.359   0.695   8.665  0.3486  0.1645 -0.1283
 6122SOL    HW129999   3.269   0.669   8.645  1.5138 -3.5700 -0.3394
 6122SOL    HW230000   3.365   0.773   8.608 -1.1120  0.1313 -0.3393
 6123SOL     OW30001   0.946   3.714   9.176  0.1150 -0.4926  0.1716
 6123SOL    HW130002   0.953   3.642   9.114  0.2863  2.4457 -3.1846
 6123SOL    HW230003   0.918   3.668   9.255 -0.3229  0.8083  0.7839
 6124SOL     OW30004   2.427   0.937  13.871  0.0098 -0.3400  0.2243
 6124SOL    HW130005   2.518   0.910  13.882  0.1484 -0.1223 -0.4042
 6124SOL    HW230006   2.397   0.933  13.962  1.7640 -1.0393  0.7747
 6125SOL     OW30007   1.741   3.872   7.874 -0.1302  0.5470 -0.2665
 6125SOL    HW130008   1.835   3.869   7.855 -0.1560 -0.4491 -0.2202
 6125SOL    HW230009   1.728   3.947   7.816 -0.5578  0.3849 -0.3810
 6126SOL     OW30010   0.275   3.954   1.361 -0.1619  0.0666 -0.5403
 6126SOL    HW130011   0.186   3.926   1.386  0.2357 -0.6389  0.0850
 6126SOL    HW230012   0.257   4.016   1.290  0.7042 -0.6868 -1.4188
 6127SOL     OW30013   3.342   4.324   7.492  0.5945  0.0594 -0.7501
 6127SOL    HW130014   3.353   4.419   7.478 -1.1823  0.2795 -0.6249
 6127SOL    HW230015   3.430   4.288   7.488 -0.0910 -1.6471 -0.4729
 6128SOL     OW30016   1.388   3.728  12.068 -0.4977  0.8758 -0.2069
 6128SOL    HW130017   1.293   3.725  12.060 -0.2706 -1.0107 -2.1424
 6128SOL    HW230018   1.404   3.687  11.984  2.6875 -1.5771  1.6183
 6129SOL     OW30019   1.951   0.269  17.281  0.2447  0.3128 -0.5418
 6129SOL    HW130020   1.874   0.232  17.238 -0.4269  1.8279 -0.6616
 6129SOL    HW230021   1.953   0.360  17.250  0.5926  0.1036 -1.1213
 6130SOL     OW30022   4.311   3.072   3.172 -0.1852 -0.2562  0.0799
 6130SOL    HW130023   4.351   3.084   3.086 -0.5683 -0.9010 -0.1887
 6130SOL    HW230024   4.362   3.132   3.227  1.0707 -1.6130  0.3898
 6131SOL     OW30025   1.520   3.973   3.451 -0.1076 -0.3252 -0.0451
 6131SOL    HW130026   1.462   4.003   3.521 -2.0639 -1.7635 -1.0605
 6131SOL    HW230027   1.460   3.976   3.376 -0.8501  0.4792  0.5791
 6132SOL     OW30028   3.319   3.579   6.754 -0.3673  0.5981  0.1293
 6132SOL    HW130029   3.411   3.554   6.749 -0.3322  1.1898 -1.9576
 6132SOL    HW230030   3.270   3.502   6.726  1.1341  0.0116 -0.8781
 6133SOL     OW30031   0.182   4.052   9.403 -0.6589  0.0700  0.3407
 6133SOL    HW130032   0.183   3.980   9.340 -0.3603  0.8138 -0.5229
 6133SOL    HW230033   0.216   4.010   9.481  0.0951  0.6810  0.3422
 6134SOL     OW30034   3.781   1.668   4.608  0.1478  0.0778 -0.3638
 6134SOL    HW130035   3.802   1.646   4.517  0.3619 -0.3391 -0.2088
 6134SOL    HW230036   3.722   1.598   4.633 -0.7308  1.2111  0.7325
 6135SOL     OW30037   3.425   1.736   6.197 -0.2002  0.4269 -0.5275
 6135SOL    HW130038   3.353   1.674   6.208 -0.9166  1.0041 -1.9594
 6135SOL    HW230039   3.480   1.683   6.255  0.1867  1.2825 -0.1117
 6136SOL     OW30040   1.053   4.077   1.749  0.0911 -0.7445  0.1459
 6136SOL    HW130041   1.021   4.135   1.680 -0.6123 -0.6269  0.5739
 6136SOL    HW230042   1.123   4.131   1.786  1.0805 -1.7387 -0.2732
 6137SOL     OW30043   3.646   3.960  16.171  0.0628  0.3714  0.0099
 6137SOL    HW130044   3.704   4.018  16.121  0.2519 -1.0867 -1.4511
 6137SOL    HW230045   3.590   3.927  16.101 -0.5795 -1.8111  1.5753
 6138SOL     OW30046   2.564   0.578   0.302 -0.4635  0.6507  0.3797
 6138SOL    HW130047   2.637   0.524   0.270 -1.0603 -0.4746  0.9250
 6138SOL    HW230048   2.493   0.551   0.243  0.3053 -1.0744  0.2533
 6139SOL     OW30049   0.211   2.833   9.211 -0.0173 -0.4175  0.1831
 6139SOL    HW130050   0.139   2.818   9.272  1.0392 -2.1559  0.9683
 6139SOL    HW230051   0.164   2.834   9.127 -0.6245  2.0742  0.5430
 6140SOL     OW30052   2.400   3.969  13.261 -0.5097 -0.6092  0.0507
 6140SOL    HW130053   2.319   3.922  13.282 -0.8401  0.2837  0.7582
 6140SOL    HW230054   2.372   4.060  13.269  0.6711  0.0114 -3.1199
 6141SOL     OW30055   1.894   1.447   7.759  0.1984  0.2387 -0.6415
 6141SOL    HW130056   1.970   1.505   7.754 -0.2895  0.9145 -0.3175
 6141SOL    HW230057   1.872   1.456   7.666 -0.6372 -1.4459 -0.6032
 6142SOL     OW30058   2.708   1.595   5.032 -0.5395 -0.3107 -1.2724
 6142SOL    HW130059   2.650   1.649   4.979 -2.0271 -1.2334 -0.5973
 6142SOL    HW230060   2.639   1.558   5.088  0.1342  0.7323  0.2437
 6143SOL     OW30061   0.572   3.083   4.908  0.1165 -0.8890 -0.6340
 6143SOL    HW130062   0.498   3.091   4.967  1.2454 -0.3764  0.7214
 6143SOL    HW230063   0.525   3.086   4.825  1.3529  3.4036 -1.1593
 6144SOL     OW30064   4.026   2.274   7.400  0.5238  0.9072 -0.4508
 6144SOL    HW130065   4.009   2.275   7.494  3.0111  0.5201 -0.0178
 6144SOL    HW230066   4.014   2.182   7.376  0.1444  0.7728  0.2549
 6145SOL     OW30067   0.879   0.141  17.106  0.3426  0.1326  0.5734
 6145SOL    HW130068   0.849   0.104  17.189 -1.9135 -0.5235 -0.5345
 6145SOL    HW230069   0.952   0.198  17.129  2.4863 -1.4940 -2.2235
 6146SOL     OW30070   2.644   0.942   2.571  0.2311  0.0969 -0.0006
 6146SOL    HW130071   2.728   0.952   2.616  0.2783  1.2368 -0.3450
 6146SOL    HW230072   2.679   0.949   2.483 -1.2963 -1.1553 -0.7185
 6147SOL     OW30073   1.377   2.946   7.544  0.0562  0.6709  0.1965
 6147SOL    HW130074   1.351   2.884   7.612  2.0145  2.8330  2.9146
 6147SOL    HW230075   1.431   2.888   7.490  0.5173  1.0931  0.1957
 6148SOL     OW30076   1.932   4.669  16.530 -0.6384 -0.0156  0.0344
 6148SOL    HW130077   1.857   4.620  16.564 -1.1356 -0.5766 -1.9054
 6148SOL    HW230078   1.897   4.727  16.463  1.6363  0.3391 -0.8196
 6149SOL     OW30079   0.782   4.352  17.723 -0.0516 -0.1059 -0.0651
 6149SOL    HW130080   0.753   4.431   0.041  1.6553  1.2344 -1.2588
 6149SOL    HW230081   0.815   4.389  17.640  1.1966 -0.6329  0.2039
 6150SOL     OW30082   4.248   2.471   9.136 -0.5044 -0.1286  0.2642
 6150SOL    HW130083   4.221   2.380   9.145 -1.1936  0.1704  1.1544
 6150SOL    HW230084   4.269   2.474   9.042 -1.5357  0.3341  0.0481
 6151SOL     OW30085   0.533   2.493  16.629  0.4772  0.5132 -0.3252
 6151SOL    HW130086   0.577   2.578  16.622  2.2764 -0.3229  1.1361
 6151SOL    HW230087   0.454   2.502  16.682  1.2288  1.1297  0.6702
 6152SOL     OW30088   3.504   3.357   2.796  0.2491  0.1514 -0.2645
 6152SOL    HW130089   3.428   3.300   2.794 -1.1758  1.9847  0.9722
 6152SOL    HW230090   3.469   3.442   2.822  0.1280  0.3980 -1.2556
 6153SOL     OW30091   1.766   0.730   7.455 -0.1041 -0.5296 -0.9992
 6153SOL    HW130092   1.812   0.655   7.419 -0.4784 -1.3435  0.2038
 6153SOL    HW230093   1.709   0.759   7.384 -1.8112  0.0495  0.5926
 6154SOL     OW30094   0.677   1.562   6.417  0.9020  1.3400 -0.2189
 6154SOL    HW130095   0.686   1.475   6.455 -3.1383  0.2473 -1.6611
 6154SOL    HW230096   0.696   1.617   6.493 -0.9144 -0.0552  1.2592
 6155SOL     OW30097   2.963   0.961  12.947 -0.3064  0.2544  0.1845
 6155SOL    HW130098   3.004   0.966  13.033  0.6848  0.1767 -0.2839
 6155SOL    HW230099   3.026   0.904  12.904 -0.1962  0.9016 -0.5024
 6156SOL     OW30100   3.910   3.907   7.444 -0.1038  0.2991  0.1123
 6156SOL    HW130101   3.845   3.962   7.401 -1.1219  1.3046  2.9219
 6156SOL    HW230102   3.960   3.975   7.490  2.7928 -1.6178 -0.1814
 6157SOL     OW30103   4.274   2.276   3.862 -0.4190  0.1926  0.2756
 6157SOL    HW130104   4.221   2.196   3.856  1.6849 -1.1009 -0.8960
 6157SOL    HW230105   4.343   2.240   3.918  0.9952  2.5006  0.0177
 6158SOL     OW30106   0.994   2.592   7.219 -0.3688 -0.4911  0.1567
 6158SOL    HW130107   0.948   2.672   7.193  0.4823 -0.1519 -0.2968
 6158SOL    HW230108   1.082   2.628   7.233  1.3019 -3.7930 -2.0469
 6159SOL     OW30109   4.685   4.530   9.655 -0.0849  0.9410 -0.6128
 6159SOL    HW130110   4.717   4.476   9.583  0.6820  0.7972 -0.1692
 6159SOL    HW230111   4.726   4.501   9.736  1.0063  1.1392 -1.0943
 6160SOL     OW30112   4.330   2.634   9.357 -0.6279 -0.0388  0.1672
 6160SOL    HW130113   4.325   2.567   9.288  0.1831 -0.4107  0.4787
 6160SOL    HW230114   4.377   2.574   9.415  2.4066  1.8273 -0.4150
 6161SOL     OW30115   1.295   2.764   8.340 -0.1634  0.3451 -0.6178
 6161SOL    HW130116   1.300   2.853   8.376 -2.8174  0.9415 -1.7189
 6161SOL    HW230117   1.210   2.744   8.379 -0.9612  3.0416 -0.9196
 6162SOL     OW30118   4.259   1.293  13.433 -0.0857  0.2350  0.1350
 6162SOL    HW130119   4.261   1.349  13.511 -1.0308 -0.8166  0.9027
 6162SOL    HW230120   4.254   1.207  13.474 -0.2823 -0.3264 -1.0725
 6163SOL     OW30121   1.550   3.803   6.573 -0.4037  0.4305  0.3428
 6163SOL    HW130122   1.503   3.885   6.557  0.1668  0.5701 -0.5758
 6163SOL    HW230123   1.585   3.801   6.663  2.9642  0.0679 -0.9561
 6164SOL     OW30124   0.937   4.394   1.652 -0.3869 -0.3176  0.6327
 6164SOL    HW130125   0.978   4.451   1.717  0.9713 -1.8735  1.1387
 6164SOL    HW230126   0.860   4.358   1.696  0.6603 -2.1380  0.9797
 6165SOL     OW30127   1.266   2.694   3.120 -0.1176  0.2286  0.0457
 6165SOL    HW130128   1.275   2.718   3.027  1.9160 -1.1987 -0.1158
 6165SOL    HW230129   1.285   2.601   3.110  1.1239  0.5988 -1.0335
 6166SOL     OW30130   2.328   2.066   0.466  0.3704 -0.3465 -0.2171
 6166SOL    HW130131   2.383   2.043   0.391 -0.0559 -2.7425  0.1993
 6166SOL    HW230132   2.299   2.155   0.444 -0.9650 -0.7844 -0.2249
 6167SOL     OW30133   0.973   2.760   1.847  0.1947 -0.7093  0.2311
 6167SOL    HW130134   1.027   2.717   1.782 -0.2717 -1.0998  0.1006
 6167SOL    HW230135   0.996   2.851   1.829 -0.6864 -0.6864 -0.7839
 6168SOL     OW30136   3.536   2.793  11.583 -0.2157  0.4830 -0.1317
 6168SOL    HW130137   3.480   2.715  11.583  2.2145 -1.2786  0.9070
 6168SOL    HW230138   3.479   2.846  11.527 -1.2055  1.0002  1.3736
 6169SOL     OW30139   0.800   3.073   2.550  0.6782  0.6566 -0.4137
 6169SOL    HW130140   0.882   3.092   2.595 -1.6169 -0.2100  4.2619
 6169SOL    HW230141   0.811   3.088   2.457 -0.8515  0.4945 -0.6283
 6170SOL     OW30142   4.402   0.177   3.785 -0.2580 -0.1320 -0.1912
 6170SOL    HW130143   4.358   0.181   3.700  0.1858 -0.5183 -0.4354
 6170SOL    HW230144   4.370   0.261   3.819 -0.8682 -0.3211 -0.3051
 6171SOL     OW30145   3.579   3.760   6.604 -0.1535  0.1993  0.1408
 6171SOL    HW130146   3.562   3.668   6.621 -1.8898  0.8368  1.8714
 6171SOL    HW230147   3.672   3.756   6.583 -0.2670 -1.6363  0.0231
 6172SOL     OW30148   3.914   1.275   5.368 -0.0830  0.1266  0.0217
 6172SOL    HW130149   3.841   1.214   5.360 -0.6881  1.1984 -2.6583
 6172SOL    HW230150   3.960   1.225   5.435 -0.1620 -1.6788 -1.2890
 6173SOL     OW30151   2.562   2.705   2.995  0.0437  0.3134 -0.4723
 6173SOL    HW130152   2.567   2.700   2.899  1.3697 -1.3294 -0.3319
 6173SOL    HW230153   2.488   2.645   3.003 -0.5533  1.1924  0.4302
 6174SOL     OW30154   1.529   2.638   8.510 -0.2502 -0.3837 -0.3101
 6174SOL    HW130155   1.439   2.669   8.515 -0.1272 -0.1059  0.1959
 6174SOL    HW230156   1.519   2.550   8.473  0.1039 -1.5780  2.3891
 6175SOL     OW30157   1.552   1.770   8.634  0.5532  0.5556  0.4147
 6175SOL    HW130158   1.565   1.858   8.669  0.4810  1.4338 -1.7125
 6175SOL    HW230159   1.564   1.717   8.712 -0.1248 -0.9572 -0.5075
 6176SOL     OW30160   2.685   1.081   5.931  0.7436 -0.1294 -0.3024
 6176SOL    HW130161   2.726   1.002   5.898 -1.9630 -1.9917  0.8199
 6176SOL    HW230162   2.738   1.090   6.011  2.1208 -0.3697 -1.1823
 6177SOL     OW30163   0.648   0.431  13.722  0.2676  0.0046  0.4472
 6177SOL    HW130164   0.652   0.407  13.815 -1.5055  1.1280  0.8213
 6177SOL    HW230165   0.624   0.524  13.731  0.2930  0.1036 -0.5825
 6178SOL     OW30166   2.234   3.984  17.345  0.2210 -0.5157 -0.3601
 6178SOL    HW130167   2.151   4.026  17.367  2.3149  3.3506  0.0225
 6178SOL    HW230168   2.207   3.893  17.332  2.5189 -1.1742 -0.5916
 6179SOL     OW30169   0.560   3.615   4.069  0.4080 -0.6388  0.0553
 6179SOL    HW130170   0.596   3.597   4.156 -0.9810 -0.1029  0.7382
 6179SOL    HW230171   0.548   3.709   4.082  0.2399 -0.3215 -2.2966
 6180SOL     OW30172   1.986   0.273   8.699  0.0563 -0.2022  0.3164
 6180SOL    HW130173   2.000   0.302   8.788  0.7755 -0.8128  0.4023
 6180SOL    HW230174   2.016   0.355   8.661  1.3684 -0.8142  0.0357
 6181SOL     OW30175   2.229   1.401  10.396 -0.5846  0.3305 -0.2645
 6181SOL    HW130176   2.225   1.491  10.362  1.0675  1.0656  1.4582
 6181SOL    HW230177   2.250   1.418  10.488  0.8386 -0.3823 -0.4562
 6182SOL     OW30178   0.470   0.393   7.694  0.4626 -0.4903 -0.4803
 6182SOL    HW130179   0.436   0.350   7.773  1.3632  0.7212  0.5628
 6182SOL    HW230180   0.565   0.387   7.710  0.3435 -0.1541  0.3318
 6183SOL     OW30181   1.381   0.995   2.643  0.1233 -0.8801 -0.1075
 6183SOL    HW130182   1.292   1.026   2.627  0.8652  2.2425  1.8736
 6183SOL    HW230183   1.386   0.931   2.572  2.2968  0.5943 -1.2951
 6184SOL     OW30184   1.561   1.958   6.565 -0.0083  0.5135  0.5150
 6184SOL    HW130185   1.539   1.874   6.526  1.3728  0.0676  0.6954
 6184SOL    HW230186   1.500   2.013   6.517  0.2888  0.2575 -0.1535
 6185SOL     OW30187   0.819   2.705   8.523  0.0930  0.4405  0.2028
 6185SOL    HW130188   0.804   2.771   8.590 -0.5938  0.1330  0.3563
 6185SOL    HW230189   0.911   2.719   8.501  0.2138 -1.6655 -0.6712
 6186SOL     OW30190   0.768   3.440  10.704  0.1479 -0.2312  0.1244
 6186SOL    HW130191   0.833   3.491  10.655  1.8238 -1.0849  1.4477
 6186SOL    HW230192   0.689   3.488  10.678 -0.2017 -1.3510 -0.8458
 6187SOL     OW30193   1.748   2.853   6.162  0.0686 -0.1967 -0.3563
 6187SOL    HW130194   1.773   2.941   6.133  2.1687 -0.3405  1.0135
 6187SOL    HW230195   1.711   2.868   6.249 -0.3982  1.8610 -0.9082
 6188SOL     OW30196   1.540   4.687  17.497  0.1347  0.3420 -0.2955
 6188SOL    HW130197   1.500   4.617  17.446  0.8362 -1.7270  2.0065
 6188SOL    HW230198   1.486   4.686  17.576  0.7557  0.1924  0.1240
 6189SOL     OW30199   0.718   4.477   0.917  0.5218  0.2298  0.4598
 6189SOL    HW130200   0.645   4.441   0.868  0.5123  0.8325  0.0346
 6189SOL    HW230201   0.682   4.532   0.987  2.0629  0.1771  1.3122
 6190SOL     OW30202   4.670   1.527   5.856 -0.0947 -0.1198 -0.0400
 6190SOL    HW130203   4.642   1.455   5.800 -1.5043 -0.8804  1.6691
 6190SOL    HW230204   0.025   1.497   5.880 -0.0988  0.3285  0.5352
 6191SOL     OW30205   1.223   3.909  14.702 -0.2059 -0.2634  0.0941
 6191SOL    HW130206   1.283   3.847  14.743  0.0833 -0.8556 -1.2271
 6191SOL    HW230207   1.244   3.996  14.736 -0.0331  0.3487 -1.5916
 6192SOL     OW30208   1.446   3.011   4.991  0.3700  0.3257  0.3797
 6192SOL    HW130209   1.479   3.025   4.903  1.3309  0.4770  0.7615
 6192SOL    HW230210   1.422   3.102   5.009  0.7823  0.5902 -0.4189
 6193SOL     OW30211   3.302   2.479  11.830 -0.5303 -0.1639 -0.2965
 6193SOL    HW130212   3.308   2.558  11.776  0.3046  1.1238  1.6587
 6193SOL    HW230213   3.390   2.442  11.827  0.2907  1.8335 -0.7135
 6194SOL     OW30214   1.501   4.138   6.165  0.3455 -0.2288  0.3065
 6194SOL    HW130215   1.586   4.180   6.152 -0.4326  0.9846 -0.8679
 6194SOL    HW230216   1.447   4.201   6.213  0.7422  1.0462 -0.9210
 6195SOL     OW30217   1.906   1.923   0.554 -0.1390 -0.3382 -0.5331
 6195SOL    HW130218   1.938   2.002   0.597 -0.1212 -0.5518 -0.1585
 6195SOL    HW230219   1.853   1.898   0.629 -1.6593 -0.3347 -1.6019
 6196SOL     OW30220   4.239   1.770   1.098 -0.3576  0.7886  0.2903
 6196SOL    HW130221   4.167   1.784   1.159 -1.1766 -2.2344  0.0020
 6196SOL    HW230222   4.234   1.852   1.048 -2.7075  2.3928  3.1479
 6197SOL     OW30223   0.735   1.481   6.908  0.9874  0.4118 -0.7543
 6197SOL    HW130224   0.818   1.445   6.877  0.3610 -0.2858 -1.6431
 6197SOL    HW230225   0.767   1.561   6.948 -0.3071  0.2040  0.6922
 6198SOL     OW30226   0.408   0.650   3.810  0.2950  0.1800  0.3222
 6198SOL    HW130227   0.476   0.716   3.816 -1.2533  1.9567 -1.2755
 6198SOL    HW230228   0.349   0.669   3.883 -0.4645 -2.1328  0.3280
 6199SOL     OW30229   2.133   3.031  15.813  0.3676 -0.5741 -0.0266
 6199SOL    HW130230   2.127   2.992  15.900 -0.6914 -1.4901 -0.5170
 6199SOL    HW230231   2.228   3.027  15.802  0.4397  0.2028  0.2833
 6200SOL     OW30232   3.313   2.839   9.444  0.1743  0.1113 -0.0505
 6200SOL    HW130233   3.328   2.841   9.349  0.8820 -0.1309  0.0623
 6200SOL    HW230234   3.272   2.754   9.461  0.3437 -0.1091 -0.7214
 6201SOL     OW30235   2.213   0.515   4.557  0.0695  0.2897  0.0767
 6201SOL    HW130236   2.293   0.469   4.532  0.6946  1.9096 -0.9439
 6201SOL    HW230237   2.144   0.466   4.513 -0.6238  0.8817  0.5054
 6202SOL     OW30238   0.245   0.991   6.731 -0.1619 -0.6900 -0.0303
 6202SOL    HW130239   0.232   1.083   6.751 -2.0642 -0.8692 -0.4964
 6202SOL    HW230240   0.158   0.957   6.752  0.7220 -1.6179  2.1829
 6203SOL     OW30241   0.714   2.525   5.716 -0.3938  0.0644 -0.0280
 6203SOL    HW130242   0.702   2.431   5.721  1.0941 -0.1903 -0.9569
 6203SOL    HW230243   0.713   2.518   5.620 -0.8350  3.1716 -0.2575
 6204SOL     OW30244   0.635   0.355   6.214 -0.4964  0.0285  0.1335
 6204SOL    HW130245   0.622   0.277   6.269  0.2284 -1.3491 -1.6612
 6204SOL    HW230246   0.675   0.413   6.279  1.7159 -2.0752  0.6590
 6205SOL     OW30247   1.697   1.224   2.796  0.3195 -0.1294  0.6855
 6205SOL    HW130248   1.700   1.254   2.887  0.5728  0.3335  0.5208
 6205SOL    HW230249   1.603   1.209   2.791  0.1731  0.6128  1.1830
 6206SOL     OW30250   4.048   1.370   8.326 -0.4694 -0.3975  0.2601
 6206SOL    HW130251   4.013   1.458   8.339  0.1979  0.1617 -1.7021
 6206SOL    HW230252   4.142   1.380   8.337 -0.6307 -1.2269  2.3286
 6207SOL     OW30253   3.067   4.446   5.654 -0.3513  0.5345 -0.4641
 6207SOL    HW130254   3.113   4.491   5.725  1.1141 -1.3195 -0.2317
 6207SOL    HW230255   3.010   4.387   5.704 -0.0341 -0.2971 -1.0871
 6208SOL     OW30256   4.304   0.145   3.495  0.0909  0.5609  0.4106
 6208SOL    HW130257   4.212   0.156   3.521  0.1079  1.2052  0.2131
 6208SOL    HW230258   4.296   0.136   3.400 -1.4696  0.2140  0.5621
 6209SOL     OW30259   3.401   2.794   7.748 -0.0698  0.1154  0.2745
 6209SOL    HW130260   3.442   2.784   7.662 -1.4900 -0.3685 -0.3352
 6209SOL    HW230261   3.445   2.876   7.772  2.6840 -0.9939 -0.9612
 6210SOL     OW30262   0.775   4.567   3.702  0.7991  0.2904  0.0507
 6210SOL    HW130263   0.807   4.563   3.792  2.4411  1.1842 -0.4966
 6210SOL    HW230264   0.815   4.651   3.679  0.1259  0.8202  0.7988
 6211SOL     OW30265   2.877   4.024   8.418 -0.1512  0.3959  0.3286
 6211SOL    HW130266   2.956   3.984   8.455 -1.4278 -1.3779  1.1194
 6211SOL    HW230267   2.852   4.103   8.465 -0.7866  0.1041  0.4792
 6212SOL     OW30268   3.273   0.303  11.928 -0.0811  0.3708 -0.2912
 6212SOL    HW130269   3.303   0.289  11.839 -0.6144  0.2181 -0.4448
 6212SOL    HW230270   3.183   0.272  11.931 -0.5574  1.6082 -2.2499
 6213SOL     OW30271   3.514   2.634   4.198 -0.2263 -0.7739 -0.4487
 6213SOL    HW130272   3.576   2.562   4.202  0.6268  0.1257  2.3744
 6213SOL    HW230273   3.442   2.604   4.253 -2.7145  3.6197 -1.3279
 6214SOL     OW30274   3.566   0.574   4.166  0.2621  0.2257 -1.1108
 6214SOL    HW130275   3.652   0.543   4.195  0.3844  1.8105  0.2047
 6214SOL    HW230276   3.554   0.510   4.096 -2.1304 -0.6841  0.1122
 6215SOL     OW30277   4.669   0.057   4.077 -0.2153  0.0984  0.2052
 6215SOL    HW130278   4.601   0.123   4.093  0.0617  0.2162  0.9005
 6215SOL    HW230279   4.627   4.714   4.118 -0.3128  1.3297  2.3416
 6216SOL     OW30280   4.721   2.630   9.314 -0.1291 -0.0484  0.6577
 6216SOL    HW130281   4.673   2.567   9.260  1.1097 -1.6849  1.4802
 6216SOL    HW230282   0.039   2.576   9.374  0.0198  0.2587  0.8085
 6217SOL     OW30283   2.140   3.708   6.146  0.6619  0.1789  0.5961
 6217SOL    HW130284   2.132   3.802   6.130  0.5372 -0.2709 -1.9070
 6217SOL    HW230285   2.173   3.707   6.236  2.7568  2.5704 -0.1482
 6218SOL     OW30286   1.588   0.043   2.107  0.2764  0.4250 -0.5058
 6218SOL    HW130287   1.597   0.035   2.012 -0.2985  1.1522 -0.6257
 6218SOL    HW230288   1.637   0.123   2.128 -0.3265  1.2282 -2.2073
 6219SOL     OW30289   1.206   3.460   1.470  0.4999  0.5903  0.1549
 6219SOL    HW130290   1.132   3.415   1.430  1.3184 -2.1912  1.7803
 6219SOL    HW230291   1.156   3.531   1.510  1.1440 -0.0369  2.0797
 6220SOL     OW30292   3.638   3.869   8.655 -0.4934 -0.0056 -0.5095
 6220SOL    HW130293   3.661   3.839   8.743 -0.1423 -0.0845 -0.6271
 6220SOL    HW230294   3.634   3.963   8.672 -3.6017 -0.0834 -0.8388
 6221SOL     OW30295   0.018   0.832  15.258 -0.3334 -0.3363  0.1625
 6221SOL    HW130296   0.040   0.756  15.311  1.5210 -0.4507 -0.7774
 6221SOL    HW230297   0.084   0.845  15.190 -1.4737  1.6764 -0.5782
 6222SOL     OW30298   2.612   0.292   4.280  0.9279 -0.4275 -0.7759
 6222SOL    HW130299   2.620   0.321   4.189  0.6229 -0.4143 -0.7989
 6222SOL    HW230300   2.533   0.239   4.269 -0.8921  2.4145 -1.4366
 6223SOL     OW30301   4.511   2.822   9.389  0.1471 -0.1471  0.1472
 6223SOL    HW130302   4.446   2.756   9.366 -0.0458  0.1664 -0.2234
 6223SOL    HW230303   4.585   2.763   9.400  1.1964  0.9188 -1.2425
 6224SOL     OW30304   4.334   1.977   1.619 -0.3166 -0.0116 -0.2243
 6224SOL    HW130305   4.427   1.964   1.603 -0.5034 -2.7637  0.9243
 6224SOL    HW230306   4.342   2.034   1.696  1.4913  2.1385 -1.9985
 6225SOL     OW30307   2.449   0.343   4.526 -0.2802 -0.6883  0.3437
 6225SOL    HW130308   2.503   0.330   4.448 -1.7611 -1.6283 -0.5351
 6225SOL    HW230309   2.393   0.265   4.523  1.0723 -1.5359 -2.9744
 6226SOL     OW30310   4.168   2.444   0.837 -0.4898 -0.4861 -0.1165
 6226SOL    HW130311   4.259   2.424   0.858 -0.4121 -0.7993 -0.7570
 6226SOL    HW230312   4.175   2.539   0.828  2.7981 -0.7332  0.0226
 6227SOL     OW30313   2.739   2.407   6.423 -0.1945  0.5830 -0.1999
 6227SOL    HW130314   2.661   2.452   6.454 -2.4735 -2.3795 -1.6778
 6227SOL    HW230315   2.810   2.442   6.476 -0.5155  0.3116  0.3978
 6228SOL     OW30316   1.780   2.974   4.971 -0.5393 -0.0153  0.3024
 6228SOL    HW130317   1.718   2.998   4.903 -1.5069  0.5599  1.3791
 6228SOL    HW230318   1.781   3.060   5.013  1.9553 -0.3103  0.8689
 6229SOL     OW30319   2.384   3.466   9.228 -0.2918  0.3102  0.8871
 6229SOL    HW130320   2.366   3.399   9.161 -0.2893  2.0395 -0.8383
 6229SOL    HW230321   2.450   3.513   9.178 -1.9226  0.5848 -1.0225
 6230SOL     OW30322   1.561   1.899   4.811  0.0787 -0.4701  0.3173
 6230SOL    HW130323   1.637   1.953   4.830 -0.4133 -0.5630  2.5530
 6230SOL    HW230324   1.595   1.812   4.832  2.0746 -0.3796 -2.5152
 6231SOL     OW30325   0.125   1.973  10.168  0.1869  0.0745 -0.2355
 6231SOL    HW130326   0.187   1.902  10.184 -1.8475 -1.7407 -0.3907
 6231SOL    HW230327   0.049   1.958  10.225 -0.7969  0.4647 -1.4312
 6232SOL     OW30328   1.693   3.929   3.809 -0.1688 -0.0203 -0.0562
 6232SOL    HW130329   1.677   4.017   3.843 -1.9301 -0.5778  0.5972
 6232SOL    HW230330   1.721   3.951   3.721 -1.1126  0.0047 -0.3537
 6233SOL     OW30331   3.465   1.798   4.736 -0.3703 -0.1177 -0.0341
 6233SOL    HW130332   3.483   1.819   4.828 -1.2260  2.9619 -0.5734
 6233SOL    HW230333   3.426   1.711   4.743  1.3365 -0.6265  3.1781
 6234SOL     OW30334   3.516   2.619   2.169 -0.0696  0.1214 -0.2945
 6234SOL    HW130335   3.476   2.657   2.248 -0.8599 -2.2796  0.4433
 6234SOL    HW230336   3.459   2.651   2.099  4.1619  1.3523 -3.1513
 6235SOL     OW30337   1.999   0.093   7.222  0.6421  0.6765 -0.0315
 6235SOL    HW130338   1.933   0.041   7.268  1.0888 -1.4414 -1.8229
 6235SOL    HW230339   1.947   0.161   7.180  0.7100  0.8284  0.1302
 6236SOL     OW30340   3.554   3.284   8.206  0.2256 -0.1240  0.0477
 6236SOL    HW130341   3.567   3.370   8.166  1.6957  0.6117  2.0911
 6236SOL    HW230342   3.644   3.252   8.210  0.9768  2.0316  0.2693
 6237SOL     OW30343   1.755   0.391   2.342 -0.2967  0.6459 -0.1001
 6237SOL    HW130344   1.699   0.405   2.265  0.5434 -0.6488 -0.9502
 6237SOL    HW230345   1.809   0.320   2.308 -0.4106  0.4995  0.0292
 6238SOL     OW30346   0.930   0.558   1.897  0.4887 -0.4241  0.1237
 6238SOL    HW130347   0.892   0.542   1.984 -2.5490 -2.3310 -1.5548
 6238SOL    HW230348   0.869   0.625   1.865 -0.3980 -0.7822  1.0466
 6239SOL     OW30349   2.226   2.924   3.041  0.0098 -0.0780 -0.5795
 6239SOL    HW130350   2.313   2.948   3.074  0.2528 -1.8938  0.1007
 6239SOL    HW230351   2.236   2.951   2.950 -1.4489  0.3230 -0.6146
 6240SOL     OW30352   3.236   0.790   3.196  0.5563 -0.0555  0.1474
 6240SOL    HW130353   3.278   0.760   3.276  0.0421 -0.2145  0.3571
 6240SOL    HW230354   3.152   0.747   3.209 -0.2157  2.4283  3.2305
 6241SOL     OW30355   1.800   0.865  15.640  0.1719 -0.0699 -0.1062
 6241SOL    HW130356   1.784   0.956  15.617  0.5587  0.2169  0.7721
 6241SOL    HW230357   1.739   0.860  15.713 -0.0819  1.0324 -0.2470
 6242SOL     OW30358   0.500   3.821   4.825 -0.2501 -0.2619  0.7541
 6242SOL    HW130359   0.472   3.774   4.903 -0.2202 -1.2112  0.2011
 6242SOL    HW230360   0.534   3.743   4.780  1.1906  0.8078 -0.0264
 6243SOL     OW30361   4.228   2.139   1.093  0.6940 -0.0192 -0.7608
 6243SOL    HW130362   4.209   2.086   1.015 -1.1028  2.3774 -1.9271
 6243SOL    HW230363   4.321   2.160   1.080  1.0770 -2.9738 -2.9341
 6244SOL     OW30364   3.759   1.003  12.952  0.0008 -0.5077 -0.4517
 6244SOL    HW130365   3.799   0.948  12.884  1.9296 -0.7488  0.8635
 6244SOL    HW230366   3.782   1.093  12.930 -0.1754 -0.4734 -0.4925
 6245SOL     OW30367   2.543   0.819   7.451 -0.1086  0.0997  0.3125
 6245SOL    HW130368   2.637   0.833   7.457  0.0572 -1.6515  1.7413
 6245SOL    HW230369   2.541   0.734   7.407  1.8392  0.6841 -0.8973
 6246SOL     OW30370   2.687   1.248   2.623 -0.0650 -0.5539  0.2707
 6246SOL    HW130371   2.626   1.202   2.565  0.8596 -1.9139  0.3618
 6246SOL    HW230372   2.732   1.174   2.665  1.2592  0.7642  1.1653
 6247SOL     OW30373   3.580   2.709   9.190  0.3155 -0.0201 -0.3043
 6247SOL    HW130374   3.640   2.716   9.115 -2.2726 -0.5255 -2.3988
 6247SOL    HW230375   3.639   2.737   9.260  0.1769  1.3165 -0.7230
 6248SOL     OW30376   4.031   0.559  12.908  0.0949 -0.1419 -0.6569
 6248SOL    HW130377   4.093   0.491  12.934  2.3585  1.4876 -1.8221
 6248SOL    HW230378   4.071   0.637  12.947  0.3478  0.4453 -2.0805
 6249SOL     OW30379   3.333   4.244   8.641  0.1400 -0.2510 -0.0167
 6249SOL    HW130380   3.312   4.154   8.667 -0.2786  0.4999  2.2716
 6249SOL    HW230381   3.366   4.238   8.552  1.6270  0.3306  0.4979
 6250SOL     OW30382   4.049   3.049   3.229 -0.3741  0.0326 -0.3124
 6250SOL    HW130383   4.044   3.058   3.325 -2.0495 -2.2194 -0.1796
 6250SOL    HW230384   4.143   3.063   3.222 -0.3523  0.3842  0.6917
 6251SOL     OW30385   1.120   0.105   6.524  0.0137  0.1864  0.5140
 6251SOL    HW130386   1.116   0.095   6.619  1.2422  0.4284  0.5974
 6251SOL    HW230387   1.030   0.135   6.518  0.2013  0.8091  0.7860
 6252SOL     OW30388   3.183   1.461   4.394  0.9573 -0.0912 -0.2937
 6252SOL    HW130389   3.232   1.396   4.444 -2.3893 -2.1401  0.3350
 6252SOL    HW230390   3.253   1.525   4.381  0.7680 -0.0559 -1.1475
 6253SOL     OW30391   0.591   1.563   2.602  0.5216 -0.1689 -0.4601
 6253SOL    HW130392   0.542   1.636   2.639  2.0723  0.6396  0.0337
 6253SOL    HW230393   0.600   1.514   2.684 -1.1510  1.3924  0.6545
 6254SOL     OW30394   2.482   2.127  17.026  0.2312 -0.0213  0.0240
 6254SOL    HW130395   2.454   2.184  17.099 -1.2587  0.2345 -0.7538
 6254SOL    HW230396   2.551   2.081  17.074 -1.1567  0.8246  2.8539
 6255SOL     OW30397   3.927   3.275   2.050  0.2039 -0.0841 -0.5097
 6255SOL    HW130398   4.005   3.231   2.085  0.9344  1.1721 -0.5735
 6255SOL    HW230399   3.902   3.344   2.111  1.1314  0.2720 -0.5306
 6256SOL     OW30400   0.940   0.270   2.765  0.2467 -0.2562 -0.3534
 6256SOL    HW130401   0.852   0.246   2.793  0.3886 -1.2879 -0.7810
 6256SOL    HW230402   0.986   0.190   2.788  2.1800  0.9295 -0.0431
 6257SOL     OW30403   0.337   3.868   6.947 -0.2057 -0.4199 -0.8676
 6257SOL    HW130404   0.396   3.861   6.872  0.3884  1.3860 -0.5672
 6257SOL    HW230405   0.356   3.784   6.988  0.9657 -0.3155 -1.2178
 6258SOL     OW30406   2.058   0.119  15.768  0.3658  0.3991 -0.1310
 6258SOL    HW130407   2.124   0.053  15.791  2.1101  1.4848 -1.9443
 6258SOL    HW230408   2.112   0.177  15.714 -2.2991  1.4495 -1.6448
 6259SOL     OW30409   3.008   1.182   3.365 -0.0744  0.0520  0.0230
 6259SOL    HW130410   3.075   1.141   3.310  0.8884  0.4390  0.9085
 6259SOL    HW230411   2.931   1.141   3.326 -1.7936  2.3951  0.9929
 6260SOL     OW30412   0.191   1.186   4.671  0.7232 -0.3183 -0.1448
 6260SOL    HW130413   0.211   1.255   4.734 -0.3610 -1.7128  1.7072
 6260SOL    HW230414   0.262   1.124   4.687  0.1828 -0.8973 -0.0251
 6261SOL     OW30415   1.549   2.466   3.280  0.1816 -0.4797 -0.1625
 6261SOL    HW130416   1.498   2.492   3.203  0.8293  0.2683 -0.3481
 6261SOL    HW230417   1.513   2.378   3.288 -0.8219 -0.1203 -0.6363
 6262SOL     OW30418   0.422   4.118   7.590  0.0242  0.2012 -0.7264
 6262SOL    HW130419   0.375   4.129   7.672  0.7298 -0.9963 -0.1706
 6262SOL    HW230420   0.440   4.210   7.570 -0.8022  0.6685  0.7273
 6263SOL     OW30421   1.850   1.505  14.822  0.1593 -0.0161 -0.5981
 6263SOL    HW130422   1.819   1.416  14.809 -0.2390  0.3607 -2.2264
 6263SOL    HW230423   1.870   1.534  14.733  0.7095 -0.0149 -0.4737
 6264SOL     OW30424   0.024   1.751  16.244  0.0494  0.2021 -0.1483
 6264SOL    HW130425   4.686   1.749  16.308  1.8450  1.3253  1.8475
 6264SOL    HW230426   0.002   1.665  16.206 -2.5500  0.3751  0.9692
 6265SOL     OW30427   2.384   4.459   1.197  0.3174 -0.3441  0.2209
 6265SOL    HW130428   2.366   4.496   1.110  0.8498 -0.4728  0.0557
 6265SOL    HW230429   2.356   4.534   1.249 -0.5227  0.0156 -0.7505
 6266SOL     OW30430   1.450   1.046   5.992  0.4763 -0.4636 -0.5821
 6266SOL    HW130431   1.490   1.022   6.076 -1.4146 -1.5112  0.0382
 6266SOL    HW230432   1.442   0.962   5.947 -0.1972 -0.7676  0.1026
 6267SOL     OW30433   3.288   0.694   3.799 -0.4264 -0.4344  0.0789
 6267SOL    HW130434   3.257   0.779   3.767 -0.1502  0.0887  1.2075
 6267SOL    HW230435   3.224   0.668   3.866 -0.0174  0.6668  0.9068
 6268SOL     OW30436   4.694   2.582   2.610  0.3684  0.0703  0.5791
 6268SOL    HW130437   4.667   2.491   2.612 -1.8688  0.7213 -0.0127
 6268SOL    HW230438   4.615   2.636   2.604 -0.3678 -1.0114  0.6488
 6269SOL     OW30439   4.475   0.554  12.030  0.2111 -0.9283  0.2341
 6269SOL    HW130440   4.452   0.558  11.938  2.2523 -2.2465 -0.3408
 6269SOL    HW230441   4.386   0.573  12.061  0.0160 -2.0409  0.3663
 6270SOL     OW30442   3.160   0.447   6.635  0.3273 -0.4702 -0.0731
 6270SOL    HW130443   3.106   0.483   6.565  0.4217 -0.0962  0.0451
 6270SOL    HW230444   3.154   0.352   6.630  0.3566 -0.4493 -0.5104
 6271SOL     OW30445   4.552   0.359   2.240 -0.6170  0.4720  0.4671
 6271SOL    HW130446   4.618   0.414   2.198  0.5210 -0.1811  1.4057
 6271SOL    HW230447   4.573   0.353   2.333  1.2044 -1.0053 -0.0424
 6272SOL     OW30448   4.322   1.870   2.271  0.6860  0.3611 -0.1013
 6272SOL    HW130449   4.314   1.801   2.336 -3.4068 -0.3280 -1.3455
 6272SOL    HW230450   4.316   1.826   2.186 -0.3809 -0.4770  0.4043
 6273SOL     OW30451   2.136   0.665   3.034  0.5527  0.0859  0.0868
 6273SOL    HW130452   2.152   0.652   3.127  1.0037  1.9713  0.2898
 6273SOL    HW230453   2.217   0.715   3.020 -1.2489  3.7416  2.9037
 6274SOL     OW30454   0.316   4.356   2.608  0.8271 -0.1579  0.1494
 6274SOL    HW130455   0.287   4.440   2.643 -1.1565 -0.6209 -0.3950
 6274SOL    HW230456   0.232   4.311   2.601 -0.4882  2.2270  0.6809
 6275SOL     OW30457   1.754   1.980  15.576  0.8380  0.0916  0.2551
 6275SOL    HW130458   1.741   1.894  15.535  2.0503 -0.5423  1.1928
 6275SOL    HW230459   1.759   2.032  15.496 -2.7863 -3.5639 -2.3139
 6276SOL     OW30460   2.033   0.737   7.263  0.3871  0.0473 -0.3665
 6276SOL    HW130461   2.117   0.782   7.272 -0.2544  1.1296  0.2222
 6276SOL    HW230462   1.987   0.811   7.223 -0.0383  0.2875  0.5902
 6277SOL     OW30463   2.379   2.727   7.781 -0.6792  0.0625 -0.5410
 6277SOL    HW130464   2.360   2.736   7.688 -0.1697  2.6094 -0.3797
 6277SOL    HW230465   2.290   2.724   7.817 -0.6073 -0.1479 -0.3825
 6278SOL     OW30466   2.997   0.361   5.986  0.2982  0.5967 -0.3285
 6278SOL    HW130467   2.975   0.417   5.911  1.2605 -0.0410 -1.0890
 6278SOL    HW230468   2.941   0.405   6.050 -1.0678 -0.6214 -0.6891
 6279SOL     OW30469   1.413   3.151  15.003  0.3186 -0.5424  0.4794
 6279SOL    HW130470   1.479   3.135  14.936 -1.5608 -1.1234 -1.2532
 6279SOL    HW230471   1.438   3.101  15.081 -1.7817  0.2230  1.6412
 6280SOL     OW30472   4.031   2.825   7.415  0.1338  0.0333  0.3918
 6280SOL    HW130473   4.054   2.905   7.368 -1.1392 -1.4907 -2.7868
 6280SOL    HW230474   4.076   2.759   7.362 -0.2241  0.1935 -0.1022
 6281SOL     OW30475   1.266   1.542   1.759  0.2362 -0.5001  0.0176
 6281SOL    HW130476   1.213   1.571   1.684  0.4856 -0.8816 -0.3054
 6281SOL    HW230477   1.202   1.525   1.829  0.9405 -1.1504  0.5010
 6282SOL     OW30478   3.213   3.759   9.494 -0.3829  0.3200  0.4785
 6282SOL    HW130479   3.223   3.840   9.444  0.5372 -0.1226 -0.0674
 6282SOL    HW230480   3.144   3.787   9.553  0.5110 -1.4064  2.3219
 6283SOL     OW30481   3.444   1.518   4.932  0.0749  0.1320 -0.7539
 6283SOL    HW130482   3.422   1.573   5.008  0.0992 -1.2024  0.2297
 6283SOL    HW230483   3.463   1.440   4.984  0.5310 -0.5150 -1.9000
 6284SOL     OW30484   0.440   4.320  17.357 -0.2824 -0.2071  0.3700
 6284SOL    HW130485   0.432   4.399  17.304  0.1672  0.7667  1.7397
 6284SOL    HW230486   0.487   4.263  17.296 -2.9651 -0.4814 -1.4327
 6285SOL     OW30487   2.972   3.298   4.845  0.1813  0.3112 -0.2675
 6285SOL    HW130488   2.893   3.349   4.830  1.7269  2.0022 -2.6969
 6285SOL    HW230489   2.940   3.209   4.832 -2.1183  1.1483 -0.2246
 6286SOL     OW30490   0.557   0.231   3.263 -0.3150  0.1275 -0.2407
 6286SOL    HW130491   0.547   0.140   3.291  0.2124  0.5246  1.2346
 6286SOL    HW230492   0.545   0.234   3.168  0.0787 -2.9952 -0.3886
 6287SOL     OW30493   3.924   4.713   5.863  0.1397  0.2560  0.2471
 6287SOL    HW130494   3.886   0.059   5.824  1.1050  0.0375 -1.1385
 6287SOL    HW230495   3.984   4.693   5.792  0.7652  1.6256  0.3889
 6288SOL     OW30496   3.379   0.089  12.071 -0.0260  0.1809 -0.0427
 6288SOL    HW130497   3.391   0.148  11.997  0.4770 -0.7508 -0.6948
 6288SOL    HW230498   3.422   0.013  12.033  1.4116  0.7159  0.5048
 6289SOL     OW30499   3.590   4.175   4.775 -0.6100 -0.0249  0.4666
 6289SOL    HW130500   3.664   4.125   4.810 -0.0319  0.8602  0.4936
 6289SOL    HW230501   3.627   4.214   4.696  0.0961 -4.6807 -1.4997
 6290SOL     OW30502   0.503   0.274   2.972  0.2404  0.3980 -0.3213
 6290SOL    HW130503   0.436   0.316   2.920  0.8610  0.0396 -1.4039
 6290SOL    HW230504   0.559   0.348   2.996  1.6495 -0.7163 -0.1065
 6291SOL     OW30505   0.680   3.621   5.215 -0.4760 -0.2413 -0.5583
 6291SOL    HW130506   0.720   3.677   5.149  0.1617  0.2990  0.2909
 6291SOL    HW230507   0.713   3.671   5.290  0.8387 -0.7912 -0.7760
 6292SOL     OW30508   3.065   4.533  15.184  0.1018  0.3257  0.2910
 6292SOL    HW130509   3.091   4.539  15.092  3.5540  1.7595  1.3594
 6292SOL    HW230510   3.001   4.462  15.175 -0.2531  0.5706  0.8312
 6293SOL     OW30511   0.545   1.126   5.199 -0.2774 -0.5689  0.0497
 6293SOL    HW130512   0.573   1.218   5.193  0.3078 -0.8986 -2.2776
 6293SOL    HW230513   0.588   1.109   5.283 -0.2470 -1.8485 -0.2249
 6294SOL     OW30514   4.073   3.836   7.219 -0.1452  0.2437 -0.3676
 6294SOL    HW130515   4.160   3.828   7.258 -1.2292  1.0620  2.2336
 6294SOL    HW230516   4.014   3.864   7.289  0.9922  2.6709 -0.3796
 6295SOL     OW30517   3.522   1.118   8.701 -0.9266 -0.0340  0.3896
 6295SOL    HW130518   3.444   1.167   8.674  1.6760  2.5944 -2.3696
 6295SOL    HW230519   3.493   1.056   8.768 -1.0462 -0.1891  0.1941
 6296SOL     OW30520   0.746   3.385   4.557  0.2149 -0.2789 -0.1106
 6296SOL    HW130521   0.713   3.295   4.564  0.0912 -0.2607 -0.4305
 6296SOL    HW230522   0.830   3.365   4.598  0.1617 -0.1850  0.0431
 6297SOL     OW30523   2.212   0.036   9.654 -0.5798 -0.1624  0.1791
 6297SOL    HW130524   2.164   0.041   9.737  2.1394  1.5816  1.6163
 6297SOL    HW230525   2.141   0.052   9.592 -1.5573  0.4721  1.4462
 6298SOL     OW30526   3.819   1.416   7.469  0.0536  0.1457  0.1573
 6298SOL    HW130527   3.778   1.378   7.392  1.7040 -3.2895  1.0196
 6298SOL    HW230528   3.815   1.334   7.517  1.6108 -0.8131 -1.3717
 6299SOL     OW30529   2.623   3.428   3.860  0.1351 -0.1791  0.1000
 6299SOL    HW130530   2.687   3.422   3.789  0.7723  0.4850  0.6149
 6299SOL    HW230531   2.676   3.421   3.940 -0.8820  2.8409  1.0108
 6300SOL     OW30532   1.818   1.061  16.778  0.2109 -0.0234  0.3426
 6300SOL    HW130533   1.786   0.985  16.828  1.7556  0.1847  1.6450
 6300SOL    HW230534   1.755   1.064  16.706  0.9191 -1.5504 -0.3530
 6301SOL     OW30535   2.717   1.864   3.656  0.4425  0.0221  0.2929
 6301SOL    HW130536   2.791   1.915   3.690  0.3190  0.8657 -0.6976
 6301SOL    HW230537   2.760   1.782   3.630 -0.7810 -0.0201 -1.6430
 6302SOL     OW30538   3.034   0.192  17.203  0.0111 -0.0416  0.1021
 6302SOL    HW130539   2.992   0.124  17.255 -1.0248  1.0479  0.6830
 6302SOL    HW230540   3.043   0.145  17.120 -0.0073 -0.5163  0.3700
 6303SOL     OW30541   2.402   4.520   3.571 -0.0288 -0.0838 -0.1417
 6303SOL    HW130542   2.465   4.465   3.618 -2.5418 -1.7064  1.2937
 6303SOL    HW230543   2.354   4.560   3.643 -0.1600  0.1800 -0.3754
 6304SOL     OW30544   2.095   4.073   1.210  0.2289  0.0834 -0.2127
 6304SOL    HW130545   2.060   3.985   1.194  2.3575 -0.9782  0.9887
 6304SOL    HW230546   2.186   4.047   1.198 -1.0003 -1.8953 -5.1630
 6305SOL     OW30547   2.070   3.091   7.302  0.2522 -0.2784 -1.2693
 6305SOL    HW130548   2.047   3.050   7.219  1.1904 -0.0528 -1.6455
 6305SOL    HW230549   2.105   3.030   7.368 -1.4077 -0.1755 -0.3086
 6306SOL     OW30550   1.481   1.674  13.710 -0.3378 -0.0458  0.2699
 6306SOL    HW130551   1.414   1.740  13.693 -0.6396  0.4033  3.2678
 6306SOL    HW230552   1.434   1.613  13.767 -1.0560 -1.4427 -1.8040
 6307SOL     OW30553   2.398   0.483   8.433  0.1917  0.9740 -0.2764
 6307SOL    HW130554   2.419   0.575   8.453  0.8805  0.6248  0.6172
 6307SOL    HW230555   2.455   0.469   8.357  0.7938  0.7255  0.2169
 6308SOL     OW30556   2.391   2.418  14.303  0.1730  0.3087  0.2105
 6308SOL    HW130557   2.430   2.487  14.357 -0.5649  0.9962 -0.1239
 6308SOL    HW230558   2.329   2.386  14.368 -0.2391  1.5675  0.4501
 6309SOL     OW30559   3.946   4.180  14.035  0.7051 -0.3235 -0.1124
 6309SOL    HW130560   3.883   4.206  13.968 -0.4194  1.7153  1.7432
 6309SOL    HW230561   3.911   4.219  14.116 -0.9725 -1.3909 -0.3184
 6310SOL     OW30562   0.448   1.252   4.484 -0.4487 -0.2223  0.0430
 6310SOL    HW130563   0.375   1.192   4.474 -1.6090  0.8416  2.2826
 6310SOL    HW230564   0.522   1.200   4.515 -0.2675 -0.1188 -0.2122
 6311SOL     OW30565   2.304   0.970   4.543  0.7032 -0.0691  0.3381
 6311SOL    HW130566   2.254   0.936   4.617 -2.8312 -0.4449 -2.2229
 6311SOL    HW230567   2.290   1.064   4.556 -1.1228  0.2266 -3.5247
 6312SOL     OW30568   1.407   0.367   7.759 -1.0010  0.4317  0.1387
 6312SOL    HW130569   1.439   0.303   7.696  0.0931  0.5333  0.5735
 6312SOL    HW230570   1.381   0.316   7.835 -2.8799 -2.9622 -2.8081
 6313SOL     OW30571   3.613   0.581   0.700 -0.3382 -0.0363  0.4244
 6313SOL    HW130572   3.697   0.545   0.671 -1.1975 -0.5039 -1.4715
 6313SOL    HW230573   3.599   0.667   0.658 -2.1744 -0.5908 -0.0997
 6314SOL     OW30574   2.046   0.966  12.060  0.3152  0.1179 -0.2812
 6314SOL    HW130575   2.141   0.963  12.068  0.4628  2.8591 -0.9953
 6314SOL    HW230576   2.027   0.945  12.152  1.5066 -0.1923 -0.1108
 6315SOL     OW30577   0.322   4.197   5.926 -0.6123 -0.5655  0.3923
 6315SOL    HW130578   0.323   4.131   5.857  0.4821 -1.1927  1.0111
 6315SOL    HW230579   0.397   4.253   5.905 -1.4898  0.1762 -0.7500
 6316SOL     OW30580   2.533   3.015   4.511  0.7122  0.2010 -0.1509
 6316SOL    HW130581   2.489   2.971   4.438 -0.7510  1.5441 -0.0752
 6316SOL    HW230582   2.470   3.080   4.542  0.3668 -0.5529  0.7433
 6317SOL     OW30583   0.068   4.700   8.094 -0.2655  0.9365  0.3278
 6317SOL    HW130584   0.046   0.017   8.015 -0.0851  0.9495  0.2868
 6317SOL    HW230585   0.100   4.614   8.066  0.0382  1.3922 -0.7242
 6318SOL     OW30586   2.305   3.835   5.126  0.3132 -0.0651  0.0119
 6318SOL    HW130587   2.216   3.809   5.103 -0.2149 -1.1718  3.1810
 6318SOL    HW230588   2.300   3.930   5.134  1.8040 -0.1207  1.6174
 6319SOL     OW30589   0.177   0.961   9.132  0.0176  0.2626  1.2170
 6319SOL    HW130590   0.179   0.990   9.041  0.3074 -0.1981  1.0723
 6319SOL    HW230591   0.221   0.876   9.127 -1.5607 -0.5134  0.2795
 6320SOL     OW30592   1.618   1.914   4.469  0.0369  0.3874  0.0570
 6320SOL    HW130593   1.701   1.960   4.453 -0.8892  1.2639 -2.2387
 6320SOL    HW230594   1.645   1.850   4.534  0.2987 -1.7278 -2.1379
 6321SOL     OW30595   2.990   0.021   6.788  0.4737 -1.0895 -0.2760
 6321SOL    HW130596   2.988   4.712   6.702 -0.1435  0.6724 -1.1186
 6321SOL    HW230597   3.056   0.083   6.758 -0.6169 -0.0645 -0.5839
 6322SOL     OW30598   4.403   0.245   0.613 -0.2959 -0.1275 -0.2046
 6322SOL    HW130599   4.400   0.251   0.518  2.5050  1.3832 -0.1947
 6322SOL    HW230600   4.388   0.152   0.632 -2.0395 -0.3505 -2.6626
 6323SOL     OW30601   1.073   3.352   4.361 -0.2277 -0.2794 -0.2169
 6323SOL    HW130602   1.133   3.387   4.295 -0.0937  1.9124  1.0472
 6323SOL    HW230603   0.996   3.341   4.304  1.0760 -0.1869 -1.9778
 6324SOL     OW30604   0.197   1.831  13.349  0.3058  0.1200 -0.4873
 6324SOL    HW130605   0.137   1.798  13.283  0.4873  0.6111 -0.8975
 6324SOL    HW230606   0.277   1.779  13.335 -1.0788 -1.9901 -0.4778
 6325SOL     OW30607   4.087   4.360   1.950  0.2693 -0.2264 -0.2541
 6325SOL    HW130608   4.155   4.293   1.945 -0.2069 -0.6362 -1.3376
 6325SOL    HW230609   4.142   4.434   1.927  0.2245  0.0144  0.4416
 6326SOL     OW30610   0.681   0.646  12.094  0.3988 -0.2807  0.1159
 6326SOL    HW130611   0.769   0.683  12.105  0.1315  0.1861  0.7037
 6326SOL    HW230612   0.623   0.707  12.140 -0.6457 -0.1091 -1.4493
 6327SOL     OW30613   1.177   3.191   7.887  0.0993  0.5991 -0.0286
 6327SOL    HW130614   1.231   3.117   7.914 -1.0167 -0.5833 -1.0109
 6327SOL    HW230615   1.093   3.171   7.929 -1.2684  1.0075 -2.5512
 6328SOL     OW30616   2.613   1.862   1.152  0.4569 -0.0505 -0.1171
 6328SOL    HW130617   2.657   1.783   1.122  1.9179  0.8775 -0.4620
 6328SOL    HW230618   2.670   1.930   1.115  1.2326  0.5235  2.1549
 6329SOL     OW30619   2.120   4.690   1.523  0.2829  0.1298 -0.3266
 6329SOL    HW130620   2.034   4.665   1.557  0.5728 -3.2629 -2.0890
 6329SOL    HW230621   2.127   0.043   1.565 -1.1989  0.5289 -0.8781
 6330SOL     OW30622   3.283   0.378   5.960 -0.2801  0.5040 -0.5624
 6330SOL    HW130623   3.205   0.387   6.014  0.7751 -0.1279  1.0830
 6330SOL    HW230624   3.238   0.343   5.883  1.6819 -0.1518 -1.4143
 6331SOL     OW30625   3.973   2.023   5.657 -0.0268 -0.0524  0.2089
 6331SOL    HW130626   3.996   2.093   5.596  0.3030 -1.9850 -1.8899
 6331SOL    HW230627   4.015   2.051   5.738  0.4400 -2.0892  0.6775
 6332SOL     OW30628   2.240   3.794  10.609 -0.0244 -0.1021  0.4922
 6332SOL    HW130629   2.153   3.788  10.569  0.4299 -2.1444 -0.2136
 6332SOL    HW230630   2.260   3.701  10.624  0.9604  0.0395  0.0273
 6333SOL     OW30631   0.133   1.490   4.046 -0.5484  0.2362 -0.7486
 6333SOL    HW130632   0.177   1.568   4.012  2.9745 -1.3128  0.1682
 6333SOL    HW230633   0.056   1.536   4.080 -0.3232 -0.8641  1.2334
 6334SOL     OW30634   4.644   3.180   4.160 -0.1846  0.2785  0.4653
 6334SOL    HW130635   4.668   3.188   4.252 -0.7023 -2.8250  0.8828
 6334SOL    HW230636   4.668   3.089   4.140 -2.1812 -0.4341  1.2497
 6335SOL     OW30637   4.201   0.343   3.705 -0.0320  0.0872 -0.3893
 6335SOL    HW130638   4.164   0.377   3.624 -0.6977 -1.7623 -0.8575
 6335SOL    HW230639   4.132   0.289   3.744  1.0917  0.3265  1.9892
 6336SOL     OW30640   1.877   2.356   6.872 -0.4530  0.1468  0.6019
 6336SOL    HW130641   1.793   2.402   6.877 -0.7917 -0.6162  1.9723
 6336SOL    HW230642   1.910   2.353   6.962  1.1100 -1.8188 -0.0412
 6337SOL     OW30643   1.679   2.884   8.927  0.8322  0.3787 -0.6361
 6337SOL    HW130644   1.609   2.940   8.959  2.1274  1.0938  0.9363
 6337SOL    HW230645   1.734   2.947   8.880  0.2718 -0.0500 -1.8549
 6338SOL     OW30646   4.559   2.560   5.551  0.2323 -0.5262  0.3313
 6338SOL    HW130647   4.465   2.580   5.546 -0.3891 -3.8224 -0.9005
 6338SOL    HW230648   4.563   2.521   5.638 -0.6361  2.2201  1.6106
 6339SOL     OW30649   0.533   0.256   2.617  0.3657 -0.2723  0.3655
 6339SOL    HW130650   0.488   0.190   2.565 -0.5785 -0.7915  1.8738
 6339SOL    HW230651   0.592   0.295   2.552  1.8043  0.6835  2.2562
 6340SOL     OW30652   4.267   1.510   0.908  0.3061 -0.3468 -0.1301
 6340SOL    HW130653   4.297   1.548   0.991 -2.0689  0.6595  0.2836
 6340SOL    HW230654   4.178   1.548   0.911  0.6926  0.4695  1.2336
 6341SOL     OW30655   3.263   0.020   4.514 -0.4415  0.4441 -0.6698
 6341SOL    HW130656   3.315   4.730   4.437 -0.0891 -1.7377  0.1953
 6341SOL    HW230657   3.271   4.670   4.562  0.8955  0.8749 -0.1409
 6342SOL     OW30658   1.866   3.645   4.432 -0.7297 -0.2291  0.0554
 6342SOL    HW130659   1.790   3.650   4.373  0.8127 -0.9674 -2.0135
 6342SOL    HW230660   1.851   3.562   4.477 -0.8881 -0.5627 -0.6091
 6343SOL     OW30661   1.032   0.517   1.594 -0.4431 -0.2984 -0.1420
 6343SOL    HW130662   0.994   0.553   1.514 -0.3915  3.3635  1.5089
 6343SOL    HW230663   1.098   0.581   1.620 -1.1612  0.5056 -0.3375
 6344SOL     OW30664   0.482   3.476   5.296  0.0432 -0.3429  0.4086
 6344SOL    HW130665   0.405   3.528   5.270 -0.9849 -2.0542  0.0129
 6344SOL    HW230666   0.550   3.531   5.259  0.0643 -0.5894  0.0741
 6345SOL     OW30667   2.451   0.022   6.688  0.5133  0.0415 -0.0776
 6345SOL    HW130668   2.413   0.064   6.611  2.0220  0.5866 -0.5220
 6345SOL    HW230669   2.426   0.089   6.751  1.1583  0.9523 -0.7944
 6346SOL     OW30670   1.279   1.635   3.104  0.6375  0.3565  0.4681
 6346SOL    HW130671   1.338   1.670   3.038  2.0125 -2.4390  0.2093
 6346SOL    HW230672   1.252   1.715   3.149  0.9471  1.0167 -0.5227
 6347SOL     OW30673   1.448   1.810   2.943 -0.2012 -0.4318 -0.4192
 6347SOL    HW130674   1.504   1.736   2.919  0.1219  0.1275 -1.3602
 6347SOL    HW230675   1.435   1.847   2.856  2.6158  1.3113 -0.0852
 6348SOL     OW30676   1.727   3.543   1.983  0.3970 -0.1369 -0.3232
 6348SOL    HW130677   1.819   3.544   2.008  0.2869 -2.0458  0.1070
 6348SOL    HW230678   1.707   3.636   1.998 -3.0196 -1.0817  1.2088
 6349SOL     OW30679   2.232   0.452   7.906  0.3065 -0.0644 -0.1627
 6349SOL    HW130680   2.311   0.435   7.855  0.9693 -0.3791  0.9494
 6349SOL    HW230681   2.188   0.503   7.838 -0.5545 -1.1578 -0.4178
 6350SOL     OW30682   1.198   2.028   7.543  0.8642  0.5261 -0.0091
 6350SOL    HW130683   1.139   1.962   7.506  1.4181 -0.5849  1.0912
 6350SOL    HW230684   1.160   2.032   7.631  0.0032 -1.0933 -0.3071
 6351SOL     OW30685   3.728   2.461   0.535 -0.6552 -0.8536 -0.0592
 6351SOL    HW130686   3.643   2.497   0.561 -1.5719 -1.9991 -1.4616
 6351SOL    HW230687   3.777   2.480   0.615 -0.5181  1.1386 -0.6101
 6352SOL     OW30688   2.516   4.300  10.365  0.2169  0.0757  0.1044
 6352SOL    HW130689   2.474   4.350  10.294 -3.1282  0.1351  2.1442
 6352SOL    HW230690   2.454   4.230  10.384 -1.4127  1.4053 -0.2421
 6353SOL     OW30691   3.030   3.075  10.401 -0.3802  0.2489 -0.0195
 6353SOL    HW130692   3.017   3.008  10.333 -0.1965  0.7936 -0.5843
 6353SOL    HW230693   3.096   3.032  10.455 -2.2182 -2.3217  0.2278
 6354SOL     OW30694   0.167   4.490   8.324 -0.0287 -0.8332  0.2540
 6354SOL    HW130695   0.218   4.562   8.287 -0.8243 -0.4345 -0.0652
 6354SOL    HW230696   0.222   4.412   8.326  0.2548 -0.6162  0.7085
 6355SOL     OW30697   1.028   3.810  10.320  0.3577  0.0079 -0.2766
 6355SOL    HW130698   1.020   3.898  10.357  2.5256 -0.3194  1.0017
 6355SOL    HW230699   0.999   3.840  10.234  1.0680 -0.0922 -0.5498
 6356SOL     OW30700   0.246   3.858   2.427  0.7292 -0.3626 -0.4466
 6356SOL    HW130701   0.250   3.921   2.356 -0.6241  1.1626  0.8181
 6356SOL    HW230702   0.176   3.801   2.395 -2.1001  1.8493  1.8437
 6357SOL     OW30703   0.457   3.853   5.151  0.3870 -0.4283  0.4575
 6357SOL    HW130704   0.513   3.915   5.106  0.7739 -0.2589  1.1661
 6357SOL    HW230705   0.512   3.832   5.227 -0.0749 -0.8679  0.6752
 6358SOL     OW30706   2.223   4.609   2.619 -0.0362 -0.1679  0.2787
 6358SOL    HW130707   2.155   4.661   2.575 -1.5982 -3.3444 -1.0776
 6358SOL    HW230708   2.232   4.659   2.700 -0.2166 -0.8741  0.7361
 6359SOL     OW30709   0.959   2.925  11.620  0.3055  0.1429 -0.2428
 6359SOL    HW130710   0.996   2.885  11.699 -0.2759  1.6090  0.7774
 6359SOL    HW230711   1.039   2.946  11.571 -1.1991 -1.5582 -3.3646
 6360SOL     OW30712   3.188   2.690   7.336  0.5118 -0.3741  0.3702
 6360SOL    HW130713   3.241   2.621   7.376 -0.0820  0.2191  2.1957
 6360SOL    HW230714   3.214   2.765   7.391 -1.3272 -0.2272  1.0202
 6361SOL     OW30715   2.412   4.493  14.917 -0.0123 -0.3474  0.2042
 6361SOL    HW130716   2.396   4.528  15.005  0.3091 -0.2953  0.2421
 6361SOL    HW230717   2.452   4.408  14.938  0.8455  0.4407  1.7841
 6362SOL     OW30718   1.752   3.104  10.002 -0.3001 -0.8107  0.6641
 6362SOL    HW130719   1.702   3.076   9.925 -1.5612 -0.2077  1.2573
 6362SOL    HW230720   1.678   3.151  10.041 -0.9810  0.5525 -2.2931
 6363SOL     OW30721   3.833   1.072   6.205 -0.0637  0.0365  0.0987
 6363SOL    HW130722   3.914   1.068   6.154 -0.5452  1.7039 -0.8167
 6363SOL    HW230723   3.852   1.139   6.272  1.2453 -0.3097  0.0779
 6364SOL     OW30724   1.841   1.027   6.773 -0.0226  0.3170 -0.0046
 6364SOL    HW130725   1.771   1.016   6.708 -0.1474  1.9288 -0.1530
 6364SOL    HW230726   1.834   1.122   6.782 -1.9361  0.0228  1.4808
 6365SOL     OW30727   1.853   0.102   2.759 -0.2534 -0.1178  0.1569
 6365SOL    HW130728   1.839   0.030   2.820  1.8211  1.1692  2.1492
 6365SOL    HW230729   1.788   0.080   2.693  0.0128  0.2721 -0.2406
 6366SOL     OW30730   0.741   0.033   0.246 -0.1003  0.2128  0.1934
 6366SOL    HW130731   0.667   4.720   0.287 -1.1903  0.8917 -1.0135
 6366SOL    HW230732   0.708   0.064   0.162  0.8663  1.9392  0.4582
 6367SOL     OW30733   0.129   0.683  16.906  0.6699 -0.4331 -0.3518
 6367SOL    HW130734   0.059   0.675  16.971  0.2179  1.1199 -0.6534
 6367SOL    HW230735   0.092   0.749  16.848 -0.7741 -1.0303 -0.1069
 6368SOL     OW30736   1.049   3.260  11.593 -0.5642  0.2638 -0.3428
 6368SOL    HW130737   0.968   3.296  11.629  0.6063  0.9741  1.6144
 6368SOL    HW230738   1.083   3.330  11.539  0.8656 -0.4375 -0.3485
 6369SOL     OW30739   3.720   2.948   3.033  0.5315 -0.5845  0.2326
 6369SOL    HW130740   3.693   3.006   2.961  0.8905 -0.2026  0.4076
 6369SOL    HW230741   3.733   3.006   3.108 -0.4092 -1.6949  1.2601
 6370SOL     OW30742   0.546   2.618   4.714 -0.5188 -0.3770 -0.3862
 6370SOL    HW130743   0.599   2.678   4.661 -1.2939  1.9581  1.5259
 6370SOL    HW230744   0.593   2.534   4.712  1.8478  0.8601  2.9062
 6371SOL     OW30745   0.391   0.840   4.332  0.1444  0.3573 -0.1165
 6371SOL    HW130746   0.485   0.824   4.341  0.0888 -0.8580 -1.7315
 6371SOL    HW230747   0.393   0.920   4.281 -0.1384  0.3924 -0.0737
 6372SOL     OW30748   2.489   3.119   6.061  0.1736 -0.1452  0.8534
 6372SOL    HW130749   2.570   3.126   6.012 -0.4046 -0.2067 -0.1058
 6372SOL    HW230750   2.478   3.206   6.101 -0.1250  0.4872 -0.6253
 6373SOL     OW30751   4.122   2.235   8.909 -0.5477  0.4135 -0.4698
 6373SOL    HW130752   4.144   2.157   8.859 -1.0289  0.9155 -1.4746
 6373SOL    HW230753   4.041   2.260   8.865 -0.2845  3.9609  1.0494
 6374SOL     OW30754   4.475   4.032   0.280  0.4658 -0.4445  0.1644
 6374SOL    HW130755   4.421   4.066   0.208  0.9036  0.1403  0.1061
 6374SOL    HW230756   4.482   4.102   0.345  0.3463  0.0138 -0.3095
 6375SOL     OW30757   2.992   2.197  15.112 -0.3348  0.0352  0.0409
 6375SOL    HW130758   3.044   2.230  15.039  0.5640 -0.0532  0.6420
 6375SOL    HW230759   3.053   2.192  15.186  0.1639  0.8674 -0.3202
 6376SOL     OW30760   0.771   1.106   2.921  0.1607 -0.0154  0.7721
 6376SOL    HW130761   0.819   1.051   2.983  0.8900  0.9256  1.0296
 6376SOL    HW230762   0.756   1.183   2.976 -0.1255  0.0475  0.6065
 6377SOL     OW30763   1.702   0.816  16.786 -0.3224  0.1349  0.1442
 6377SOL    HW130764   1.753   0.745  16.746 -2.4843 -0.3463 -1.7699
 6377SOL    HW230765   1.665   0.843  16.702 -1.2501  0.9634  0.8245
 6378SOL     OW30766   4.005   0.038   5.333  0.3874  0.2434 -0.5813
 6378SOL    HW130767   4.027   4.711   5.261  0.3103  0.8490 -1.1065
 6378SOL    HW230768   3.940   0.097   5.295 -1.2075 -1.9316 -1.2791
 6379SOL     OW30769   0.513   1.262  16.127 -0.2246 -0.2224 -0.1002
 6379SOL    HW130770   0.554   1.208  16.059  0.6997  0.0669  0.2331
 6379SOL    HW230771   0.590   1.296  16.171  0.9085 -0.3048 -2.0413
 6380SOL     OW30772   1.324   3.354  13.830 -0.0456 -0.7822 -0.0444
 6380SOL    HW130773   1.374   3.354  13.911 -2.1705  2.5630  1.2730
 6380SOL    HW230774   1.387   3.347  13.759  2.5055  0.0106  2.1783
 6381SOL     OW30775   0.071   2.827   6.653  0.0783 -0.1676  0.4470
 6381SOL    HW130776   4.730   2.799   6.599  1.0016 -0.9417 -0.4164
 6381SOL    HW230777   0.025   2.861   6.729 -1.3873 -0.5869 -0.2572
 6382SOL     OW30778   4.100   1.614  17.547 -0.4477  0.1886  0.1899
 6382SOL    HW130779   4.162   1.583  17.481 -0.3527  1.3193 -0.2471
 6382SOL    HW230780   4.056   1.532  17.569 -1.9515  0.1708 -2.9627
 6383SOL     OW30781   0.009   0.755   3.377 -0.1905  0.0003  0.6263
 6383SOL    HW130782   4.702   0.670   3.400  2.0436 -1.7394 -2.0006
 6383SOL    HW230783   0.091   0.752   3.425  0.8694 -0.7770 -1.2525
 6384SOL     OW30784   1.813   0.722   4.406  0.5640 -0.0412 -0.4566
 6384SOL    HW130785   1.765   0.700   4.485 -0.9050 -1.4144 -1.7179
 6384SOL    HW230786   1.822   0.633   4.372  0.4638  0.2060 -1.1398
 6385SOL     OW30787   2.264   1.479  17.158 -0.2316  0.2202 -0.1932
 6385SOL    HW130788   2.183   1.496  17.110  0.1038 -0.8351 -1.1320
 6385SOL    HW230789   2.322   1.538  17.111 -2.6245  2.0951 -0.7975
 6386SOL     OW30790   2.910   1.137  12.123 -0.0399  0.0851 -0.1557
 6386SOL    HW130791   2.896   1.045  12.103  0.2183  0.1396 -0.5984
 6386SOL    HW230792   2.894   1.140  12.217 -1.4696 -2.5494 -0.3037
 6387SOL     OW30793   3.895   1.238  11.940  0.2157 -0.2880  0.3249
 6387SOL    HW130794   3.980   1.244  11.895  0.7634 -1.0835  1.2458
 6387SOL    HW230795   3.925   1.200  12.023  0.9183 -3.8347 -1.5757
 6388SOL     OW30796   1.334   3.560   6.048  0.6362 -0.1363 -0.5056
 6388SOL    HW130797   1.374   3.636   6.091 -1.5266  0.1171  1.0722
 6388SOL    HW230798   1.413   3.506   6.056  1.0502  0.5948  0.3448
 6389SOL     OW30799   2.722   3.900   2.751  0.3707  0.1245 -0.3736
 6389SOL    HW130800   2.632   3.884   2.723  0.3549 -1.0628  0.3545
 6389SOL    HW230801   2.768   3.850   2.684  0.9608 -1.5714  1.2931
 6390SOL     OW30802   1.226   3.551   8.625  0.0048 -0.1987 -0.1915
 6390SOL    HW130803   1.217   3.629   8.680  0.9308  0.5269 -1.0679
 6390SOL    HW230804   1.308   3.561   8.577 -0.0775 -0.6833 -0.4353
 6391SOL     OW30805   4.247   1.741   4.456  0.6034  0.3798  0.7523
 6391SOL    HW130806   4.218   1.708   4.541 -1.7190 -2.3908 -1.1442
 6391SOL    HW230807   4.205   1.824   4.434 -2.6705 -1.6282 -0.5374
 6392SOL     OW30808   2.436   2.910   0.125  0.3961  0.1187  0.2767
 6392SOL    HW130809   2.369   2.845   0.143  0.2683  0.1739  0.0094
 6392SOL    HW230810   2.517   2.872   0.158  1.0698  1.1904 -0.1413
 6393SOL     OW30811   3.809   1.818   3.716  0.0781  0.2143 -0.3727
 6393SOL    HW130812   3.888   1.842   3.765 -2.0409  3.3590  1.5197
 6393SOL    HW230813   3.810   1.724   3.732  1.4658  0.4404  0.8795
 6394SOL     OW30814   2.599   4.086  16.274 -0.0889  0.4115  0.4292
 6394SOL    HW130815   2.529   4.144  16.303  0.0516  0.3485  0.8887
 6394SOL    HW230816   2.571   4.043  16.193 -0.0885  0.0213  0.6353
 6395SOL     OW30817   0.361   2.801   6.590 -0.1832  0.3585 -0.4876
 6395SOL    HW130818   0.348   2.707   6.588  1.9178  0.0324  0.4784
 6395SOL    HW230819   0.290   2.813   6.653 -0.0233 -0.4871 -0.1569
 6396SOL     OW30820   0.708   3.849   2.617  0.5446 -0.3640  0.2758
 6396SOL    HW130821   0.615   3.871   2.614  0.9530  1.3469  0.3540
 6396SOL    HW230822   0.699   3.797   2.697  0.7588 -0.8972 -0.0426
 6397SOL     OW30823   3.948   0.323  16.051 -0.8134  1.2199  0.7132
 6397SOL    HW130824   3.854   0.308  16.039 -0.7668  1.4087  0.0667
 6397SOL    HW230825   3.966   0.410  16.086 -1.0860  1.8984 -0.8065
 6398SOL     OW30826   1.244   4.465   8.214 -0.2753 -0.2472 -0.0897
 6398SOL    HW130827   1.208   4.403   8.152  1.3274  0.0025 -1.2769
 6398SOL    HW230828   1.280   4.408   8.282 -0.5154 -2.0319 -1.4944
 6399SOL     OW30829   0.210   1.610  16.055 -0.1123 -0.2890 -0.2408
 6399SOL    HW130830   0.179   1.695  16.026 -4.2830 -1.7263 -0.0397
 6399SOL    HW230831   0.125   1.568  16.069 -1.1397  1.2900 -1.7342
 6400SOL     OW30832   2.905   1.447   7.494 -0.3312  0.3681 -0.0963
 6400SOL    HW130833   2.938   1.448   7.404  0.2496  0.4915  0.1198
 6400SOL    HW230834   2.964   1.509   7.537 -2.0665  0.5438  2.0623
 6401SOL     OW30835   3.948   2.746   3.655 -0.5709  0.0347  0.5620
 6401SOL    HW130836   3.888   2.734   3.728  0.3955  2.6796  1.8325
 6401SOL    HW230837   3.909   2.823   3.615  2.6101  0.5722 -1.5284
 6402SOL     OW30838   3.570   3.731   2.645  0.0932 -0.7798 -0.5602
 6402SOL    HW130839   3.641   3.688   2.598  1.7700 -0.6992  1.8521
 6402SOL    HW230840   3.528   3.781   2.575 -2.9637 -0.0463  1.8019
 6403SOL     OW30841   0.569   0.706  16.747 -0.0394 -0.2507 -0.1520
 6403SOL    HW130842   0.636   0.686  16.812  1.9765  2.2610 -1.4443
 6403SOL    HW230843   0.560   0.800  16.761 -1.6362 -0.0169 -2.7128
 6404SOL     OW30844   0.894   3.097   3.659 -0.7711 -0.1340 -0.0579
 6404SOL    HW130845   0.812   3.133   3.695 -1.9077 -1.7474 -1.0145
 6404SOL    HW230846   0.916   3.029   3.723 -1.4764 -0.3057  0.0019
 6405SOL     OW30847   3.506   1.041   6.184  0.0618  0.1667 -0.1182
 6405SOL    HW130848   3.523   0.989   6.263  0.8664  1.4088  0.5225
 6405SOL    HW230849   3.568   0.989   6.132 -0.5300 -0.6451 -0.0043
 6406SOL     OW30850   1.319   1.922  10.709  0.2875 -0.7884  0.1616
 6406SOL    HW130851   1.373   1.854  10.749  0.7048  0.6460  2.0004
 6406SOL    HW230852   1.266   1.950  10.784 -0.3994  1.1045 -1.0254
 6407SOL     OW30853   0.974   3.586   7.175  0.5255  0.1359  0.1239
 6407SOL    HW130854   1.018   3.647   7.235 -1.8677  2.2170 -0.2153
 6407SOL    HW230855   0.891   3.566   7.217  0.5866 -0.8394 -0.2216
 6408SOL     OW30856   2.611   0.535   2.287  0.0650  0.2966 -0.2778
 6408SOL    HW130857   2.672   0.571   2.350 -1.0937  1.5746  0.1132
 6408SOL    HW230858   2.591   0.608   2.228 -1.7438  0.6192  0.7343
 6409SOL     OW30859   1.819   0.239   5.260  0.1394  0.5775 -0.2030
 6409SOL    HW130860   1.806   0.331   5.282  1.2669  0.6969 -0.0558
 6409SOL    HW230861   1.794   0.246   5.168 -0.1177  0.0803 -0.1705
 6410SOL     OW30862   1.850   0.711   7.019  0.2856  0.6646  0.1455
 6410SOL    HW130863   1.919   0.645   7.027 -0.0089  0.2979 -0.3508
 6410SOL    HW230864   1.769   0.661   7.015 -0.0322  0.9392  3.0945
 6411SOL     OW30865   2.586   2.043   4.055 -0.1070 -0.3304 -0.6382
 6411SOL    HW130866   2.640   2.103   4.004 -1.6770  0.5092 -1.2974
 6411SOL    HW230867   2.653   2.022   4.120 -0.2451 -1.5545 -0.8811
 6412SOL     OW30868   0.683   4.596  11.200  0.1763  0.1031  0.4873
 6412SOL    HW130869   0.724   4.682  11.200  2.7026 -1.0974 -0.5003
 6412SOL    HW230870   0.741   4.557  11.265  1.0388  0.5648 -0.0048
 6413SOL     OW30871   0.986   1.439   6.053  0.0223  0.1509  0.3187
 6413SOL    HW130872   1.078   1.466   6.056 -0.2303  1.1969 -1.2038
 6413SOL    HW230873   0.970   1.440   6.147 -1.8172  0.1197  0.0027
 6414SOL     OW30874   3.243   2.818   3.785  0.2474  0.6388 -0.6688
 6414SOL    HW130875   3.271   2.784   3.870 -2.0421  0.0805 -0.1437
 6414SOL    HW230876   3.283   2.748   3.734 -1.0380  0.3829 -1.3326
 6415SOL     OW30877   4.713   3.589   2.773  0.1807 -0.0578 -0.2874
 6415SOL    HW130878   0.052   3.652   2.764  0.9265 -0.4412  2.8842
 6415SOL    HW230879   4.663   3.606   2.693  2.3112 -0.0155 -1.6256
 6416SOL     OW30880   1.285   0.498   3.295 -0.4365  0.0121 -0.3715
 6416SOL    HW130881   1.282   0.567   3.229  1.9453 -0.4259 -0.9167
 6416SOL    HW230882   1.320   0.431   3.236  2.5377  1.3795 -0.1452
 6417SOL     OW30883   4.232   0.276  10.286 -0.1239 -0.0920  0.0465
 6417SOL    HW130884   4.160   0.307  10.231  0.7408  1.9178  0.0586
 6417SOL    HW230885   4.309   0.319  10.249  0.8983 -2.2466 -0.3048
 6418SOL     OW30886   2.434   2.207  13.772  0.1283 -0.1613 -0.2009
 6418SOL    HW130887   2.403   2.279  13.718  0.0952  0.0079  0.0435
 6418SOL    HW230888   2.529   2.215  13.770 -0.0799  1.4263 -2.6458
 6419SOL     OW30889   2.130   3.510  12.029 -0.4401  0.4224 -0.0286
 6419SOL    HW130890   2.169   3.588  12.067 -1.9951  0.2611  1.9103
 6419SOL    HW230891   2.038   3.527  12.049 -0.1441  2.7770 -0.7156
 6420SOL     OW30892   1.526   4.571   5.845 -0.0871  0.5979 -0.0203
 6420SOL    HW130893   1.570   4.489   5.824 -2.4062 -0.2511 -1.6020
 6420SOL    HW230894   1.446   4.554   5.794 -0.0861  0.0500  0.1618
 6421SOL     OW30895   4.228   1.048   9.779  0.2227 -0.2182 -0.1159
 6421SOL    HW130896   4.320   1.021   9.771 -0.1879 -1.1688 -1.5250
 6421SOL    HW230897   4.193   0.980   9.836  0.1846  0.8421  1.1334
 6422SOL     OW30898   4.354   0.563   4.540  0.1152  0.0531  0.9262
 6422SOL    HW130899   4.296   0.488   4.543  1.1457 -0.8359 -1.2259
 6422SOL    HW230900   4.291   0.629   4.513  1.4584  0.0958 -2.1213
 6423SOL     OW30901   0.266   0.656   1.020 -0.0585 -0.1853  0.2208
 6423SOL    HW130902   0.322   0.724   0.982  0.3180  0.2227  1.4982
 6423SOL    HW230903   0.244   0.697   1.104 -1.5577  0.6163 -0.5534
 6424SOL     OW30904   3.307   2.367   5.476  0.0709 -0.0915  0.4110
 6424SOL    HW130905   3.241   2.391   5.541  0.9896  2.2498  0.4729
 6424SOL    HW230906   3.269   2.393   5.392  0.4541  0.8173  0.5172
 6425SOL     OW30907   3.253   2.002   4.560  0.1612 -0.0076  0.1473
 6425SOL    HW130908   3.185   1.947   4.599 -0.1049  0.2957  0.1085
 6425SOL    HW230909   3.253   2.076   4.620  0.7568  1.1650 -1.2886
 6426SOL     OW30910   2.577   2.323   3.051 -0.1988  0.2462  0.2424
 6426SOL    HW130911   2.635   2.336   3.126  0.1686  1.8823 -0.3103
 6426SOL    HW230912   2.512   2.394   3.056  1.0144  1.2415  1.5827
 6427SOL     OW30913   0.234   0.717   4.788  0.1244  0.6962 -0.0853
 6427SOL    HW130914   0.224   0.756   4.874  0.9874 -0.2596  0.4530
 6427SOL    HW230915   0.218   0.793   4.732 -1.6962 -0.2560 -0.8722
 6428SOL     OW30916   2.129   3.786   5.717  0.3631  0.4989  0.3282
 6428SOL    HW130917   2.099   3.857   5.659 -0.7148 -1.2925 -1.3147
 6428SOL    HW230918   2.163   3.725   5.651 -0.9098  1.7478 -1.5168
 6429SOL     OW30919   0.626   2.663  15.166 -0.1298  0.7179 -0.3756
 6429SOL    HW130920   0.668   2.744  15.141  0.4090 -0.2530 -2.5814
 6429SOL    HW230921   0.541   2.675  15.123 -0.5091 -0.7367 -0.0500
 6430SOL     OW30922   0.698   4.151   7.940  0.0451  0.6389  0.3282
 6430SOL    HW130923   0.621   4.206   7.956  1.1965  1.9182  1.4490
 6430SOL    HW230924   0.735   4.193   7.862  0.7634 -0.4566  0.0842
 6431SOL     OW30925   4.729   2.181  15.229  0.4166  0.3770 -0.3707
 6431SOL    HW130926   4.671   2.253  15.253 -0.8565 -0.6483 -0.3519
 6431SOL    HW230927   4.683   2.097  15.231 -0.5886  0.9459  0.8181
 6432SOL     OW30928   4.608   1.934  15.210  0.6849 -0.0034  0.6945
 6432SOL    HW130929   4.666   1.873  15.256  0.6015  0.5500  1.5165
 6432SOL    HW230930   4.619   1.900  15.121 -0.1620  1.5091  0.0022
 6433SOL     OW30931   1.775   4.202  16.804  0.5603 -0.5666 -0.0574
 6433SOL    HW130932   1.751   4.139  16.871 -0.2281 -0.1280  0.0766
 6433SOL    HW230933   1.835   4.156  16.745  0.2125  0.0576 -0.8914
 6434SOL     OW30934   0.027   1.796   8.033 -0.0890  0.4455  0.2728
 6434SOL    HW130935   0.040   1.741   8.110  1.2899 -0.4411 -0.6031
 6434SOL    HW230936   0.031   1.886   8.068 -0.7264  0.3413  0.6164
 6435SOL     OW30937   4.299   2.306   3.529 -0.0600  0.0497  0.2646
 6435SOL    HW130938   4.302   2.326   3.623 -3.3906 -0.7381  0.5486
 6435SOL    HW230939   4.209   2.274   3.531 -0.6082  1.6431  1.4257
 6436SOL     OW30940   3.008   1.118   4.994  0.3796 -0.2359  0.8173
 6436SOL    HW130941   2.926   1.165   4.978  0.9947 -0.1119 -1.9343
 6436SOL    HW230942   2.977   1.042   4.945 -0.6074  1.6626 -1.5132
 6437SOL     OW30943   1.546   3.466   6.864 -0.1383  0.1920  0.1101
 6437SOL    HW130944   1.535   3.477   6.958  1.0224  0.4571  0.2066
 6437SOL    HW230945   1.639   3.445   6.864 -0.1672  0.0587  0.1460
 6438SOL     OW30946   0.264   0.317   5.161  0.3659 -0.4555 -0.4204
 6438SOL    HW130947   0.296   0.368   5.236 -0.9874  0.6865 -0.6303
 6438SOL    HW230948   0.219   0.387   5.114  0.6830 -1.6224 -2.4493
 6439SOL     OW30949   1.976   1.206   8.237 -0.4046  0.1076  0.7852
 6439SOL    HW130950   2.059   1.254   8.237 -0.6618  0.5373 -0.4392
 6439SOL    HW230951   1.974   1.185   8.144  2.5825 -0.6828  0.9122
 6440SOL     OW30952   4.139   3.066  10.996 -0.0850  0.6939 -0.0156
 6440SOL    HW130953   4.205   3.128  10.963 -0.6184  1.3828  0.2113
 6440SOL    HW230954   4.061   3.114  10.966 -2.0179 -1.4289  1.6456
 6441SOL     OW30955   3.754   1.210   7.009 -0.3743 -0.2019  0.2036
 6441SOL    HW130956   3.794   1.135   6.965  2.5056  1.3086  0.3090
 6441SOL    HW230957   3.668   1.186   6.975 -1.1750  0.9472  1.4061
 6442SOL     OW30958   2.591   3.783   3.171 -0.3326 -0.1703 -0.4659
 6442SOL    HW130959   2.521   3.775   3.106 -1.3707  1.6506  0.4167
 6442SOL    HW230960   2.564   3.869   3.203 -1.5166 -0.5685 -0.3711
 6443SOL     OW30961   2.846   0.774   1.282 -0.3745  0.2237  0.9729
 6443SOL    HW130962   2.889   0.726   1.353  2.1539  1.3290  0.1884
 6443SOL    HW230963   2.914   0.839   1.264  0.3821 -0.6359  0.7578
 6444SOL     OW30964   2.162   0.014   7.551 -0.4175  0.0872  0.1016
 6444SOL    HW130965   2.252   0.033   7.574 -0.6414  2.7914 -1.1809
 6444SOL    HW230966   2.137   0.103   7.526 -1.6648 -0.8092 -1.8808
 6445SOL     OW30967   1.574   4.305  15.611 -0.0985  0.1361  0.3655
 6445SOL    HW130968   1.630   4.258  15.549 -0.5292 -0.8363  0.7042
 6445SOL    HW230969   1.594   4.397  15.596  1.4158 -0.1493  0.6683
 6446SOL     OW30970   3.059   3.714   8.313 -0.0206 -0.3123 -0.1798
 6446SOL    HW130971   2.976   3.752   8.343 -0.0110  0.3466 -0.9974
 6446SOL    HW230972   3.114   3.754   8.381 -0.3679 -2.8469  1.6137
 6447SOL     OW30973   4.288   0.372   9.835  0.1273  0.4079  0.1424
 6447SOL    HW130974   4.245   0.288   9.818  0.5887  0.7186 -2.5437
 6447SOL    HW230975   4.231   0.406   9.904 -1.9226  1.0427 -1.8609
 6448SOL     OW30976   0.858   2.989   3.410  0.0872  0.4863 -0.2832
 6448SOL    HW130977   0.885   2.907   3.450  0.6253  1.8615  2.2022
 6448SOL    HW230978   0.860   3.040   3.491  2.9800 -0.5125  0.2460
 6449SOL     OW30979   2.453   0.622  17.184 -0.1139  0.2924 -0.0460
 6449SOL    HW130980   2.417   0.690  17.241  0.7865 -0.5022  1.4582
 6449SOL    HW230981   2.548   0.633  17.180 -0.0465 -0.0253  0.7003
 6450SOL     OW30982   0.397   0.383   6.621  0.1608 -0.5360  0.3334
 6450SOL    HW130983   0.360   0.413   6.704  0.7677 -4.9360  2.2039
 6450SOL    HW230984   0.448   0.308   6.652 -0.2606 -1.3042 -0.8352
 6451SOL     OW30985   4.560   3.381   7.025 -0.3033 -0.2978 -0.3580
 6451SOL    HW130986   4.480   3.359   6.977  0.7342 -4.5572 -0.2132
 6451SOL    HW230987   4.580   3.473   7.011  0.0612 -0.4062 -0.5439
 6452SOL     OW30988   4.235   1.401   0.640 -0.2406  0.0529  0.0052
 6452SOL    HW130989   4.141   1.416   0.633  0.0487  0.6822 -2.6835
 6452SOL    HW230990   4.257   1.420   0.731 -1.2944  0.2394  0.2167
 6453SOL     OW30991   0.014   0.834  13.278 -0.5670  0.2961 -0.3839
 6453SOL    HW130992   4.689   0.760  13.298  0.3379  0.6171  3.2546
 6453SOL    HW230993   4.694   0.876  13.210 -3.1472 -2.5298 -0.1532
 6454SOL     OW30994   3.313   4.428   7.130 -0.3124 -0.2746  0.1266
 6454SOL    HW130995   3.350   4.495   7.072 -0.4230 -0.6763 -0.4057
 6454SOL    HW230996   3.388   4.388   7.174  1.0798  2.5243  0.3608
 6455SOL     OW30997   0.419   1.987   7.243 -0.1066  0.6783  0.6968
 6455SOL    HW130998   0.432   1.892   7.244 -0.1414  0.6274 -1.8493
 6455SOL    HW230999   0.498   2.019   7.286  0.7166 -0.6777  0.1874
 6456SOL     OW31000   1.321   3.253   5.125 -0.7097  0.4503 -0.4890
 6456SOL    HW131001   1.387   3.253   5.195 -1.1999 -0.9431 -0.0252
 6456SOL    HW231002   1.246   3.286   5.174 -0.2763 -1.9637  1.7929
 6457SOL     OW31003   2.869   0.858   5.817  0.2720  0.0008  0.4904
 6457SOL    HW131004   2.926   0.811   5.877  1.2596  2.1557  1.2495
 6457SOL    HW231005   2.926   0.876   5.742 -1.5130 -0.7860 -1.0474
 6458SOL     OW31006   0.146   1.382   2.165  0.2584 -0.3069  0.1366
 6458SOL    HW131007   0.174   1.292   2.183  0.8490  0.1322  1.3996
 6458SOL    HW231008   0.212   1.432   2.212  0.1390 -1.5601  1.6268
 6459SOL     OW31009   3.616   1.301  11.325 -0.5212 -0.9735  0.0157
 6459SOL    HW131010   3.525   1.295  11.352 -1.0262  1.1461 -1.2333
 6459SOL    HW231011   3.648   1.345  11.404  0.3056 -1.9193  0.2194
 6460SOL     OW31012   0.791   4.568   2.481  0.1580 -0.6014  0.3397
 6460SOL    HW131013   0.786   4.583   2.576 -2.8203  1.2881 -0.1317
 6460SOL    HW231014   0.759   4.477   2.476 -2.2871  0.2579  0.2824
 6461SOL     OW31015   3.740   4.244   3.957  0.0299 -0.3208  0.1793
 6461SOL    HW131016   3.757   4.281   4.043 -1.1238 -0.4373  0.4626
 6461SOL    HW231017   3.652   4.278   3.941  0.3589  0.1867 -0.5134
 6462SOL     OW31018   4.209   1.414  10.596 -0.7927  0.3621 -0.0530
 6462SOL    HW131019   4.117   1.414  10.620  0.1597 -0.2034  3.7099
 6462SOL    HW231020   4.245   1.425  10.684  2.9344 -1.1915 -1.3305
 6463SOL     OW31021   2.570   0.851   0.315  0.5185 -0.5161 -0.1640
 6463SOL    HW131022   2.568   0.758   0.337  1.7980 -0.4552  0.2127
 6463SOL    HW231023   2.660   0.875   0.338  0.6306  1.9814 -3.1274
 6464SOL     OW31024   0.732   0.523   9.769  0.5746  0.6041 -0.8475
 6464SOL    HW131025   0.757   0.516   9.861  1.3240  0.2434 -1.0820
 6464SOL    HW231026   0.797   0.461   9.737 -0.5759 -0.7590 -0.5500
 6465SOL     OW31027   4.524   4.683  11.205  0.7834  0.1950  0.5411
 6465SOL    HW131028   4.430   4.701  11.211  0.4728 -0.7746 -1.3530
 6465SOL    HW231029   4.536   4.644  11.118 -1.4680  0.9014 -0.0762
 6466SOL     OW31030   3.925   1.336  11.202  0.4764  0.0145 -0.0477
 6466SOL    HW131031   3.891   1.389  11.274 -1.3449  0.8139 -1.5149
 6466SOL    HW231032   3.983   1.276  11.250 -0.7102 -2.6710 -1.9444
 6467SOL     OW31033   2.223   3.297   9.036 -0.5182 -0.0464 -0.4711
 6467SOL    HW131034   2.130   3.314   9.049 -0.0659  1.6064  0.6550
 6467SOL    HW231035   2.239   3.358   8.964 -1.3162 -0.4994 -1.0274
 6468SOL     OW31036   4.581   1.076   7.019  0.4254 -0.3917  0.1275
 6468SOL    HW131037   4.644   1.121   6.962 -0.9489  1.4427  0.1024
 6468SOL    HW231038   4.541   1.144   7.073  0.3046 -0.1567 -0.2623
 6469SOL     OW31039   0.959   1.441  17.293 -0.3057 -0.2947  0.0579
 6469SOL    HW131040   0.920   1.500  17.358  0.3555  1.7708 -1.4437
 6469SOL    HW231041   1.035   1.497  17.277 -3.2678  3.3003 -1.5048
 6470SOL     OW31042   4.525   4.391  10.371  0.2637  0.4080  0.4875
 6470SOL    HW131043   4.467   4.337  10.317  1.2761  0.2777 -0.4594
 6470SOL    HW231044   4.521   4.482  10.341  0.4817  0.9950  2.2387
 6471SOL     OW31045   0.137   1.372   7.185  0.0295  0.2762 -0.1479
 6471SOL    HW131046   0.191   1.358   7.263  2.4538 -0.5828 -1.9872
 6471SOL    HW231047   0.182   1.321   7.118  0.3842 -0.4701  0.6604
 6472SOL     OW31048   1.265   2.878   6.798 -0.0851 -0.5755 -0.4397
 6472SOL    HW131049   1.214   2.893   6.878  0.2452 -0.9122 -0.1609
 6472SOL    HW231050   1.237   2.951   6.744  5.2938  0.4357 -1.8972
 6473SOL     OW31051   3.799   2.314   2.535 -0.4395  0.4841 -0.4107
 6473SOL    HW131052   3.870   2.376   2.521 -0.0539  0.6132  2.2413
 6473SOL    HW231053   3.817   2.293   2.627 -1.1134  2.9404  0.2793
 6474SOL     OW31054   0.336   3.482   9.033  0.3560 -0.0633 -0.1990
 6474SOL    HW131055   0.245   3.468   9.060  0.9396  0.8751  2.3201
 6474SOL    HW231056   0.384   3.517   9.109  1.1334 -0.2289 -0.6132
 6475SOL     OW31057   1.239   1.847  11.044 -0.0752 -0.2941  0.1109
 6475SOL    HW131058   1.180   1.898  10.988 -0.8409 -1.9877 -0.6570
 6475SOL    HW231059   1.273   1.914  11.102 -2.3378  0.0185  1.0698
 6476SOL     OW31060   2.405   2.823  14.856  0.3460  0.1094  0.3601
 6476SOL    HW131061   2.356   2.740  14.853 -1.1773  1.0564 -1.1108
 6476SOL    HW231062   2.473   2.797  14.793  0.9098  1.5880  0.3689
 6477SOL     OW31063   3.342   0.663   5.962 -0.6617  0.0820 -0.0045
 6477SOL    HW131064   3.353   0.569   5.972 -1.2214 -0.0845 -0.8768
 6477SOL    HW231065   3.410   0.692   6.022 -0.2152 -0.2309 -0.3623
 6478SOL     OW31066   4.692   2.853   4.477  0.1281  0.2134 -0.3103
 6478SOL    HW131067   0.054   2.842   4.466  0.0707  0.4678 -1.0791
 6478SOL    HW231068   4.659   2.766   4.455  0.1720 -0.0334  0.6102
 6479SOL     OW31069   4.187   1.963  17.602  0.3079 -0.3554 -0.5521
 6479SOL    HW131070   4.220   1.907  17.532  1.1630  0.3660 -0.7330
 6479SOL    HW231071   4.121   1.903  17.637  1.4288 -1.7766 -0.8731
 6480SOL     OW31072   0.427   3.844   8.009  0.2212  0.6399  0.0287
 6480SOL    HW131073   0.361   3.840   7.940  0.8943 -0.9671 -0.5167
 6480SOL    HW231074   0.428   3.757   8.048  0.5753  0.5095 -0.2659
 6481SOL     OW31075   3.338   2.414   4.149 -0.0605  0.0128  0.0141
 6481SOL    HW131076   3.252   2.397   4.188 -0.3912  2.4340  0.2972
 6481SOL    HW231077   3.383   2.336   4.181  0.2335  0.6399  1.1114
 6482SOL     OW31078   0.930   2.689   5.116 -0.1805  0.1042 -0.4706
 6482SOL    HW131079   0.915   2.650   5.202  0.6405  2.7747  0.8692
 6482SOL    HW231080   0.907   2.628   5.045 -1.5103  1.2451 -1.0312
 6483SOL     OW31081   3.946   1.179   9.189  0.2922 -0.4037 -0.2651
 6483SOL    HW131082   3.968   1.088   9.170 -3.0285 -1.1084 -0.7198
 6483SOL    HW231083   4.029   1.214   9.223  0.0162  1.5377 -1.5979
 6484SOL     OW31084   2.928   3.990   0.224  0.3461  0.0384 -0.2253
 6484SOL    HW131085   2.861   3.925   0.244  0.0291  0.6091  0.6143
 6484SOL    HW231086   2.952   3.963   0.136  0.9255 -1.2865  0.3408
 6485SOL     OW31087   0.170   2.206   2.874  0.1196  0.2936  1.0372
 6485SOL    HW131088   0.114   2.163   2.809  1.7176 -1.1347  0.5882
 6485SOL    HW231089   0.237   2.248   2.820 -1.6144  1.3717 -0.2654
 6486SOL     OW31090   2.306   3.354  16.173  0.2634  0.2979 -0.0624
 6486SOL    HW131091   2.334   3.363  16.082 -0.8052 -0.4050 -0.4560
 6486SOL    HW231092   2.307   3.446  16.202 -0.6227  1.4508 -3.7248
 6487SOL     OW31093   4.340   3.633   8.997 -0.5524 -0.4717 -0.1660
 6487SOL    HW131094   4.284   3.600   9.068 -1.0463  0.6894 -0.0147
 6487SOL    HW231095   4.283   3.638   8.920  0.0335  0.7522 -0.5183
 6488SOL     OW31096   3.350   3.821  16.194  0.2449  0.2422 -0.9797
 6488SOL    HW131097   3.281   3.867  16.148  0.1105  1.9550  0.9246
 6488SOL    HW231098   3.397   3.777  16.123 -1.2417 -0.4683 -1.5146
 6489SOL     OW31099   3.337   0.329  15.919 -0.0820 -0.2252  0.0639
 6489SOL    HW131100   3.248   0.307  15.892  0.4657  0.4555 -2.2658
 6489SOL    HW231101   3.327   0.424  15.917  1.1431 -0.0785  0.9872
 6490SOL     OW31102   3.951   0.244   3.760 -0.0838 -0.2502  0.3107
 6490SOL    HW131103   3.924   0.162   3.802  1.4239 -1.9611 -2.0881
 6490SOL    HW231104   3.978   0.209   3.675 -0.0721  0.3643  0.0606
 6491SOL     OW31105   0.331   3.223   4.944  0.4507  0.1823  0.4108
 6491SOL    HW131106   0.400   3.288   4.950 -0.8132  1.5091  0.4731
 6491SOL    HW231107   0.258   3.268   4.902  0.4743  0.3897  0.5950
 6492SOL     OW31108   2.389   4.646   7.848  0.4465 -0.1484 -0.0056
 6492SOL    HW131109   2.474   4.668   7.810  1.3946  0.1238  2.2610
 6492SOL    HW231110   2.371   0.006   7.865  1.9843 -0.1368  1.5824
 6493SOL     OW31111   1.295   4.236   5.547 -0.2172  0.4781 -0.1362
 6493SOL    HW131112   1.225   4.217   5.609  1.2191 -1.5404  0.8708
 6493SOL    HW231113   1.303   4.147   5.513  1.4445  1.2892 -1.9219
 6494SOL     OW31114   4.263   1.185   9.058 -0.1556 -0.1424  0.1996
 6494SOL    HW131115   4.314   1.108   9.084  1.5762  0.8769 -0.2271
 6494SOL    HW231116   4.208   1.157   8.984  1.1051  3.4255 -2.1029
 6495SOL     OW31117   4.431   3.936   3.946  0.3900 -0.8196 -0.1483
 6495SOL    HW131118   4.472   4.021   3.934  1.5827 -0.8532  3.4429
 6495SOL    HW231119   4.502   3.872   3.954  2.9649  2.1306  0.5231
 6496SOL     OW31120   3.610   4.258  10.641 -0.5878  0.2221 -0.1850
 6496SOL    HW131121   3.569   4.191  10.695 -0.5807  1.1006  0.9112
 6496SOL    HW231122   3.570   4.236  10.556 -0.5860  1.1920 -0.4415
 6497SOL     OW31123   0.777   4.150   2.225  0.0040 -0.2646 -0.1273
 6497SOL    HW131124   0.706   4.200   2.185 -0.0971  0.5606  1.0751
 6497SOL    HW231125   0.842   4.152   2.155 -2.6593  1.2242 -2.5651
 6498SOL     OW31126   2.074   0.277   5.402  0.6662  0.8330 -0.1363
 6498SOL    HW131127   2.017   0.259   5.328 -0.3977  0.4131  0.7891
 6498SOL    HW231128   2.009   0.336   5.441  0.4524 -0.2231  1.0857
 6499SOL     OW31129   1.499   4.648   6.852 -0.1115 -0.1851 -0.4486
 6499SOL    HW131130   1.568   4.683   6.908  0.5228  0.8092 -1.8469
 6499SOL    HW231131   1.425   4.675   6.906 -0.8021  0.1817 -1.5759
 6500SOL     OW31132   0.562   4.207  15.359 -0.0354 -0.2755  0.1208
 6500SOL    HW131133   0.485   4.167  15.319 -0.7243  1.1239  0.0609
 6500SOL    HW231134   0.550   4.189  15.452 -1.4321 -1.2735 -0.2584
 6501SOL     OW31135   4.117   4.172   3.855 -0.7266 -0.0089 -0.6779
 6501SOL    HW131136   4.142   4.092   3.808  0.3464 -0.5963  0.8832
 6501SOL    HW231137   4.068   4.128   3.925  0.9121  1.8787  1.6259
 6502SOL     OW31138   2.674   0.424   5.809 -0.1058 -0.2366 -0.1858
 6502SOL    HW131139   2.768   0.442   5.802 -0.0553  0.2247  1.8548
 6502SOL    HW231140   2.646   0.516   5.806  0.6378  0.0292  1.1064
 6503SOL     OW31141   3.828   3.980   7.995 -0.2339 -0.0546  1.1667
 6503SOL    HW131142   3.844   4.023   8.080  0.6044 -0.1798  1.0698
 6503SOL    HW231143   3.744   3.941   8.016 -0.2580 -1.4017 -1.4892
 6504SOL     OW31144   3.480   1.173   0.678 -0.3834 -0.2145 -0.1327
 6504SOL    HW131145   3.527   1.254   0.661 -0.7575 -0.1127 -0.6960
 6504SOL    HW231146   3.542   1.117   0.725  1.5551 -0.7038 -3.2468
 6505SOL     OW31147   3.498   3.767  12.346  0.2941 -0.2666  0.6278
 6505SOL    HW131148   3.471   3.830  12.279  1.2898 -0.2501  0.2416
 6505SOL    HW231149   3.569   3.722  12.300  1.2984 -0.7181  2.6067
 6506SOL     OW31150   1.320   1.039   4.583 -0.1257 -0.6866 -0.3814
 6506SOL    HW131151   1.364   1.119   4.554 -0.7209  0.2799  1.3292
 6506SOL    HW231152   1.251   1.018   4.521 -0.8810 -1.1454  0.6108
 6507SOL     OW31153   1.189   4.098   4.742  0.5067 -0.1116 -0.2316
 6507SOL    HW131154   1.161   4.038   4.672 -1.1096  0.1278  0.2016
 6507SOL    HW231155   1.196   4.035   4.814 -1.2403 -0.6806 -0.5595
 6508SOL     OW31156   1.233   0.614   6.005  0.3537 -0.1451 -0.2032
 6508SOL    HW131157   1.273   0.590   6.089  1.4031 -0.2852 -0.7406
 6508SOL    HW231158   1.141   0.588   6.007 -0.4869  2.8819 -1.4744
 6509SOL     OW31159   4.381   4.232   2.780 -0.4401 -0.0066 -0.8063
 6509SOL    HW131160   4.402   4.326   2.785 -2.7356  0.4997 -0.9116
 6509SOL    HW231161   4.308   4.233   2.719 -1.5433  2.8897  0.5250
 6510SOL     OW31162   0.608   1.994   6.261 -0.0147 -0.5018  0.5419
 6510SOL    HW131163   0.573   2.014   6.347  1.1109  0.0488  0.8771
 6510SOL    HW231164   0.652   1.910   6.277 -0.0384 -0.5116  0.5550
 6511SOL     OW31165   2.551   1.804  10.905  0.3469 -0.4111 -0.3073
 6511SOL    HW131166   2.511   1.778  10.821 -3.8501 -2.7217  2.4169
 6511SOL    HW231167   2.541   1.724  10.956 -2.0250 -0.8133 -1.3854
 6512SOL     OW31168   4.169   2.328   5.923 -0.3687  0.4022 -0.0404
 6512SOL    HW131169   4.183   2.255   5.983  2.1211  0.3699 -0.6501
 6512SOL    HW231170   4.152   2.397   5.987 -1.4562 -1.5101  1.7400
 6513SOL     OW31171   3.692   2.951  15.728 -0.4296 -0.0258  0.1337
 6513SOL    HW131172   3.764   3.003  15.693 -0.5738  1.0228  1.3853
 6513SOL    HW231173   3.614   2.980  15.681  0.6907 -0.5691 -2.0239
 6514SOL     OW31174   3.746   0.277  17.528  0.2062  0.1984  0.0666
 6514SOL    HW131175   3.800   0.357  17.528 -2.4385  1.9870  0.5812
 6514SOL    HW231176   3.673   0.308  17.475 -2.0782 -0.3098  2.9608
 6515SOL     OW31177   1.817   4.516   5.678  0.5528 -0.0644  0.1173
 6515SOL    HW131178   1.833   4.437   5.730 -0.3689  0.1929  0.8002
 6515SOL    HW231179   1.721   4.517   5.681  0.5098 -0.7088 -1.0414
 6516SOL     OW31180   1.500   1.397   7.318  0.2668  0.3474 -0.0380
 6516SOL    HW131181   1.469   1.483   7.289  0.7746  0.6839  0.4183
 6516SOL    HW231182   1.493   1.418   7.411  1.3875  0.4960  0.0147
 6517SOL     OW31183   1.683   1.991   6.123 -0.1911  0.0397  0.3338
 6517SOL    HW131184   1.721   1.984   6.035  1.6748 -0.7394  1.2205
 6517SOL    HW231185   1.596   1.964   6.094 -0.3387 -0.6617  1.4420
 6518SOL     OW31186   2.488   2.133   7.332 -0.5462  0.3849 -0.6258
 6518SOL    HW131187   2.538   2.156   7.254  2.8468 -1.0503  1.1227
 6518SOL    HW231188   2.529   2.051   7.361 -2.1115 -0.0650  0.3303
 6519SOL     OW31189   2.881   2.678   8.070  0.2364 -0.0879  0.1140
 6519SOL    HW131190   2.932   2.683   7.990 -1.5200  1.4581 -0.9144
 6519SOL    HW231191   2.814   2.745   8.057 -2.8886 -3.3514 -0.5474
 6520SOL     OW31192   4.323   3.802  12.462 -0.4284  0.2787 -0.2469
 6520SOL    HW131193   4.232   3.785  12.488 -0.7514 -3.5306 -3.8971
 6520SOL    HW231194   4.346   3.714  12.491 -2.0213  0.8638  2.8220
 6521SOL     OW31195   0.925   3.162   3.233 -0.0360 -0.5501  0.4100
 6521SOL    HW131196   1.001   3.181   3.288 -0.4681  0.4512  0.6600
 6521SOL    HW231197   0.889   3.087   3.280 -0.2286  1.2379  3.1724
 6522SOL     OW31198   0.224   4.168  11.622 -0.2272  0.1913 -0.8103
 6522SOL    HW131199   0.213   4.219  11.541 -2.3152  2.2415  0.7518
 6522SOL    HW231200   0.146   4.115  11.611  1.0339 -1.8058 -0.0668
 6523SOL     OW31201   4.414   1.380   1.877 -0.4402  0.2361  0.8754
 6523SOL    HW131202   4.335   1.432   1.862  0.8816  2.3998  1.5503
 6523SOL    HW231203   4.459   1.428   1.946 -1.8524  3.4994 -0.4703
 6524SOL     OW31204   1.468   0.965  11.836 -0.1394  0.1682 -0.4289
 6524SOL    HW131205   1.560   0.959  11.811 -0.1791 -0.9423 -0.2791
 6524SOL    HW231206   1.439   0.877  11.860  2.5093 -0.5155  0.1932
 6525SOL     OW31207   3.943   0.931   3.741 -0.2149 -0.1963 -0.1920
 6525SOL    HW131208   4.009   0.968   3.800 -0.3100 -1.7820  0.9269
 6525SOL    HW231209   3.889   0.874   3.797 -1.5375 -0.3762 -1.6626
 6526SOL     OW31210   2.359   0.366   4.959  0.5449  0.5634  0.3699
 6526SOL    HW131211   2.404   0.384   4.877  0.2277 -0.0181  0.0682
 6526SOL    HW231212   2.269   0.365   4.926 -0.3625 -0.6648  2.8764
 6527SOL     OW31213   1.001   1.197   4.581  0.0707 -0.2642  0.2938
 6527SOL    HW131214   1.026   1.112   4.546  1.6113  0.7563 -1.1178
 6527SOL    HW231215   0.952   1.232   4.507  0.6914 -1.3298 -0.6256
 6528SOL     OW31216   3.881   1.498   1.761  0.0714 -0.4452  0.2784
 6528SOL    HW131217   3.956   1.443   1.737  1.4059  2.3051 -1.7595
 6528SOL    HW231218   3.812   1.434   1.739 -0.1549 -0.2023  0.2802
 6529SOL     OW31219   2.037   4.229   6.887  0.6396  0.3144  0.1291
 6529SOL    HW131220   2.059   4.318   6.859  3.0856 -1.5674 -3.9520
 6529SOL    HW231221   2.103   4.190   6.830 -0.6573 -3.0391  0.9658
 6530SOL     OW31222   1.400   4.469   7.101  0.0468 -0.3326  0.5559
 6530SOL    HW131223   1.495   4.476   7.114 -0.0101 -0.6580  1.1237
 6530SOL    HW231224   1.372   4.389   7.145 -2.3127 -0.2428 -0.7814
 6531SOL     OW31225   2.077   3.510   3.493 -0.0388  0.1372  0.1130
 6531SOL    HW131226   1.992   3.526   3.533  0.3782 -1.3783  1.6092
 6531SOL    HW231227   2.139   3.512   3.566 -0.7592  1.1100  0.7023
 6532SOL     OW31228   3.890   0.509   3.839 -0.6462  0.2920  0.0848
 6532SOL    HW131229   3.977   0.524   3.876 -1.3023  0.2393  1.6303
 6532SOL    HW231230   3.904   0.421   3.803 -0.5043  0.7776 -1.0547
 6533SOL     OW31231   3.259   2.095   2.392  0.1490 -0.2181  0.1002
 6533SOL    HW131232   3.221   2.118   2.477 -1.4509  2.4620 -1.3574
 6533SOL    HW231233   3.338   2.046   2.416 -0.0756  0.6654  2.6528
 6534SOL     OW31234   4.119   1.966   6.536 -0.4426 -0.2692  0.4422
 6534SOL    HW131235   4.105   2.049   6.489  0.4261  0.8207  2.1056
 6534SOL    HW231236   4.214   1.957   6.526 -0.3778  0.2132  0.6021
 6535SOL     OW31237   4.387   0.870  11.853 -0.3876 -0.0326  0.3677
 6535SOL    HW131238   4.348   0.888  11.768  2.2669 -1.5467 -1.1449
 6535SOL    HW231239   4.397   0.775  11.854 -2.0036 -0.1963  0.2765
 6536SOL     OW31240   4.604   4.117  13.733  0.2812 -0.3969  0.1866
 6536SOL    HW131241   4.568   4.073  13.811  1.0857 -2.0780 -0.3861
 6536SOL    HW231242   4.675   4.165  13.776 -1.5722 -0.5930  3.4510
 6537SOL     OW31243   2.983   3.343   9.383  0.1141 -0.1773  0.4184
 6537SOL    HW131244   3.007   3.266   9.435  1.8238 -0.0445 -0.1492
 6537SOL    HW231245   3.058   3.401   9.399  0.2122  0.5470 -2.7136
 6538SOL     OW31246   2.058   3.290   5.843  0.1049  0.1843 -0.2229
 6538SOL    HW131247   2.132   3.247   5.799  0.9970  2.3273 -0.8351
 6538SOL    HW231248   2.094   3.363   5.893 -1.1742  0.8576 -0.2735
 6539SOL     OW31249   0.287   0.680   9.288 -0.7091 -0.1125  0.3218
 6539SOL    HW131250   0.366   0.667   9.236 -0.9234  1.9345 -0.4908
 6539SOL    HW231251   0.315   0.736   9.361  0.4161 -0.4445  0.1368
 6540SOL     OW31252   3.138   2.815   4.274  0.2569 -0.3312 -0.4609
 6540SOL    HW131253   3.095   2.896   4.302  1.1735 -0.7331  2.1199
 6540SOL    HW231254   3.229   2.843   4.290  0.0692  0.2410 -0.3980
 6541SOL     OW31255   0.998   4.389   8.497  0.2257 -0.3804  0.7309
 6541SOL    HW131256   1.066   4.341   8.545 -0.5926 -1.5538  0.7336
 6541SOL    HW231257   1.027   4.382   8.406 -1.2554 -0.3083  0.2501
 6542SOL     OW31258   4.694   0.856   2.690 -0.0814  0.3383  0.1112
 6542SOL    HW131259   4.718   0.941   2.728  0.2077  0.7802 -1.0478
 6542SOL    HW231260   4.620   0.885   2.636 -0.4797  0.1175  0.5361
 6543SOL     OW31261   3.844   3.000  12.698  0.3880  0.4724 -0.3326
 6543SOL    HW131262   3.783   2.938  12.658  0.0848  0.3338  0.3418
 6543SOL    HW231263   3.902   2.937  12.742  0.1042 -0.6895 -1.6224
 6544SOL     OW31264   3.179   2.079   8.707 -0.3457  0.5966  0.5841
 6544SOL    HW131265   3.233   2.059   8.631 -2.3226  1.3415 -1.0234
 6544SOL    HW231266   3.245   2.088   8.775  1.4947 -0.4451 -1.0791
 6545SOL     OW31267   4.626   3.216   8.615  0.3361 -0.2809  0.1419
 6545SOL    HW131268   4.615   3.123   8.637 -2.0715 -0.1496 -0.4241
 6545SOL    HW231269   4.561   3.245   8.679 -1.3625 -0.6397 -1.3996
 6546SOL     OW31270   2.044   1.251   7.923 -0.2481  0.1736 -0.1253
 6546SOL    HW131271   1.981   1.281   7.858 -1.3292 -0.8146  0.4577
 6546SOL    HW231272   2.095   1.331   7.935  3.1015 -2.2181  1.4687
 6547SOL     OW31273   0.627   0.676  10.399 -0.2425  0.4645  0.4938
 6547SOL    HW131274   0.655   0.641  10.484  2.2642  1.3354  0.0104
 6547SOL    HW231275   0.707   0.714  10.362 -1.7189  2.6355 -0.5295
 6548SOL     OW31276   0.610   4.299   4.028  0.3584 -0.2222  0.1562
 6548SOL    HW131277   0.660   4.252   3.962 -0.2193 -0.0071 -0.4298
 6548SOL    HW231278   0.680   4.359   4.053 -0.8594  0.5281  1.7949
 6549SOL     OW31279   3.383   2.483   5.969  0.1535  0.0805 -0.2374
 6549SOL    HW131280   3.340   2.401   5.945  0.3110  0.4237 -1.6663
 6549SOL    HW231281   3.320   2.539   6.013 -0.5479 -1.5167  0.7874
 6550SOL     OW31282   3.144   0.713   2.222 -0.6200 -0.3738 -0.1028
 6550SOL    HW131283   3.098   0.689   2.141 -2.1943 -1.9221  1.2347
 6550SOL    HW231284   3.095   0.648   2.273 -0.6364 -0.2912 -0.0134
 6551SOL     OW31285   1.053   2.504   2.713  0.4630  0.3679  0.1430
 6551SOL    HW131286   0.977   2.557   2.688 -0.0192 -0.4671 -0.1546
 6551SOL    HW231287   1.039   2.424   2.663  1.8195 -0.1708  0.6150
 6552SOL     OW31288   2.824   3.417   0.552  0.1154 -0.0311  0.5331
 6552SOL    HW131289   2.783   3.446   0.470 -0.4729  3.0592  1.9111
 6552SOL    HW231290   2.818   3.322   0.548  1.8292 -0.0963 -0.5911
 6553SOL     OW31291   0.804   4.268   5.166  0.1786  0.0201  0.1668
 6553SOL    HW131292   0.847   4.228   5.242  0.3347 -1.7539 -0.8597
 6553SOL    HW231293   0.878   4.312   5.123 -1.5794  1.0918 -1.7100
 6554SOL     OW31294   1.581   3.491  10.401  0.4335  0.5118 -0.0205
 6554SOL    HW131295   1.506   3.547  10.380 -0.3721 -0.5424  0.0376
 6554SOL    HW231296   1.609   3.541  10.478 -2.1904  0.7534  0.7884
 6555SOL     OW31297   1.594   4.475   0.166 -0.0608 -0.4911  0.4111
 6555SOL    HW131298   1.613   4.413   0.096  1.1337 -1.3940  1.5359
 6555SOL    HW231299   1.589   4.418   0.243 -0.4889 -1.2535 -0.1850
 6556SOL     OW31300   2.982   2.465   2.267 -0.4328  0.2662 -0.2032
 6556SOL    HW131301   2.898   2.425   2.289 -0.9784  2.8060  2.2170
 6556SOL    HW231302   3.028   2.381   2.263  0.5595  0.8077 -0.1164
 6557SOL     OW31303   0.390   3.445   8.651 -0.2985 -0.4564 -0.1787
 6557SOL    HW131304   0.310   3.400   8.623 -0.1612 -1.5319  1.1293
 6557SOL    HW231305   0.381   3.421   8.744 -0.3288  0.9323  0.1747
 6558SOL     OW31306   1.899   4.662   7.625 -0.4363 -0.0760 -0.0558
 6558SOL    HW131307   1.992   4.681   7.625 -0.7366  1.4482 -0.1249
 6558SOL    HW231308   1.865   4.710   7.700 -0.1171 -0.4862  0.3439
 6559SOL     OW31309   1.909   3.603  11.094  0.4854  0.0301  0.1509
 6559SOL    HW131310   1.902   3.679  11.036 -1.1346 -0.0810  0.1926
 6559SOL    HW231311   1.967   3.549  11.041 -0.8386 -0.6524 -0.6201
 6560SOL     OW31312   3.157   1.730   2.360  0.0528 -0.5686  0.5460
 6560SOL    HW131313   3.216   1.654   2.360  1.8603  0.8299 -0.4465
 6560SOL    HW231314   3.180   1.763   2.447 -1.0812  0.2059  0.5443
 6561SOL     OW31315   0.439   2.000   7.719 -0.1100 -0.0603  0.1715
 6561SOL    HW131316   0.494   2.074   7.693  0.3332 -0.5736 -0.3376
 6561SOL    HW231317   0.477   1.982   7.805  1.8718 -1.2690 -0.9613
 6562SOL     OW31318   1.973   0.547  17.266 -0.2391 -0.3005 -0.6128
 6562SOL    HW131319   1.892   0.576  17.309  0.6102  0.3136  0.5648
 6562SOL    HW231320   1.958   0.559  17.172 -0.6569  0.8435 -0.4041
 6563SOL     OW31321   2.541   4.310   8.738 -0.2320  0.6499  0.1782
 6563SOL    HW131322   2.509   4.378   8.679  0.2305 -0.9075 -1.8541
 6563SOL    HW231323   2.516   4.349   8.822 -0.8646 -0.1030  0.3455
 6564SOL     OW31324   0.731   3.363   9.133 -0.3353 -0.9552  0.2269
 6564SOL    HW131325   0.714   3.432   9.198 -1.8651  0.2412 -1.4645
 6564SOL    HW231326   0.705   3.408   9.053  0.3817  1.2502  1.2228
 6565SOL     OW31327   3.848   4.527   1.832 -0.5104 -0.4629 -0.0090
 6565SOL    HW131328   3.927   4.482   1.861 -0.8712 -1.4598 -0.5822
 6565SOL    HW231329   3.847   4.602   1.892  0.9221  1.3587 -2.2275
 6566SOL     OW31330   4.272   3.609   5.099  0.4370  0.5715 -0.1238
 6566SOL    HW131331   4.364   3.586   5.081  0.1084 -0.6222 -0.2916
 6566SOL    HW231332   4.286   3.702   5.118  1.6217  0.6113 -1.1689
 6567SOL     OW31333   1.202   0.695   5.558  0.1615 -0.0906 -0.1348
 6567SOL    HW131334   1.210   0.789   5.571  1.5284 -0.1551 -0.5008
 6567SOL    HW231335   1.254   0.658   5.629  2.3633 -0.7111 -2.0803
 6568SOL     OW31336   1.338   2.589   0.065  0.1841 -0.6044  0.5656
 6568SOL    HW131337   1.374   2.504   0.042 -0.0343 -1.4137  3.1595
 6568SOL    HW231338   1.419   2.639   0.059 -0.3210  0.1194 -0.2192
 6569SOL     OW31339   4.071   2.396   4.082 -0.9741 -0.2087  0.1330
 6569SOL    HW131340   4.133   2.402   4.154 -0.2705  2.3810 -0.6855
 6569SOL    HW231341   4.132   2.372   4.013 -1.0232 -0.1383  0.0652
 6570SOL     OW31342   0.526   3.925   5.624 -0.2810  0.0080 -0.0311
 6570SOL    HW131343   0.566   3.845   5.590 -1.9400 -0.2279 -1.4683
 6570SOL    HW231344   0.557   3.924   5.714  0.1344  0.8951 -0.1727
 6571SOL     OW31345   4.219   0.922   7.521  0.2935  0.3138 -0.4071
 6571SOL    HW131346   4.244   0.903   7.430  1.8242  0.8349 -0.1069
 6571SOL    HW231347   4.292   0.878   7.566 -0.0658  1.2451  1.0719
 6572SOL     OW31348   3.537   2.647   5.798 -0.1683  0.0677 -0.0628
 6572SOL    HW131349   3.485   2.589   5.853 -1.6941 -0.4523 -2.0584
 6572SOL    HW231350   3.477   2.718   5.776  0.2070  0.4236  0.0585
 6573SOL     OW31351   3.952   3.057   9.242 -0.2679 -0.5053 -0.3237
 6573SOL    HW131352   3.963   3.046   9.148 -0.2526 -2.4771 -0.0816
 6573SOL    HW231353   4.017   2.996   9.276 -0.6402 -0.2577  0.8364
 6574SOL     OW31354   4.669   4.542   1.315  0.3815  0.0722 -0.4242
 6574SOL    HW131355   4.713   4.494   1.385 -0.3247  1.0769  0.7068
 6574SOL    HW231356   4.660   4.628   1.355 -0.1355  0.2910 -1.0155
 6575SOL     OW31357   4.280   1.653   2.402  0.4533  0.2773 -0.0623
 6575SOL    HW131358   4.207   1.620   2.454  0.3056  0.8430  0.0937
 6575SOL    HW231359   4.348   1.587   2.389  0.6763  0.6481 -0.7584
 6576SOL     OW31360   3.692   2.162   2.337 -0.8641 -0.7207  0.3391
 6576SOL    HW131361   3.730   2.204   2.414 -0.0886 -0.7462 -0.0264
 6576SOL    HW231362   3.664   2.238   2.285 -1.9978 -2.5103 -1.6946
 6577SOL     OW31363   0.820   3.195  10.808  0.4413 -0.1653 -1.0692
 6577SOL    HW131364   0.743   3.141  10.792 -0.4821  0.8088  0.0354
 6577SOL    HW231365   0.796   3.283  10.779  0.3070  0.1815  0.0810
 6578SOL     OW31366   3.198   1.884   2.817  0.3377 -0.5760  0.0367
 6578SOL    HW131367   3.182   1.807   2.872 -1.2114  0.8518  1.5398
 6578SOL    HW231368   3.242   1.847   2.740  0.4605 -1.7890  0.6867
 6579SOL     OW31369   3.203   0.731   4.661  0.6177  0.2782 -0.1848
 6579SOL    HW131370   3.111   0.743   4.636  1.4916  1.2559 -2.9236
 6579SOL    HW231371   3.186   0.640   4.687  0.5138  0.2577 -0.3223
 6580SOL     OW31372   4.220   0.831   6.056  0.0721 -0.7281  0.0652
 6580SOL    HW131373   4.245   0.742   6.080  1.1404 -0.1233  1.1683
 6580SOL    HW231374   4.134   0.804   6.023 -0.2722 -1.7762  1.8437
 6581SOL     OW31375   3.378   1.937   0.032 -0.0365 -0.6543  0.5185
 6581SOL    HW131376   3.293   1.980   0.037  0.4124  0.2507  0.4530
 6581SOL    HW231377   3.427   1.978   0.104  0.1721  1.4258 -0.7967
 6582SOL     OW31378   2.204   0.995   2.783 -0.1442  0.0625 -0.3035
 6582SOL    HW131379   2.111   1.004   2.765 -0.4461 -2.7806 -0.2390
 6582SOL    HW231380   2.238   1.010   2.695 -0.3196  1.5739 -0.1049
 6583SOL     OW31381   4.182   1.177  17.377  1.0682 -0.3039 -0.0986
 6583SOL    HW131382   4.258   1.145  17.328 -0.5437 -2.8059 -0.9718
 6583SOL    HW231383   4.130   1.222  17.310 -1.6723 -3.2424  0.0526
 6584SOL     OW31384   3.397   4.546   3.829  0.2566  0.1987 -0.1533
 6584SOL    HW131385   3.358   4.534   3.742  1.6940  1.8054 -1.0151
 6584SOL    HW231386   3.479   4.585   3.798  0.7081  0.8823  1.9516
 6585SOL     OW31387   0.206   3.989   4.762 -0.1632  0.2821  0.3614
 6585SOL    HW131388   0.113   4.000   4.744 -0.4015 -1.0041  0.8104
 6585SOL    HW231389   0.201   3.910   4.815  0.7520  0.6630  1.0311
 6586SOL     OW31390   1.973   2.660   0.690 -0.3690 -0.3345 -0.2704
 6586SOL    HW131391   1.946   2.669   0.781 -2.4311  2.6215 -1.1633
 6586SOL    HW231392   1.895   2.610   0.664  0.4336 -1.2739 -0.8951
 6587SOL     OW31393   2.600   0.358   2.715  0.2747 -0.0973  0.0105
 6587SOL    HW131394   2.529   0.339   2.653  1.0892 -1.8885 -0.3695
 6587SOL    HW231395   2.560   0.414   2.782  1.1324  0.6250 -0.0815
 6588SOL     OW31396   3.578   1.971   5.250  0.0945  0.2859 -0.3256
 6588SOL    HW131397   3.580   1.892   5.303 -1.5463 -1.6131 -3.0654
 6588SOL    HW231398   3.518   2.033   5.290 -2.6953 -3.7997  1.7311
 6589SOL     OW31399   2.751   4.708   2.740  0.0544 -0.2519  0.1650
 6589SOL    HW131400   2.672   4.701   2.686 -0.0492  1.4631  0.1154
 6589SOL    HW231401   2.715   4.713   2.828 -1.9543 -0.6900 -0.6170
 6590SOL     OW31402   3.789   4.656   2.675 -0.1775  0.0178  0.2559
 6590SOL    HW131403   3.744   4.571   2.675  1.8303 -1.0193  3.2394
 6590SOL    HW231404   3.770   4.688   2.587  1.9699 -0.8076 -0.5171
 6591SOL     OW31405   1.929   4.238   3.539 -0.3525  0.0069  0.6517
 6591SOL    HW131406   2.007   4.285   3.510 -0.5731 -1.1794 -1.9059
 6591SOL    HW231407   1.973   4.193   3.611  1.0285  3.3947  1.8922
 6592SOL     OW31408   2.831   1.643   8.677 -0.5236  0.7996 -0.4436
 6592SOL    HW131409   2.819   1.734   8.652 -1.1210  1.1293  1.0026
 6592SOL    HW231410   2.741   1.616   8.658 -0.5094 -0.8361  1.6913
 6593SOL     OW31411   2.635   0.096   2.392 -0.7053  0.0074 -0.2004
 6593SOL    HW131412   2.577   0.094   2.468 -2.9613  0.1842 -1.9299
 6593SOL    HW231413   2.597   0.023   2.344 -0.0397 -1.7088  1.8595
 6594SOL     OW31414   1.436   0.828   3.296  0.8708 -0.2252 -0.5051
 6594SOL    HW131415   1.491   0.754   3.322  3.8852  1.1503 -2.9010
 6594SOL    HW231416   1.390   0.794   3.219 -0.7868  0.4569  0.1922
 6595SOL     OW31417   4.586   3.278  11.621  0.6144 -0.1009  0.7555
 6595SOL    HW131418   4.670   3.235  11.604  0.6444  1.2145 -2.5335
 6595SOL    HW231419   4.537   3.207  11.660  0.0469 -0.3983 -0.4966
 6596SOL     OW31420   2.529   1.451   2.705  0.5785 -0.2273 -0.2261
 6596SOL    HW131421   2.592   1.387   2.672  0.8678 -0.9745  1.7334
 6596SOL    HW231422   2.470   1.394   2.754 -0.9348  0.2780 -1.4786
 6597SOL     OW31423   1.522   4.085   2.976 -0.0612 -0.5303 -0.0916
 6597SOL    HW131424   1.576   4.109   3.051  0.2434 -0.9849 -0.1654
 6597SOL    HW231425   1.549   3.994   2.964  0.1236 -0.2718 -1.6969
 6598SOL     OW31426   4.404   1.932   5.519  0.3201  0.3396  0.1628
 6598SOL    HW131427   4.344   1.929   5.593  1.8481  0.8420  1.4425
 6598SOL    HW231428   4.444   2.018   5.537 -1.2774  1.3450 -1.1138
 6599SOL     OW31429   4.376   3.642  13.471 -0.2064  0.1448 -0.5390
 6599SOL    HW131430   4.359   3.641  13.565  2.1630  0.7224 -0.0968
 6599SOL    HW231431   4.343   3.728  13.446 -0.3011  0.4513  0.6531
 6600SOL     OW31432   4.586   1.404   3.586  0.0985 -0.1787 -0.2395
 6600SOL    HW131433   4.512   1.446   3.543  1.8928  1.9209 -1.2731
 6600SOL    HW231434   4.624   1.368   3.506 -0.7476  0.8521 -1.0996
 6601SOL     OW31435   0.356   1.981   8.538 -0.7160 -0.0625  0.2724
 6601SOL    HW131436   0.279   1.938   8.503 -0.7040  0.3255 -0.2316
 6601SOL    HW231437   0.413   1.907   8.517 -0.7716 -0.2930  0.9366
 6602SOL     OW31438   3.772   1.838  15.704  0.1441 -0.4717  0.1188
 6602SOL    HW131439   3.858   1.880  15.704 -0.3660  0.5490 -1.5258
 6602SOL    HW231440   3.728   1.896  15.643 -0.4319 -2.0627 -0.9958
 6603SOL     OW31441   2.523   0.808   7.087 -0.1662 -0.3477  0.7712
 6603SOL    HW131442   2.533   0.713   7.092  2.3117 -0.1801 -0.7700
 6603SOL    HW231443   2.590   0.825   7.021  0.4763  2.4898  2.1688
 6604SOL     OW31444   1.604   1.518   2.982  0.0362 -0.4798 -0.2195
 6604SOL    HW131445   1.630   1.567   3.060 -1.9786  1.4815 -0.7791
 6604SOL    HW231446   1.618   1.428   3.009 -2.4675 -1.2527 -1.5436
 6605SOL     OW31447   1.362   3.591  17.420  0.4142  0.1952 -0.4956
 6605SOL    HW131448   1.432   3.558  17.363 -2.1470 -2.9509 -1.8192
 6605SOL    HW231449   1.289   3.559  17.366  0.6517  0.2869 -0.8737
 6606SOL     OW31450   1.916   4.376   4.641  0.8640 -0.3639 -1.1818
 6606SOL    HW131451   1.976   4.331   4.581  2.2555  2.2439 -1.7500
 6606SOL    HW231452   1.856   4.303   4.657  0.9165  0.2493  1.7361
 6607SOL     OW31453   3.827   1.675   6.072 -0.2556 -0.5697  0.2763
 6607SOL    HW131454   3.774   1.750   6.098  1.3434  1.4286 -2.2524
 6607SOL    HW231455   3.867   1.706   5.991 -0.5296 -2.8640 -0.7451
 6608SOL     OW31456   2.362   3.264  15.871 -0.4997  0.1387 -0.2021
 6608SOL    HW131457   2.444   3.314  15.868 -0.2493 -0.3527 -1.5191
 6608SOL    HW231458   2.376   3.207  15.796 -1.5246 -0.3329 -0.0294
 6609SOL     OW31459   3.761   4.309  13.835 -0.5977 -0.5196  0.0825
 6609SOL    HW131460   3.766   4.384  13.894 -0.0107  1.0405 -1.9723
 6609SOL    HW231461   3.730   4.365  13.764  2.1352 -0.7285 -1.2461
 6610SOL     OW31462   1.900   3.863  11.459  0.2539  0.1241 -0.7899
 6610SOL    HW131463   1.890   3.772  11.430 -2.6694 -0.5544  2.2994
 6610SOL    HW231464   1.975   3.852  11.518  0.5860 -1.8055 -1.5638
 6611SOL     OW31465   0.555   1.835   7.469  0.0204 -0.2182  0.0433
 6611SOL    HW131466   0.582   1.754   7.511  2.6427  0.4398 -0.3889
 6611SOL    HW231467   0.462   1.831   7.490 -0.5507 -0.9327 -2.5327
 6612SOL     OW31468   1.861   3.631   2.742 -0.1316  0.6273  0.2036
 6612SOL    HW131469   1.787   3.577   2.714 -0.3639  0.4127  1.2304
 6612SOL    HW231470   1.909   3.573   2.802  0.9407  0.6797 -0.6157
 6613SOL     OW31471   3.756   3.309   5.440 -0.0382  0.2289 -0.0676
 6613SOL    HW131472   3.824   3.354   5.389 -0.8749  0.7870 -0.6842
 6613SOL    HW231473   3.817   3.275   5.505 -1.0966 -0.9264  0.3214
 6614SOL     OW31474   0.071   0.430   1.563 -0.7318 -0.2212 -0.2822
 6614SOL    HW131475   0.018   0.506   1.585  1.0011  1.4272 -1.7809
 6614SOL    HW231476   0.098   0.400   1.649  0.7091  0.7193 -0.3980
 6615SOL     OW31477   0.710   3.897   8.614  0.2370  0.0131 -0.3827
 6615SOL    HW131478   0.763   3.910   8.692  1.4234 -1.0071 -1.0230
 6615SOL    HW231479   0.757   3.938   8.541  1.3316 -0.9886 -0.2236
 6616SOL     OW31480   2.554   3.075  14.196 -0.3985 -0.6678 -0.7886
 6616SOL    HW131481   2.580   3.107  14.282 -2.4158 -0.0950 -0.3763
 6616SOL    HW231482   2.487   3.011  14.223  0.4702 -1.1005  0.3365
 6617SOL     OW31483   1.759   1.972   3.734  0.4076  0.1383  0.3567
 6617SOL    HW131484   1.706   1.972   3.654  1.3088 -1.4670 -0.2261
 6617SOL    HW231485   1.797   2.060   3.729  3.0915 -0.9904  1.3468
 6618SOL     OW31486   4.576   4.473   4.494  0.8081  0.1966 -0.4110
 6618SOL    HW131487   4.629   4.468   4.573  1.9318  0.2745 -1.1475
 6618SOL    HW231488   4.506   4.411   4.514  1.9279 -0.4936  1.3500
 6619SOL     OW31489   3.466   4.253   3.799 -0.6241  0.2838  0.8553
 6619SOL    HW131490   3.430   4.339   3.820  1.6704  1.6551 -0.9192
 6619SOL    HW231491   3.498   4.253   3.709 -2.2403  0.7771  0.2751
 6620SOL     OW31492   4.163   3.792   2.769  0.0717 -0.9287  0.2268
 6620SOL    HW131493   4.169   3.753   2.681 -1.1631 -1.2472  0.2854
 6620SOL    HW231494   4.251   3.786   2.806  0.6450 -1.8776 -1.3011
 6621SOL     OW31495   2.479   0.358   9.013  0.2680  0.2400 -0.0078
 6621SOL    HW131496   2.473   0.301   9.090  1.2632  0.5545  0.2987
 6621SOL    HW231497   2.538   0.426   9.046  1.6177 -0.0553 -1.8302
 6622SOL     OW31498   4.290   2.444   6.452 -0.5655  0.4155 -0.1104
 6622SOL    HW131499   4.378   2.445   6.488  0.5023 -1.7189 -2.7116
 6622SOL    HW231500   4.262   2.507   6.519 -1.8812  1.6758 -1.8335
 6623SOL     OW31501   1.887   2.864   9.120 -0.4486 -0.2319  0.6316
 6623SOL    HW131502   1.950   2.900   9.058 -0.7683  0.2264  0.5772
 6623SOL    HW231503   1.818   2.844   9.057  1.6471 -1.0456 -1.4240
 6624SOL     OW31504   3.346   1.341   3.566  0.6349  0.6430  0.0125
 6624SOL    HW131505   3.284   1.372   3.499 -1.7603 -1.1915  1.3560
 6624SOL    HW231506   3.306   1.333   3.653  1.6531 -1.5362  0.2790
 6625SOL     OW31507   4.031   3.505   5.450 -0.1522  0.5588 -0.2143
 6625SOL    HW131508   4.103   3.447   5.477  1.5485  2.6776 -0.1881
 6625SOL    HW231509   4.072   3.590   5.436  1.5585 -0.2004  0.0796
 6626SOL     OW31510   1.357   2.331  17.668  0.2208  1.0307  0.2177
 6626SOL    HW131511   1.396   2.310   0.024 -1.5370  0.8449  0.9872
 6626SOL    HW231512   1.433   2.308  17.615 -0.1929  0.6729 -0.2227
 6627SOL     OW31513   4.193   2.524   6.132 -0.4030  0.6078 -0.0042
 6627SOL    HW131514   4.184   2.509   6.226 -1.5700 -0.9768 -0.3530
 6627SOL    HW231515   4.222   2.615   6.129 -1.3480  0.8830 -1.3837
 6628SOL     OW31516   0.394   3.316  13.809  0.2307 -0.7411 -0.0493
 6628SOL    HW131517   0.339   3.328  13.732  2.3027 -1.5711 -1.6862
 6628SOL    HW231518   0.450   3.245  13.777  0.8172 -0.0288 -0.6092
 6629SOL     OW31519   1.747   0.532  15.535  0.2721 -0.2270 -0.5991
 6629SOL    HW131520   1.816   0.591  15.565  0.5094 -0.1210 -1.3437
 6629SOL    HW231521   1.721   0.581  15.457 -2.1227 -1.2059 -0.4197
 6630SOL     OW31522   1.652   2.241   8.947  0.1976  0.3519 -0.8504
 6630SOL    HW131523   1.728   2.294   8.971  1.6216 -1.2261 -1.7898
 6630SOL    HW231524   1.589   2.311   8.934  0.8264  1.1091  0.2390
 6631SOL     OW31525   3.201   3.790   1.099  0.4997  0.0579  0.2038
 6631SOL    HW131526   3.262   3.785   1.173 -0.0774 -1.9648  0.5320
 6631SOL    HW231527   3.240   3.862   1.049  0.9740  0.5163  1.2125
 6632SOL     OW31528   0.329   0.219   4.584 -0.5054 -0.0383  0.1055
 6632SOL    HW131529   0.282   0.138   4.565  1.7083 -1.0509 -1.0496
 6632SOL    HW231530   0.346   0.208   4.677  1.1264  0.1497 -0.1651
 6633SOL     OW31531   3.171   0.354   9.133 -0.3365 -0.3859  0.0465
 6633SOL    HW131532   3.113   0.395   9.069 -0.3243  0.8464  0.8285
 6633SOL    HW231533   3.256   0.377   9.096 -2.0938  3.6365 -1.5055
 6634SOL     OW31534   0.300   3.653  10.218 -0.1550  0.2698 -0.4654
 6634SOL    HW131535   0.261   3.636  10.304 -1.2145  1.0897 -0.7846
 6634SOL    HW231536   0.221   3.646  10.164 -2.0196 -0.2885  2.3044
 6635SOL     OW31537   4.659   2.302   8.347  0.1658 -0.1632 -0.0560
 6635SOL    HW131538   4.703   2.385   8.363  0.7282 -0.3166 -0.7860
 6635SOL    HW231539   4.718   2.269   8.279  0.8055 -0.5551  0.6874
 6636SOL     OW31540   2.381   1.000   2.564 -0.0629  0.2057 -0.2463
 6636SOL    HW131541   2.462   0.952   2.548 -1.3693 -2.2887  0.5566
 6636SOL    HW231542   2.324   0.955   2.502 -1.8479  1.7173  0.2938
 6637SOL     OW31543   2.765   3.241   4.476 -0.2305  0.8696  0.5962
 6637SOL    HW131544   2.834   3.236   4.543  1.8772  1.8459 -1.5180
 6637SOL    HW231545   2.700   3.181   4.513 -0.3764  0.3685 -0.4974
 6638SOL     OW31546   3.197   0.078   9.963 -0.0149  0.0787  0.3429
 6638SOL    HW131547   3.104   0.083   9.940 -0.1691 -2.4725  0.3366
 6638SOL    HW231548   3.181   0.043  10.051  2.1795  0.0956  0.7585
 6639SOL     OW31549   3.769   2.270  11.108 -0.0058 -0.5670 -0.1863
 6639SOL    HW131550   3.842   2.331  11.113 -0.3488 -0.2704  1.2087
 6639SOL    HW231551   3.756   2.262  11.014  2.5181 -0.0801 -0.5602
 6640SOL     OW31552   4.381   0.700   8.486 -0.2877  0.1559 -0.0782
 6640SOL    HW131553   4.341   0.786   8.476  0.9127  0.5841 -1.1757
 6640SOL    HW231554   4.457   0.719   8.540  0.2752 -0.8243 -0.5233
 6641SOL     OW31555   3.434   3.185  15.804  0.8267 -0.2891 -0.2899
 6641SOL    HW131556   3.486   3.219  15.731 -1.2087 -2.0815 -2.5344
 6641SOL    HW231557   3.462   3.233  15.883  2.6232 -1.3328 -0.2917
 6642SOL     OW31558   3.704   0.251   3.177 -0.5524 -0.2854  0.2281
 6642SOL    HW131559   3.731   0.326   3.229 -0.5024  0.3895 -0.7647
 6642SOL    HW231560   3.705   0.284   3.087 -2.5209 -1.8769 -0.3876
 6643SOL     OW31561   2.008   3.825   0.408  0.7466 -0.1489  0.6130
 6643SOL    HW131562   1.982   3.806   0.498  1.2798  0.8434  0.9865
 6643SOL    HW231563   2.050   3.911   0.413  1.5185 -0.4656 -0.6153
 6644SOL     OW31564   0.330   3.433  17.370 -0.5588  0.2893 -0.5927
 6644SOL    HW131565   0.423   3.438  17.347 -0.3213  0.2669  0.3825
 6644SOL    HW231566   0.308   3.526  17.365  3.7499  1.2951 -1.0411
 6645SOL     OW31567   2.537   0.931  12.420  0.1658 -0.3453 -0.1519
 6645SOL    HW131568   2.445   0.955  12.403  0.7541  1.7363 -0.4102
 6645SOL    HW231569   2.532   0.857  12.481 -0.4287  1.5830  2.1848
 6646SOL     OW31570   1.782   1.164   4.813 -0.5945  0.1692  0.5731
 6646SOL    HW131571   1.834   1.239   4.843  0.3482  0.3330 -1.4949
 6646SOL    HW231572   1.852   1.124   4.762  0.7527  0.0275  2.5201
 6647SOL     OW31573   0.610   4.493   7.153  0.0015 -0.0301 -0.6447
 6647SOL    HW131574   0.577   4.579   7.127  0.4173  0.0896 -0.7646
 6647SOL    HW231575   0.574   4.485   7.241 -0.1089 -1.0223 -0.7759
 6648SOL     OW31576   4.034   2.387  11.683 -0.1297  0.0866  0.4308
 6648SOL    HW131577   4.015   2.474  11.649 -0.4925  0.1274  0.7418
 6648SOL    HW231578   4.129   2.376  11.687 -0.0078  0.7405 -0.5934
 6649SOL     OW31579   2.309   4.555  16.656  0.6644 -0.6081 -0.1605
 6649SOL    HW131580   2.244   4.579  16.590  1.0847  1.9011  0.3381
 6649SOL    HW231581   2.247   4.523  16.721  1.8835  0.1617  1.3699
 6650SOL     OW31582   3.433   1.315   9.111 -0.2413 -0.2118  0.7493
 6650SOL    HW131583   3.507   1.255   9.100  1.0603  1.5989 -0.3743
 6650SOL    HW231584   3.434   1.322   9.206  0.6055  0.6207  0.6787
 6651SOL     OW31585   4.467   2.053  16.744  0.1926 -0.0451  0.4183
 6651SOL    HW131586   4.403   2.116  16.710 -0.6586 -1.6645 -0.9767
 6651SOL    HW231587   4.543   2.109  16.732 -0.3416  0.8698  1.2921
 6652SOL     OW31588   2.054   0.979  11.263  0.0603 -0.4512  0.4442
 6652SOL    HW131589   2.068   0.884  11.269 -1.1804 -0.6200  0.7335
 6652SOL    HW231590   2.014   0.995  11.348 -0.1263 -0.3159  0.3294
 6653SOL     OW31591   0.343   4.627   3.566 -0.4750  0.3328  0.1531
 6653SOL    HW131592   0.261   4.613   3.614 -1.3000  0.6543 -1.1577
 6653SOL    HW231593   0.408   4.597   3.629  1.3506 -0.1700 -1.9349
 6654SOL     OW31594   0.222   4.308   0.965 -0.1199  0.3837  0.7257
 6654SOL    HW131595   0.207   4.278   0.875 -2.4464  2.0954  0.5511
 6654SOL    HW231596   0.274   4.387   0.950 -2.8970  1.5596 -2.7105
 6655SOL     OW31597   3.597   1.951   9.445  0.0396  0.2990  0.2125
 6655SOL    HW131598   3.587   1.860   9.475 -2.9481  0.0129 -1.5787
 6655SOL    HW231599   3.503   1.968   9.442  0.3665  2.0666 -0.0364
 6656SOL     OW31600   4.393   1.402  10.182  0.0827  0.4430 -0.3856
 6656SOL    HW131601   4.300   1.400  10.160 -0.0230  0.7737  0.0289
 6656SOL    HW231602   4.407   1.494  10.164  0.6457  0.7418  1.5096
 6657SOL     OW31603   3.872   4.374   8.076 -0.5544 -0.1214 -0.2670
 6657SOL    HW131604   3.815   4.385   8.000 -0.4044 -0.2710 -0.4005
 6657SOL    HW231605   3.887   4.466   8.098 -0.6752  0.1684 -1.4346
 6658SOL     OW31606   4.336   3.147   9.371  0.1603  0.2693 -0.7401
 6658SOL    HW131607   4.431   3.163   9.373  0.0619  0.8667 -1.1571
 6658SOL    HW231608   4.308   3.220   9.317  2.7814  0.6937 -1.5262
 6659SOL     OW31609   0.126   0.299  16.237 -0.0287  0.4734  0.5860
 6659SOL    HW131610   0.207   0.296  16.287  0.0360 -0.5513  0.4186
 6659SOL    HW231611   0.070   0.339  16.304 -1.2750  0.1045 -0.2332
 6660SOL     OW31612   3.460   2.110   9.971  0.5878 -0.5656 -0.9384
 6660SOL    HW131613   3.531   2.171   9.951  0.7182 -0.1146  0.9523
 6660SOL    HW231614   3.414   2.158  10.039 -1.1925 -0.0649 -2.5001
 6661SOL     OW31615   3.534   0.878   7.755  0.2193 -0.3114 -0.5734
 6661SOL    HW131616   3.494   0.955   7.718  0.4911  1.0382  1.9250
 6661SOL    HW231617   3.619   0.883   7.712 -0.1719 -0.2402 -1.3310
 6662SOL     OW31618   0.553   2.241   6.775  0.3483  0.4408 -0.1001
 6662SOL    HW131619   0.560   2.156   6.819 -0.6921 -0.0665 -0.9113
 6662SOL    HW231620   0.460   2.261   6.772 -0.1863 -1.9935 -0.0971
 6663SOL     OW31621   1.909   0.160   4.535  0.2415 -0.3711 -0.0565
 6663SOL    HW131622   1.947   0.075   4.558  0.9981 -0.4129 -1.3943
 6663SOL    HW231623   1.818   0.162   4.561  0.6354 -1.1208  1.3605
 6664SOL     OW31624   1.740   4.000   7.008 -0.2289  0.1481  0.1488
 6664SOL    HW131625   1.765   4.033   6.921  0.2012  0.9535  0.5823
 6664SOL    HW231626   1.800   4.049   7.064 -0.3682  1.0027 -0.4445
 6665SOL     OW31627   3.701   3.161   6.897  0.3465 -0.2532  0.6357
 6665SOL    HW131628   3.679   3.101   6.969 -0.1452 -1.6492 -0.6818
 6665SOL    HW231629   3.636   3.228   6.915 -0.6397 -1.3553  1.1750
 6666SOL     OW31630   0.855   4.002   4.884  0.5615  0.0167  0.2996
 6666SOL    HW131631   0.834   4.091   4.858  1.0687  0.2129  0.5628
 6666SOL    HW231632   0.911   4.003   4.962  1.1773 -0.7183 -0.1266
 6667SOL     OW31633   3.103   0.795  15.105 -0.0180  0.8272  0.1411
 6667SOL    HW131634   3.055   0.784  15.022 -0.3424 -0.4246  0.4962
 6667SOL    HW231635   3.183   0.746  15.084 -1.4550 -1.4245 -0.1747
 6668SOL     OW31636   3.324   3.458   9.153 -0.3772 -0.3042  0.6662
 6668SOL    HW131637   3.377   3.379   9.143  0.9808  0.7428 -0.4183
 6668SOL    HW231638   3.246   3.416   9.190 -0.7800  1.0044  1.3068
 6669SOL     OW31639   1.665   3.100   8.075 -0.1949 -0.3367  0.1824
 6669SOL    HW131640   1.592   3.062   8.124 -0.2349 -1.2789 -0.6159
 6669SOL    HW231641   1.644   3.193   8.085 -0.1291 -0.1100 -1.7172
 6670SOL     OW31642   1.790   2.575  10.043 -0.5269 -0.2887 -0.0068
 6670SOL    HW131643   1.712   2.610  10.001 -1.0874  0.5271  1.7049
 6670SOL    HW231644   1.836   2.659  10.037  0.0894 -0.6351 -0.1948
 6671SOL     OW31645   2.922   3.701   4.400 -0.0749 -0.6747 -0.0141
 6671SOL    HW131646   2.923   3.714   4.305 -1.9991 -1.2432 -0.1092
 6671SOL    HW231647   3.011   3.720   4.431  0.2001 -1.9992  0.0145
 6672SOL     OW31648   3.874   2.524   2.220 -0.5775 -0.1745  0.5485
 6672SOL    HW131649   3.791   2.477   2.217 -0.0587 -1.1149  1.1042
 6672SOL    HW231650   3.896   2.541   2.129 -0.3374 -1.0461  0.4524
 6673SOL     OW31651   1.898   3.849  10.940  0.3950  0.1109  0.9690
 6673SOL    HW131652   1.993   3.841  10.949  0.4663 -0.4957 -0.3510
 6673SOL    HW231653   1.890   3.876  10.848  2.2158  2.4947  1.5159
 6674SOL     OW31654   2.034   1.915  12.581  0.2161  0.2634  0.1180
 6674SOL    HW131655   1.955   1.890  12.532 -0.6403 -1.9562  2.6720
 6674SOL    HW231656   2.091   1.918  12.504 -1.0729 -2.2515 -0.9377
 6675SOL     OW31657   2.722   2.797   4.499 -0.5309  0.1701 -0.3444
 6675SOL    HW131658   2.733   2.756   4.413  0.7146 -1.1536  0.4469
 6675SOL    HW231659   2.683   2.883   4.481  1.5052  1.7094  2.5661
 6676SOL     OW31660   4.441   3.761   3.571 -0.2480 -0.2888 -0.0400
 6676SOL    HW131661   4.501   3.757   3.497 -0.0592  2.0430 -0.0096
 6676SOL    HW231662   4.364   3.705   3.568 -0.2019 -0.3085 -0.8109
 6677SOL     OW31663   1.039   4.697  15.476 -0.0684  0.4421  0.4241
 6677SOL    HW131664   1.039   4.647  15.558  1.3088 -0.6736 -0.2484
 6677SOL    HW231665   0.962   0.021  15.481  0.3827  1.1332 -0.4745
 6678SOL     OW31666   1.441   4.703   5.218  0.0595  0.1786 -0.0605
 6678SOL    HW131667   1.452   4.624   5.271  0.5909 -0.3508 -0.9553
 6678SOL    HW231668   1.527   0.010   5.234 -0.0646  1.0862 -1.6027
 6679SOL     OW31669   1.103   2.047   2.555  0.5932  0.3794 -0.2380
 6679SOL    HW131670   1.123   1.965   2.511 -0.3627  0.3354 -0.5982
 6679SOL    HW231671   1.116   2.031   2.648  0.9704 -1.8797 -0.6757
 6680SOL     OW31672   2.417   2.912  10.951  0.1773 -0.2105  0.3001
 6680SOL    HW131673   2.438   3.003  10.967 -2.8965  0.5235  0.1856
 6680SOL    HW231674   2.435   2.876  11.038  1.8022 -0.5274 -0.1696
 6681SOL     OW31675   0.387   3.451  10.443  0.3311  0.0388  0.9387
 6681SOL    HW131676   0.441   3.476  10.518  0.6165  1.3276  0.3074
 6681SOL    HW231677   0.446   3.490  10.379 -0.4612  0.5764  0.5271
 6682SOL     OW31678   3.434   2.198  12.012 -0.1626  0.7107  0.7348
 6682SOL    HW131679   3.350   2.174  11.972 -0.9672  1.5513  1.9147
 6682SOL    HW231680   3.483   2.116  12.002 -0.8430  0.4237 -0.2550
 6683SOL     OW31681   0.488   1.698   6.174 -0.4929  0.4900 -0.0560
 6683SOL    HW131682   0.430   1.626   6.201 -1.7531  1.7084  0.5249
 6683SOL    HW231683   0.566   1.673   6.223  1.2556  1.2054 -2.4889
 6684SOL     OW31684   1.624   4.483   3.523 -0.2130 -0.3894 -0.0665
 6684SOL    HW131685   1.703   4.529   3.494 -0.3736 -1.4689 -2.1963
 6684SOL    HW231686   1.613   4.503   3.616 -0.0668 -0.5113 -0.0243
 6685SOL     OW31687   2.435   1.075  16.274 -0.7106  0.0788 -0.2554
 6685SOL    HW131688   2.521   1.068  16.233 -0.8952 -0.8968 -0.4877
 6685SOL    HW231689   2.454   1.095  16.365 -0.4748 -3.4408  0.4584
 6686SOL     OW31690   0.246   0.330   3.287 -0.2741 -0.5378  0.1891
 6686SOL    HW131691   0.330   0.367   3.261  0.5332 -0.5602  2.7453
 6686SOL    HW231692   0.246   0.242   3.251  1.0214 -0.8952  1.0727
 6687SOL     OW31693   2.813   0.962  12.670 -0.6819 -0.4617  0.0003
 6687SOL    HW131694   2.873   0.951  12.744 -2.2908 -0.4880  1.3050
 6687SOL    HW231695   2.808   0.868  12.651 -0.1898 -0.9701  2.3439
 6688SOL     OW31696   2.262   0.848   7.360  0.3485 -0.8506  0.1970
 6688SOL    HW131697   2.243   0.941   7.350  0.4540 -0.8655 -0.1785
 6688SOL    HW231698   2.352   0.861   7.392 -0.4121  1.0141  1.5484
 6689SOL     OW31699   2.111   0.237   2.047 -0.0284  0.1531 -0.4605
 6689SOL    HW131700   2.114   0.259   1.954 -2.1477 -0.0721 -0.5959
 6689SOL    HW231701   2.062   0.300   2.101 -2.2566 -1.9564  0.0024
 6690SOL     OW31702   0.762   2.919   8.246 -0.2338 -0.2549 -0.4027
 6690SOL    HW131703   0.834   2.936   8.307 -0.2630  0.8286 -0.6736
 6690SOL    HW231704   0.715   3.002   8.252 -2.3228 -1.5650  0.9476
 6691SOL     OW31705   2.683   0.607   6.912 -0.3082  0.7152  0.4039
 6691SOL    HW131706   2.635   0.536   6.868  3.0161 -1.7243  0.7189
 6691SOL    HW231707   2.762   0.574   6.954 -0.2325  0.2731 -0.0878
 6692SOL     OW31708   2.439   1.429  10.632 -0.2457  0.0547 -0.2174
 6692SOL    HW131709   2.500   1.371  10.585 -0.0021  0.9614 -1.0053
 6692SOL    HW231710   2.395   1.365  10.687 -0.8297 -0.3593 -1.1774
 6693SOL     OW31711   1.874   0.664  13.794  0.4408  0.5038 -0.1818
 6693SOL    HW131712   1.855   0.727  13.863 -0.0478 -0.2537  0.3836
 6693SOL    HW231713   1.840   0.710  13.717 -1.9014 -1.8540 -0.5628
 6694SOL     OW31714   4.115   2.165  10.942  0.2913 -0.4211  0.0758
 6694SOL    HW131715   4.152   2.147  11.028  1.6721  2.9933  0.1798
 6694SOL    HW231716   4.073   2.249  10.958  1.5471 -0.0839  1.5560
 6695SOL     OW31717   0.187   0.486   8.109 -0.6968 -0.3924 -0.1086
 6695SOL    HW131718   0.137   0.563   8.135 -2.6329 -1.5731 -0.3072
 6695SOL    HW231719   0.261   0.530   8.068 -1.1822 -0.3504 -0.9500
 6696SOL     OW31720   1.827   4.258   8.248  0.0585 -0.0637 -0.1983
 6696SOL    HW131721   1.758   4.312   8.209  1.0611  0.0183 -1.8466
 6696SOL    HW231722   1.894   4.323   8.268 -0.3218 -0.1117  1.2042
 6697SOL     OW31723   4.030   4.459   7.342 -0.5524  0.3534 -0.1799
 6697SOL    HW131724   4.003   4.539   7.387 -0.0165 -0.1027  0.9386
 6697SOL    HW231725   4.101   4.499   7.292 -0.9215 -2.2716 -2.8003
 6698SOL     OW31726   0.197   3.543   4.199 -0.3206 -0.0362 -0.4070
 6698SOL    HW131727   0.261   3.500   4.142  0.4530 -0.5429  0.8470
 6698SOL    HW231728   0.250   3.620   4.220 -0.6869  0.3778 -1.0155
 6699SOL     OW31729   1.732   1.585   4.113  0.1009 -0.2572  0.5205
 6699SOL    HW131730   1.708   1.665   4.066  2.4874  0.8705  1.2169
 6699SOL    HW231731   1.763   1.530   4.040  0.3472  0.9267 -0.2638
 6700SOL     OW31732   0.341   3.350   8.368  0.3330 -0.6432  0.0831
 6700SOL    HW131733   0.407   3.294   8.408  0.0016 -0.9218  0.2489
 6700SOL    HW231734   0.269   3.348   8.432  2.9189  2.6217  3.0378
 6701SOL     OW31735   0.824   3.373   3.090  0.3050 -0.3193 -0.4633
 6701SOL    HW131736   0.864   3.309   3.150  0.9425  0.0261 -0.5200
 6701SOL    HW231737   0.734   3.370   3.123  0.5319  1.4549  0.2896
 6702SOL     OW31738   2.227   4.107   3.022 -0.1393 -0.2588  0.4275
 6702SOL    HW131739   2.149   4.108   2.965  0.2831  2.1710 -0.1378
 6702SOL    HW231740   2.277   4.173   2.973 -0.5426  0.7162  1.3271
 6703SOL     OW31741   1.288   0.492  17.721  0.0884 -0.4005 -0.6809
 6703SOL    HW131742   1.328   0.410  17.693 -1.0662 -0.3352 -2.4990
 6703SOL    HW231743   1.329   0.561  17.668  0.4905 -0.8006 -0.8908
 6704SOL     OW31744   1.149   2.054   2.827 -0.2807  0.7953  0.0865
 6704SOL    HW131745   1.179   2.144   2.838 -1.4036  0.9333  2.0334
 6704SOL    HW231746   1.076   2.044   2.888  0.5930  1.5306  1.2558
 6705SOL     OW31747   2.933   4.275   8.179 -0.6467 -0.4402  0.2792
 6705SOL    HW131748   2.867   4.254   8.245  0.5057 -0.8238  1.3169
 6705SOL    HW231749   2.864   4.265   8.114  1.2413 -1.0169 -1.6594
 6706SOL     OW31750   1.371   4.614   3.372 -0.6726 -0.3119 -0.4080
 6706SOL    HW131751   1.329   4.546   3.425  1.3783  0.7562  2.5717
 6706SOL    HW231752   1.441   4.562   3.332 -0.5203  1.0536 -1.9031
 6707SOL     OW31753   2.406   3.594  15.329 -0.2511 -0.3038  0.1474
 6707SOL    HW131754   2.353   3.590  15.409  0.5845  1.4804  0.7934
 6707SOL    HW231755   2.494   3.583  15.365  0.1749  4.3622  0.4861
 6708SOL     OW31756   1.351   0.504   8.593  0.1593 -0.3278  0.8504
 6708SOL    HW131757   1.337   0.438   8.525 -1.8420 -1.0224  1.9534
 6708SOL    HW231758   1.446   0.503   8.597  0.1837 -2.7165 -0.6893
 6709SOL     OW31759   2.175   2.012   8.242 -0.4776  0.4194  0.5001
 6709SOL    HW131760   2.104   1.965   8.198 -0.4742  0.9802 -0.1006
 6709SOL    HW231761   2.215   2.061   8.170  2.2436 -0.4648  1.4344
 6710SOL     OW31762   0.825   0.135  16.643 -0.1460  0.5038 -0.1267
 6710SOL    HW131763   0.735   0.126  16.674 -0.5620  2.4921 -0.7878
 6710SOL    HW231764   0.835   0.229  16.627 -0.6559  0.5957  0.0801
 6711SOL     OW31765   0.693   0.577   6.373  0.4213 -0.0848 -0.3353
 6711SOL    HW131766   0.621   0.633   6.403 -0.2802 -1.8985  1.3704
 6711SOL    HW231767   0.762   0.641   6.355  0.0244  0.0936 -1.2509
 6712SOL     OW31768   3.095   4.083  17.213 -0.3142  0.1797 -0.3462
 6712SOL    HW131769   3.052   4.147  17.156  2.5021  1.9040 -0.5465
 6712SOL    HW231770   3.184   4.076  17.180  0.3506  0.3294  1.4197
 6713SOL     OW31771   0.153   3.180  16.162  0.2976  0.1800 -0.4877
 6713SOL    HW131772   0.099   3.174  16.083 -1.6321 -1.4920  0.9712
 6713SOL    HW231773   0.112   3.259  16.197 -1.7134 -0.7566 -0.7048
 6714SOL     OW31774   3.617   3.043   4.381 -0.5179 -0.2278  0.0537
 6714SOL    HW131775   3.604   3.052   4.475  1.0086  2.7616 -0.0251
 6714SOL    HW231776   3.685   2.976   4.377 -0.7853 -0.5687  1.3756
 6715SOL     OW31777   4.661   2.467   0.689 -0.4347  0.0269 -0.4236
 6715SOL    HW131778   4.718   2.533   0.650 -1.9740  1.1094 -0.8307
 6715SOL    HW231779   4.717   2.443   0.763  0.8533  0.7621 -1.1624
 6716SOL     OW31780   4.568   1.635   0.498  0.4962 -0.6745 -0.4693
 6716SOL    HW131781   4.605   1.576   0.563 -0.8023  0.3635  1.2351
 6716SOL    HW231782   4.505   1.568   0.471  0.4895  0.0895 -2.3300
 6717SOL     OW31783   1.902   2.643   2.598 -0.1691  0.0216 -0.4698
 6717SOL    HW131784   1.926   2.552   2.582 -1.9818 -0.4152 -0.6669
 6717SOL    HW231785   1.908   2.685   2.512 -0.9901 -0.6010 -0.8264
 6718SOL     OW31786   0.857   4.667   4.196  0.2138  0.1476  0.0512
 6718SOL    HW131787   0.907   4.669   4.278  1.2710  1.4144 -0.6237
 6718SOL    HW231788   0.770   4.655   4.234  1.9894  1.1526  4.3677
 6719SOL     OW31789   3.797   0.259   5.300  0.0790 -0.1755 -0.1593
 6719SOL    HW131790   3.859   0.325   5.269  0.4458  0.6844  2.3876
 6719SOL    HW231791   3.753   0.249   5.216 -0.1963 -0.1816 -0.0133
 6720SOL     OW31792   2.212   4.697   6.306 -0.2572 -0.7285 -0.4107
 6720SOL    HW131793   2.288   4.659   6.350  0.2120 -0.8071 -1.2741
 6720SOL    HW231794   2.255   4.724   6.224  2.1613  0.3489  1.2266
 6721SOL     OW31795   2.145   2.526   3.123 -0.0169  0.0700 -0.1668
 6721SOL    HW131796   2.086   2.579   3.069 -1.6752  1.4910  3.0591
 6721SOL    HW231797   2.073   2.485   3.171  0.6653  0.0389  0.8200
 6722SOL     OW31798   2.580   1.770   8.951  0.2380  0.5419  0.0991
 6722SOL    HW131799   2.617   1.818   8.877 -2.4808  2.3654 -0.1147
 6722SOL    HW231800   2.608   1.830   9.020 -1.9851  1.6667  0.0473
 6723SOL     OW31801   3.501   4.400   0.099  0.2562  0.3786 -0.1985
 6723SOL    HW131802   3.499   4.455   0.021  1.4786 -0.2265 -0.6603
 6723SOL    HW231803   3.565   4.438   0.160  0.5797  1.6883 -1.3393
 6724SOL     OW31804   4.471   2.747   2.648  0.1641  0.2055 -0.1484
 6724SOL    HW131805   4.392   2.784   2.687  0.3384 -0.5437  0.9152
 6724SOL    HW231806   4.518   2.829   2.666 -0.6083  0.6097  0.0548
 6725SOL     OW31807   3.714   0.394   6.224  0.5305  0.0778  0.0518
 6725SOL    HW131808   3.782   0.341   6.265  0.5643  0.2401  0.2048
 6725SOL    HW231809   3.682   0.442   6.301 -0.4293 -0.4398 -0.0130
 6726SOL     OW31810   2.223   4.396   7.587  0.0827  0.3506  0.9312
 6726SOL    HW131811   2.197   4.459   7.654  0.8860  1.2040  0.4496
 6726SOL    HW231812   2.169   4.426   7.513 -2.1738 -0.9666  2.0475
 6727SOL     OW31813   1.450   3.109  10.362  0.3358  0.0615 -0.5603
 6727SOL    HW131814   1.545   3.117  10.351  0.2007 -1.8109 -3.0492
 6727SOL    HW231815   1.417   3.089  10.274 -1.1028 -0.0905  0.0168
 6728SOL     OW31816   1.987   4.107  15.868 -0.5655 -1.1154 -0.3381
 6728SOL    HW131817   2.063   4.102  15.927  0.1069 -0.6266 -1.1525
 6728SOL    HW231818   2.002   4.027  15.817  3.1676  0.1769 -1.3119
 6729SOL     OW31819   2.372   1.545   6.754 -0.5525  0.1942  0.0357
 6729SOL    HW131820   2.289   1.501   6.735  0.0030 -1.4094  1.2850
 6729SOL    HW231821   2.356   1.576   6.843  0.0666  0.2489  0.1294
 6730SOL     OW31822   2.952   2.822   3.745  0.3036  0.3525 -0.0389
 6730SOL    HW131823   3.033   2.836   3.694  1.7833 -2.5044  1.5025
 6730SOL    HW231824   2.981   2.827   3.836 -2.4405  1.4561  0.7391
 6731SOL     OW31825   0.317   0.863   1.492 -0.2802  0.3613 -0.0714
 6731SOL    HW131826   0.280   0.866   1.404 -0.9430  0.1754  0.2016
 6731SOL    HW231827   0.233   0.880   1.535  1.4165 -1.6340  4.0704
 6732SOL     OW31828   1.245   2.827   0.197 -0.7104 -0.2167  0.2468
 6732SOL    HW131829   1.163   2.870   0.174 -0.1541 -0.5699 -2.4076
 6732SOL    HW231830   1.224   2.742   0.158  1.6907 -1.9163  2.7049
 6733SOL     OW31831   0.356   2.555   2.958  0.2768  0.3047  0.5258
 6733SOL    HW131832   0.299   2.572   2.883 -2.4963  1.0386  2.8360
 6733SOL    HW231833   0.354   2.640   3.001  2.8484  0.5333  0.1907
 6734SOL     OW31834   0.951   4.513   4.994 -0.2974 -0.3284  0.3502
 6734SOL    HW131835   0.985   4.454   4.927  1.0124 -1.2967  1.8524
 6734SOL    HW231836   1.011   4.491   5.066 -1.1920  2.1388  1.8559
 6735SOL     OW31837   0.857   2.427   4.280  0.1165  0.6617 -0.4085
 6735SOL    HW131838   0.792   2.361   4.307  0.8977  0.3839  0.7971
 6735SOL    HW231839   0.935   2.381   4.248  0.5501  1.8033 -0.9753
 6736SOL     OW31840   3.345   2.175   3.409 -0.1069 -0.3926  0.3010
 6736SOL    HW131841   3.254   2.164   3.381  0.0197 -0.3403 -0.1299
 6736SOL    HW231842   3.340   2.267   3.434  2.6896 -0.0456 -0.4885
 6737SOL     OW31843   2.096   3.260  16.318 -0.0818  0.1128 -0.3267
 6737SOL    HW131844   2.037   3.245  16.243 -0.4323 -1.0154  0.1761
 6737SOL    HW231845   2.175   3.282  16.270 -0.9478  2.1379 -0.8207
 6738SOL     OW31846   2.449   1.570   3.413  0.5699 -0.7613  0.1282
 6738SOL    HW131847   2.395   1.612   3.347 -0.6137 -1.5888  0.5701
 6738SOL    HW231848   2.373   1.536   3.460  0.7344  0.1501  1.0438
 6739SOL     OW31849   3.678   0.921  10.523  0.3064  0.1061  0.2489
 6739SOL    HW131850   3.590   0.959  10.532  0.8603  1.7015 -1.0751
 6739SOL    HW231851   3.696   0.921  10.429 -1.3045 -0.4491 -0.0665
 6740SOL     OW31852   2.444   2.584   8.841 -0.2628 -0.6190  0.0830
 6740SOL    HW131853   2.359   2.568   8.882 -0.0375 -0.5225  0.5882
 6740SOL    HW231854   2.475   2.499   8.811  0.7827 -0.5604  0.9852
 6741SOL     OW31855   1.503   3.540   5.383  0.1240 -0.5564 -0.6222
 6741SOL    HW131856   1.539   3.452   5.372  0.5181 -0.4626 -0.0709
 6741SOL    HW231857   1.550   3.585   5.453 -0.5520 -1.3203  0.3147
 6742SOL     OW31858   4.611   1.755   1.933  0.7981  0.2019  0.0056
 6742SOL    HW131859   4.622   1.661   1.943 -0.0599  0.0839 -0.1868
 6742SOL    HW231860   4.690   1.768   1.880  0.0206  2.8016 -0.5291
 6743SOL     OW31861   4.587   2.175  13.036  0.3899  0.8733  0.1385
 6743SOL    HW131862   4.522   2.121  13.081  2.3513  0.0016  1.8875
 6743SOL    HW231863   4.545   2.190  12.951 -0.2856  0.1620  0.3470
 6744SOL     OW31864   3.714   4.727   3.280  0.0671 -0.2284 -0.2145
 6744SOL    HW131865   3.707   0.082   3.241  0.3887 -0.1524 -0.1021
 6744SOL    HW231866   3.805   4.706   3.262  0.6100  0.6228  1.5227
 6745SOL     OW31867   4.606   3.078   2.176  0.3203  0.0487 -0.5456
 6745SOL    HW131868   4.549   3.011   2.139 -0.3888 -0.0822  0.7851
 6745SOL    HW231869   4.595   3.064   2.270  0.6308 -3.0965 -0.9581
 6746SOL     OW31870   0.143   0.077   6.175 -0.7526  0.1880 -0.0690
 6746SOL    HW131871   0.071   0.039   6.225 -0.3566 -1.4815 -0.7738
 6746SOL    HW231872   0.092   0.125   6.109 -0.3332  2.2071  1.0680
 6747SOL     OW31873   1.483   1.596   8.156 -0.3420  0.0890  0.1911
 6747SOL    HW131874   1.448   1.648   8.228  0.4403  0.6348  0.1863
 6747SOL    HW231875   1.575   1.612   8.175 -0.4653 -0.0513  0.8960
 6748SOL     OW31876   3.750   0.952   5.668 -0.8722 -0.4008  0.1278
 6748SOL    HW131877   3.677   0.919   5.721 -0.9016  1.8048  1.4572
 6748SOL    HW231878   3.796   1.003   5.735 -0.3923  0.3431 -0.7685
 6749SOL     OW31879   2.763   1.103   1.308  0.0295 -0.2541  0.1087
 6749SOL    HW131880   2.779   1.147   1.392  2.1174 -0.4775 -0.1670
 6749SOL    HW231881   2.852   1.071   1.290  0.1539  0.4346 -0.4893
 6750SOL     OW31882   0.266   2.221   6.033  0.4279 -0.5194 -0.0325
 6750SOL    HW131883   0.215   2.140   6.034  0.0015 -0.2429  0.7236
 6750SOL    HW231884   0.197   2.287   6.023 -0.3890 -1.4544 -0.5188
 6751SOL     OW31885   2.601   1.263   4.433  0.0764 -0.2660  0.6024
 6751SOL    HW131886   2.505   1.266   4.430  0.0586 -2.9924 -1.7684
 6751SOL    HW231887   2.622   1.303   4.349  0.5044  1.5410  1.5727
 6752SOL     OW31888   0.583   0.911  13.989  0.4989  0.5920  0.0787
 6752SOL    HW131889   0.567   0.983  13.928 -1.1743 -0.8668 -1.2217
 6752SOL    HW231890   0.674   0.886  13.968  0.8755  1.6498  0.4644
 6753SOL     OW31891   3.880   0.268   2.167 -0.3257 -0.0646 -0.6316
 6753SOL    HW131892   3.951   0.249   2.228  0.6005  0.9092 -1.3921
 6753SOL    HW231893   3.895   0.359   2.139 -1.1814 -0.5676 -2.7207
 6754SOL     OW31894   2.494   0.414   7.124 -0.3167  0.1605 -0.1185
 6754SOL    HW131895   2.522   0.361   7.199 -0.7264 -0.9677 -0.7603
 6754SOL    HW231896   2.515   0.353   7.053 -1.9820  0.0141 -0.4909
 6755SOL     OW31897   1.559   1.054   3.184  0.2848  0.6123 -0.2713
 6755SOL    HW131898   1.577   1.002   3.106 -0.8194 -1.2096  0.6768
 6755SOL    HW231899   1.487   1.003   3.222 -0.1021  1.8392  0.6732
 6756SOL     OW31900   3.478   4.661  12.324 -0.6811 -0.1181  0.0377
 6756SOL    HW131901   3.565   4.672  12.287 -0.3566 -1.4388  0.4158
 6756SOL    HW231902   3.429   0.002  12.286  0.5630  0.9123  0.4097
 6757SOL     OW31903   3.950   3.350   8.006  0.1105 -0.0054  0.1018
 6757SOL    HW131904   3.950   3.402   8.087 -0.5886  1.6282 -0.9508
 6757SOL    HW231905   3.888   3.280   8.026  0.2159  0.1561  1.0259
 6758SOL     OW31906   2.821   1.649   8.342 -0.3936  0.5715  0.0616
 6758SOL    HW131907   2.810   1.711   8.270  1.9492 -0.1724 -0.9491
 6758SOL    HW231908   2.872   1.701   8.404 -0.8285  0.9300  0.1183
 6759SOL     OW31909   1.589   3.369   4.181  0.0962  0.2518  0.1024
 6759SOL    HW131910   1.667   3.313   4.187  0.5723  0.8098 -0.7483
 6759SOL    HW231911   1.573   3.373   4.086  0.1503 -1.3847  0.0180
 6760SOL     OW31912   1.803   1.972   5.881 -0.4792 -0.0727  0.4522
 6760SOL    HW131913   1.867   2.042   5.892 -0.3390  0.3337 -2.7699
 6760SOL    HW231914   1.860   1.897   5.897  0.3476  0.4907  0.1415
 6761SOL     OW31915   3.785   1.792  11.309  0.0057 -1.1615 -0.3811
 6761SOL    HW131916   3.787   1.761  11.218  2.1754 -0.9162 -0.4238
 6761SOL    HW231917   3.828   1.878  11.302 -0.5554 -0.6440  2.5503
 6762SOL     OW31918   1.033   1.011   1.072  0.5036 -0.0331 -0.3789
 6762SOL    HW131919   1.128   1.020   1.066  0.8511 -1.6866  2.5015
 6762SOL    HW231920   1.009   1.077   1.007 -0.4129 -0.2893 -0.2955
 6763SOL     OW31921   3.141   4.582  16.552 -0.0481  0.0488 -0.2178
 6763SOL    HW131922   3.170   4.673  16.556  0.6686 -0.1140 -1.7440
 6763SOL    HW231923   3.101   4.585  16.639 -1.2705 -0.7771 -0.7537
 6764SOL     OW31924   2.481   1.909   9.593 -0.1432  0.3422  0.6021
 6764SOL    HW131925   2.562   1.863   9.614 -0.4616 -0.6498 -0.3472
 6764SOL    HW231926   2.479   1.980   9.658  0.4722  0.4951  0.4550
 6765SOL     OW31927   1.091   1.408   6.594  0.5063 -0.4008 -0.0213
 6765SOL    HW131928   1.026   1.343   6.567  1.4339 -1.3080 -0.0728
 6765SOL    HW231929   1.163   1.348   6.613 -0.1966 -1.5054 -0.8687
 6766SOL     OW31930   4.216   2.738   5.333  0.2507  0.6878  0.0932
 6766SOL    HW131931   4.203   2.777   5.247 -0.7943  0.5098  0.1654
 6766SOL    HW231932   4.296   2.785   5.355 -0.3095  1.8267 -0.2852
 6767SOL     OW31933   4.191   1.979   0.868  0.1930  0.7605  0.0407
 6767SOL    HW131934   4.254   1.948   0.803  0.4373  1.3943 -0.0299
 6767SOL    HW231935   4.160   2.060   0.828 -0.2867  0.6158  0.1224
 6768SOL     OW31936   1.854   0.288   7.068  0.5359 -0.1382 -0.6346
 6768SOL    HW131937   1.921   0.342   7.027 -1.2815  1.7141 -1.1490
 6768SOL    HW231938   1.780   0.348   7.078  1.2390  0.9128 -1.8176
 6769SOL     OW31939   1.533   4.247   0.330 -0.0192 -0.2378 -0.1355
 6769SOL    HW131940   1.459   4.220   0.385  0.4833  1.0731  1.1812
 6769SOL    HW231941   1.525   4.199   0.247  1.2095 -1.8229  0.6662
 6770SOL     OW31942   0.706   3.183   8.250  0.3379 -0.2180 -0.0542
 6770SOL    HW131943   0.743   3.270   8.269 -2.3134  0.7498  0.6069
 6770SOL    HW231944   0.638   3.203   8.186 -1.2517  0.2911  1.8016
 6771SOL     OW31945   4.075   2.402   0.516 -0.1954 -0.1913 -0.1449
 6771SOL    HW131946   4.080   2.497   0.505  0.0765 -0.0330  1.4576
 6771SOL    HW231947   4.056   2.380   0.424 -4.0802  0.2068  0.5640
 6772SOL     OW31948   1.966   3.595   2.082 -0.4688 -0.3864 -0.2832
 6772SOL    HW131949   2.012   3.570   2.002 -0.0763  2.4532 -0.9322
 6772SOL    HW231950   1.981   3.689   2.088 -0.3605 -0.3665 -0.9694
 6773SOL     OW31951   0.121   1.928   7.351 -0.0453 -0.2134 -0.2179
 6773SOL    HW131952   0.132   1.836   7.327 -1.3025 -0.5382  0.4694
 6773SOL    HW231953   0.179   1.935   7.427  0.9159  2.2471 -1.1872
 6774SOL     OW31954   4.092   4.657  15.042 -0.4042  0.2624  0.5258
 6774SOL    HW131955   4.119   4.637  15.131 -1.9260 -1.1168  0.6756
 6774SOL    HW231956   4.117   0.017  15.028 -1.8010  0.5237 -0.2783
 6775SOL     OW31957   2.309   3.089  13.817  0.3215  0.3405 -0.0608
 6775SOL    HW131958   2.373   3.020  13.831 -1.2692 -1.5744 -2.1563
 6775SOL    HW231959   2.345   3.133  13.739 -1.5773  3.1776  0.6528
 6776SOL     OW31960   1.865   0.920  17.091 -0.7341 -0.1520 -0.8642
 6776SOL    HW131961   1.845   0.828  17.110 -0.6849  0.3573  1.6302
 6776SOL    HW231962   1.953   0.913  17.053 -1.3674  5.0535 -3.2644
 6777SOL     OW31963   3.048   1.389   2.823 -0.6832 -0.2131 -0.3500
 6777SOL    HW131964   3.019   1.371   2.733  0.3783  2.5020 -1.2151
 6777SOL    HW231965   3.035   1.484   2.826  1.7887  0.0575  1.3085
 6778SOL     OW31966   4.167   3.494  10.497 -0.1714  0.1716  0.1531
 6778SOL    HW131967   4.208   3.554  10.436 -1.6463  0.2061 -0.8030
 6778SOL    HW231968   4.238   3.502  10.561  0.7205  1.1342 -0.9613
 6779SOL     OW31969   0.640   4.059   5.847  0.3981  0.1316 -0.3550
 6779SOL    HW131970   0.620   4.092   5.935 -2.2860 -1.4529 -0.3826
 6779SOL    HW231971   0.653   4.135   5.790 -1.2712  1.1551  0.6389
 6780SOL     OW31972   3.835   2.077   5.266  0.0197 -0.2833  0.4271
 6780SOL    HW131973   3.749   2.035   5.263 -1.4516  2.6631  1.1564
 6780SOL    HW231974   3.889   2.007   5.230  0.4971  0.0325  0.5308
 6781SOL     OW31975   3.786   4.247  12.685  0.9907  0.6510  0.5033
 6781SOL    HW131976   3.818   4.282  12.768  2.2355 -0.8032  0.6334
 6781SOL    HW231977   3.867   4.259  12.635  0.1281  1.2614 -0.7425
 6782SOL     OW31978   1.728   0.192  17.101  0.1726  0.1424  0.4888
 6782SOL    HW131979   1.723   0.105  17.062  0.2431 -0.0578  0.9341
 6782SOL    HW231980   1.749   0.242  17.022 -1.1329 -0.3425 -0.1628
 6783SOL     OW31981   3.724   4.222  14.797  0.2684 -0.4045 -0.2745
 6783SOL    HW131982   3.739   4.172  14.717  1.3793  1.1863 -1.0692
 6783SOL    HW231983   3.796   4.178  14.842 -1.0741  0.0561  2.3655
 6784SOL     OW31984   1.205   0.521  15.580  0.2666  0.0296  0.1660
 6784SOL    HW131985   1.217   0.526  15.485 -1.6165  0.8362 -0.0347
 6784SOL    HW231986   1.198   0.428  15.601  2.0630  0.6436  3.3993
 6785SOL     OW31987   0.206   4.531   7.924 -0.2120  0.2026  0.1998
 6785SOL    HW131988   0.166   4.490   7.848  0.3547  0.4293 -0.2200
 6785SOL    HW231989   0.270   4.460   7.938 -0.2913  0.5158  2.1410
 6786SOL     OW31990   0.844   0.210   3.084  0.1655 -0.1411 -0.4755
 6786SOL    HW131991   0.827   0.154   3.009 -1.7979  0.6140 -0.6031
 6786SOL    HW231992   0.850   0.297   3.043  1.6828 -0.2033 -0.4005
 6787SOL     OW31993   2.179   1.152   3.630  0.3512  0.6129  0.4777
 6787SOL    HW131994   2.123   1.126   3.557  0.8657 -1.2087  0.7380
 6787SOL    HW231995   2.126   1.123   3.704  1.0451 -0.4588  0.5655
 6788SOL     OW31996   0.774   4.437   3.257  0.1919 -0.1399  0.4887
 6788SOL    HW131997   0.782   4.406   3.348 -0.9229 -0.3584  0.5164
 6788SOL    HW231998   0.678   4.434   3.248 -0.1046  0.9514  3.2280
 6789SOL     OW31999   3.311   3.517   4.919 -0.5881  1.2342  0.0310
 6789SOL    HW132000   3.338   3.566   4.841  1.5957 -0.2096 -0.1355
 6789SOL    HW232001   3.265   3.443   4.880 -0.1172  0.3763  1.1100
 6790SOL     OW32002   0.819   4.409   4.645 -0.0458 -0.2980 -0.3492
 6790SOL    HW132003   0.830   4.371   4.558 -0.7758  1.5669 -1.2638
 6790SOL    HW232004   0.890   4.363   4.690 -0.6382 -0.4411  0.4362
 6791SOL     OW32005   0.243   1.959  16.250  0.0354  0.5563  0.9136
 6791SOL    HW132006   0.189   1.880  16.253 -0.2996  0.7590  0.0547
 6791SOL    HW232007   0.333   1.933  16.232 -1.3245 -5.2764  2.5996
 6792SOL     OW32008   2.948   2.461   6.862 -0.2402 -0.1923  0.1332
 6792SOL    HW132009   2.894   2.447   6.784 -0.5831 -0.7610  0.4729
 6792SOL    HW232010   2.919   2.550   6.882 -0.1732 -0.7146  2.6542
 6793SOL     OW32011   3.777   2.059  10.158  0.1964 -0.3229  0.2458
 6793SOL    HW132012   3.843   2.102  10.213 -1.4526  0.7848  1.3332
 6793SOL    HW232013   3.808   2.091  10.072 -1.0311 -0.5680 -0.2884
 6794SOL     OW32014   2.725   0.991   7.159  0.4577  0.8621  0.7355
 6794SOL    HW132015   2.784   0.930   7.203  2.1866  0.8811 -1.5610
 6794SOL    HW232016   2.643   0.943   7.174  1.2102 -0.1110  1.6500
 6795SOL     OW32017   0.054   1.805   2.939 -0.0274  0.2212  0.1755
 6795SOL    HW132018   0.046   1.777   3.030 -0.7064  1.6756  0.5493
 6795SOL    HW232019   4.730   1.882   2.944  0.0653  0.2200  1.2430
 6796SOL     OW32020   0.470   1.303  14.898  0.2083 -0.0442 -0.0068
 6796SOL    HW132021   0.424   1.265  14.823  1.8384  1.0871 -1.5642
 6796SOL    HW232022   0.408   1.284  14.969 -3.9787  4.4001 -2.5178
 6797SOL     OW32023   1.090   2.102  12.145  0.4514 -0.5721  0.5486
 6797SOL    HW132024   1.048   2.138  12.067  0.9652  0.6153  0.8273
 6797SOL    HW232025   1.028   2.036  12.177  0.4369 -1.4798 -1.3500
 6798SOL     OW32026   4.001   1.693   6.950 -0.5130  0.3805  0.2399
 6798SOL    HW132027   3.969   1.782   6.934 -0.9437  0.6765  2.8546
 6798SOL    HW232028   4.083   1.696   6.902  0.6921  0.7923  2.3409
 6799SOL     OW32029   1.948   1.672  14.058  0.5832  0.1740 -0.2280
 6799SOL    HW132030   2.037   1.638  14.050 -0.1079 -1.8910  0.9811
 6799SOL    HW232031   1.942   1.702  13.967 -0.2596  1.7847  0.3575
 6800SOL     OW32032   3.366   2.188  17.291  0.3047  0.1350  0.6117
 6800SOL    HW132033   3.457   2.174  17.265  0.1070  1.6215 -0.8772
 6800SOL    HW232034   3.366   2.283  17.298 -0.0891  0.3439 -2.1333
 6801SOL     OW32035   4.672   0.736   4.785  0.0923  0.0635  0.0761
 6801SOL    HW132036   4.693   0.818   4.741 -0.3959  0.7821  1.1807
 6801SOL    HW232037   4.697   0.764   4.873 -1.3675 -0.1056  0.5433
 6802SOL     OW32038   2.829   3.052   5.448 -0.0602  0.2493  0.4589
 6802SOL    HW132039   2.884   3.123   5.482 -2.0199  1.8391  0.3351
 6802SOL    HW232040   2.843   3.055   5.353  2.3535  1.7911  0.8556
 6803SOL     OW32041   2.787   2.087   4.305  0.1512  0.6769 -0.4560
 6803SOL    HW132042   2.858   2.035   4.268 -0.1714  0.4922 -0.8184
 6803SOL    HW232043   2.778   2.051   4.393  0.3431  0.7159 -0.4216
 6804SOL     OW32044   2.901   0.217   1.491 -0.4646  0.6769  0.1219
 6804SOL    HW132045   2.977   0.267   1.521 -1.4067 -0.1340  3.8677
 6804SOL    HW232046   2.880   0.249   1.404  2.5513 -0.8620 -1.1348
 6805SOL     OW32047   3.618   4.085  12.528 -0.0237 -0.0671 -0.1018
 6805SOL    HW132048   3.663   4.005  12.502  1.1213  0.0974  1.3799
 6805SOL    HW232049   3.680   4.130  12.585 -0.0948  0.6758 -0.6080
 6806SOL     OW32050   4.437   3.152   2.922 -0.4959  0.3374  0.1336
 6806SOL    HW132051   4.466   3.243   2.925 -1.1209  0.5551 -0.4864
 6806SOL    HW232052   4.361   3.159   2.865  0.6768  0.3816 -1.4251
 6807SOL     OW32053   3.078   0.901   8.789 -0.0726  0.4873 -0.2218
 6807SOL    HW132054   3.001   0.884   8.843  1.9148 -1.8644  1.8943
 6807SOL    HW232055   3.078   0.830   8.725  0.6484 -0.4683  0.8273
 6808SOL     OW32056   2.126   4.046   1.822  0.4691 -0.0307 -0.0606
 6808SOL    HW132057   2.194   4.090   1.872  0.8325 -0.3163 -0.2996
 6808SOL    HW232058   2.181   4.018   1.749  1.1432 -1.0765  0.8447
 6809SOL     OW32059   2.226   1.960   6.555  0.6656 -0.4012 -0.4426
 6809SOL    HW132060   2.152   1.923   6.508  1.6543 -0.2328 -2.1195
 6809SOL    HW232061   2.275   1.877   6.555 -0.6398 -1.1812 -0.1518
 6810SOL     OW32062   0.214   3.264   1.925  0.4238  0.2414 -0.2523
 6810SOL    HW132063   0.214   3.169   1.911  0.6864 -0.0245  1.5295
 6810SOL    HW232064   0.187   3.266   2.017  1.8490 -0.9806  0.2049
 6811SOL     OW32065   1.044   4.031   8.228 -0.2847 -0.7384  0.3580
 6811SOL    HW132066   1.073   4.111   8.184 -3.0087 -0.8056 -1.5186
 6811SOL    HW232067   0.970   4.014   8.171 -0.8985 -1.8816  1.4948
 6812SOL     OW32068   3.233   1.338   0.586 -0.3317 -0.6831  0.3906
 6812SOL    HW132069   3.186   1.376   0.660 -2.6075  0.1468 -1.4847
 6812SOL    HW232070   3.298   1.283   0.631  0.2910  1.2162  1.8292
 6813SOL     OW32071   2.999   0.900   3.073 -0.5285 -0.6231  0.0217
 6813SOL    HW132072   3.023   0.988   3.101 -1.4908 -1.1172  2.4035
 6813SOL    HW232073   2.925   0.886   3.133  0.1456  0.4045  1.0927
 6814SOL     OW32074   0.126   1.796   1.816  0.2781  0.0455  0.0850
 6814SOL    HW132075   0.217   1.822   1.833  0.7555 -1.9515  0.5385
 6814SOL    HW232076   0.111   1.807   1.722 -2.8433 -2.1133  0.3427
 6815SOL     OW32077   1.894   3.832   9.887  0.3017  0.1325  0.7391
 6815SOL    HW132078   1.969   3.891   9.897  1.9660 -1.6434 -1.3866
 6815SOL    HW232079   1.903   3.837   9.792 -1.2078 -1.0313  0.5425
 6816SOL     OW32080   3.896   3.535   3.050  0.8664  0.0259 -0.1604
 6816SOL    HW132081   3.886   3.615   3.101  1.0718 -0.3810  0.5183
 6816SOL    HW232082   3.822   3.480   3.074  2.1696 -2.2469 -1.2777
 6817SOL     OW32083   0.740   0.480   5.571  0.0375  0.2345  0.0612
 6817SOL    HW132084   0.692   0.552   5.531 -1.3911 -1.2613 -0.9226
 6817SOL    HW232085   0.819   0.522   5.606  0.8015  0.3833 -1.8299
 6818SOL     OW32086   4.068   1.826  15.707  0.0608 -0.1643  0.7006
 6818SOL    HW132087   4.096   1.903  15.756  3.8254 -0.8093 -0.4552
 6818SOL    HW232088   4.141   1.805  15.649  0.4091 -0.6385  1.2952
 6819SOL     OW32089   2.699   2.340  11.277  0.0700  0.0921 -0.4918
 6819SOL    HW132090   2.696   2.245  11.290  0.0935  0.1306 -0.2156
 6819SOL    HW232091   2.616   2.368  11.315 -0.0360 -0.2703 -0.4599
 6820SOL     OW32092   0.446   1.125   7.362 -0.2837  0.3841  0.0067
 6820SOL    HW132093   0.395   1.051   7.395  1.9087 -1.4626 -0.6809
 6820SOL    HW232094   0.391   1.198   7.389  0.2468  1.3991 -1.6517
 6821SOL     OW32095   1.322   3.465  11.346 -0.6952  0.0603  0.4686
 6821SOL    HW132096   1.299   3.373  11.354  0.2894 -0.2349 -0.1853
 6821SOL    HW232097   1.247   3.489  11.400  0.3157  1.2605  1.3518
 6822SOL     OW32098   0.793   2.487   6.148  0.7126  0.9335 -0.2010
 6822SOL    HW132099   0.805   2.461   6.239 -1.6384 -2.4224 -0.8758
 6822SOL    HW232100   0.719   2.429   6.130 -0.7232  1.5974  3.5902
 6823SOL     OW32101   3.578   4.320   8.882 -0.3133  0.1411  0.5036
 6823SOL    HW132102   3.583   4.276   8.967 -1.3297 -1.6498 -0.3761
 6823SOL    HW232103   3.485   4.325   8.860  0.1380  2.6231 -0.8747
 6824SOL     OW32104   2.156   1.392   6.687  0.0789  0.0904 -0.0851
 6824SOL    HW132105   2.077   1.414   6.638  0.7396 -2.9827 -2.5392
 6824SOL    HW232106   2.126   1.370   6.776  1.3935  2.2359  0.8775
 6825SOL     OW32107   4.444   1.821  12.421  0.5582 -0.3994  0.4337
 6825SOL    HW132108   4.525   1.872  12.426 -0.1345  0.8204 -0.7871
 6825SOL    HW232109   4.470   1.776  12.340 -2.8100  2.8623 -2.4561
 6826SOL     OW32110   0.844   1.450  17.039  0.9313  0.0969  0.4146
 6826SOL    HW132111   0.818   1.360  17.019 -2.2060  1.4403 -1.6179
 6826SOL    HW232112   0.887   1.445  17.125  2.4656 -0.9879 -0.4179
 6827SOL     OW32113   3.439   3.774   6.287 -0.4767 -0.3894  0.3036
 6827SOL    HW132114   3.406   3.790   6.375 -0.3661 -2.2746  0.6916
 6827SOL    HW232115   3.364   3.792   6.231  0.0874 -2.2967 -1.0523
 6828SOL     OW32116   2.988   0.611  16.980 -0.0051  0.5189 -0.5847
 6828SOL    HW132117   3.030   0.525  16.979 -0.0902  0.4635  1.1475
 6828SOL    HW232118   3.042   0.662  17.041  0.5365 -1.1290  0.3085
 6829SOL     OW32119   2.112   3.865   2.164  0.1256  0.8045 -0.0782
 6829SOL    HW132120   2.185   3.876   2.104  0.8098 -0.0817  0.5811
 6829SOL    HW232121   2.146   3.803   2.229 -1.8045 -0.6313 -0.4423
 6830SOL     OW32122   0.003   2.794  10.368  0.5885 -0.2179 -0.2160
 6830SOL    HW132123   4.660   2.793  10.427  0.5666  1.8251 -0.2281
 6830SOL    HW232124   4.703   2.742  10.294  1.4317 -1.8318  0.5628
 6831SOL     OW32125   1.924   3.827   8.308 -0.3775 -0.1587  0.1723
 6831SOL    HW132126   1.932   3.893   8.239 -0.7063 -1.5956 -1.2423
 6831SOL    HW232127   1.900   3.897   8.369 -3.0377 -1.8830  1.0738
 6832SOL     OW32128   4.281   3.026  12.840 -0.0604  0.0468  0.2042
 6832SOL    HW132129   4.370   3.030  12.805 -0.2428 -0.2589 -0.2939
 6832SOL    HW232130   4.233   2.970  12.779 -1.7710  2.2612 -0.4803
 6833SOL     OW32131   3.002   2.933   8.781  0.2425  0.2166 -0.1513
 6833SOL    HW132132   3.057   2.933   8.703 -3.2312  0.9794 -2.5974
 6833SOL    HW232133   3.061   2.976   8.843  0.2313  1.0305 -0.7011
 6834SOL     OW32134   3.954   2.303   3.718 -0.4481 -0.3197 -0.3626
 6834SOL    HW132135   4.001   2.239   3.772  0.3535  1.0518  0.5405
 6834SOL    HW232136   3.999   2.290   3.635  0.4847 -0.6903  0.1959
 6835SOL     OW32137   3.340   4.023   7.961  0.2011  0.6041 -0.0122
 6835SOL    HW132138   3.294   3.945   7.994  0.4758  0.2139 -0.5549
 6835SOL    HW232139   3.316   4.017   7.869  0.2560  1.7337 -0.0919
 6836SOL     OW32140   1.975   3.681   7.400  0.4567 -0.1378 -0.1405
 6836SOL    HW132141   1.990   3.624   7.475  1.1416 -0.2136 -0.3414
 6836SOL    HW232142   1.880   3.669   7.396  0.4098 -0.6222  2.4250
 6837SOL     OW32143   2.796   0.210  17.556  0.1489  0.0406 -0.3034
 6837SOL    HW132144   2.751   0.292  17.538 -1.4630 -0.2514  2.4701
 6837SOL    HW232145   2.717   0.157  17.567  0.5752 -0.1680  1.7037
 6838SOL     OW32146   4.622   4.204   4.194  0.7494 -0.7500 -0.3402
 6838SOL    HW132147   4.580   4.172   4.274 -2.1714  0.8462 -1.2258
 6838SOL    HW232148   4.701   4.243   4.231  0.4847 -0.9293  0.4158
 6839SOL     OW32149   2.438   4.175   2.343 -0.4452  0.7818 -0.7455
 6839SOL    HW132150   2.370   4.165   2.409  0.1377 -1.7308 -0.5022
 6839SOL    HW232151   2.467   4.084   2.334  0.0109  1.0435 -1.9533
 6840SOL     OW32152   0.881   0.948  10.592 -0.4990  0.2561  0.5041
 6840SOL    HW132153   0.926   0.943  10.676  2.8020  1.1419 -1.1830
 6840SOL    HW232154   0.797   0.987  10.615 -0.1351  1.8011 -0.7421
 6841SOL     OW32155   3.991   1.460   9.034 -0.9688  0.0488 -0.0356
 6841SOL    HW132156   3.937   1.485   8.960 -1.9432  0.8396  0.9362
 6841SOL    HW232157   3.958   1.376   9.065 -0.9155  0.7878  2.0613
 6842SOL     OW32158   3.805   0.970   5.165 -0.3012  0.2148  0.1280
 6842SOL    HW132159   3.778   1.032   5.232 -1.0599 -0.2859  0.2791
 6842SOL    HW232160   3.806   1.021   5.084  1.5860  0.2190  0.1549
 6843SOL     OW32161   1.223   0.167   4.961 -0.6034  0.3228 -0.1704
 6843SOL    HW132162   1.223   0.074   4.938  1.0450  0.7533 -1.9093
 6843SOL    HW232163   1.130   0.180   4.980 -0.7714 -0.7458 -0.2620
 6844SOL     OW32164   1.956   1.861  17.590 -0.2890 -0.7173 -0.2513
 6844SOL    HW132165   1.877   1.834  17.543 -1.9329  0.7136  1.6648
 6844SOL    HW232166   1.986   1.944  17.554 -1.7010  0.3944  1.1313
 6845SOL     OW32167   3.434   4.101   6.808 -0.5450  0.6276 -0.2221
 6845SOL    HW132168   3.404   4.076   6.895  1.7205  1.3014  0.7611
 6845SOL    HW232169   3.389   4.183   6.787  0.1152  1.3743  1.3259
 6846SOL     OW32170   0.017   4.197  14.681 -0.4327  0.1001  0.2194
 6846SOL    HW132171   4.693   4.146  14.738 -0.6743 -0.0733 -0.1762
 6846SOL    HW232172   0.024   4.132  14.612 -1.7973  0.5924 -0.3894
 6847SOL     OW32173   4.537   0.240   4.628  0.2062  0.7390 -0.2032
 6847SOL    HW132174   4.593   0.180   4.677  0.4321 -0.1610 -1.5732
 6847SOL    HW232175   4.564   0.322   4.669 -2.5331  1.9213 -0.7440
 6848SOL     OW32176   1.773   2.919   3.796  0.0473  0.1070  0.2589
 6848SOL    HW132177   1.828   2.928   3.719  0.7222 -0.7969  0.6388
 6848SOL    HW232178   1.704   2.858   3.767 -0.7263  0.9162  0.3820
 6849SOL     OW32179   1.737   0.519   4.018 -0.2664 -0.3929  0.1484
 6849SOL    HW132180   1.642   0.518   4.034 -0.5358  0.7814 -1.3055
 6849SOL    HW232181   1.752   0.585   3.950 -2.2917  2.2787  2.3130
 6850SOL     OW32182   0.490   3.542   7.416 -0.3549  0.1049 -0.0411
 6850SOL    HW132183   0.510   3.575   7.504 -0.7882  1.3987 -0.4339
 6850SOL    HW232184   0.426   3.608   7.389 -0.9916 -0.1361  0.8769
 6851SOL     OW32185   0.913   1.166  10.411  0.4740 -0.5360 -0.0123
 6851SOL    HW132186   0.924   1.102  10.481  0.2422 -0.5377  0.0235
 6851SOL    HW232187   0.846   1.125  10.356  0.4141 -1.4575  0.7439
 6852SOL     OW32188   0.284   2.821   7.645  0.1614  0.5152 -0.5435
 6852SOL    HW132189   0.273   2.912   7.621 -0.3120  0.0917 -1.8931
 6852SOL    HW232190   0.261   2.782   7.561  0.6729  0.6829 -0.7610
 6853SOL     OW32191   0.762   1.372   4.584  0.0630  0.3174 -0.1127
 6853SOL    HW132192   0.763   1.304   4.517  2.0947  0.0442  0.2149
 6853SOL    HW232193   0.764   1.324   4.667  0.1261  1.9493  0.8231
 6854SOL     OW32194   2.599   3.242  12.016 -0.0881 -0.5788  0.1724
 6854SOL    HW132195   2.541   3.168  11.998  0.4566 -1.3893  1.7060
 6854SOL    HW232196   2.645   3.208  12.092 -0.2141 -0.5650  0.2546
 6855SOL     OW32197   3.085   2.197   2.206  0.2333  0.2211  0.0885
 6855SOL    HW132198   3.145   2.177   2.133 -0.9660  0.7856 -1.0544
 6855SOL    HW232199   3.141   2.160   2.274 -1.0783 -0.0561  1.0006
 6856SOL     OW32200   3.100   1.333   8.779  0.2186  0.0380 -0.0508
 6856SOL    HW132201   3.191   1.311   8.760  0.3230 -1.1819  1.8254
 6856SOL    HW232202   3.097   1.318   8.874  0.3717 -1.7127 -0.3144
 6857SOL     OW32203   4.077   4.218   7.187 -0.0330  0.2376 -0.0278
 6857SOL    HW132204   4.162   4.195   7.223  0.5918 -1.0526 -2.3610
 6857SOL    HW232205   4.050   4.286   7.249 -0.5497  0.5134 -0.5597
 6858SOL     OW32206   1.136   1.125  14.560 -0.4781 -0.6398 -0.7952
 6858SOL    HW132207   1.053   1.083  14.539 -0.4668 -1.6134  1.1085
 6858SOL    HW232208   1.177   1.099  14.478  2.0974  0.9191  0.0017
 6859SOL     OW32209   3.313   0.422   8.514  0.2257 -0.1107  0.2052
 6859SOL    HW132210   3.293   0.485   8.445 -1.5191 -0.7307  0.1412
 6859SOL    HW232211   3.399   0.389   8.488 -0.8545  0.0486 -3.5296
 6860SOL     OW32212   1.085   2.715   2.350 -0.1189  0.1001  0.1423
 6860SOL    HW132213   1.094   2.620   2.353 -3.4220 -0.2006  1.0961
 6860SOL    HW232214   1.095   2.725   2.255 -2.8362 -1.6374 -0.3326
 6861SOL     OW32215   3.726   2.159  10.486  0.1211  0.2823  0.6196
 6861SOL    HW132216   3.662   2.227  10.467 -1.0457 -0.3786  2.1723
 6861SOL    HW232217   3.691   2.087  10.435 -3.1071  2.4972 -0.2720
 6862SOL     OW32218   1.495   0.596   8.165  0.8192 -0.5317 -0.0584
 6862SOL    HW132219   1.478   0.619   8.073  3.8480 -3.3123 -1.3107
 6862SOL    HW232220   1.535   0.677   8.197  0.2524  0.6171 -2.2512
 6863SOL     OW32221   2.127   1.912   7.726 -0.1620 -0.0279 -0.0806
 6863SOL    HW132222   2.154   1.999   7.695 -1.3333  0.5952  0.6401
 6863SOL    HW232223   2.217   1.883   7.745 -0.5375 -0.8239  0.4709
 6864SOL     OW32224   0.923   3.134   8.079  0.2632  0.0433 -0.0852
 6864SOL    HW132225   0.986   3.159   8.147 -0.1786 -0.0091  0.3378
 6864SOL    HW232226   0.850   3.137   8.140 -0.7695  0.6805 -1.3587
 6865SOL     OW32227   3.425   2.330  15.089 -0.3472 -0.5764  0.5532
 6865SOL    HW132228   3.371   2.366  15.018 -1.5792  0.0713  1.8064
 6865SOL    HW232229   3.456   2.414  15.123  0.5782 -0.8839  0.4777
 6866SOL     OW32230   2.333   4.045  11.011 -0.1192 -0.3256  0.0313
 6866SOL    HW132231   2.276   4.105  10.963 -1.3781 -0.0135  1.9465
 6866SOL    HW232232   2.285   4.032  11.093 -1.7048  0.3562 -0.7916
 6867SOL     OW32233   0.859   4.555   6.668  0.3034 -0.0397 -0.4517
 6867SOL    HW132234   0.949   4.586   6.665  0.0513  0.6065 -1.5423
 6867SOL    HW232235   0.821   4.630   6.715 -2.0282 -1.8836  0.6076
 6868SOL     OW32236   0.169   3.482   5.875  0.3749  0.4758  0.8570
 6868SOL    HW132237   0.218   3.410   5.913 -2.0971 -1.8640 -0.4140
 6868SOL    HW232238   0.242   3.538   5.851  1.3643 -1.0534  0.3339
 6869SOL     OW32239   4.217   2.305   9.450 -0.4930  0.3286  0.0379
 6869SOL    HW132240   4.193   2.300   9.358  2.2190 -0.1846 -0.6532
 6869SOL    HW232241   4.132   2.337   9.479  0.2897  1.5285  1.0754
 6870SOL     OW32242   1.071   4.289  17.262 -0.2102  0.6739 -0.4405
 6870SOL    HW132243   1.160   4.278  17.295 -0.3799  1.7628  0.3638
 6870SOL    HW232244   1.066   4.235  17.183 -1.0048  0.9842 -0.6088
 6871SOL     OW32245   2.845   0.666  14.051  0.3330 -0.0251  0.3703
 6871SOL    HW132246   2.753   0.672  14.079 -0.8224 -0.7754 -3.3096
 6871SOL    HW232247   2.852   0.576  14.020 -1.4849 -0.0455  0.0126
 6872SOL     OW32248   1.515   0.157  17.272  0.0208  0.1301  0.5434
 6872SOL    HW132249   1.587   0.174  17.211  0.3240  0.1872  0.9117
 6872SOL    HW232250   1.540   0.074  17.313  1.1561 -0.6639 -1.7680
 6873SOL     OW32251   1.930   3.643   5.867  0.0334  0.5468 -0.1180
 6873SOL    HW132252   1.878   3.625   5.789 -0.3535 -0.7185  0.4394
 6873SOL    HW232253   2.011   3.685   5.837  1.2105  0.8417  3.3776
 6874SOL     OW32254   0.298   2.962  11.032  0.2445 -0.1468  0.1785
 6874SOL    HW132255   0.280   2.973  10.939 -1.0572  0.2337  0.4731
 6874SOL    HW232256   0.344   3.045  11.043 -1.2581  0.4989  1.7415
 6875SOL     OW32257   2.478   1.661  17.024  0.5053  0.0167  0.1416
 6875SOL    HW132258   2.545   1.653  17.092  1.6987 -0.0510 -1.0464
 6875SOL    HW232259   2.541   1.684  16.956  0.7469 -1.7451 -0.2227
 6876SOL     OW32260   3.006   2.549   8.270 -0.9021 -0.2121 -0.4414
 6876SOL    HW132261   2.968   2.612   8.209 -0.6137  0.6387  0.2543
 6876SOL    HW232262   3.051   2.494   8.206  0.3874  0.9057 -0.4904
 6877SOL     OW32263   1.211   2.926   9.889 -0.4022  0.0646  0.3761
 6877SOL    HW132264   1.242   2.990   9.953  1.4042 -0.4247 -0.0103
 6877SOL    HW232265   1.239   2.970   9.809  0.6858 -2.6966 -0.7546
 6878SOL     OW32266   4.246   0.084   6.252 -0.0310 -0.0898 -0.4525
 6878SOL    HW132267   4.308   0.132   6.307 -1.7912 -1.2283  2.5182
 6878SOL    HW232268   4.165   0.106   6.299  0.7093 -1.2527  1.3698
 6879SOL     OW32269   3.059   0.683   8.624 -0.2938  0.5432  0.4080
 6879SOL    HW132270   3.026   0.610   8.677  2.1520 -0.3459  0.7424
 6879SOL    HW232271   3.020   0.645   8.545 -0.2980 -0.6580  0.9752
 6880SOL     OW32272   1.888   2.317  11.048  0.1431 -0.0023 -0.4366
 6880SOL    HW132273   1.849   2.247  11.101 -0.5470  0.0800 -0.8271
 6880SOL    HW232274   1.935   2.272  10.978 -3.1989 -3.1360 -0.7103
 6881SOL     OW32275   4.187   1.810   6.790  0.2823 -0.1091 -0.3430
 6881SOL    HW132276   4.271   1.828   6.832 -0.3609 -1.0164  1.3526
 6881SOL    HW232277   4.143   1.893   6.807  1.1369  0.7055 -2.1829
 6882SOL     OW32278   3.670   4.551   1.401  0.6021  0.2134  0.4068
 6882SOL    HW132279   3.610   4.481   1.376 -0.2359  1.2384 -0.4293
 6882SOL    HW232280   3.670   4.606   1.322  1.6797 -0.0168  0.2381
 6883SOL     OW32281   4.173   2.399   1.821 -0.1390 -0.1337  0.0700
 6883SOL    HW132282   4.211   2.485   1.839  0.1471 -0.0339 -1.0247
 6883SOL    HW232283   4.167   2.370   1.912  1.0177  1.9845  0.8329
 6884SOL     OW32284   1.536   1.888   7.957 -0.0188  0.0472 -0.3339
 6884SOL    HW132285   1.454   1.839   7.947  0.2175 -0.1244 -1.3698
 6884SOL    HW232286   1.592   1.859   7.886 -1.5755  1.3773 -2.1051
 6885SOL     OW32287   1.059   3.319   6.519  0.2019 -0.1516  0.3625
 6885SOL    HW132288   0.964   3.330   6.513  0.2957  0.7528  0.4829
 6885SOL    HW232289   1.083   3.368   6.598  0.0027 -0.3250  0.5331
 6886SOL     OW32290   1.068   2.993   1.723  0.0505 -0.0946  0.7286
 6886SOL    HW132291   1.118   3.065   1.685 -0.4954  0.4960  1.1223
 6886SOL    HW232292   1.000   2.987   1.656  0.6863  0.6184  0.0190
 6887SOL     OW32293   2.511   2.220   8.223 -0.6528  0.1793 -0.0022
 6887SOL    HW132294   2.577   2.235   8.155 -0.2207 -2.6830 -0.2194
 6887SOL    HW232295   2.435   2.179   8.183 -0.8383 -0.3667  0.9223
 6888SOL     OW32296   4.629   2.584  15.436  0.0618  0.3960 -0.2540
 6888SOL    HW132297   4.599   2.624  15.518  2.2281 -2.1477  1.8108
 6888SOL    HW232298   4.714   2.627  15.427  0.3156  0.2077  1.1609
 6889SOL     OW32299   3.947   0.466   8.172  0.1418 -0.0339 -0.9663
 6889SOL    HW132300   3.946   0.559   8.147  0.2857 -0.3672 -2.2014
 6889SOL    HW232301   4.038   0.438   8.164  0.3269  0.0684  0.7270
 6890SOL     OW32302   1.999   0.738   2.592 -0.9798 -0.4089 -0.2517
 6890SOL    HW132303   2.093   0.745   2.608 -1.0094  0.1236 -0.3150
 6890SOL    HW232304   1.989   0.822   2.547 -0.6378 -0.8006 -1.0605
 6891SOL     OW32305   3.705   2.415   7.749  0.4140  0.0332  0.1045
 6891SOL    HW132306   3.617   2.411   7.710  0.3714  0.9081  0.1023
 6891SOL    HW232307   3.689   2.360   7.826 -0.7044  2.3634  1.5446
 6892SOL     OW32308   2.218   0.825  13.680  0.1582 -0.4762  0.0738
 6892SOL    HW132309   2.139   0.864  13.717  0.4417 -0.1070  0.2866
 6892SOL    HW232310   2.282   0.841  13.750 -1.9304  1.9853  1.4206
 6893SOL     OW32311   3.150   2.048   3.931  0.1511 -0.7600 -0.5492
 6893SOL    HW132312   3.139   1.981   3.998  1.7653  0.2844  0.7314
 6893SOL    HW232313   3.245   2.042   3.920  0.0019 -3.2931 -0.4133
 6894SOL     OW32314   2.845   3.127   6.922  0.4458  0.2436 -0.1670
 6894SOL    HW132315   2.866   3.199   6.862  0.8343  0.5877  0.3866
 6894SOL    HW232316   2.757   3.114   6.885  0.1414  3.4900 -0.6420
 6895SOL     OW32317   0.957   1.937  17.594  0.0366 -0.1164  0.0978
 6895SOL    HW132318   0.864   1.956  17.607  0.0493 -0.3379  0.5409
 6895SOL    HW232319   0.966   1.879  17.670  0.8159 -0.4944 -0.2870
 6896SOL     OW32320   2.293   1.099  11.237  0.2702  0.2470 -1.0239
 6896SOL    HW132321   2.342   1.058  11.308 -0.2112  1.1903 -0.1404
 6896SOL    HW232322   2.209   1.053  11.242 -0.2658  1.1534 -1.6877
 6897SOL     OW32323   1.269   1.230   3.866  0.4982 -0.5693  0.0026
 6897SOL    HW132324   1.245   1.307   3.917 -0.9527  0.2106 -1.8403
 6897SOL    HW232325   1.339   1.266   3.810 -0.4395  1.5860  0.2185
 6898SOL     OW32326   3.049   2.444   6.072 -0.8419 -0.3981 -0.0219
 6898SOL    HW132327   3.043   2.508   6.001  3.9962  1.1404  0.9188
 6898SOL    HW232328   2.955   2.434   6.083 -1.0417  0.6728 -0.6987
 6899SOL     OW32329   3.770   2.609  16.185 -0.0813 -0.6127  0.2388
 6899SOL    HW132330   3.705   2.649  16.126  0.1718  0.3444  0.6107
 6899SOL    HW232331   3.743   2.519  16.202 -0.5985 -0.4180  0.4829
 6900SOL     OW32332   4.617   2.617   5.276 -0.0562 -0.3775 -0.9336
 6900SOL    HW132333   4.574   2.590   5.357 -0.2839  0.1677 -0.8679
 6900SOL    HW232334   4.552   2.622   5.205 -2.2228  1.5168  1.1593
 6901SOL     OW32335   3.320   1.264   2.160  0.9337 -0.2959 -0.5979
 6901SOL    HW132336   3.271   1.208   2.099 -0.1212  1.0859 -1.0347
 6901SOL    HW232337   3.360   1.191   2.208 -0.0686 -0.1768  0.4291
 6902SOL     OW32338   0.201   2.818  14.216 -0.2591  0.3568 -0.7707
 6902SOL    HW132339   0.166   2.891  14.166 -0.2875 -0.5605 -2.0957
 6902SOL    HW232340   0.219   2.760  14.141 -2.1230  1.4479 -2.0683
 6903SOL     OW32341   4.393   2.807  17.207  0.1506 -0.5825  0.4520
 6903SOL    HW132342   4.342   2.870  17.257 -0.4551 -1.5957  1.1254
 6903SOL    HW232343   4.419   2.746  17.276 -0.8789 -1.2229  0.2772
 6904SOL     OW32344   0.770   1.498  11.772  0.2353 -0.2561 -0.5511
 6904SOL    HW132345   0.807   1.541  11.696 -0.0548  1.4053  0.2501
 6904SOL    HW232346   0.708   1.564  11.803 -0.0569  0.0197 -1.7474
 6905SOL     OW32347   1.195   3.785  11.384 -0.2166 -0.1124  0.3296
 6905SOL    HW132348   1.283   3.785  11.347  0.3459 -1.0317  1.6984
 6905SOL    HW232349   1.189   3.880  11.388 -0.1117 -0.2177  2.6540
 6906SOL     OW32350   2.014   1.372   4.573  0.2589 -0.1771 -0.0589
 6906SOL    HW132351   2.018   1.365   4.668 -1.3665 -0.8397 -0.0281
 6906SOL    HW232352   2.022   1.466   4.561  2.1475 -0.2188  1.0313
 6907SOL     OW32353   1.340   2.654   5.007 -0.3709  0.0012 -0.0715
 6907SOL    HW132354   1.359   2.602   4.928  1.4004 -0.2087  0.4888
 6907SOL    HW232355   1.280   2.723   4.978  0.7732  1.5228  1.2252
 6908SOL     OW32356   2.551   0.354   6.820  0.0835 -0.1537  0.2663
 6908SOL    HW132357   2.560   0.261   6.838  0.5908 -0.4043 -1.2794
 6908SOL    HW232358   2.459   0.350   6.796  0.0305 -1.2336  0.6488
 6909SOL     OW32359   1.744   4.443   4.366 -0.0996 -0.8061 -0.2729
 6909SOL    HW132360   1.792   4.526   4.363  1.0921 -1.5035 -0.0103
 6909SOL    HW232361   1.793   4.379   4.315  0.6114 -1.4184  1.2188
 6910SOL     OW32362   2.895   0.601  14.671  0.0433  0.0043 -0.4047
 6910SOL    HW132363   2.861   0.515  14.695  2.8241 -0.0645  3.2569
 6910SOL    HW232364   2.920   0.645  14.752  0.0460 -1.4951  0.4121
 6911SOL     OW32365   0.240   3.397   9.323 -0.4494  0.2699  0.1774
 6911SOL    HW132366   0.165   3.351   9.359  0.7480 -0.4402  1.7897
 6911SOL    HW232367   0.216   3.489   9.327  0.2618  0.3916  1.5597
 6912SOL     OW32368   1.289   1.752   7.552  0.4811 -0.1616  0.3269
 6912SOL    HW132369   1.383   1.763   7.569  0.1226  1.0762  1.5551
 6912SOL    HW232370   1.291   1.823   7.488 -0.9089  0.2917  0.7946
 6913SOL     OW32371   3.035   0.675   7.366 -0.0801  0.1983 -0.5606
 6913SOL    HW132372   3.108   0.688   7.426 -2.2856  2.2200  1.6783
 6913SOL    HW232373   3.077   0.668   7.280  0.4362  1.0573 -0.3775
 6914SOL     OW32374   1.768   3.626  16.875  0.4272 -0.5548  0.0359
 6914SOL    HW132375   1.816   3.675  16.808 -0.9349  1.2753  0.3872
 6914SOL    HW232376   1.768   3.537  16.841 -3.5402 -0.6148  0.1109
 6915SOL     OW32377   2.089   1.725  12.911  0.1505  0.1361 -0.3743
 6915SOL    HW132378   2.181   1.738  12.933  0.5100 -1.9495 -0.6757
 6915SOL    HW232379   2.067   1.690  12.997  1.2823 -0.8209 -0.4863
 6916SOL     OW32380   0.452   4.456  11.142  0.0729 -0.5637  0.4295
 6916SOL    HW132381   0.495   4.408  11.071  1.4287 -0.1193  0.9363
 6916SOL    HW232382   0.532   4.489  11.184  0.3613  0.4821 -0.9565
 6917SOL     OW32383   3.265   1.122   9.091 -0.2809  0.1955  0.3590
 6917SOL    HW132384   3.329   1.193   9.087  0.6464 -0.6471  0.0843
 6917SOL    HW232385   3.296   1.071   9.016  1.9800  1.6183  0.3339
 6918SOL     OW32386   3.720   4.305  14.153  0.4597 -0.1537  0.1678
 6918SOL    HW132387   3.769   4.382  14.125 -0.6673  0.6416  0.3661
 6918SOL    HW232388   3.635   4.323  14.113 -0.6683  0.2128  2.7042
 6919SOL     OW32389   3.627   3.500  12.394 -0.0188 -0.4616 -0.2587
 6919SOL    HW132390   3.562   3.502  12.464 -1.4994  1.5634 -1.6675
 6919SOL    HW232391   3.661   3.411  12.405  0.9526  0.2941  2.6460
 6920SOL     OW32392   2.513   3.910  17.199  0.3709  0.3453  0.3210
 6920SOL    HW132393   2.488   3.820  17.182 -0.6868  0.5828  0.6407
 6920SOL    HW232394   2.431   3.948  17.231  0.7382  1.8460 -0.4730
 6921SOL     OW32395   4.069   4.328   0.861 -0.2124  0.5498 -0.4603
 6921SOL    HW132396   4.093   4.301   0.950  0.6139  0.3980 -0.7306
 6921SOL    HW232397   4.153   4.340   0.817 -1.8809 -0.5054 -3.8851
 6922SOL     OW32398   4.393   4.674   0.349 -0.2373  0.3018  0.0947
 6922SOL    HW132399   4.438   4.716   0.275  0.9272  0.7826  1.0861
 6922SOL    HW232400   4.305   4.684   0.310 -0.1782  0.2676 -0.0487
 6923SOL     OW32401   2.356   4.709  15.515  0.2662 -0.2191  0.0487
 6923SOL    HW132402   2.309   0.032  15.453  0.7460 -1.8521 -1.7780
 6923SOL    HW232403   2.364   0.036  15.589  1.4256  0.3368 -0.5312
 6924SOL     OW32404   3.972   3.418  14.937 -0.1638 -0.1470 -0.4527
 6924SOL    HW132405   3.950   3.451  14.850 -0.2471 -1.2927 -0.8697
 6924SOL    HW232406   3.941   3.490  14.992  0.3904  1.0065 -1.6620
 6925SOL     OW32407   4.632   3.300   6.543 -0.4859 -0.0581 -0.3220
 6925SOL    HW132408   4.683   3.350   6.607  1.3022 -0.1007 -1.7353
 6925SOL    HW232409   4.671   3.215   6.560 -1.0153 -0.2784 -0.2212
 6926SOL     OW32410   1.582   0.727   7.713  0.1510 -0.0120 -0.1638
 6926SOL    HW132411   1.513   0.678   7.667  0.7196 -2.5064  1.6631
 6926SOL    HW232412   1.627   0.779   7.646 -0.9414  0.4001 -0.5868
 6927SOL     OW32413   1.587   4.329   6.846 -0.0415  1.0205 -0.2648
 6927SOL    HW132414   1.652   4.399   6.849 -0.2454  1.2231 -0.6868
 6927SOL    HW232415   1.532   4.348   6.922  0.9368  0.9901  0.4484
 6928SOL     OW32416   0.698   4.633   5.658 -0.3340 -0.1102  0.1055
 6928SOL    HW132417   0.616   4.654   5.702  0.5498  0.6395  1.4224
 6928SOL    HW232418   0.670   4.564   5.599  0.9961 -0.9661  0.4603
 6929SOL     OW32419   1.672   0.933   2.646 -0.4733 -0.2666 -0.3903
 6929SOL    HW132420   1.676   0.837   2.644  0.0598 -0.2541  0.1100
 6929SOL    HW232421   1.587   0.944   2.687 -0.1972  1.6827 -0.3245
 6930SOL     OW32422   1.613   4.363   4.616  0.1395 -0.3000  0.6093
 6930SOL    HW132423   1.675   4.379   4.545 -1.9220  1.1252 -0.8742
 6930SOL    HW232424   1.643   4.439   4.666  3.8792 -1.6067  0.2929
 6931SOL     OW32425   3.806   4.096   4.962  0.2797 -0.7402 -0.1797
 6931SOL    HW132426   3.827   4.188   4.946 -1.7763 -0.5008 -1.4818
 6931SOL    HW232427   3.871   4.051   4.909 -1.4002 -1.7673 -1.3555
 6932SOL     OW32428   4.250   3.250   6.970  0.0791 -0.1853  0.5391
 6932SOL    HW132429   4.160   3.240   7.000  0.3541  0.4145  1.5488
 6932SOL    HW232430   4.239   3.242   6.875  0.1344  1.0293  0.4413
 6933SOL     OW32431   1.809   3.381  16.803  0.1961 -0.0241  0.3915
 6933SOL    HW132432   1.877   3.325  16.841 -0.4274 -0.2795  1.1529
 6933SOL    HW232433   1.743   3.320  16.837 -1.5518  0.4022 -2.2262
 6934SOL     OW32434   4.406   2.022   8.911  0.1704  0.2908  0.1192
 6934SOL    HW132435   4.330   2.056   8.864 -0.1713  1.1376  1.2824
 6934SOL    HW232436   4.401   2.066   8.996 -1.3941  0.6448 -0.1549
 6935SOL     OW32437   0.681   1.469  14.167 -0.2972 -0.0539 -0.1456
 6935SOL    HW132438   0.711   1.466  14.258  0.8669  0.6226 -0.5189
 6935SOL    HW232439   0.695   1.376  14.147 -1.5522 -0.1313 -0.6466
 6936SOL     OW32440   1.270   3.455   1.946 -0.1437  0.3316 -0.3712
 6936SOL    HW132441   1.209   3.421   1.880 -0.1606  1.2391 -0.8178
 6936SOL    HW232442   1.288   3.377   2.000 -2.0379  1.2493  1.5894
 6937SOL     OW32443   3.264   3.212   2.855  0.7093  0.0778  0.6847
 6937SOL    HW132444   3.175   3.225   2.825  1.0379  1.5464  0.3540
 6937SOL    HW232445   3.248   3.238   2.946  1.1949  1.8197  0.2770
 6938SOL     OW32446   1.582   4.602   4.972  0.5007  0.4353 -0.4800
 6938SOL    HW132447   1.538   4.526   5.010  0.4010  1.3282  1.1987
 6938SOL    HW232448   1.526   4.661   5.023 -0.4285 -0.7914 -0.1117
 6939SOL     OW32449   2.646   2.441   5.536  0.6570 -0.4671  0.8018
 6939SOL    HW132450   2.675   2.462   5.447  1.3782  1.7436  1.5698
 6939SOL    HW232451   2.594   2.520   5.550 -0.2275 -0.8887 -0.0547
 6940SOL     OW32452   3.747   2.901   8.239 -0.4948  0.6112  0.2487
 6940SOL    HW132453   3.719   2.992   8.228  0.5320  0.8581 -0.3352
 6940SOL    HW232454   3.674   2.842   8.222  1.1506 -1.4942  0.4714
 6941SOL     OW32455   2.808   3.315  14.507  0.0487 -0.8985 -0.3948
 6941SOL    HW132456   2.757   3.387  14.544 -0.8242 -1.3879 -0.6656
 6941SOL    HW232457   2.827   3.262  14.585 -2.0846 -0.6341  0.2843
 6942SOL     OW32458   1.789   0.533  12.507 -0.2726  0.0196  0.1834
 6942SOL    HW132459   1.881   0.511  12.524 -0.2461 -0.0428 -0.0462
 6942SOL    HW232460   1.779   0.606  12.570  0.6212  0.0785  0.2544
 6943SOL     OW32461   3.472   0.199  16.768  0.1354  0.0008  0.0028
 6943SOL    HW132462   3.470   0.291  16.796 -0.7158 -0.6278  2.0345
 6943SOL    HW232463   3.521   0.163  16.842 -0.2066 -0.7524 -0.1358
 6944SOL     OW32464   3.983   2.774   1.002  0.7109  1.1499 -0.0615
 6944SOL    HW132465   4.075   2.776   0.976  0.4276 -3.2023 -1.3786
 6944SOL    HW232466   3.951   2.699   0.951 -0.2578  0.8663  0.9734
 6945SOL     OW32467   3.109   2.318   9.333 -0.0602 -0.0528 -0.3271
 6945SOL    HW132468   3.130   2.281   9.247  1.1942 -1.1970  0.4669
 6945SOL    HW232469   3.097   2.236   9.381 -0.6994  1.2826  1.7959
 6946SOL     OW32470   3.988   2.783   1.290  0.4379 -0.4164 -0.0410
 6946SOL    HW132471   3.993   2.759   1.198  0.5198  2.4797 -0.7891
 6946SOL    HW232472   3.927   2.856   1.277  1.2337  0.9206  3.6943
 6947SOL     OW32473   1.620   4.133  11.970  0.5079 -0.2649  0.2826
 6947SOL    HW132474   1.629   4.038  11.967  3.0052 -0.0423  0.0824
 6947SOL    HW232475   1.590   4.153  12.058  1.1494 -0.3786  0.5280
 6948SOL     OW32476   4.393   2.257   8.429  0.2820 -0.2938  0.4215
 6948SOL    HW132477   4.420   2.191   8.492 -3.7831 -0.6372  1.8482
 6948SOL    HW232478   4.477   2.284   8.392  0.1001 -1.4096 -0.7891
 6949SOL     OW32479   4.248   1.239   2.538 -0.3401  0.6188 -0.4132
 6949SOL    HW132480   4.284   1.231   2.449 -0.4321 -1.3364 -0.2765
 6949SOL    HW232481   4.199   1.159   2.556  0.0905  0.2294 -0.9884
 6950SOL     OW32482   4.349   2.257   6.738  0.5225 -0.1244 -0.0295
 6950SOL    HW132483   4.278   2.314   6.766  1.1616  0.1031  1.1065
 6950SOL    HW232484   4.333   2.182   6.795 -1.5553  0.4421  0.1224
 6951SOL     OW32485   0.116   1.913   5.040  0.2546  0.3305  0.6194
 6951SOL    HW132486   0.053   1.933   5.108  1.5451  1.2226  1.5479
 6951SOL    HW232487   0.050   1.888   4.975 -1.7176  2.2980  1.8794
 6952SOL     OW32488   2.091   2.405   8.450  0.4831  0.5061 -0.5281
 6952SOL    HW132489   2.090   2.310   8.448 -0.0144  0.5118 -0.5824
 6952SOL    HW232490   2.098   2.425   8.357 -0.0556 -3.4632 -1.4330
 6953SOL     OW32491   2.455   2.186   0.025 -0.3645 -0.0605  0.2581
 6953SOL    HW132492   2.484   2.126   0.094  1.9697 -1.3122 -1.8433
 6953SOL    HW232493   2.422   2.122  17.691 -0.1677  0.9985 -0.9288
 6954SOL     OW32494   1.855   3.151  15.927  0.4870 -0.1161  0.6172
 6954SOL    HW132495   1.927   3.175  15.985  0.6846 -2.0839  1.1934
 6954SOL    HW232496   1.795   3.224  15.948  1.8596  1.1347  0.1660
 6955SOL     OW32497   2.112   2.080   4.928 -0.2687  0.0467 -0.0368
 6955SOL    HW132498   2.090   2.090   5.020 -0.3332 -1.5872  0.1168
 6955SOL    HW232499   2.159   2.163   4.918 -0.7161  0.2067 -0.7789
 6956SOL     OW32500   4.686   1.450   0.681 -0.0854  0.0298 -0.3996
 6956SOL    HW132501   4.679   1.384   0.612 -0.4697 -0.1576 -0.1771
 6956SOL    HW232502   4.657   1.405   0.760  1.0580 -1.0000 -0.5662
 6957SOL     OW32503   1.336   1.638   2.330  0.6741  0.2043  0.1240
 6957SOL    HW132504   1.296   1.628   2.243 -0.2392  0.8575  0.4664
 6957SOL    HW232505   1.323   1.550   2.364 -0.0096  1.2993  2.6989
 6958SOL     OW32506   1.626   2.807   6.399 -0.6187  0.0516 -0.6263
 6958SOL    HW132507   1.619   2.883   6.457 -0.6050 -1.3814  1.2591
 6958SOL    HW232508   1.537   2.772   6.392  0.0448 -1.7355 -0.1536
 6959SOL     OW32509   1.554   3.876  14.432  0.0267 -0.3862  0.5328
 6959SOL    HW132510   1.459   3.877  14.418 -0.1882  1.0502  2.0929
 6959SOL    HW232511   1.561   3.930  14.511  1.1550 -0.2487  0.3384
 6960SOL     OW32512   1.686   2.298   6.516  0.2498 -0.0889  0.8440
 6960SOL    HW132513   1.638   2.278   6.597 -0.1362 -0.4431  0.5317
 6960SOL    HW232514   1.770   2.321   6.555 -0.1591  0.0220  1.6616
 6961SOL     OW32515   3.253   0.875  10.342  0.4452  0.8803 -1.3494
 6961SOL    HW132516   3.195   0.912  10.276 -1.8568 -2.6003 -1.3167
 6961SOL    HW232517   3.287   0.805  10.286  0.0369  1.5782 -2.4767
 6962SOL     OW32518   2.505   3.995   3.774  0.1334 -0.1434  0.3635
 6962SOL    HW132519   2.547   4.072   3.814  0.6801 -0.3181  0.1177
 6962SOL    HW232520   2.577   3.933   3.769  1.1991  1.1201  0.0293
 6963SOL     OW32521   3.807   1.824   4.858 -0.6405  0.8407  0.6007
 6963SOL    HW132522   3.810   1.779   4.773  0.0140  1.7210  0.1566
 6963SOL    HW232523   3.713   1.834   4.871 -1.1526 -0.2440 -2.2398
 6964SOL     OW32524   4.057   0.011   4.155 -0.2691 -0.0057  0.3583
 6964SOL    HW132525   4.115   0.073   4.198  0.4807 -2.1534  2.4331
 6964SOL    HW232526   4.116   4.668   4.144 -0.1249 -0.3448  3.6094
 6965SOL     OW32527   3.857   1.939   3.481 -0.0732  0.1533 -0.5527
 6965SOL    HW132528   3.854   1.888   3.562 -1.2983  2.4675  0.8641
 6965SOL    HW232529   3.794   1.893   3.426  0.4375 -1.3575  0.1228
 6966SOL     OW32530   3.107   2.525   3.948 -0.2664 -0.1422 -0.1077
 6966SOL    HW132531   3.188   2.576   3.943 -1.5959  1.7399 -2.0807
 6966SOL    HW232532   3.095   2.527   4.043  2.6377  1.6072  0.2120
 6967SOL     OW32533   2.976   2.892   4.039 -0.3533 -0.0608 -0.3855
 6967SOL    HW132534   3.057   2.943   4.040  0.0669 -0.7055 -1.7964
 6967SOL    HW232535   2.986   2.832   4.113  1.7236 -0.2757 -0.8316
 6968SOL     OW32536   3.772   2.506   6.116  0.1230  0.2330  0.3603
 6968SOL    HW132537   3.787   2.586   6.066 -0.2153  0.6125  0.8652
 6968SOL    HW232538   3.681   2.516   6.145 -0.4063  1.3793 -1.6813
 6969SOL     OW32539   2.739   3.452   4.852 -0.0688 -0.1163  0.1848
 6969SOL    HW132540   2.766   3.544   4.844  0.2669 -0.3233 -1.1301
 6969SOL    HW232541   2.659   3.450   4.799  0.9919  0.8297 -1.4630
 6970SOL     OW32542   3.323   4.039   7.041 -0.0110  0.1816 -0.3640
 6970SOL    HW132543   3.354   3.948   7.040 -0.1037  0.1403  0.5721
 6970SOL    HW232544   3.246   4.023   6.986 -2.2853 -0.9102  3.1839
 6971SOL     OW32545   1.138   0.281   0.736 -0.2043 -0.4663 -0.1789
 6971SOL    HW132546   1.101   0.352   0.789 -1.4222 -0.7453 -0.6651
 6971SOL    HW232547   1.197   0.257   0.807 -1.6146 -0.1780  1.1033
 6972SOL     OW32548   1.739   4.538  14.370 -0.2303 -0.3451 -0.5493
 6972SOL    HW132549   1.808   4.473  14.384 -0.2644 -0.3589 -0.4453
 6972SOL    HW232550   1.769   4.563  14.282 -1.6577 -0.9966 -1.2169
 6973SOL     OW32551   0.851   0.549   2.158 -0.1671  0.6006  0.0420
 6973SOL    HW132552   0.785   0.481   2.174  0.8198 -1.1970 -3.5792
 6973SOL    HW232553   0.812   0.620   2.209  0.2277  0.6394  0.2879
 6974SOL     OW32554   2.993   1.670   5.079 -0.0748 -0.9245 -0.4435
 6974SOL    HW132555   2.914   1.629   5.043 -0.8357 -1.0729  1.3705
 6974SOL    HW232556   2.953   1.726   5.145  2.5275 -1.5186  1.6408
 6975SOL     OW32557   3.617   2.863   4.836 -0.0878 -0.4930  0.4712
 6975SOL    HW132558   3.621   2.817   4.920 -0.2240 -2.4718 -0.5998
 6975SOL    HW232559   3.602   2.945   4.884 -2.8672 -1.3359  1.0520
 6976SOL     OW32560   4.048   3.655   7.540  0.2993  0.5131  0.3529
 6976SOL    HW132561   4.052   3.737   7.589  1.2109 -0.0589  1.2222
 6976SOL    HW232562   4.140   3.629   7.533  0.5895  0.8577  2.8718
 6977SOL     OW32563   2.616   4.594  12.649 -0.2090 -0.0419  0.1700
 6977SOL    HW132564   2.588   4.610  12.559  0.2876 -0.9751 -0.1532
 6977SOL    HW232565   2.708   4.576  12.630 -0.0911  0.7573  0.0009
 6978SOL     OW32566   3.388   0.202  16.141  0.2405  0.4236  0.0464
 6978SOL    HW132567   3.299   0.232  16.157  0.0057  0.6261 -1.6308
 6978SOL    HW232568   3.397   0.227  16.049 -0.9697 -2.4939 -0.8483
 6979SOL     OW32569   4.373   1.358  17.064  0.2915 -0.3094  0.4045
 6979SOL    HW132570   4.296   1.365  17.120  0.3538  2.1069  0.2132
 6979SOL    HW232571   4.393   1.452  17.066  1.7135 -0.6071  0.5239
 6980SOL     OW32572   1.098   3.180   4.557 -0.5669 -0.4678  0.2458
 6980SOL    HW132573   1.078   3.245   4.489  0.5148  0.1490  0.5142
 6980SOL    HW232574   1.023   3.194   4.615 -0.9828  3.1030 -1.1585
 6981SOL     OW32575   2.207   3.233   2.574 -0.0524  0.2032 -0.0479
 6981SOL    HW132576   2.125   3.239   2.525 -1.0350  0.0505  1.5953
 6981SOL    HW232577   2.270   3.231   2.502 -1.6253  0.3879 -1.4449
 6982SOL     OW32578   1.013   1.865  10.574 -0.3834  0.7027  0.0233
 6982SOL    HW132579   1.100   1.899  10.596  0.3712 -0.0969 -1.6994
 6982SOL    HW232580   0.989   1.903  10.490  0.1857  2.2082  0.5547
 6983SOL     OW32581   0.474   3.965   2.536  0.2176 -0.0965 -0.2213
 6983SOL    HW132582   0.505   3.963   2.446  0.2699  1.6504 -0.2409
 6983SOL    HW232583   0.391   3.920   2.518  0.7089 -1.1253  0.1047
 6984SOL     OW32584   2.842   2.172   3.543 -0.0465 -0.0528 -0.3780
 6984SOL    HW132585   2.912   2.153   3.606 -0.1247 -0.1397 -0.3167
 6984SOL    HW232586   2.878   2.127   3.467  1.9681 -0.8178  1.0179
 6985SOL     OW32587   3.990   2.179  10.254  0.2281 -0.3242  0.5758
 6985SOL    HW132588   4.066   2.200  10.200 -0.0514 -1.1083 -0.1223
 6985SOL    HW232589   4.022   2.124  10.325 -0.2332 -0.6941  0.5042
 6986SOL     OW32590   4.241   2.584   1.192 -0.1594  0.2792  0.0045
 6986SOL    HW132591   4.250   2.649   1.262 -0.3311  0.0584  0.2297
 6986SOL    HW232592   4.155   2.547   1.211 -0.2867  1.8159  2.4312
 6987SOL     OW32593   1.850   0.970  13.072 -0.3917  0.1968  0.3194
 6987SOL    HW132594   1.869   1.018  12.992 -1.6694 -1.5432 -1.0450
 6987SOL    HW232595   1.854   0.880  13.038 -0.1619 -0.3094  1.6636
 6988SOL     OW32596   0.549   3.387   5.026 -0.0293 -0.0391 -0.0214
 6988SOL    HW132597   0.534   3.411   5.117  0.0723  0.9126 -0.2539
 6988SOL    HW232598   0.631   3.338   5.029  1.2303  1.9765 -1.3618
 6989SOL     OW32599   1.529   2.782   5.159  0.2761  0.1006  0.0536
 6989SOL    HW132600   1.488   2.861   5.124  0.0273  0.1439  0.4450
 6989SOL    HW232601   1.483   2.711   5.116 -0.0454  0.6035 -0.4295
 6990SOL     OW32602   2.584   0.711   3.422  0.4755  0.5411  1.0708
 6990SOL    HW132603   2.567   0.722   3.516 -1.3061 -0.5562  0.8723
 6990SOL    HW232604   2.506   0.667   3.389  1.0958  0.9114 -0.8990
 6991SOL     OW32605   3.946   0.023   7.069  0.2149 -0.0823  0.1039
 6991SOL    HW132606   4.003   4.707   7.009 -1.5301 -1.8041 -0.1693
 6991SOL    HW232607   4.005   0.092   7.099 -1.0979  1.7435 -1.5584
 6992SOL     OW32608   0.963   4.098  13.750  0.0902  0.0037  0.2273
 6992SOL    HW132609   1.009   4.161  13.805 -0.7686 -0.2583  1.2354
 6992SOL    HW232610   0.982   4.142  13.667  2.8681 -0.6106  0.5461
 6993SOL     OW32611   0.425   2.813   2.590  0.1333  0.1239 -0.0659
 6993SOL    HW132612   0.495   2.759   2.553  0.0447 -1.7722  2.5639
 6993SOL    HW232613   0.357   2.775   2.534  2.2862 -0.2557 -2.4379
 6994SOL     OW32614   2.378   3.971   8.963  0.3682 -0.3252 -0.1694
 6994SOL    HW132615   2.401   4.038   9.028 -1.5484 -0.0929  0.2634
 6994SOL    HW232616   2.395   3.891   9.013  1.2763 -0.7986 -1.2655
 6995SOL     OW32617   1.880   1.665   3.727  0.0729  0.0350 -0.2603
 6995SOL    HW132618   1.910   1.726   3.794  1.3144  0.3391 -1.1051
 6995SOL    HW232619   1.838   1.719   3.658 -0.5902 -1.1780 -0.8058
 6996SOL     OW32620   3.565   3.892   9.319  0.3416 -0.5307  0.1913
 6996SOL    HW132621   3.541   3.804   9.291  0.1697 -0.5559  0.4186
 6996SOL    HW232622   3.659   3.881   9.304  0.4724  1.3822 -0.4300
 6997SOL     OW32623   2.661   0.804  13.830  0.0080  0.1563  0.2866
 6997SOL    HW132624   2.660   0.714  13.864  0.3880 -0.6502 -1.7937
 6997SOL    HW232625   2.669   0.805  13.734 -0.8922 -3.8623  0.1387
 6998SOL     OW32626   3.437   1.650   8.131 -0.0679  0.1506  0.5776
 6998SOL    HW132627   3.369   1.716   8.138  0.8925  1.1864  0.3068
 6998SOL    HW232628   3.451   1.642   8.036  1.5137 -1.7558  0.9709
 6999SOL     OW32629   2.614   4.501   8.320  0.6228 -0.7867  0.2370
 6999SOL    HW132630   2.569   4.575   8.279  2.6973  0.3235 -0.0337
 6999SOL    HW232631   2.692   4.536   8.362  0.8336  1.2619 -1.8999
 7000SOL     OW32632   3.550   2.140   6.705 -0.0156 -0.0605 -0.3701
 7000SOL    HW132633   3.593   2.081   6.643 -2.5492 -0.9946 -1.2385
 7000SOL    HW232634   3.459   2.132   6.675 -0.9681  2.3389  1.9054
 7001SOL     OW32635   1.311   3.127   5.459 -0.3983  0.4046 -1.2911
 7001SOL    HW132636   1.300   3.034   5.436 -0.9389 -0.1923  1.3791
 7001SOL    HW232637   1.275   3.116   5.547  0.7338  1.8327 -0.6607
 7002SOL     OW32638   2.342   1.326   7.348  0.4782 -0.7518 -0.3447
 7002SOL    HW132639   2.407   1.295   7.286  0.8850 -0.8541  0.1280
 7002SOL    HW232640   2.393   1.345   7.427 -0.5142  1.4431 -0.2438
 7003SOL     OW32641   3.401   1.613   4.379 -0.6195  0.3613  0.3564
 7003SOL    HW132642   3.465   1.573   4.438 -0.4758  2.0653  1.3598
 7003SOL    HW232643   3.429   1.704   4.372 -1.8129  0.5928 -1.2668
 7004SOL     OW32644   1.861   1.512  11.185 -0.2860  0.0218  0.5181
 7004SOL    HW132645   1.785   1.470  11.145  1.5203 -0.5313 -2.3307
 7004SOL    HW232646   1.896   1.569  11.116  1.5829  0.7063  2.0145
 7005SOL     OW32647   2.914   1.147   0.250 -0.3621  0.5341 -0.2355
 7005SOL    HW132648   2.868   1.072   0.287  0.8364  0.5721  1.3261
 7005SOL    HW232649   2.918   1.210   0.322 -0.2561  2.2221 -1.7225
 7006SOL     OW32650   0.542   2.294   8.499  0.1433  0.2442  0.3394
 7006SOL    HW132651   0.613   2.337   8.547  1.0607  0.9408 -1.6588
 7006SOL    HW232652   0.522   2.354   8.427 -0.5621 -0.4121 -0.0016
 7007SOL     OW32653   1.763   4.240   0.019 -0.0284 -0.1781 -0.1693
 7007SOL    HW132654   1.735   4.148   0.015 -2.1879  0.4215  0.8110
 7007SOL    HW232655   1.816   4.249   0.098  0.0240  0.2860 -0.2560
 7008SOL     OW32656   0.976   2.231   3.296  0.5116 -0.5290  0.0604
 7008SOL    HW132657   0.943   2.321   3.294 -1.6013 -1.2703  0.9775
 7008SOL    HW232658   1.031   2.228   3.217 -1.2262 -0.7849 -1.1602
 7009SOL     OW32659   1.301   1.124   4.841 -0.5111 -0.0128 -0.3550
 7009SOL    HW132660   1.303   1.090   4.751 -0.1792 -0.1792 -0.2832
 7009SOL    HW232661   1.274   1.216   4.842 -0.0418  0.1554 -2.7041
 7010SOL     OW32662   2.289   1.187   0.015  0.3823 -0.1881 -0.5888
 7010SOL    HW132663   2.298   1.282   0.026  0.5745 -0.1576 -1.0337
 7010SOL    HW232664   2.358   1.164   0.077 -0.6490 -3.2767 -0.6130
 7011SOL     OW32665   0.847   0.049   8.378 -0.1116  0.4314 -0.5028
 7011SOL    HW132666   0.821   0.005   8.459  1.8644  1.2836  0.6089
 7011SOL    HW232667   0.845   4.710   8.314 -0.5331  0.7730 -0.8680
 7012SOL     OW32668   2.556   2.082  16.779 -0.1678  0.0097 -0.8858
 7012SOL    HW132669   2.529   2.088  16.871  0.0812 -1.6074 -0.6917
 7012SOL    HW232670   2.485   2.024  16.750  1.5008 -1.4851 -1.9565
 7013SOL     OW32671   0.369   1.196   5.471 -0.1278 -0.5674 -0.1094
 7013SOL    HW132672   0.296   1.212   5.411  0.0527 -0.3886 -0.2848
 7013SOL    HW232673   0.423   1.268   5.439 -3.2935  1.9675  0.3102
 7014SOL     OW32674   1.906   3.734   6.885  0.1673  0.2902 -0.3057
 7014SOL    HW132675   1.900   3.747   6.980  1.8998  2.4036 -0.5000
 7014SOL    HW232676   1.844   3.664   6.863 -1.3447  1.2264  1.0052
 7015SOL     OW32677   2.012   3.936   4.932 -0.2526  0.1583 -0.2020
 7015SOL    HW132678   1.986   3.847   4.953  4.1908 -1.1819 -0.3604
 7015SOL    HW232679   2.068   3.921   4.855  1.0024  3.0214  0.1481
 7016SOL     OW32680   3.427   2.137   4.127  0.4930  0.4912 -0.4702
 7016SOL    HW132681   3.497   2.077   4.152 -1.3928 -1.3012  0.5481
 7016SOL    HW232682   3.400   2.106   4.041 -0.6487  2.3949 -0.8031
 7017SOL     OW32683   1.116   3.606   4.592  0.0930 -0.2055  0.0429
 7017SOL    HW132684   1.050   3.539   4.609 -0.8938  1.2950  2.1471
 7017SOL    HW232685   1.117   3.600   4.497  2.3929  0.8316  0.0055
 7018SOL     OW32686   1.576   0.142  16.671 -0.0119  0.0133 -0.2152
 7018SOL    HW132687   1.651   0.201  16.675  1.3134 -1.6931 -0.0242
 7018SOL    HW232688   1.512   0.174  16.735  1.5666  3.2337 -0.2417
 7019SOL     OW32689   4.072   3.903  12.590  0.2205 -0.1852 -0.0387
 7019SOL    HW132690   4.110   3.865  12.670 -0.0638  0.2711  0.3174
 7019SOL    HW232691   3.980   3.889  12.612 -0.1421  1.6538 -0.3704
 7020SOL     OW32692   2.052   2.068  17.444 -0.3119 -0.2734 -0.0485
 7020SOL    HW132693   1.987   2.080  17.374  0.8709  1.1875 -0.9052
 7020SOL    HW232694   2.102   2.148  17.427 -1.8407  0.9607  1.2341
 7021SOL     OW32695   1.272   2.002  14.074 -0.0575 -0.0154 -0.3029
 7021SOL    HW132696   1.190   2.044  14.049 -1.5823 -3.4102 -0.9685
 7021SOL    HW232697   1.344   2.054  14.036  0.2182 -1.0955 -1.2632
 7022SOL     OW32698   0.630   3.495  13.668 -0.6769 -0.2724  0.2806
 7022SOL    HW132699   0.653   3.413  13.711  1.0150  0.3993  0.6605
 7022SOL    HW232700   0.676   3.554  13.728 -0.3922 -0.1146 -0.0906
 7023SOL     OW32701   0.771   3.633   0.226 -0.2547  0.0150  0.0382
 7023SOL    HW132702   0.738   3.716   0.262  0.8334  1.3541 -2.0359
 7023SOL    HW232703   0.710   3.625   0.153 -0.9651 -0.2661  0.6554
 7024SOL     OW32704   1.154   4.375   3.750 -0.0391  0.0143 -0.1563
 7024SOL    HW132705   1.131   4.302   3.808 -1.5132  0.5278 -0.0850
 7024SOL    HW232706   1.127   4.439   3.816 -0.5358  1.3340 -1.6282
 7025SOL     OW32707   4.625   2.348   1.603  0.5362 -0.3583 -0.2359
 7025SOL    HW132708   4.550   2.351   1.544  0.3611 -0.8286 -0.0302
 7025SOL    HW232709   4.591   2.302   1.680  1.7567  1.4657  1.4083
 7026SOL     OW32710   0.791   3.065   5.716 -0.4880  0.1368 -0.5033
 7026SOL    HW132711   0.720   3.082   5.654 -0.1820 -0.2014 -0.9473
 7026SOL    HW232712   0.786   2.971   5.699 -2.3162 -0.0137  0.8839
 7027SOL     OW32713   4.303   0.615   7.456 -0.6044  0.2324  0.0190
 7027SOL    HW132714   4.298   0.600   7.551  1.0258 -1.1608 -0.1125
 7027SOL    HW232715   4.397   0.625   7.441 -0.4499  0.0393  0.8654
 7028SOL     OW32716   0.371   1.550   7.699 -0.0624  0.2059 -0.2893
 7028SOL    HW132717   0.319   1.625   7.728 -2.4496 -0.7812 -2.0473
 7028SOL    HW232718   0.346   1.484   7.764  0.9328  1.3242  1.2441
 7029SOL     OW32719   2.472   3.477   0.605 -0.1879  0.0963  0.3482
 7029SOL    HW132720   2.525   3.411   0.559 -1.7462 -0.2205 -0.9637
 7029SOL    HW232721   2.396   3.485   0.547  1.0278 -2.4112 -1.6019
 7030SOL     OW32722   0.413   4.261  10.708  0.4374 -0.3048 -0.2508
 7030SOL    HW132723   0.386   4.178  10.748 -0.5055 -0.9912 -2.3326
 7030SOL    HW232724   0.451   4.304  10.785 -0.2542 -1.2471  0.6271
 7031SOL     OW32725   3.275   4.396   2.769  0.0576 -0.4208 -0.0408
 7031SOL    HW132726   3.332   4.328   2.733 -1.3400 -0.8483 -1.4209
 7031SOL    HW232727   3.200   4.344   2.798  0.4467 -0.0321  1.6865
 7032SOL     OW32728   1.075   3.445   6.830 -0.3148 -0.2360 -0.2389
 7032SOL    HW132729   1.037   3.532   6.833  0.3238 -0.0285  1.9801
 7032SOL    HW232730   1.168   3.464   6.818 -0.6426  2.3510  1.4248
 7033SOL     OW32731   3.163   4.262   4.109 -0.0979 -0.2670 -0.7967
 7033SOL    HW132732   3.236   4.213   4.072 -0.3398 -1.2114 -0.0290
 7033SOL    HW232733   3.203   4.347   4.128  1.9021 -1.2213 -0.7199
 7034SOL     OW32734   1.164   0.521   3.903 -0.1860 -0.1546 -0.3318
 7034SOL    HW132735   1.166   0.615   3.920  1.1517 -0.1079 -0.7950
 7034SOL    HW232736   1.070   0.507   3.892 -0.1689  0.8354 -1.7614
 7035SOL     OW32737   3.573   1.106   4.855  0.3321 -0.1467 -0.3757
 7035SOL    HW132738   3.501   1.065   4.806 -0.8040  2.0853 -0.5515
 7035SOL    HW232739   3.533   1.149   4.931  1.4942  1.9247 -0.9603
 7036SOL     OW32740   1.534   0.134  14.723 -0.0857  0.5660  0.0875
 7036SOL    HW132741   1.566   0.070  14.786 -2.1936  0.8651  1.4650
 7036SOL    HW232742   1.494   0.201  14.779 -2.2387 -1.2977  0.7739
 7037SOL     OW32743   3.010   0.102  12.231 -0.0950  0.0032  0.1571
 7037SOL    HW132744   2.982   0.137  12.147  1.7091  1.1250  0.0133
 7037SOL    HW232745   3.106   0.098  12.222 -0.0064  0.3690  1.0003
 7038SOL     OW32746   2.144   1.111   5.851 -0.1275 -0.3123 -0.0445
 7038SOL    HW132747   2.211   1.047   5.875  1.3127  1.3210  0.2691
 7038SOL    HW232748   2.080   1.045   5.823 -1.3613  0.6272  0.5755
 7039SOL     OW32749   0.331   1.708   5.073 -0.2254 -0.3484 -0.7512
 7039SOL    HW132750   0.267   1.748   5.014 -0.5416 -0.4620 -0.4855
 7039SOL    HW232751   0.279   1.681   5.149 -2.5719  0.6590 -2.0270
 7040SOL     OW32752   1.840   1.211  16.209  0.1383  0.3406  0.0739
 7040SOL    HW132753   1.839   1.220  16.114  2.1815 -1.9235 -0.1511
 7040SOL    HW232754   1.785   1.285  16.234 -2.0862 -1.3355  0.2029
 7041SOL     OW32755   1.973   4.059   3.242  0.0527  0.3165  0.4769
 7041SOL    HW132756   2.001   4.034   3.330 -3.3401  0.4239  1.5805
 7041SOL    HW232757   2.002   3.993   3.179  0.3115  0.8581  0.0235
 7042SOL     OW32758   2.811   2.804   4.768  0.3567 -0.0321  0.1969
 7042SOL    HW132759   2.778   2.801   4.678 -2.1711 -0.1680  1.1389
 7042SOL    HW232760   2.873   2.731   4.769 -0.3990 -0.6778  0.2126
 7043SOL     OW32761   3.728   0.978   5.965 -0.0653  0.0015  0.0938
 7043SOL    HW132762   3.775   0.894   5.959  0.1986  0.0063  2.3317
 7043SOL    HW232763   3.763   0.999   6.051  0.1926 -1.7104  0.4202
 7044SOL     OW32764   2.530   0.628   3.964  0.1247 -0.9233  0.4193
 7044SOL    HW132765   2.548   0.694   4.031 -0.8973  1.0380 -1.2403
 7044SOL    HW232766   2.505   0.676   3.885 -0.0707  0.6683  1.4269
 7045SOL     OW32767   4.522   1.289   9.360 -0.0920 -0.3964  0.2036
 7045SOL    HW132768   4.487   1.335   9.283  0.4610  0.4811  0.4819
 7045SOL    HW232769   4.581   1.225   9.319  0.8108  0.4438  0.1973
 7046SOL     OW32770   2.644   2.710   7.797  0.3487 -0.3822 -0.0747
 7046SOL    HW132771   2.683   2.770   7.860 -2.3659  1.1145  0.1781
 7046SOL    HW232772   2.551   2.724   7.815  0.0842 -3.1937  0.7223
 7047SOL     OW32773   0.981   3.703   8.444 -0.1482  0.2837  0.0183
 7047SOL    HW132774   0.941   3.642   8.505  2.1842 -2.0747 -0.7977
 7047SOL    HW232775   1.063   3.658   8.422 -2.1977 -2.5637 -1.7513
 7048SOL     OW32776   0.495   3.882  13.894  0.6451  0.6311 -0.8676
 7048SOL    HW132777   0.526   3.918  13.811  0.7840 -1.6622 -1.8109
 7048SOL    HW232778   0.477   3.790  13.876 -1.7441  1.2926 -1.8818
 7049SOL     OW32779   0.987   4.633  16.677 -0.0745 -0.6901  0.2838
 7049SOL    HW132780   0.933   4.708  16.654  0.8100 -0.9180 -2.4587
 7049SOL    HW232781   0.998   4.652  16.770 -0.7470  0.6117  0.0875
 7050SOL     OW32782   0.411   2.740  14.998 -0.4600  0.1086  0.3999
 7050SOL    HW132783   0.375   2.697  14.921  0.7396  0.4798 -0.3779
 7050SOL    HW232784   0.419   2.831  14.968 -0.2752  0.2046  0.7424
 7051SOL     OW32785   0.385   1.386   6.245  0.0830  0.6032 -0.0475
 7051SOL    HW132786   0.330   1.335   6.186 -0.9192  2.1981 -0.4919
 7051SOL    HW232787   0.473   1.365   6.215  0.5140  2.1469  0.1402
 7052SOL     OW32788   0.736   2.231   4.476  0.8604 -0.3376  0.2050
 7052SOL    HW132789   0.823   2.211   4.512  1.3371 -0.1542 -0.8605
 7052SOL    HW232790   0.683   2.154   4.497 -1.0264  1.3716  1.6404
 7053SOL     OW32791   4.370   3.995   5.026 -0.3652  0.4084  0.2935
 7053SOL    HW132792   4.395   3.974   5.116 -2.2526  0.7648  0.9085
 7053SOL    HW232793   4.288   3.949   5.011 -0.0681 -0.4997  1.4417
 7054SOL     OW32794   2.742   3.377   1.650 -0.1457  0.5089 -0.2512
 7054SOL    HW132795   2.764   3.285   1.666  0.2775  0.8176  0.9138
 7054SOL    HW232796   2.683   3.381   1.575 -0.2167  3.4761 -0.0257
 7055SOL     OW32797   1.341   0.716  11.958  0.0138 -0.0626  0.7510
 7055SOL    HW132798   1.390   0.634  11.949 -1.6790 -1.1244  1.0940
 7055SOL    HW232799   1.278   0.698  12.028  0.0064  1.1861  1.0535
 7056SOL     OW32800   2.747   1.999   4.656  0.0447 -0.4744  0.7670
 7056SOL    HW132801   2.717   1.916   4.619 -1.2671  0.9359 -1.2892
 7056SOL    HW232802   2.668   2.026   4.704 -1.4473 -0.2250 -1.8448
 7057SOL     OW32803   2.644   3.476   4.569 -0.0291  0.2105  0.0365
 7057SOL    HW132804   2.695   3.555   4.547  0.2813  0.0070  0.0212
 7057SOL    HW232805   2.709   3.408   4.554 -1.2318 -1.1248  0.9755
 7058SOL     OW32806   3.438   3.499   7.749 -0.2824  0.6763  0.3069
 7058SOL    HW132807   3.385   3.485   7.827 -2.0261  0.3534 -0.9551
 7058SOL    HW232808   3.416   3.426   7.692  0.5502 -1.0410  2.1560
 7059SOL     OW32809   1.568   1.160   8.103  1.2476 -0.2414  0.1377
 7059SOL    HW132810   1.605   1.226   8.043  1.3869  0.0055  0.4879
 7059SOL    HW232811   1.618   1.186   8.181 -0.3492  0.3365  0.9692
 7060SOL     OW32812   1.398   1.489   6.577 -0.1322 -0.1774 -0.1405
 7060SOL    HW132813   1.310   1.454   6.565 -0.2891  0.0611  0.3264
 7060SOL    HW232814   1.433   1.469   6.490 -2.1730 -1.4640 -0.6540
 7061SOL     OW32815   0.911   2.054   2.968 -0.7140  0.4455  0.4483
 7061SOL    HW132816   0.842   2.025   2.909 -0.2861 -1.3287  0.8113
 7061SOL    HW232817   0.895   2.147   2.983 -1.8002  0.2402  0.6000
 7062SOL     OW32818   0.855   2.836  10.537 -0.2526  0.3283 -0.3531
 7062SOL    HW132819   0.826   2.911  10.485 -0.3151  0.1545 -0.5678
 7062SOL    HW232820   0.946   2.863  10.546 -0.2696  0.4346 -0.5071
 7063SOL     OW32821   4.587   0.527  10.432  0.0978 -0.3298 -0.0842
 7063SOL    HW132822   4.682   0.541  10.424  0.1825 -0.0221  1.3422
 7063SOL    HW232823   4.571   0.616  10.463 -0.9488  0.2413 -2.2840
 7064SOL     OW32824   1.528   0.867  15.183 -0.5017 -0.4366  0.2210
 7064SOL    HW132825   1.458   0.925  15.153  0.9427  1.2050  0.0497
 7064SOL    HW232826   1.561   0.828  15.102  0.1777  2.0529 -0.6909
 7065SOL     OW32827   0.984   1.434   6.316  0.2202  0.0316  0.2436
 7065SOL    HW132828   1.073   1.399   6.315 -0.2372 -1.1081 -0.7667
 7065SOL    HW232829   1.007   1.521   6.349  1.0859  0.5686 -1.7433
 7066SOL     OW32830   3.539   3.108   1.682 -0.1522 -0.0118 -0.1527
 7066SOL    HW132831   3.577   3.122   1.769  0.0650 -0.4914 -0.1667
 7066SOL    HW232832   3.462   3.164   1.689 -0.6985 -0.4399 -2.7426
 7067SOL     OW32833   2.004   4.304   8.547  0.4838  0.0349 -0.2991
 7067SOL    HW132834   1.984   4.393   8.519 -1.8011  0.0344  1.3199
 7067SOL    HW232835   1.924   4.279   8.594  0.7242 -1.7697 -0.8338
 7068SOL     OW32836   4.436   2.201   4.055 -0.3370 -0.0271 -0.0189
 7068SOL    HW132837   4.390   2.122   4.082 -1.0985 -0.2676 -2.0012
 7068SOL    HW232838   4.519   2.200   4.102 -1.3522  0.3633  1.7865
 7069SOL     OW32839   0.505   4.679   4.893 -0.3751 -0.4586 -0.2832
 7069SOL    HW132840   0.482   4.596   4.852  0.7810 -0.4775 -0.8850
 7069SOL    HW232841   0.568   4.647   4.958 -1.0290  0.2108  0.6838
 7070SOL     OW32842   1.738   3.216   7.327  0.0635  0.9269 -0.0193
 7070SOL    HW132843   1.728   3.134   7.376  0.3943  0.4258 -0.7890
 7070SOL    HW232844   1.688   3.189   7.250 -0.2187 -1.2601  0.9390
 7071SOL     OW32845   4.021   3.066  13.306  0.4377 -0.1775  0.2393
 7071SOL    HW132846   4.102   3.050  13.257 -0.4237  0.8660 -1.5079
 7071SOL    HW232847   3.953   3.050  13.241  0.5502  0.9678 -0.1616
 7072SOL     OW32848   0.088   0.968  14.558  0.1162 -0.2050 -0.6595
 7072SOL    HW132849   0.117   0.956  14.648  1.5336  0.5627 -1.0160
 7072SOL    HW232850   0.175   0.943  14.527  1.4703  1.8578  1.4520
 7073SOL     OW32851   3.932   3.030   9.573 -0.0269 -0.1292 -0.6569
 7073SOL    HW132852   3.888   3.036   9.658  0.1081 -0.5282 -0.5577
 7073SOL    HW232853   3.988   3.106   9.582  0.5070 -0.6104  0.0430
 7074SOL     OW32854   0.519   1.013   7.110 -0.2701  0.5250  0.0347
 7074SOL    HW132855   0.507   1.071   7.186 -1.5302 -0.7480  0.7955
 7074SOL    HW232856   0.595   0.959   7.130  0.5873  1.5292 -0.4788
 7075SOL     OW32857   2.775   0.416  11.671  0.1012  0.0813  0.0559
 7075SOL    HW132858   2.789   0.444  11.580 -0.1969 -1.8932 -0.6063
 7075SOL    HW232859   2.821   0.486  11.718  0.9927 -1.0806  0.9238
 7076SOL     OW32860   1.688   2.332   5.508  0.5474 -0.5523  0.5757
 7076SOL    HW132861   1.664   2.253   5.557 -1.5085 -0.2807 -0.0192
 7076SOL    HW232862   1.742   2.385   5.566 -0.0683 -0.0872  0.7180
 7077SOL     OW32863   0.253   1.710   2.781 -0.4188 -0.4118  0.1460
 7077SOL    HW132864   0.272   1.651   2.854  0.2035  0.5647  0.7656
 7077SOL    HW232865   0.176   1.750   2.821 -0.2224  0.2915 -0.1697
 7078SOL     OW32866   2.265   1.837   5.243  0.0713 -0.3625 -0.1827
 7078SOL    HW132867   2.307   1.892   5.177 -1.7359 -0.3629 -1.3358
 7078SOL    HW232868   2.229   1.762   5.195  0.1818 -0.4700 -0.0942
 7079SOL     OW32869   3.140   1.869   5.021  0.6803 -0.6731  0.1505
 7079SOL    HW132870   3.088   1.793   5.044 -0.8461 -0.1615 -1.6388
 7079SOL    HW232871   3.167   1.844   4.932 -0.0442 -1.6710  0.2140
 7080SOL     OW32872   4.641   3.991   8.099  0.3351 -0.2419  0.0600
 7080SOL    HW132873   4.723   4.032   8.072  0.3246 -0.1889  0.1099
 7080SOL    HW232874   4.669   3.941   8.175  1.5027 -1.1510 -0.9796
 7081SOL     OW32875   2.004   4.729  14.458 -0.1073  0.1529  0.0847
 7081SOL    HW132876   2.024   4.635  14.454 -1.4177 -0.2582  3.5330
 7081SOL    HW232877   1.982   0.002  14.551  0.4874  1.3138  0.1502
 7082SOL     OW32878   3.908   0.726   5.130  0.7592  0.0780 -0.2802
 7082SOL    HW132879   3.872   0.815   5.141 -0.2454 -0.4536  0.7580
 7082SOL    HW232880   3.862   0.689   5.206  1.3450 -1.1575 -0.5480
 7083SOL     OW32881   3.990   3.982   2.854  0.1357  0.1880  0.1933
 7083SOL    HW132882   4.044   3.910   2.821 -1.8327 -1.6760  1.0468
 7083SOL    HW232883   4.053   4.021   2.914  0.3261 -0.9804  0.7624
 7084SOL     OW32884   0.613   3.312   5.902  0.2579 -0.3196  0.5119
 7084SOL    HW132885   0.664   3.242   5.942  1.0851  0.6364  1.1349
 7084SOL    HW232886   0.596   3.364   5.980 -2.1150  0.6049 -0.6114
 7085SOL     OW32887   0.797   2.004   4.832  0.2754  0.4764  0.4594
 7085SOL    HW132888   0.706   2.003   4.860  0.3011 -1.0824  0.5085
 7085SOL    HW232889   0.812   2.098   4.837  0.5044  0.4588  0.0974
 7086SOL     OW32890   4.032   0.250  10.789  0.2100 -0.4339  0.1768
 7086SOL    HW132891   4.025   0.288  10.702  2.1875  3.5465  1.7337
 7086SOL    HW232892   4.127   0.242  10.802  0.5919  1.9801 -1.1287
 7087SOL     OW32893   2.041   1.553  11.795 -0.8568 -0.5589  0.6081
 7087SOL    HW132894   2.100   1.628  11.783  1.4276 -2.3786  0.4338
 7087SOL    HW232895   1.961   1.598  11.821  0.8116  3.8791 -2.0050
 7088SOL     OW32896   2.857   4.223  14.011 -0.6787 -0.2861  0.3480
 7088SOL    HW132897   2.827   4.238  13.921  0.2707  1.2402  0.2823
 7088SOL    HW232898   2.854   4.128  14.003  3.1979 -0.4500  0.6292
 7089SOL     OW32899   1.799   2.589   8.481  0.0258  0.4151  0.0510
 7089SOL    HW132900   1.804   2.531   8.405 -2.0684  0.1912  0.0971
 7089SOL    HW232901   1.706   2.607   8.497 -0.1370  0.2709 -0.7494
 7090SOL     OW32902   4.636   0.069   5.313 -0.2359  0.1176  0.1485
 7090SOL    HW132903   4.549   0.079   5.350 -0.5256 -2.0322  0.0613
 7090SOL    HW232904   4.619   0.006   5.242 -0.6373 -1.1008  1.3265
 7091SOL     OW32905   0.907   4.050  17.396 -0.3621  0.1699 -0.6395
 7091SOL    HW132906   0.972   4.047  17.326 -0.2789 -0.7204 -0.5146
 7091SOL    HW232907   0.935   3.978  17.452 -0.0864  0.4296 -0.4442
 7092SOL     OW32908   0.907   0.194  10.372  0.2693  0.3126 -0.2111
 7092SOL    HW132909   0.864   0.243  10.442  1.9000 -0.3722  1.2677
 7092SOL    HW232910   0.992   0.191  10.416 -0.5774 -1.8237  1.2694
 7093SOL     OW32911   2.571   4.092   7.965 -0.4561  0.1099 -0.1809
 7093SOL    HW132912   2.510   4.096   8.038  0.1377  0.0779  0.3187
 7093SOL    HW232913   2.512   4.052   7.901 -0.6114  1.2789 -0.7607
 7094SOL     OW32914   2.046   1.906   4.750 -0.1303  0.2006 -0.4163
 7094SOL    HW132915   2.063   1.974   4.816  0.0963 -0.2712  0.0128
 7094SOL    HW232916   2.124   1.921   4.696  0.4401 -0.5078  0.2117
 7095SOL     OW32917   1.799   2.595   6.060 -0.4400  0.3741 -0.0690
 7095SOL    HW132918   1.773   2.578   6.150 -0.8136  0.6182 -0.1342
 7095SOL    HW232919   1.807   2.690   6.055 -0.6181  0.3920  0.0113
 7096SOL     OW32920   3.707   4.686  14.113  0.4095 -0.0831  0.3865
 7096SOL    HW132921   3.756   0.033  14.134  1.6637 -0.6064 -0.5193
 7096SOL    HW232922   3.629   0.002  14.086 -0.0800 -2.0436 -1.7559
 7097SOL     OW32923   3.342   0.888  13.211  0.7111  0.3230  0.6295
 7097SOL    HW132924   3.387   0.919  13.132 -1.4932  1.2221 -0.2734
 7097SOL    HW232925   3.410   0.827  13.239 -0.6990 -0.5891  2.0581
 7098SOL     OW32926   3.337   1.216   2.479  0.4514 -0.4647 -0.9608
 7098SOL    HW132927   3.256   1.197   2.526  1.2180 -0.3701  0.3946
 7098SOL    HW232928   3.306   1.284   2.419 -2.0101 -1.5246 -0.9128
 7099SOL     OW32929   2.275   0.078  17.525 -0.5772  0.1529 -0.3204
 7099SOL    HW132930   2.192   0.032  17.519  0.8502 -2.4343 -0.2030
 7099SOL    HW232931   2.277   0.103  17.617  1.5966 -0.0505 -0.3210
 7100SOL     OW32932   3.851   2.303   5.120 -0.0061 -0.2439 -0.1179
 7100SOL    HW132933   3.889   2.367   5.180 -0.8989 -0.1050  0.3036
 7100SOL    HW232934   3.851   2.228   5.180  2.2768 -0.9028 -0.9528
 7101SOL     OW32935   1.523   1.629   4.890 -0.4843 -0.9578 -0.1319
 7101SOL    HW132936   1.525   1.541   4.852 -1.8710 -0.6767 -0.8333
 7101SOL    HW232937   1.433   1.635   4.919 -1.1500 -1.0112 -2.1945
 7102SOL     OW32938   3.493   2.863   7.292 -0.4561  0.3534 -0.1283
 7102SOL    HW132939   3.568   2.804   7.279 -0.3639  0.1418  1.3819
 7102SOL    HW232940   3.480   2.893   7.202 -1.1416 -1.0572 -0.4985
 7103SOL     OW32941   3.282   4.536  10.554  0.2518  0.1824 -0.0364
 7103SOL    HW132942   3.196   4.540  10.595  1.9340 -0.6876  3.5098
 7103SOL    HW232943   3.272   4.543  10.459 -1.2962 -3.8955 -0.1975
 7104SOL     OW32944   4.351   1.936   4.195  0.4341  0.1187  0.2302
 7104SOL    HW132945   4.412   1.957   4.265 -2.6985 -2.3916  3.7072
 7104SOL    HW232946   4.274   1.930   4.251  0.2219 -0.1908 -0.0940
 7105SOL     OW32947   4.121   3.045   4.621  0.3032 -0.0850  0.2632
 7105SOL    HW132948   4.179   2.983   4.577 -1.4219 -1.5023 -0.0494
 7105SOL    HW232949   4.065   2.978   4.661 -0.6750  0.5812  0.0095
 7106SOL     OW32950   0.626   3.598   1.498 -0.0748 -0.0353  0.1844
 7106SOL    HW132951   0.541   3.575   1.461 -0.2559 -0.7335  1.0513
 7106SOL    HW232952   0.656   3.518   1.541  0.5854 -0.0464 -0.2894
 7107SOL     OW32953   4.159   1.690   8.079  0.2364 -0.0590  0.3706
 7107SOL    HW132954   4.108   1.719   8.154 -1.2762  2.8765 -1.7568
 7107SOL    HW232955   4.080   1.681   8.025 -1.2904  2.5718  2.1666
 7108SOL     OW32956   0.298   2.561   2.127 -0.2570  0.8405  0.0602
 7108SOL    HW132957   0.321   2.649   2.156  0.1473  0.5363  0.6389
 7108SOL    HW232958   0.303   2.573   2.032 -0.0639 -1.6872 -0.2384
 7109SOL     OW32959   3.977   0.518   2.139 -0.0324 -0.6746 -0.3573
 7109SOL    HW132960   3.970   0.573   2.216  0.9514  0.0621 -0.7924
 7109SOL    HW232961   3.933   0.574   2.075  0.1033 -0.9256 -0.6711
 7110SOL     OW32962   1.166   1.562  14.876 -0.3281  0.1052 -0.1266
 7110SOL    HW132963   1.239   1.611  14.839 -0.5016  0.5320  0.0924
 7110SOL    HW232964   1.181   1.556  14.970  1.1710 -0.9240 -0.4436
 7111SOL     OW32965   0.327   1.954   4.499 -0.0745 -0.0121  0.3008
 7111SOL    HW132966   0.367   1.867   4.506 -0.9379 -0.4770 -0.4763
 7111SOL    HW232967   0.342   1.980   4.590  0.0059  1.3140 -0.0904
 7112SOL     OW32968   3.521   1.753   5.809  0.5570  0.4631 -0.0385
 7112SOL    HW132969   3.449   1.724   5.754  1.4247  0.9463 -1.4266
 7112SOL    HW232970   3.482   1.782   5.892  1.2363  1.2209  0.0214
 7113SOL     OW32971   2.493   1.211   3.756 -0.3026  0.1365  0.4746
 7113SOL    HW132972   2.484   1.301   3.786 -0.2735 -0.0906  1.1588
 7113SOL    HW232973   2.462   1.167   3.835  0.6101  0.8567  1.2338
 7114SOL     OW32974   0.057   0.521   2.181  0.1430 -0.1955 -0.2056
 7114SOL    HW132975   0.062   0.555   2.092 -1.5388  2.0672  0.5343
 7114SOL    HW232976   0.024   0.602   2.222  0.3157 -1.0791  1.6600
 7115SOL     OW32977   3.454   3.919   9.973  0.1860 -0.8907 -0.2446
 7115SOL    HW132978   3.489   3.834   9.945 -0.2067 -0.8284 -0.9190
 7115SOL    HW232979   3.408   3.952   9.896  3.5782  1.7080 -1.1526
 7116SOL     OW32980   3.021   1.319   9.034 -0.2226  0.4237 -0.7894
 7116SOL    HW132981   3.065   1.258   9.093  1.0737  1.9999 -0.1171
 7116SOL    HW232982   3.005   1.388   9.099 -1.3652 -0.4261 -0.1674
 7117SOL     OW32983   3.092   2.281   3.027  0.5631  0.2867  0.5365
 7117SOL    HW132984   3.159   2.344   3.053  1.0966 -0.9397  2.1268
 7117SOL    HW232985   3.144   2.214   2.982  0.6362  0.6653  0.0548
 7118SOL     OW32986   2.842   0.264   3.740 -0.2548 -0.1622  0.3561
 7118SOL    HW132987   2.892   0.242   3.661  0.4679 -3.1840  1.6519
 7118SOL    HW232988   2.773   0.315   3.697  0.3576 -0.3371 -0.8378
 7119SOL     OW32989   2.239   4.220   4.257 -0.0616 -0.3296  0.4207
 7119SOL    HW132990   2.316   4.264   4.222 -0.6764 -0.2924 -0.8703
 7119SOL    HW232991   2.164   4.266   4.219  1.2548  1.2124 -0.2635
 7120SOL     OW32992   0.953   2.798  15.345  0.2469 -0.2578  0.4486
 7120SOL    HW132993   0.878   2.808  15.403  0.6517 -0.9801  1.0899
 7120SOL    HW232994   0.913   2.763  15.265  0.1659  1.2454 -0.1700
 7121SOL     OW32995   3.969   0.180   1.070 -0.1684 -0.3478 -0.4193
 7121SOL    HW132996   3.927   0.266   1.062  2.2779  0.8896 -0.0262
 7121SOL    HW232997   3.891   0.128   1.049  0.5656 -1.4027 -0.5467
 7122SOL     OW32998   3.629   0.394  12.307  0.4442 -0.1615  0.3790
 7122SOL    HW132999   3.687   0.455  12.353 -0.3651  0.3354  0.7452
 7122SOL    HW233000   3.573   0.451  12.254  0.2763  1.3508  2.1994
 7123SOL     OW33001   3.509   3.150   2.368 -0.1046 -0.6662 -0.0430
 7123SOL    HW133002   3.430   3.121   2.414  1.1219 -0.5635  2.1481
 7123SOL    HW233003   3.573   3.155   2.439  0.9824 -0.0829 -1.0602
 7124SOL     OW33004   4.429   4.088   1.308 -0.6043 -0.0566 -0.3152
 7124SOL    HW133005   4.463   4.168   1.269 -1.6180  0.5284 -0.0025
 7124SOL    HW233006   4.455   4.100   1.400  3.5126 -0.2539 -1.4835
 7125SOL     OW33007   2.820   3.097   4.805 -0.4752  0.2852 -0.1331
 7125SOL    HW133008   2.726   3.084   4.815 -0.2693 -0.7990  0.4149
 7125SOL    HW233009   2.849   3.007   4.791  1.6858  0.9908 -0.1177
 7126SOL     OW33010   3.685   0.420   7.091  0.1799 -0.1674 -0.1330
 7126SOL    HW133011   3.598   0.401   7.125 -0.1432  0.4946 -0.5890
 7126SOL    HW233012   3.692   0.363   7.014 -0.5716  1.6437 -1.5499
 7127SOL     OW33013   0.831   1.554   2.454  0.1366  0.3249  0.6167
 7127SOL    HW133014   0.776   1.529   2.380  1.7043 -2.3864  0.3626
 7127SOL    HW233015   0.760   1.569   2.516 -0.0652 -0.7804  0.6551
 7128SOL     OW33016   4.200   1.270   9.317  0.1146 -0.3039 -0.1146
 7128SOL    HW133017   4.254   1.253   9.240 -1.1030 -1.1105 -0.7874
 7128SOL    HW233018   4.213   1.197   9.378 -0.3185 -1.5583 -1.5430
 7129SOL     OW33019   3.271   4.253   5.627 -0.5940 -0.5567 -0.4842
 7129SOL    HW133020   3.222   4.223   5.704 -0.8849 -0.0993 -0.4883
 7129SOL    HW233021   3.259   4.347   5.639 -0.0340 -0.2847 -2.0718
 7130SOL     OW33022   2.683   3.398   6.958 -0.4471 -0.2862  0.0070
 7130SOL    HW133023   2.625   3.439   7.022  0.3026  2.6052 -1.2058
 7130SOL    HW233024   2.745   3.469   6.943 -0.6301 -0.1031  0.1112
 7131SOL     OW33025   2.360   4.401   7.260  0.2048  0.2746  0.8631
 7131SOL    HW133026   2.303   4.416   7.335 -1.6281 -1.6430 -0.1651
 7131SOL    HW233027   2.369   4.493   7.232 -1.6984  0.4788  0.9570
 7132SOL     OW33028   3.484   0.023   9.973 -0.8364 -0.1116  0.4626
 7132SOL    HW133029   3.390   0.029   9.992 -1.0696  1.0677 -1.0361
 7132SOL    HW233030   3.491   4.724   9.882 -2.2333 -0.6536  0.5379
 7133SOL     OW33031   1.168   2.273   3.097  0.1469  0.4242 -0.0280
 7133SOL    HW133032   1.081   2.302   3.071 -0.2963  0.9331  1.9982
 7133SOL    HW233033   1.215   2.320   3.028  0.1726  2.0536  1.1058
 7134SOL     OW33034   1.665   4.443   2.138 -0.5735 -0.0630  0.3048
 7134SOL    HW133035   1.635   4.533   2.155  0.4802  0.7255 -1.9761
 7134SOL    HW233036   1.725   4.455   2.065 -2.3643 -0.8197 -1.3015
 7135SOL     OW33037   4.347   2.601  14.733  0.1805 -0.0301 -0.2188
 7135SOL    HW133038   4.419   2.543  14.708 -0.9259 -0.8792 -1.4477
 7135SOL    HW233039   4.275   2.565  14.681 -0.2024 -1.1872  1.0948
 7136SOL     OW33040   2.173   0.227   0.839  0.0366  0.6061 -0.1672
 7136SOL    HW133041   2.214   0.145   0.863 -1.5729  0.3823  1.8758
 7136SOL    HW233042   2.081   0.199   0.837  0.8318 -1.6818 -3.1869
 7137SOL     OW33043   4.486   3.832   7.580 -0.3353  0.1095  0.1222
 7137SOL    HW133044   4.552   3.856   7.645 -1.2655  0.3183  0.9894
 7137SOL    HW233045   4.414   3.804   7.636 -1.0843  2.1304  0.1833
 7138SOL     OW33046   1.081   2.771   9.573 -0.1967  0.0534 -0.2460
 7138SOL    HW133047   1.119   2.739   9.655  0.4923 -1.7753 -1.2797
 7138SOL    HW233048   1.138   2.837   9.533  1.3905  0.2628  2.3930
 7139SOL     OW33049   0.095   2.229   8.147  0.1703  0.9790  0.4463
 7139SOL    HW133050   0.103   2.312   8.099 -2.0990  1.1672  0.3945
 7139SOL    HW233051   0.151   2.181   8.086 -0.6160 -0.8830  1.2149
 7140SOL     OW33052   2.393   1.932   7.823 -0.5012  0.7011  0.6103
 7140SOL    HW133053   2.427   1.857   7.871 -1.2753  0.5621  0.9332
 7140SOL    HW233054   2.401   1.915   7.729  2.5097  1.9054  0.6295
 7141SOL     OW33055   0.101   2.022  15.718  0.6498 -0.0624  0.1106
 7141SOL    HW133056   0.012   2.047  15.693  1.3298  1.3057 -0.9505
 7141SOL    HW233057   0.150   2.062  15.646  1.3016 -1.8452 -0.4377
 7142SOL     OW33058   3.421   3.761   7.832  0.4570 -0.3927  0.1376
 7142SOL    HW133059   3.420   3.675   7.790  1.2430  0.2228 -1.1795
 7142SOL    HW233060   3.461   3.809   7.759  2.8583 -0.3704  1.4470
 7143SOL     OW33061   1.403   0.652   7.916 -0.5046  0.0739  1.0969
 7143SOL    HW133062   1.464   0.695   7.856 -0.9941  0.3592  0.8041
 7143SOL    HW233063   1.425   0.562   7.892  1.6603  0.7349  0.5990
 7144SOL     OW33064   1.013   3.049  15.241  0.2126  0.0177  0.1645
 7144SOL    HW133065   0.973   2.973  15.283 -0.9313 -0.6013 -2.0806
 7144SOL    HW233066   0.984   3.031  15.152  0.9432  2.0180 -0.4712
 7145SOL     OW33067   4.473   0.830   7.692 -0.0254  0.4414 -0.3983
 7145SOL    HW133068   4.461   0.786   7.777 -0.1758  0.0566 -0.6185
 7145SOL    HW233069   4.535   0.898   7.718  0.7098 -0.5696  0.5634
 7146SOL     OW33070   1.418   0.127  10.941 -0.3066 -0.1853  0.2680
 7146SOL    HW133071   1.402   0.081  11.023 -0.0355 -0.8765 -0.0652
 7146SOL    HW233072   1.451   0.213  10.969  2.6170 -0.8730 -1.0381
 7147SOL     OW33073   4.504   2.306   1.974 -0.1261 -0.1180 -0.2510
 7147SOL    HW133074   4.587   2.300   2.022  0.0583 -1.9660 -0.8071
 7147SOL    HW233075   4.441   2.308   2.045 -0.2257  1.0489 -0.3695
 7148SOL     OW33076   0.304   0.926   5.826  0.0089 -0.0606 -0.0048
 7148SOL    HW133077   0.269   0.895   5.910  1.3121  1.0980  0.9694
 7148SOL    HW233078   0.382   0.871   5.823 -2.2093 -3.1389 -1.4071
 7149SOL     OW33079   1.812   2.566  17.701 -0.2297 -0.0407 -0.1562
 7149SOL    HW133080   1.728   2.610  17.689 -0.1979  0.1696  0.3743
 7149SOL    HW233081   1.794   2.512   0.049  2.6368 -0.3316  0.3151
 7150SOL     OW33082   4.512   1.259   7.482  0.0192 -0.0278  0.2972
 7150SOL    HW133083   4.510   1.179   7.429 -0.8355 -0.0703  0.4058
 7150SOL    HW233084   4.463   1.230   7.559 -2.8802  0.0216 -1.5499
 7151SOL     OW33085   2.064   3.359   7.793  0.4352  1.1221  0.0585
 7151SOL    HW133086   2.059   3.333   7.885 -2.0708  2.2558  0.2227
 7151SOL    HW233087   2.084   3.452   7.805  1.8283  0.8252  0.0378
 7152SOL     OW33088   4.042   1.463  15.714  0.3812 -0.8152  0.8042
 7152SOL    HW133089   3.976   1.465  15.644 -0.6089  0.0173  1.7710
 7152SOL    HW233090   4.004   1.534  15.765  0.0086  0.7535 -1.6238
 7153SOL     OW33091   0.826   4.252   8.676 -0.0901 -0.0949 -0.0602
 7153SOL    HW133092   0.874   4.287   8.600  0.0737 -1.6428 -0.6737
 7153SOL    HW233093   0.740   4.291   8.661  0.4994  1.3819  0.3698
 7154SOL     OW33094   0.133   1.223  14.825 -0.1142  0.0119  0.0025
 7154SOL    HW133095   0.084   1.141  14.815  0.6483 -0.4348 -0.0920
 7154SOL    HW233096   0.204   1.222  14.760  0.0079  1.1256  0.1169
 7155SOL     OW33097   0.687   2.690   9.686  0.2577 -0.2560 -0.3580
 7155SOL    HW133098   0.711   2.662   9.597 -0.9511 -1.4276 -0.3126
 7155SOL    HW233099   0.666   2.783   9.674  1.5165  0.1107  0.2787
 7156SOL     OW33100   3.151   0.689   7.129 -0.1115 -0.2942 -0.3951
 7156SOL    HW133101   3.154   0.623   7.060  0.9407  0.1761 -0.8068
 7156SOL    HW233102   3.242   0.684   7.157 -0.3161 -2.2563 -0.1406
 7157SOL     OW33103   0.655   2.356  11.623  0.2644 -0.3788 -0.2686
 7157SOL    HW133104   0.591   2.338  11.555  1.1635  0.5719 -1.3612
 7157SOL    HW233105   0.724   2.291  11.611  1.3247  0.9874 -1.5815
 7158SOL     OW33106   0.295   3.162   9.230 -0.4202  0.6594 -0.2843
 7158SOL    HW133107   0.233   3.138   9.161 -0.9071  0.8203  0.0967
 7158SOL    HW233108   0.278   3.256   9.243  0.9454  0.7235  1.0739
 7159SOL     OW33109   2.909   4.028  17.438 -0.1702  0.0361 -0.4761
 7159SOL    HW133110   2.887   3.943  17.399  0.7022  1.2283 -3.5384
 7159SOL    HW233111   2.957   4.071  17.367  0.2486 -1.4510 -1.0877
 7160SOL     OW33112   4.621   2.417   9.163  0.5000 -0.0544 -0.4388
 7160SOL    HW133113   4.643   2.377   9.079 -0.5712 -2.7476  0.5381
 7160SOL    HW233114   4.635   2.344   9.223  1.0688  0.8659  0.5275
 7161SOL     OW33115   3.407   3.799  12.876  0.4251  0.2025 -0.2650
 7161SOL    HW133116   3.437   3.889  12.891  1.4963 -0.4867  1.6888
 7161SOL    HW233117   3.370   3.814  12.789  0.6991  1.1774 -0.2169
 7162SOL     OW33118   3.386   3.917   3.202  0.0228 -0.0021  0.2244
 7162SOL    HW133119   3.360   4.004   3.174 -0.6065 -0.0558  0.6455
 7162SOL    HW233120   3.482   3.925   3.203 -0.2097  2.4337  2.6736
 7163SOL     OW33121   1.508   2.839   2.800 -0.0142 -0.0503  0.1273
 7163SOL    HW133122   1.412   2.840   2.801  0.0115 -0.3018  3.6889
 7163SOL    HW233123   1.530   2.846   2.707  2.1941  0.1261  0.6696
 7164SOL     OW33124   2.977   0.214   0.856  0.5358 -0.3793  0.0475
 7164SOL    HW133125   2.984   0.154   0.931 -0.1464  1.5776  1.6741
 7164SOL    HW233126   2.938   0.288   0.902 -1.9033 -0.8921 -1.1764
 7165SOL     OW33127   0.369   2.710  11.072 -0.1080  0.1852 -0.1534
 7165SOL    HW133128   0.379   2.696  10.978 -0.4715  1.4946 -0.3999
 7165SOL    HW233129   0.340   2.802  11.069 -2.4651 -0.5749 -0.7567
 7166SOL     OW33130   2.290   1.954   3.742  0.1642  0.5391  0.2374
 7166SOL    HW133131   2.270   1.999   3.660 -0.7898  1.9814  1.2598
 7166SOL    HW233132   2.381   1.980   3.760 -0.6799  1.7710  2.6971
 7167SOL     OW33133   3.911   2.853   8.769 -0.1692 -0.1592  1.0894
 7167SOL    HW133134   3.853   2.909   8.716  0.9823 -2.0167 -2.1133
 7167SOL    HW233135   3.940   2.786   8.707  0.4620 -2.3303  3.7900
 7168SOL     OW33136   1.015   0.049   0.150  0.1778  0.0606 -0.0999
 7168SOL    HW133137   0.929   0.052   0.191 -0.5852 -0.1221 -1.6579
 7168SOL    HW233138   1.083   0.057   0.217 -0.5381 -0.2677  0.6631
 7169SOL     OW33139   2.056   3.776   6.468 -0.4292  0.4656  0.1883
 7169SOL    HW133140   2.149   3.794   6.477 -0.1739  0.0992 -1.7546
 7169SOL    HW233141   2.019   3.830   6.537 -2.0210  0.4501 -0.6458
 7170SOL     OW33142   4.087   0.704   6.418  0.0296 -0.2095 -0.0162
 7170SOL    HW133143   4.067   0.798   6.420  0.6461 -0.0618 -0.9311
 7170SOL    HW233144   4.163   0.710   6.476  0.5076 -2.2248 -0.4388
 7171SOL     OW33145   1.040   1.354  10.546 -0.2114 -0.1666 -0.2177
 7171SOL    HW133146   1.085   1.270  10.546  1.4192  0.7084 -0.8883
 7171SOL    HW233147   0.970   1.325  10.487 -0.1332  0.5094 -0.6382
 7172SOL     OW33148   2.302   3.874   7.477 -0.3689 -0.0155  0.0370
 7172SOL    HW133149   2.245   3.920   7.537 -2.6289 -3.1482  0.2781
 7172SOL    HW233150   2.314   3.939   7.408 -0.0330  1.6021  1.6152
 7173SOL     OW33151   3.736   4.074   2.848 -0.0353 -0.0408 -0.2449
 7173SOL    HW133152   3.720   4.158   2.890 -3.2077 -0.0034 -1.4782
 7173SOL    HW233153   3.830   4.064   2.857  0.0634 -0.1949 -1.3963
 7174SOL     OW33154   4.299   2.783   6.056  0.6119 -1.1637  0.1110
 7174SOL    HW133155   4.387   2.791   6.091  1.5343 -1.1956 -2.1758
 7174SOL    HW233156   4.313   2.784   5.961  1.1124  2.0298  0.2259
 7175SOL     OW33157   4.703   1.501  16.119  0.1935 -0.1409  0.2970
 7175SOL    HW133158   4.670   1.433  16.061  2.2782 -0.6790 -0.2385
 7175SOL    HW233159   4.635   1.493  16.186 -0.4017  0.9086 -0.1796
 7176SOL     OW33160   4.718   2.252  11.654 -0.0752  0.4632 -0.3275
 7176SOL    HW133161   0.067   2.289  11.621 -1.1417  1.1259 -2.2371
 7176SOL    HW233162   4.701   2.174  11.601  0.1523  0.7862 -0.8747
 7177SOL     OW33163   2.916   0.081  14.687 -0.8954  0.0446 -0.4085
 7177SOL    HW133164   2.852   0.139  14.729 -2.3295 -0.3630 -2.0343
 7177SOL    HW233165   2.953   0.029  14.759 -1.6708 -0.4839 -0.3935
 7178SOL     OW33166   2.043   0.222   7.975 -0.1549 -0.0525 -0.8085
 7178SOL    HW133167   1.978   0.265   8.030 -0.9181  0.4469 -2.1055
 7178SOL    HW233168   2.090   0.299   7.942 -0.7125  0.5609 -0.1601
 7179SOL     OW33169   1.521   3.777   4.908  0.2410  0.4696 -0.1633
 7179SOL    HW133170   1.514   3.771   5.003  0.1721  0.4118 -0.1717
 7179SOL    HW233171   1.437   3.735   4.890  0.9375 -0.3480 -1.5013
 7180SOL     OW33172   0.005   1.848  13.824  0.4923 -0.3537  0.0684
 7180SOL    HW133173   0.073   1.897  13.779  0.2638 -0.9487 -0.9150
 7180SOL    HW233174   0.029   1.761  13.792  1.9991  0.3079 -0.6064
 7181SOL     OW33175   2.076   2.565   4.343  0.1463 -0.5710 -0.3825
 7181SOL    HW133176   2.022   2.491   4.372 -0.0380  0.1404  1.1060
 7181SOL    HW233177   2.027   2.589   4.264  0.3817  1.4263  0.0823
 7182SOL     OW33178   2.239   4.062   3.491 -0.6619  0.0773 -0.4304
 7182SOL    HW133179   2.273   3.980   3.526 -0.0841  0.3202 -0.4108
 7182SOL    HW233180   2.203   4.109   3.566  0.7201  1.6890 -0.7608
 7183SOL     OW33181   4.286   3.962   9.066 -0.0369 -0.2546 -0.1849
 7183SOL    HW133182   4.283   4.058   9.067 -0.8260 -0.2831  0.1867
 7183SOL    HW233183   4.320   3.954   8.977  2.6017  2.2147  0.6052
 7184SOL     OW33184   1.359   1.000  17.438  0.2239  0.4317  0.1383
 7184SOL    HW133185   1.293   1.008  17.507  1.6459 -2.1463  1.7708
 7184SOL    HW233186   1.315   0.952  17.367  1.0295  0.3171 -0.2882
 7185SOL     OW33187   0.347   2.626   8.517 -0.2925 -0.3455 -0.6997
 7185SOL    HW133188   0.429   2.669   8.540 -1.0462 -0.1106  1.5512
 7185SOL    HW233189   0.373   2.578   8.438  0.1205  1.6858 -1.7876
 7186SOL     OW33190   4.507   4.555   7.060 -0.0115 -0.4402 -0.1241
 7186SOL    HW133191   4.591   4.510   7.063  1.1557  1.9048  2.2271
 7186SOL    HW233192   4.521   4.635   7.110 -1.0819  1.0057 -2.1315
 7187SOL     OW33193   3.392   0.445   7.152 -0.0501 -0.4006  0.5064
 7187SOL    HW133194   3.312   0.394   7.146 -0.8131  1.0688 -1.7184
 7187SOL    HW233195   3.439   0.399   7.221  1.5376 -1.1182 -1.0355
 7188SOL     OW33196   1.936   4.231   6.436  0.0178 -0.0151  0.8679
 7188SOL    HW133197   1.943   4.142   6.471 -0.5377  0.6625  2.7187
 7188SOL    HW233198   1.868   4.225   6.369  0.9864  1.5872 -0.2361
 7189SOL     OW33199   3.939   4.075   0.737  0.2955  0.3745 -0.4862
 7189SOL    HW133200   3.928   4.170   0.741 -0.9861  0.3431 -3.0950
 7189SOL    HW233201   4.034   4.064   0.734  0.1131 -0.9918 -1.2753
 7190SOL     OW33202   4.300   2.204   4.788 -0.0095 -0.1882  0.6293
 7190SOL    HW133203   4.257   2.227   4.706  0.2728  1.2417  0.8833
 7190SOL    HW233204   4.220   2.191   4.839  0.0868  2.2261  1.3678
 7191SOL     OW33205   4.584   0.853  14.735  0.2751 -0.0393  0.5971
 7191SOL    HW133206   4.640   0.892  14.802 -0.8386  0.0922  1.4647
 7191SOL    HW233207   4.623   0.766  14.726  1.9268  0.5190  2.4018
 7192SOL     OW33208   1.081   1.805   6.011 -0.2590 -0.2586  0.5046
 7192SOL    HW133209   1.099   1.895   6.038  1.4485 -0.3039 -0.4540
 7192SOL    HW233210   0.988   1.802   6.030 -0.8646  2.2134 -2.0828
 7193SOL     OW33211   0.313   4.281  15.586  0.1217 -0.0431 -0.5987
 7193SOL    HW133212   0.324   4.244  15.673 -0.8406 -1.7321 -1.1982
 7193SOL    HW233213   0.382   4.347  15.580 -0.7877  0.7709 -2.1243
 7194SOL     OW33214   4.581   0.682   3.677  0.2620 -0.1020 -0.0018
 7194SOL    HW133215   4.563   0.746   3.746  2.1963  0.7566 -0.2983
 7194SOL    HW233216   4.490   0.671   3.646  0.0981  0.2997  0.3357
 7195SOL     OW33217   0.752   4.046   2.933  0.0278 -0.2991 -0.1781
 7195SOL    HW133218   0.767   4.109   3.003 -0.6218  0.7035 -0.9566
 7195SOL    HW233219   0.845   4.023   2.931  0.5174  1.6537  0.4895
 7196SOL     OW33220   3.322   4.024   9.168 -0.4748  0.0449  0.5200
 7196SOL    HW133221   3.410   4.010   9.201 -2.0029 -4.1495  2.8180
 7196SOL    HW233222   3.286   4.096   9.219  0.0322  0.6217  0.0585
 7197SOL     OW33223   4.071   4.149  12.870 -0.1469 -0.3399 -0.2906
 7197SOL    HW133224   4.140   4.198  12.825 -1.0106 -0.0586 -1.3135
 7197SOL    HW233225   4.005   4.216  12.887  1.5210  1.4382 -0.7777
 7198SOL     OW33226   1.320   0.140   6.812 -0.5298  0.1431  0.1770
 7198SOL    HW133227   1.277   0.226   6.813  0.5630  0.7077 -0.9043
 7198SOL    HW233228   1.290   0.097   6.892 -2.0630  1.2518  0.2035
 7199SOL     OW33229   1.315   4.325   3.173 -0.2889 -0.6318 -0.2941
 7199SOL    HW133230   1.394   4.355   3.217 -0.9745 -1.4925  1.5296
 7199SOL    HW233231   1.254   4.311   3.245 -0.6037 -2.2871 -0.8749
 7200SOL     OW33232   2.046   1.513   6.008 -0.0306  0.2791  0.2717
 7200SOL    HW133233   2.097   1.514   5.927 -0.4695 -1.3263 -0.0340
 7200SOL    HW233234   2.039   1.420   6.029 -0.0134  0.4997  1.2537
 7201SOL     OW33235   2.250   0.657   9.799 -0.2608  0.0039 -0.2195
 7201SOL    HW133236   2.329   0.658   9.853 -0.0068 -0.3727 -0.5841
 7201SOL    HW233237   2.180   0.670   9.864 -1.1870  1.3216 -1.4607
 7202SOL     OW33238   2.311   1.258  11.967  0.4558  0.4382 -0.2668
 7202SOL    HW133239   2.404   1.251  11.947  0.3929  0.3920 -0.5410
 7202SOL    HW233240   2.300   1.351  11.946 -0.8071  0.1806 -0.7377
 7203SOL     OW33241   1.867   0.230   6.072 -0.3920  0.0294  0.5055
 7203SOL    HW133242   1.892   0.245   6.163  0.4077  1.2514  0.0746
 7203SOL    HW233243   1.894   0.139   6.057  2.0601  0.8204  0.2785
 7204SOL     OW33244   0.009   2.778  17.458  0.0266  0.2798  0.3490
 7204SOL    HW133245   0.077   2.839  17.485  0.2037 -0.8415  2.4956
 7204SOL    HW233246   4.670   2.828  17.498 -0.1249 -0.5771  1.1640
 7205SOL     OW33247   0.463   3.275  12.955  0.1348  0.2963 -0.4516
 7205SOL    HW133248   0.496   3.331  13.025 -0.4635 -0.2566  0.2661
 7205SOL    HW233249   0.370   3.270  12.974  0.1738 -0.1204 -0.3876
 7206SOL     OW33250   4.304   1.996   5.277  0.3961  0.3903  0.3768
 7206SOL    HW133251   4.244   1.922   5.264  0.6698  0.4107 -1.0617
 7206SOL    HW233252   4.337   1.966   5.362 -0.3136  0.1657  0.5766
 7207SOL     OW33253   2.705   2.329   4.355  0.0837 -0.9832 -0.0720
 7207SOL    HW133254   2.736   2.244   4.322 -1.1880 -0.6875 -2.0786
 7207SOL    HW233255   2.701   2.315   4.449  0.9756 -2.3904 -0.2426
 7208SOL     OW33256   2.272   0.572  11.706  0.4388 -0.0447 -0.4735
 7208SOL    HW133257   2.273   0.544  11.614  1.9345  0.5539 -0.6282
 7208SOL    HW233258   2.276   0.667  11.700  1.3686  0.1441  3.3691
 7209SOL     OW33259   2.601   3.155   2.652  0.1833 -0.2896 -0.1082
 7209SOL    HW133260   2.600   3.094   2.578  0.6113 -0.9545  0.4284
 7209SOL    HW233261   2.583   3.233   2.598 -0.9589 -0.0917  0.5637
 7210SOL     OW33262   0.842   0.738  11.770 -0.1394 -0.3151 -0.4200
 7210SOL    HW133263   0.761   0.696  11.800 -0.6644  2.3679  1.9840
 7210SOL    HW233264   0.850   0.821  11.818  3.1198 -0.8958  0.0192
 7211SOL     OW33265   1.072   4.018   2.615 -0.4501  0.1322  0.6615
 7211SOL    HW133266   1.068   3.924   2.597 -0.4502  0.4335 -0.8951
 7211SOL    HW233267   0.995   4.038   2.563 -0.3934 -3.9665 -0.9984
 7212SOL     OW33268   1.342   0.996   8.147 -0.1726 -0.4006  0.2743
 7212SOL    HW133269   1.301   1.047   8.217  0.3343 -2.7443  2.2840
 7212SOL    HW233270   1.423   1.046   8.135 -1.2263  0.4629 -3.1613
 7213SOL     OW33271   2.870   2.555   3.764 -0.0247  0.0684 -0.2376
 7213SOL    HW133272   2.908   2.629   3.717  1.0312 -0.9979 -1.0594
 7213SOL    HW233273   2.941   2.500   3.797  1.5530  1.5101 -1.2490
 7214SOL     OW33274   0.210   2.148   7.218 -0.1790  0.0543 -0.0775
 7214SOL    HW133275   0.163   2.084   7.271 -0.6630  0.2489 -0.2704
 7214SOL    HW233276   0.297   2.110   7.229 -1.3580 -2.3489  1.0731
 7215SOL     OW33277   4.272   3.167  16.374 -0.3704 -0.0697 -0.8984
 7215SOL    HW133278   4.198   3.128  16.419  1.4344 -2.0012  0.3671
 7215SOL    HW233279   4.311   3.087  16.340  0.7150 -0.7363  1.9372
 7216SOL     OW33280   2.906   3.137   3.373  0.6699  0.6369  0.1442
 7216SOL    HW133281   2.821   3.176   3.392  1.6715  2.4568  0.9579
 7216SOL    HW233282   2.901   3.118   3.280 -0.0365  0.1777  0.2803
 7217SOL     OW33283   0.658   4.191  16.330 -0.5297  0.5665  0.1569
 7217SOL    HW133284   0.753   4.187  16.321 -0.5017  4.5677 -1.2804
 7217SOL    HW233285   0.629   4.223  16.244  0.2811 -0.8015 -0.6116
 7218SOL     OW33286   3.860   2.689   2.744 -0.1792  0.0382  0.0920
 7218SOL    HW133287   3.929   2.634   2.706 -1.5230  0.5646 -3.1229
 7218SOL    HW233288   3.866   2.773   2.698  0.5472  1.0834  2.1001
 7219SOL     OW33289   1.758   4.051  17.045  0.4374  0.3977  0.0916
 7219SOL    HW133290   1.809   4.026  17.122  1.8384  0.2714 -0.8795
 7219SOL    HW233291   1.687   3.988  17.055 -0.2850  1.3033  0.7588
 7220SOL     OW33292   4.117   4.110   5.881  0.2051 -0.2610  1.0397
 7220SOL    HW133293   4.129   4.080   5.791 -1.7820  0.8371  0.4173
 7220SOL    HW233294   4.109   4.205   5.873  2.4232  0.0138  2.1017
 7221SOL     OW33295   0.653   0.762   4.343 -0.1108  0.0975  0.7015
 7221SOL    HW133296   0.727   0.748   4.402  1.5638 -2.0583 -1.9039
 7221SOL    HW233297   0.699   0.747   4.261 -2.5204  1.5411 -0.8898
 7222SOL     OW33298   1.374   4.220   7.240  0.5765 -0.3447 -0.2892
 7222SOL    HW133299   1.446   4.157   7.235  0.9557  0.0635 -0.0125
 7222SOL    HW233300   1.297   4.166   7.225  1.3388 -0.8132 -2.5923
 7223SOL     OW33301   2.657   4.029   9.126 -0.8301 -0.0714 -0.7091
 7223SOL    HW133302   2.680   4.116   9.094 -1.3525  0.7499  1.1535
 7223SOL    HW233303   2.575   4.055   9.167 -0.2714  0.4560  0.0653
 7224SOL     OW33304   2.386   4.154   1.419 -0.1082  0.0755 -0.2443
 7224SOL    HW133305   2.410   4.138   1.327 -1.6956  0.8624 -0.7970
 7224SOL    HW233306   2.431   4.237   1.438 -2.5245  1.4741 -0.5581
 7225SOL     OW33307   0.420   2.834   1.411 -0.1518  0.3664 -0.6698
 7225SOL    HW133308   0.352   2.795   1.356 -1.8823  1.0542  0.9907
 7225SOL    HW233309   0.463   2.895   1.350  3.5758 -2.1642 -0.5318
 7226SOL     OW33310   1.598   1.389  14.987  0.2139 -0.1677  0.1515
 7226SOL    HW133311   1.599   1.317  14.925 -0.3102  0.4251 -0.5439
 7226SOL    HW233312   1.548   1.453  14.935 -0.3123 -0.0708  0.7747
 7227SOL     OW33313   4.346   4.084   4.752 -0.5479 -0.9309 -0.6900
 7227SOL    HW133314   4.417   4.145   4.775  0.1371 -1.4129 -1.5596
 7227SOL    HW233315   4.339   4.034   4.833  0.5440  1.3171  0.8246
 7228SOL     OW33316   0.685   1.805   3.654 -0.3626  0.6810  0.0610
 7228SOL    HW133317   0.668   1.716   3.685 -1.8850  1.1792  0.6228
 7228SOL    HW233318   0.596   1.838   3.642 -1.2398 -1.4857  0.5504
 7229SOL     OW33319   0.634   0.713  12.476 -0.3680  0.2889  0.2175
 7229SOL    HW133320   0.577   0.748  12.544 -0.5533  0.1001  0.1595
 7229SOL    HW233321   0.576   0.738  12.404  0.2811  0.4731 -0.2443
 7230SOL     OW33322   1.736   1.529   9.426 -0.2355 -0.5279 -0.1589
 7230SOL    HW133323   1.734   1.624   9.416 -0.0296 -0.3298  1.6920
 7230SOL    HW233324   1.821   1.520   9.470  0.5464  1.0023 -1.3816
 7231SOL     OW33325   0.092   1.633   8.265 -0.0303  0.2350  0.5603
 7231SOL    HW133326   0.058   1.546   8.244  0.9336  0.4782 -2.0190
 7231SOL    HW233327   0.184   1.609   8.275  1.3968  5.1197 -0.8224
 7232SOL     OW33328   1.537   2.257  11.793  0.6134  0.2073  0.7575
 7232SOL    HW133329   1.528   2.343  11.835 -0.7029  0.4663 -0.0576
 7232SOL    HW233330   1.452   2.221  11.818  0.9195 -0.8722  0.2348
 7233SOL     OW33331   3.265   1.639  10.715  0.1409 -0.2308  0.5003
 7233SOL    HW133332   3.350   1.682  10.712  0.4235 -0.9041 -1.0693
 7233SOL    HW233333   3.292   1.562  10.765 -0.8007 -0.3719  0.7957
 7234SOL     OW33334   4.638   3.718  16.038 -0.2195  0.6265  0.2887
 7234SOL    HW133335   4.720   3.684  16.073  0.2538 -0.4086 -1.8325
 7234SOL    HW233336   4.565   3.688  16.092 -2.0292  2.7801 -0.9576
 7235SOL     OW33337   2.630   2.391  17.560 -0.0830  0.4859 -0.9055
 7235SOL    HW133338   2.699   2.445  17.599  0.4282 -1.2320  0.6022
 7235SOL    HW233339   2.593   2.333  17.627 -1.2414  1.7157 -0.4945
 7236SOL     OW33340   1.471   0.519   0.213  0.3243  0.1267  0.5075
 7236SOL    HW133341   1.471   0.593   0.153 -1.6778 -1.6803 -1.7510
 7236SOL    HW233342   1.382   0.483   0.203  0.3441  0.5989 -1.3931
 7237SOL     OW33343   2.360   1.673  12.947 -0.1614 -0.3195  0.2191
 7237SOL    HW133344   2.393   1.645  12.861  1.0553 -0.5511  0.7654
 7237SOL    HW233345   2.440   1.695  12.994  0.4285 -0.3786 -0.7469
 7238SOL     OW33346   0.519   4.227   1.773 -0.3152 -0.2478  0.0423
 7238SOL    HW133347   0.479   4.312   1.792  1.3020  0.7248 -0.8550
 7238SOL    HW233348   0.477   4.194   1.694 -0.0099  0.6735 -0.4977
 7239SOL     OW33349   0.387   0.659   8.858  0.7552  0.2472 -0.2002
 7239SOL    HW133350   0.408   0.661   8.951  1.7486 -1.8962 -0.3784
 7239SOL    HW233351   0.359   0.570   8.839 -0.4736  0.5203  0.3344
 7240SOL     OW33352   3.285   3.429   5.630  0.4783  0.2258 -0.6489
 7240SOL    HW133353   3.266   3.501   5.569 -0.1242  0.9180  0.3487
 7240SOL    HW233354   3.200   3.413   5.671  0.2693 -1.0970 -1.6317
 7241SOL     OW33355   0.799   4.313  17.429  0.4427 -0.0998  0.1916
 7241SOL    HW133356   0.866   4.332  17.363  2.0934  2.0868  2.4577
 7241SOL    HW233357   0.813   4.218  17.430 -0.7912 -0.2880 -1.3628
 7242SOL     OW33358   1.750   3.189   6.170  0.6661  0.4066 -0.3163
 7242SOL    HW133359   1.828   3.184   6.114 -1.3265 -1.0621 -2.9359
 7242SOL    HW233360   1.749   3.284   6.180 -0.0774  0.3816 -0.1537
 7243SOL     OW33361   1.816   2.373   4.478 -0.0287  0.0250  0.4568
 7243SOL    HW133362   1.847   2.316   4.548 -1.2507 -1.5513 -0.2932
 7243SOL    HW233363   1.847   2.329   4.398 -1.0601  0.3950 -0.1483
 7244SOL     OW33364   3.616   3.316  15.633 -0.2008  0.6062  0.3936
 7244SOL    HW133365   3.643   3.408  15.626  0.7140  0.1845 -1.7188
 7244SOL    HW233366   3.679   3.274  15.574 -0.0533 -1.7104  2.1774
 7245SOL     OW33367   2.886   3.625   9.150  0.2600 -0.0054  0.2767
 7245SOL    HW133368   2.864   3.537   9.181 -0.5276 -0.2323 -0.9481
 7245SOL    HW233369   2.843   3.685   9.210 -0.8903  1.4157 -2.0067
 7246SOL     OW33370   2.396   0.168   2.543  0.3477 -0.0891  0.1828
 7246SOL    HW133371   2.330   0.181   2.475 -0.6971 -0.5359  1.1073
 7246SOL    HW233372   2.335   0.170   2.617  0.2397  0.5160  0.0822
 7247SOL     OW33373   1.494   2.099   8.442  0.0577 -0.5114 -0.1606
 7247SOL    HW133374   1.493   2.081   8.348  0.2417 -2.5659  0.2328
 7247SOL    HW233375   1.538   2.023   8.481  0.3649 -0.9015 -1.2832
 7248SOL     OW33376   0.044   0.733  16.025  0.1258  0.0656  0.3381
 7248SOL    HW133377   0.047   0.756  15.932  0.8322 -1.2136  0.0385
 7248SOL    HW233378   0.014   0.642  16.016  0.4777 -0.2026  1.8447
 7249SOL     OW33379   0.240   1.193   6.468 -0.0281 -0.2040 -0.2026
 7249SOL    HW133380   0.316   1.237   6.507 -0.1747  0.2400 -0.4244
 7249SOL    HW233381   0.279   1.144   6.396  2.1102  2.1716 -0.6932
 7250SOL     OW33382   3.846   0.081   1.645  0.7015  0.5303 -0.3673
 7250SOL    HW133383   3.886   0.086   1.732  0.2271  0.3949 -0.1432
 7250SOL    HW233384   3.899   0.009   1.609  0.5850  1.5945 -2.7166
 7251SOL     OW33385   0.397   2.127   1.933 -0.4861 -0.2044 -0.1338
 7251SOL    HW133386   0.453   2.198   1.965  1.1702 -2.5149  2.1510
 7251SOL    HW233387   0.378   2.160   1.846 -0.3580 -1.2672 -0.5625
 7252SOL     OW33388   3.263   0.506   2.753  0.3969 -0.1549  0.3558
 7252SOL    HW133389   3.266   0.451   2.675 -1.4508 -1.9613  1.5526
 7252SOL    HW233390   3.185   0.472   2.797  1.9843 -2.1042  1.6321
 7253SOL     OW33391   2.816   1.086   4.197 -0.2079 -0.0511 -0.0370
 7253SOL    HW133392   2.735   1.135   4.203 -0.5699 -0.5488 -0.7819
 7253SOL    HW233393   2.882   1.142   4.238 -0.1393 -1.3141  1.5718
 7254SOL     OW33394   1.945   1.517   6.579  0.3105  0.2971 -0.2359
 7254SOL    HW133395   1.935   1.590   6.518 -0.7424  0.2578 -0.1098
 7254SOL    HW233396   1.859   1.525   6.621  0.2995 -0.8347 -0.0411
 7255SOL     OW33397   3.785   0.992   8.893 -0.2282  0.2785  0.1086
 7255SOL    HW133398   3.714   1.056   8.900  0.8292  1.7597 -2.5366
 7255SOL    HW233399   3.747   0.910   8.926 -0.6757  0.6712  0.5700
 7256SOL     OW33400   1.829   2.933  17.576  0.4816  0.6504 -0.2440
 7256SOL    HW133401   1.906   2.879  17.561  1.0276  0.6525  2.4642
 7256SOL    HW233402   1.859   3.013  17.620 -0.5949  0.8044  0.2356
 7257SOL     OW33403   4.485   3.879  17.329  0.0201 -0.1197  0.1384
 7257SOL    HW133404   4.566   3.833  17.309  2.0310  3.7943 -0.8519
 7257SOL    HW233405   4.474   3.948  17.264 -1.1599  1.0330  1.5641
 7258SOL     OW33406   3.633   1.170   6.618 -0.7354 -0.1451  0.0483
 7258SOL    HW133407   3.644   1.075   6.626  1.4041  0.0046 -0.9391
 7258SOL    HW233408   3.538   1.180   6.615 -0.8203 -0.9539 -0.1158
 7259SOL     OW33409   4.287   0.446   8.429 -0.4601 -0.0605 -0.1611
 7259SOL    HW133410   4.304   0.540   8.424 -2.8184  0.3442 -0.8010
 7259SOL    HW233411   4.374   0.414   8.453  0.3714  0.5695 -2.3308
 7260SOL     OW33412   3.808   1.538   2.915 -0.1162  0.3192 -0.3959
 7260SOL    HW133413   3.749   1.482   2.966  0.5013 -0.4952 -0.5638
 7260SOL    HW233414   3.799   1.493   2.831 -0.5650  1.5487 -1.0094
 7261SOL     OW33415   3.525   3.630   5.429 -0.4959  0.3733  0.0293
 7261SOL    HW133416   3.608   3.628   5.476 -0.2774  0.6421 -0.3564
 7261SOL    HW233417   3.557   3.589   5.349  0.7282 -0.1837  0.8045
 7262SOL     OW33418   1.332   1.862   3.306 -0.2861  0.0960 -0.0106
 7262SOL    HW133419   1.315   1.938   3.250 -3.0665  1.0895  2.1749
 7262SOL    HW233420   1.250   1.857   3.355 -0.4921 -0.0237 -0.3689
 7263SOL     OW33421   3.242   1.267  10.380  0.4230 -0.2406 -0.2248
 7263SOL    HW133422   3.227   1.261  10.474  1.1180 -1.5976 -0.2132
 7263SOL    HW233423   3.334   1.241  10.375  0.5564  0.5824 -2.2197
 7264SOL     OW33424   1.322   3.548   4.919  0.3173 -0.3986 -0.1478
 7264SOL    HW133425   1.403   3.499   4.934 -0.1719 -1.1709 -0.0779
 7264SOL    HW233426   1.273   3.473   4.888 -0.3609  1.2468 -3.0646
 7265SOL     OW33427   1.606   1.854   7.493 -0.2708 -0.3372  0.4931
 7265SOL    HW133428   1.697   1.879   7.482 -0.7786  0.3079 -2.1733
 7265SOL    HW233429   1.578   1.923   7.554  0.8348 -0.4745  1.1531
 7266SOL     OW33430   2.029   0.386   5.857 -0.1837  0.1005 -0.3131
 7266SOL    HW133431   1.940   0.374   5.890 -0.6552 -2.4137 -2.4659
 7266SOL    HW233432   2.063   0.297   5.869  0.3764  0.3789  0.1425
 7267SOL     OW33433   2.119   0.805   8.988 -0.7662 -0.3433  0.8512
 7267SOL    HW133434   2.144   0.861   8.914 -0.0274  1.6997  2.6417
 7267SOL    HW233435   2.170   0.726   8.973  0.7658  1.4203 -3.3006
 7268SOL     OW33436   3.644   3.610   8.191  0.2466  0.1437  0.4288
 7268SOL    HW133437   3.728   3.587   8.152 -0.0532  0.2324 -0.2714
 7268SOL    HW233438   3.683   3.660   8.262  3.4331  0.8438 -1.8387
 7269SOL     OW33439   3.508   0.454   5.379  0.3533 -0.1335 -0.1490
 7269SOL    HW133440   3.490   0.540   5.341 -1.3624  0.2155  1.4302
 7269SOL    HW233441   3.470   0.455   5.467  0.3291 -1.4987 -0.1513
 7270SOL     OW33442   0.067   3.962   6.371  0.2916  0.8397  0.2952
 7270SOL    HW133443   0.084   3.872   6.344  1.0030  0.9612  0.3492
 7270SOL    HW233444   4.710   3.986   6.345  0.6383  3.7675  1.8290
 7271SOL     OW33445   0.757   1.268   6.360 -0.0727 -0.0542  0.1185
 7271SOL    HW133446   0.828   1.322   6.325 -0.9640 -0.1277 -1.8125
 7271SOL    HW233447   0.699   1.266   6.284 -1.3724 -0.2892  1.1243
 7272SOL     OW33448   1.995   4.396  15.861 -0.5321  0.7808  0.8430
 7272SOL    HW133449   1.978   4.386  15.768 -4.1739  1.7437  1.4232
 7272SOL    HW233450   1.966   4.311  15.894 -0.2980  0.8766  1.3021
 7273SOL     OW33451   0.778   4.418   1.431  0.1418 -0.1697  0.0549
 7273SOL    HW133452   0.828   4.363   1.371  2.4358  0.3097  1.5035
 7273SOL    HW233453   0.837   4.438   1.504  0.3560 -0.2377 -0.1038
 7274SOL     OW33454   0.827   3.384  16.908 -0.0132  0.7764  0.7870
 7274SOL    HW133455   0.736   3.359  16.925 -0.1053  0.8003  0.3285
 7274SOL    HW233456   0.852   3.313  16.849 -0.5583  0.3785  1.0351
 7275SOL     OW33457   1.780   3.482   6.099  0.4220  0.4915 -0.5727
 7275SOL    HW133458   1.864   3.497   6.056  0.7339 -0.1720 -0.1979
 7275SOL    HW233459   1.803   3.516   6.185  0.6834 -1.7498  0.2564
 7276SOL     OW33460   1.461   1.916   5.598  0.3112 -0.1369 -0.1091
 7276SOL    HW133461   1.382   1.963   5.625 -0.9054 -2.0284 -0.4269
 7276SOL    HW233462   1.456   1.834   5.647  0.3731 -0.5779 -0.8420
 7277SOL     OW33463   1.381   1.082  15.039  0.2946 -0.7485  0.1258
 7277SOL    HW133464   1.308   1.119  15.088 -0.3083  0.1784 -1.4575
 7277SOL    HW233465   1.330   1.075  14.958  1.5141  2.8890 -1.0092
 7278SOL     OW33466   4.722   3.814   9.053 -0.0123 -0.3501 -0.1255
 7278SOL    HW133467   4.709   3.900   9.013 -0.4978 -0.3450  0.0437
 7278SOL    HW233468   4.689   3.762   8.980 -2.5952  0.1272  0.6890
 7279SOL     OW33469   4.392   4.039   8.252  0.1782  0.0649  0.4467
 7279SOL    HW133470   4.478   4.028   8.211  0.2438 -2.1148  1.1505
 7279SOL    HW233471   4.333   4.013   8.182  1.2661 -0.0347 -0.4255
 7280SOL     OW33472   2.992   4.078   6.085  0.4210 -0.1763 -0.0298
 7280SOL    HW133473   2.912   4.062   6.035 -0.7072 -0.8607  2.0113
 7280SOL    HW233474   2.987   4.014   6.156 -2.1128  2.0249  1.7235
 7281SOL     OW33475   2.741   0.566   4.312 -0.0596 -0.5785  0.5148
 7281SOL    HW133476   2.803   0.494   4.320 -0.6544 -0.8990  2.2574
 7281SOL    HW233477   2.717   0.561   4.219 -0.7755  1.8556  0.5575
 7282SOL     OW33478   4.010   0.102   3.523 -0.4032  0.5394 -0.4609
 7282SOL    HW133479   4.025   0.098   3.429 -1.8656 -2.1483 -0.5756
 7282SOL    HW233480   3.921   0.136   3.521 -0.3071  0.9130  1.1462
 7283SOL     OW33481   3.645   4.714   2.421 -0.3256 -0.0600  0.2091
 7283SOL    HW133482   3.573   4.727   2.359 -0.2201  1.4298  0.4016
 7283SOL    HW233483   3.701   4.656   2.369  0.2557 -0.4319  1.2427
 7284SOL     OW33484   0.048   3.878   7.673  0.3916  0.3798  0.1377
 7284SOL    HW133485   0.032   3.941   7.743  0.9572 -1.1584  1.6370
 7284SOL    HW233486   0.096   3.927   7.606  0.4277 -0.0492 -0.1520
 7285SOL     OW33487   0.047   1.805  15.368  0.1462 -0.1731 -0.2263
 7285SOL    HW133488   0.085   1.815  15.456  0.2210 -2.0513 -0.0621
 7285SOL    HW233489   0.132   1.811  15.324 -0.1182 -1.0637 -0.8389
 7286SOL     OW33490   4.117   0.379  16.683  1.4303  0.1735  0.0661
 7286SOL    HW133491   4.137   0.286  16.669  1.5556  0.4771 -1.7340
 7286SOL    HW233492   4.052   0.402  16.616  0.6446  0.9018  1.0931
 7287SOL     OW33493   2.138   1.009   4.182 -0.1026  0.3432 -0.5894
 7287SOL    HW133494   2.213   0.985   4.237  0.7792 -0.0949 -1.9996
 7287SOL    HW233495   2.063   1.018   4.241 -0.2476  0.6948 -0.8303
 7288SOL     OW33496   1.678   3.707   7.470 -0.0122 -0.1019  0.0529
 7288SOL    HW133497   1.635   3.699   7.555  0.0017  4.6041  0.4721
 7288SOL    HW233498   1.660   3.618   7.438 -1.0698 -0.6837  2.2645
 7289SOL     OW33499   1.227   0.059   3.158 -0.1643 -0.6414 -0.4592
 7289SOL    HW133500   1.301   0.011   3.121  0.0840 -0.7516  0.1765
 7289SOL    HW233501   1.204   4.726   3.225  1.5609 -0.3279  0.4295
 7290SOL     OW33502   1.596   3.771  12.259 -0.3411  0.2665  0.2801
 7290SOL    HW133503   1.529   3.749  12.194 -0.1696 -1.0837  0.5472
 7290SOL    HW233504   1.665   3.813  12.208  0.9027 -0.8163  1.0814
 7291SOL     OW33505   4.401   3.246   4.058 -0.3583 -0.4497  0.5517
 7291SOL    HW133506   4.477   3.222   4.111  0.7671 -0.9047 -1.2777
 7291SOL    HW233507   4.363   3.161   4.034 -5.1538  0.9566  3.0652
 7292SOL     OW33508   4.477   4.275   6.046  0.1550 -0.3400  0.4416
 7292SOL    HW133509   4.515   4.247   5.963 -0.9789 -1.3534  0.2620
 7292SOL    HW233510   4.421   4.197   6.051  0.5999 -0.7503 -0.9547
 7293SOL     OW33511   2.801   2.290   4.668 -0.2585  0.3091  0.6965
 7293SOL    HW133512   2.747   2.264   4.744 -0.9969 -0.7963 -0.2023
 7293SOL    HW233513   2.818   2.199   4.642  1.0166  1.3949 -2.2357
 7294SOL     OW33514   2.895   4.115   2.617  0.1682 -0.3512  0.2668
 7294SOL    HW133515   2.848   4.032   2.628  1.6661 -1.3432 -0.8214
 7294SOL    HW233516   2.917   4.136   2.708 -2.4250  1.5184  0.4633
 7295SOL     OW33517   3.924   1.738   4.047  0.4967  0.4336  0.3736
 7295SOL    HW133518   4.004   1.703   4.087  1.4026 -0.5222 -2.2504
 7295SOL    HW233519   3.877   1.655   4.040 -0.1006  0.8369 -0.3475
 7296SOL     OW33520   4.428   1.248   5.918  0.9402 -0.0637 -0.2574
 7296SOL    HW133521   4.366   1.299   5.971 -0.3113 -1.3856 -0.4351
 7296SOL    HW233522   4.476   1.215   5.994  0.7059 -0.4587 -0.2790
 7297SOL     OW33523   0.060   0.602   5.512  0.0682 -0.3021 -0.8825
 7297SOL    HW133524   0.068   0.537   5.582  0.5173  1.0602  0.3392
 7297SOL    HW233525   0.152   0.624   5.494  0.1548  1.2197  1.4297
 7298SOL     OW33526   3.857   3.259   3.071  0.2668  0.0895  0.2766
 7298SOL    HW133527   3.783   3.224   3.120 -0.9202 -0.7930 -2.1507
 7298SOL    HW233528   3.923   3.259   3.141  1.2797  2.1619 -0.6817
 7299SOL     OW33529   3.682   3.104  14.333 -0.2004  0.2935  0.2575
 7299SOL    HW133530   3.773   3.073  14.340 -0.3800 -0.8804 -2.5480
 7299SOL    HW233531   3.671   3.140  14.420 -3.2515 -1.9163  0.7919
 7300SOL     OW33532   2.776   0.326   7.949  0.2633  0.1262  0.3584
 7300SOL    HW133533   2.811   0.409   7.981 -1.3967  0.2757  1.7621
 7300SOL    HW233534   2.759   0.272   8.027  0.6100  2.1269  1.8143
 7301SOL     OW33535   3.438   2.691   9.981  0.1654  0.0664 -0.3541
 7301SOL    HW133536   3.436   2.651   9.894 -2.3618 -0.1420 -0.2089
 7301SOL    HW233537   3.498   2.765   9.970  0.9501 -0.4679  0.4716
 7302SOL     OW33538   0.245   3.878   8.893  0.1727 -0.4585  0.5183
 7302SOL    HW133539   0.198   3.854   8.813  0.9799  0.3129 -0.1773
 7302SOL    HW233540   0.163   3.899   8.938  0.4791  1.2556  0.2836
 7303SOL     OW33541   2.123   2.568  15.364 -0.0833  0.0649 -0.4354
 7303SOL    HW133542   2.116   2.608  15.451  2.5204 -0.3805 -0.0171
 7303SOL    HW233543   2.174   2.631  15.312 -1.4397  0.8309 -0.8312
 7304SOL     OW33544   0.751   2.023   7.368 -0.1678  0.0409 -0.0878
 7304SOL    HW133545   0.771   1.978   7.286  0.3547 -0.8430  0.5221
 7304SOL    HW233546   0.716   1.945   7.413  0.6201 -0.0477  0.3611
 7305SOL     OW33547   0.700   0.708   0.262 -0.6842  0.1283 -0.4773
 7305SOL    HW133548   0.616   0.738   0.228 -1.2249  0.6531  1.3239
 7305SOL    HW233549   0.703   0.618   0.228 -1.0838 -0.3444  0.7331
 7306SOL     OW33550   3.107   2.263  14.876 -0.0570  0.2536  0.2763
 7306SOL    HW133551   3.057   2.191  14.837 -1.5841  0.7642  1.3080
 7306SOL    HW233552   3.091   2.333  14.813 -1.9832  2.0468  2.7481
 7307SOL     OW33553   0.544   4.208  12.521 -0.0003  0.3402  0.8148
 7307SOL    HW133554   0.532   4.299  12.494  0.2722  0.7060  1.9671
 7307SOL    HW233555   0.629   4.206  12.564  0.1635  1.1511  0.5266
 7308SOL     OW33556   0.423   2.561   5.024  0.0518  0.3619 -0.3383
 7308SOL    HW133557   0.328   2.572   5.018  0.1333  1.1992 -0.1090
 7308SOL    HW233558   0.450   2.573   4.933 -0.9378  1.7465 -0.4478
 7309SOL     OW33559   4.076   1.678   2.052 -0.0935  0.1500  0.1218
 7309SOL    HW133560   4.031   1.745   1.999  1.6213  1.1912 -0.0073
 7309SOL    HW233561   4.167   1.709   2.050 -0.2347  0.4532 -1.4052
 7310SOL     OW33562   1.118   3.293  15.287  0.1507  0.2154  0.1770
 7310SOL    HW133563   1.146   3.266  15.199 -0.7458 -0.7067  0.1705
 7310SOL    HW233564   1.094   3.203  15.312  0.8558 -0.3207 -1.0696
 7311SOL     OW33565   1.760   1.624   9.747  0.2875 -0.1544  0.1601
 7311SOL    HW133566   1.726   1.654   9.831  1.4770 -0.7001  0.8360
 7311SOL    HW233567   1.785   1.705   9.703  1.3271 -0.1739  0.7204
 7312SOL     OW33568   4.716   3.713  11.586  0.2595  0.0962  0.3381
 7312SOL    HW133569   4.647   3.659  11.546 -0.6352  1.7771 -0.4002
 7312SOL    HW233570   0.035   3.641  11.624 -0.4745 -0.9468 -0.6313
 7313SOL     OW33571   4.061   3.468   6.150 -0.1572 -0.2396  0.4386
 7313SOL    HW133572   4.122   3.527   6.107 -1.9180  1.3737  0.1509
 7313SOL    HW233573   4.059   3.496   6.241 -3.4356 -0.9168  0.5855
 7314SOL     OW33574   2.916   4.548  12.937 -0.2693 -0.5973 -0.8986
 7314SOL    HW133575   2.913   4.600  12.856 -1.5139  0.7628  0.0225
 7314SOL    HW233576   2.879   4.465  12.906 -2.0069  0.3354 -1.3579
 7315SOL     OW33577   4.611   3.020   5.318 -0.3308  0.1509  0.4727
 7315SOL    HW133578   4.689   3.075   5.331  1.1175 -1.6363 -0.6300
 7315SOL    HW233579   4.647   2.953   5.259  0.8710  0.2737  1.0650
 7316SOL     OW33580   1.642   3.628   4.285  0.7723 -0.7182  0.4872
 7316SOL    HW133581   1.635   3.542   4.244  0.0865 -0.3614 -0.1359
 7316SOL    HW233582   1.584   3.647   4.359 -1.2148  0.5003 -1.3813
 7317SOL     OW33583   4.675   1.044   5.173  0.1898  0.5273 -0.4212
 7317SOL    HW133584   4.679   1.051   5.078 -3.0150  0.3987 -0.5755
 7317SOL    HW233585   4.608   1.110   5.192 -0.8266 -1.0646  1.5639
 7318SOL     OW33586   3.543   1.547   7.620  0.0982  0.5763  0.9318
 7318SOL    HW133587   3.612   1.492   7.583 -0.9100  0.9620 -1.5590
 7318SOL    HW233588   3.558   1.616   7.555 -1.8371  0.3216  0.2134
 7319SOL     OW33589   0.926   3.985  14.830  0.5421  0.0078 -0.1436
 7319SOL    HW133590   0.971   3.968  14.747  1.4403 -2.3374  0.8221
 7319SOL    HW233591   0.872   4.062  14.813 -0.3132 -0.3986  0.7586
 7320SOL     OW33592   0.834   3.270  13.768 -0.0166  0.2314 -0.5751
 7320SOL    HW133593   0.864   3.334  13.833 -0.0692 -0.9836  0.6330
 7320SOL    HW233594   0.913   3.234  13.727  1.5331  2.7592  0.2170
 7321SOL     OW33595   2.514   2.798   3.307 -0.0506  0.1348  0.3398
 7321SOL    HW133596   2.571   2.726   3.279  1.0315  1.0006  0.2828
 7321SOL    HW233597   2.512   2.859   3.233  0.4762 -0.2086  0.0436
 7322SOL     OW33598   3.012   4.243   5.422  0.1867  0.0648 -0.0782
 7322SOL    HW133599   3.047   4.267   5.507 -1.1109  1.9090 -0.0590
 7322SOL    HW233600   2.990   4.324   5.376  0.1161 -0.0847 -0.3099
 7323SOL     OW33601   1.550   3.148   7.102  0.7054 -0.3973  0.5613
 7323SOL    HW133602   1.570   3.090   7.028  0.0842 -1.6884  1.3915
 7323SOL    HW233603   1.467   3.109   7.134  0.0438  1.8134  1.5213
 7324SOL     OW33604   2.616   1.419  11.395  0.5596  0.2405 -0.1022
 7324SOL    HW133605   2.700   1.463  11.381  0.5026  0.1156 -0.8384
 7324SOL    HW233606   2.563   1.492  11.425 -0.7099 -1.2125  1.1861
 7325SOL     OW33607   1.197   0.496   0.531  0.1970 -0.3866  0.2318
 7325SOL    HW133608   1.178   0.435   0.602 -0.0086 -0.2483  0.2958
 7325SOL    HW233609   1.190   0.442   0.453  3.2359 -2.0761  1.1102
 7326SOL     OW33610   0.288   1.586  14.057 -0.0834  0.5850 -0.4270
 7326SOL    HW133611   0.310   1.674  14.026 -0.4335  0.4351 -1.1040
 7326SOL    HW233612   0.193   1.595  14.059 -0.0778  0.4694  0.5614
 7327SOL     OW33613   1.663   0.406   3.384  0.4286 -0.4140  0.2609
 7327SOL    HW133614   1.717   0.336   3.421 -2.4437 -1.9630  1.4541
 7327SOL    HW233615   1.659   0.381   3.291  0.3888  1.1852 -0.1647
 7328SOL     OW33616   1.151   3.214  14.989 -0.0528  0.2103 -0.3111
 7328SOL    HW133617   1.244   3.206  14.971 -0.3720 -0.2133 -1.7793
 7328SOL    HW233618   1.145   3.308  14.972 -0.8569  0.0679 -0.7949
 7329SOL     OW33619   0.729   0.291   7.767  0.5160  0.1781  0.1727
 7329SOL    HW133620   0.784   0.366   7.789 -0.4061  0.5043  1.3955
 7329SOL    HW233621   0.768   0.231   7.830  0.3282 -0.3584 -0.2211
 7330SOL     OW33622   3.998   1.743   6.585  0.2366  0.1872 -0.0646
 7330SOL    HW133623   4.008   1.829   6.544  1.5160  0.1609  0.2036
 7330SOL    HW233624   4.082   1.742   6.631  0.4664  0.7624 -0.4678
 7331SOL     OW33625   4.248   3.354   7.259 -0.4763  0.6805 -0.3423
 7331SOL    HW133626   4.291   3.274   7.291 -0.7235  0.9997  0.7712
 7331SOL    HW233627   4.270   3.344   7.166 -1.2516 -1.2538 -0.3241
 7332SOL     OW33628   4.287   1.956   8.424 -0.0612  0.3364 -0.2483
 7332SOL    HW133629   4.272   2.035   8.371 -0.9420  0.6352  0.4537
 7332SOL    HW233630   4.349   1.910   8.368 -0.1330 -1.1676  0.9125
 7333SOL     OW33631   2.279   3.223  16.959 -0.1943 -0.5401  0.3245
 7333SOL    HW133632   2.274   3.245  16.866  1.0567  0.2675  0.4375
 7333SOL    HW233633   2.187   3.234  16.982 -0.7469 -2.3311 -1.0075
 7334SOL     OW33634   0.962   3.413   4.732 -0.0955 -0.0252 -0.4099
 7334SOL    HW133635   1.034   3.362   4.769 -0.2818  1.2109  1.6329
 7334SOL    HW233636   0.905   3.442   4.804 -0.6250 -1.2033 -0.3443
 7335SOL     OW33637   2.223   2.916   9.242  0.3697  0.6913  0.2292
 7335SOL    HW133638   2.208   2.948   9.153 -1.4238  3.4970  1.5312
 7335SOL    HW233639   2.183   2.982   9.300 -0.7313  0.3186 -0.1133
 7336SOL     OW33640   1.375   1.816   4.617  0.4156 -0.4160  0.0251
 7336SOL    HW133641   1.430   1.861   4.552  0.0756  0.0410  0.0495
 7336SOL    HW233642   1.424   1.844   4.694  0.1914  0.0109  0.0147
 7337SOL     OW33643   2.378   4.522  13.971  0.5840 -0.7211  0.1816
 7337SOL    HW133644   2.285   4.540  13.982  0.8763  0.4144  0.7869
 7337SOL    HW233645   2.406   4.574  14.046 -0.3700  0.5703 -0.3754
 7338SOL     OW33646   3.924   0.831   5.455 -0.9751  0.3247  0.0205
 7338SOL    HW133647   3.906   0.887   5.380  1.0888 -0.6895 -1.2667
 7338SOL    HW233648   3.856   0.862   5.514 -2.1916  1.0347 -1.7742
 7339SOL     OW33649   4.237   0.995   5.297 -0.1200  0.0783  0.1604
 7339SOL    HW133650   4.274   0.955   5.218 -0.7285 -0.1870  0.0084
 7339SOL    HW233651   4.214   0.924   5.357  2.0729 -1.8821 -1.2900
 7340SOL     OW33652   1.994   3.093   7.739 -0.4919  0.2640  0.1385
 7340SOL    HW133653   2.021   3.183   7.722 -1.1040  0.1884 -1.2352
 7340SOL    HW233654   2.052   3.041   7.683 -2.5446 -0.1754 -1.5741
 7341SOL     OW33655   4.512   2.086  11.083  0.0569 -0.6708 -0.0063
 7341SOL    HW133656   4.448   2.157  11.088  0.2200 -0.4836 -0.5681
 7341SOL    HW233657   4.580   2.115  11.144  0.0453  1.0411 -0.8198
 7342SOL     OW33658   3.081   2.980   0.811 -0.4745  0.5981 -0.1551
 7342SOL    HW133659   3.172   2.987   0.837 -0.3996  0.2766 -0.3348
 7342SOL    HW233660   3.041   3.048   0.866  2.2961  3.4531 -1.6326
 7343SOL     OW33661   2.175   4.365   2.583  0.0317  0.0608  0.6519
 7343SOL    HW133662   2.226   4.446   2.586  0.7397 -0.4299  2.3578
 7343SOL    HW233663   2.118   4.382   2.658 -3.7668 -0.3375 -2.1575
 7344SOL     OW33664   3.415   1.396   0.869 -0.2457  0.6053  0.2895
 7344SOL    HW133665   3.445   1.305   0.863 -0.8032  0.4169  0.2863
 7344SOL    HW233666   3.493   1.433   0.909  0.0219 -0.2756  0.5894
 7345SOL     OW33667   3.021   2.348  16.231  0.0529 -0.1116 -0.7449
 7345SOL    HW133668   3.077   2.302  16.168 -0.6077 -1.2331 -0.5100
 7345SOL    HW233669   3.005   2.427  16.180  1.2261  1.2524  1.0056
 7346SOL     OW33670   1.926   2.624   2.952  0.1940  0.2024 -0.3546
 7346SOL    HW133671   1.867   2.581   2.890  1.2121 -0.6992 -0.6924
 7346SOL    HW233672   1.870   2.614   3.029  1.5076 -1.0679  0.4400
 7347SOL     OW33673   3.376   1.904   6.009  0.7874  0.1841 -0.0625
 7347SOL    HW133674   3.369   1.993   6.044 -0.2224  0.4070 -0.8689
 7347SOL    HW233675   3.403   1.854   6.087 -0.8996  0.6244  0.7878
 7348SOL     OW33676   2.006   2.248   2.166 -0.3047  0.3353  1.0372
 7348SOL    HW133677   1.928   2.199   2.139 -0.5317  2.3713 -1.9915
 7348SOL    HW233678   2.063   2.178   2.196  0.1275  1.3823  2.6146
 7349SOL     OW33679   1.687   1.734   7.786  0.3728  0.2977  0.4542
 7349SOL    HW133680   1.776   1.717   7.755  0.1734 -0.3611  0.2480
 7349SOL    HW233681   1.634   1.679   7.729  0.1189  2.1775 -1.1139
 7350SOL     OW33682   1.144   0.912   2.414  0.0401  0.1479  0.6750
 7350SOL    HW133683   1.172   0.824   2.436 -0.7601 -0.5113 -0.8931
 7350SOL    HW233684   1.049   0.907   2.404  0.1479 -1.2838  0.3562
 7351SOL     OW33685   2.844   1.723   9.284 -0.1250 -0.0636 -0.1379
 7351SOL    HW133686   2.837   1.813   9.316  0.5190 -0.5160  1.2546
 7351SOL    HW233687   2.810   1.744   9.197 -0.1833 -0.2301 -0.1560
 7352SOL     OW33688   4.615   0.514   5.291  0.5629 -0.5712  0.1906
 7352SOL    HW133689   4.696   0.498   5.339  1.9376  2.4702 -1.0976
 7352SOL    HW233690   4.610   0.610   5.287 -0.6663 -0.6875 -1.1653
 7353SOL     OW33691   3.517   4.412   4.414 -0.2488  0.5962 -0.0408
 7353SOL    HW133692   3.515   4.475   4.486 -1.1486 -0.5794  0.9699
 7353SOL    HW233693   3.455   4.343   4.439  1.6597 -2.0339 -2.6411
 7354SOL     OW33694   1.522   0.841   4.744  0.1074 -0.0091  0.2707
 7354SOL    HW133695   1.502   0.909   4.680  0.8051 -0.2992 -0.2521
 7354SOL    HW233696   1.462   0.848   4.818  1.4990 -0.6502  1.4556
 7355SOL     OW33697   2.481   3.342   7.743 -0.0580 -0.0848 -0.7635
 7355SOL    HW133698   2.407   3.384   7.787  0.6161  2.2846 -1.9157
 7355SOL    HW233699   2.544   3.346   7.816  1.0445  1.7504 -1.8297
 7356SOL     OW33700   4.498   4.723   7.517  0.0362  0.7179 -0.2177
 7356SOL    HW133701   4.404   4.709   7.527 -0.1740  1.2573 -1.3754
 7356SOL    HW233702   4.517   0.022   7.605 -0.7632 -0.2962  0.3125
 7357SOL     OW33703   3.663   4.064   5.677  0.0307 -0.0056  0.0246
 7357SOL    HW133704   3.603   3.998   5.711 -0.3629  0.7740  0.8520
 7357SOL    HW233705   3.697   4.100   5.759  1.0443  1.3893 -0.9902
 7358SOL     OW33706   2.707   3.842   6.352 -0.3477  0.2649  0.4834
 7358SOL    HW133707   2.653   3.879   6.282 -0.4589 -0.4003  0.2252
 7358SOL    HW233708   2.691   3.749   6.339  1.6568 -0.0205  0.0234
 7359SOL     OW33709   3.566   2.355   9.825 -0.1999 -0.4664 -0.3202
 7359SOL    HW133710   3.627   2.290   9.791 -0.9554 -0.7699 -1.0946
 7359SOL    HW233711   3.626   2.430   9.820 -1.7927  0.7993 -0.5949
 7360SOL     OW33712   4.175   2.417   7.211 -0.0196 -0.1862 -0.3690
 7360SOL    HW133713   4.099   2.440   7.157  1.5383  3.8286 -0.8881
 7360SOL    HW233714   4.126   2.373   7.279  0.8267  1.7390  1.4962
 7361SOL     OW33715   1.647   1.574  14.445  0.6266  0.1818  0.6920
 7361SOL    HW133716   1.662   1.482  14.465  3.3008  0.8205  1.6088
 7361SOL    HW233717   1.684   1.583  14.357  0.9209 -0.8417  0.7023
 7362SOL     OW33718   1.233   3.612  14.248 -0.6929 -0.5516  0.1378
 7362SOL    HW133719   1.297   3.564  14.300  0.0505  0.8024  0.4776
 7362SOL    HW233720   1.288   3.670  14.195 -2.3115 -2.7127 -3.8994
 7363SOL     OW33721   4.460   1.414  12.062  0.5828 -0.2610 -0.5324
 7363SOL    HW133722   4.365   1.402  12.062  0.5465  0.0231 -0.5550
 7363SOL    HW233723   4.498   1.327  12.053 -2.1344 -1.5247  0.1534
 7364SOL     OW33724   1.799   3.130   1.227 -0.2863 -0.0201 -0.1497
 7364SOL    HW133725   1.801   3.093   1.316 -0.8929  1.1699  0.3607
 7364SOL    HW233726   1.888   3.165   1.229 -0.4921  0.5946 -1.9765
 7365SOL     OW33727   0.663   0.147   5.568 -0.5957  0.2456 -0.8000
 7365SOL    HW133728   0.668   0.054   5.590  1.0319  0.4404 -0.2981
 7365SOL    HW233729   0.700   0.145   5.480  1.2201 -0.5288 -0.0264
 7366SOL     OW33730   4.438   1.669  10.148  0.0143  0.3997 -0.0093
 7366SOL    HW133731   4.398   1.752  10.124  0.5738  0.6769  0.0358
 7366SOL    HW233732   4.414   1.661  10.240  1.2404  1.3638  0.3781
 7367SOL     OW33733   3.053   0.265   2.322 -0.1945 -0.0574 -0.2556
 7367SOL    HW133734   3.007   0.227   2.398  3.1943  0.8338  2.1953
 7367SOL    HW233735   3.012   0.206   2.258  1.9544 -2.4453  0.5805
 7368SOL     OW33736   4.507   2.157   6.551 -0.4257  0.1239 -0.0109
 7368SOL    HW133737   4.457   2.209   6.615 -0.5476 -0.1095  0.0829
 7368SOL    HW233738   4.593   2.187   6.581 -0.6235  0.8478 -0.1796
 7369SOL     OW33739   0.507   1.717   2.111  0.2385  0.6544  0.0044
 7369SOL    HW133740   0.455   1.735   2.190 -0.0668  1.1265 -0.3087
 7369SOL    HW233741   0.460   1.758   2.039  1.8713 -0.6001 -1.7712
 7370SOL     OW33742   3.328   4.045   8.309 -0.1386 -0.1716  0.3983
 7370SOL    HW133743   3.308   3.980   8.242 -0.4146  1.1033 -0.7647
 7370SOL    HW233744   3.284   4.123   8.276 -0.7447 -1.3313 -1.5409
 7371SOL     OW33745   0.026   1.947   3.697  0.4052 -0.6722  1.1053
 7371SOL    HW133746   0.120   1.930   3.704  0.5390 -0.2925  0.3285
 7371SOL    HW233747   0.015   2.020   3.758  0.2460  0.5854 -0.4056
 7372SOL     OW33748   1.782   4.135   6.761 -0.9045 -0.1667 -0.5423
 7372SOL    HW133749   1.705   4.191   6.774  0.1746  1.2970 -0.4580
 7372SOL    HW233750   1.862   4.188   6.762 -1.4041  0.5828  0.1381
 7373SOL     OW33751   2.223   4.542   4.992  0.7379  0.1670 -0.3102
 7373SOL    HW133752   2.156   4.488   4.951  1.6026 -1.0298 -0.1480
 7373SOL    HW233753   2.173   4.564   5.071  0.8381 -0.8079  0.0275
 7374SOL     OW33754   4.230   2.786   8.991 -0.7416  0.0702  0.6631
 7374SOL    HW133755   4.166   2.721   8.961 -1.2839  0.5229  0.8453
 7374SOL    HW233756   4.308   2.731   8.982 -0.7329  0.0810  0.6720
 7375SOL     OW33757   1.273   3.563   4.134 -0.6162  0.3933  0.5906
 7375SOL    HW133758   1.355   3.548   4.087 -2.1332 -1.3352 -1.4956
 7375SOL    HW233759   1.217   3.508   4.079  0.6313  1.6442 -1.9451
 7376SOL     OW33760   1.441   2.215   3.319  0.6014 -0.1619 -0.1987
 7376SOL    HW133761   1.362   2.228   3.371 -0.0670  1.6301 -1.6315
 7376SOL    HW233762   1.408   2.187   3.233  0.8375 -0.7462 -0.0987
 7377SOL     OW33763   4.504   4.242   9.296  0.0622 -0.2219 -0.4378
 7377SOL    HW133764   4.582   4.273   9.342 -0.6273  2.6016 -1.1682
 7377SOL    HW233765   4.454   4.203   9.367  1.2527 -0.2394  0.3850
 7378SOL     OW33766   2.624   3.536  13.855  0.0725 -0.4323 -0.5245
 7378SOL    HW133767   2.598   3.616  13.900 -1.6942 -1.2932 -0.0150
 7378SOL    HW233768   2.719   3.536  13.865  0.0879 -0.3674 -0.6754
 7379SOL     OW33769   1.482   0.902   5.358 -0.0348  0.0521  0.4410
 7379SOL    HW133770   1.516   0.979   5.404  0.7102  0.2482 -0.4531
 7379SOL    HW233771   1.463   0.937   5.271  0.8193 -0.0268  0.2233
 7380SOL     OW33772   1.043   0.052   8.606 -0.1287  0.3081  0.4094
 7380SOL    HW133773   0.977   4.717   8.595  2.8549 -3.0581  3.2469
 7380SOL    HW233774   1.107   0.020   8.542 -0.7002  0.5812 -0.3036
 7381SOL     OW33775   3.365   3.356   9.625  0.3447 -0.1042 -0.1854
 7381SOL    HW133776   3.330   3.288   9.567 -2.5089  1.4416 -0.2629
 7381SOL    HW233777   3.458   3.335   9.627  0.0749 -1.1435  0.9877
 7382SOL     OW33778   1.487   1.816  10.353  0.0927 -0.9348  0.0835
 7382SOL    HW133779   1.486   1.897  10.404 -0.6357 -1.4805  0.9344
 7382SOL    HW233780   1.406   1.830  10.305 -1.3628  0.4865  2.9650
 7383SOL     OW33781   2.937   1.565  17.198 -0.6622 -0.0154  0.0015
 7383SOL    HW133782   3.019   1.593  17.157 -0.1763 -0.7735  0.4512
 7383SOL    HW233783   2.899   1.517  17.125 -1.9630 -0.4020  0.9310
 7384SOL     OW33784   3.977   1.803  17.694  0.3346 -0.4425 -0.5563
 7384SOL    HW133785   3.884   1.808  17.676  0.7212  2.3839 -1.8027
 7384SOL    HW233786   4.011   1.728  17.645 -2.4745 -1.4557 -0.9402
 7385SOL     OW33787   3.781   1.529  15.190  0.1032 -0.7942  0.6525
 7385SOL    HW133788   3.717   1.520  15.119  0.8048  1.0427 -0.2158
 7385SOL    HW233789   3.747   1.608  15.231 -0.9148 -0.7446 -0.2655
 7386SOL     OW33790   3.876   0.097   6.758 -0.9661  0.7134  0.0276
 7386SOL    HW133791   3.884   0.034   6.830 -2.5776  1.9274  1.2568
 7386SOL    HW233792   3.936   0.164   6.792  0.3937  0.5637 -2.0613
 7387SOL     OW33793   2.789   3.642   5.991 -0.2267 -0.4164  0.1200
 7387SOL    HW133794   2.735   3.564   5.973 -0.3381 -0.1409 -0.7344
 7387SOL    HW233795   2.845   3.647   5.914 -0.2856  0.8464  0.1533
 7388SOL     OW33796   1.488   2.303   6.100 -0.0098 -0.2870 -0.1599
 7388SOL    HW133797   1.454   2.325   6.013 -1.7437 -1.9532  0.1086
 7388SOL    HW233798   1.556   2.239   6.077 -0.6395 -0.8301 -0.5145
 7389SOL     OW33799   2.385   1.991   5.056 -0.1455  0.2896  0.1667
 7389SOL    HW133800   2.377   2.085   5.075  0.9969  1.0010 -2.7879
 7389SOL    HW233801   2.309   1.997   4.998  0.5765  0.6360 -0.7525
 7390SOL     OW33802   4.138   4.266   9.387 -0.5977  0.5767 -0.2949
 7390SOL    HW133803   4.162   4.358   9.375  0.4395  0.6145  2.0632
 7390SOL    HW233804   4.219   4.221   9.413 -0.8579  0.0778 -0.3540
 7391SOL     OW33805   4.349   0.768  12.842 -1.2506 -0.1630 -0.7964
 7391SOL    HW133806   4.366   0.691  12.896  0.1517 -0.8158 -2.1596
 7391SOL    HW233807   4.306   0.823  12.907  0.5918 -0.3522  0.5942
 7392SOL     OW33808   1.215   3.114   6.353  0.1379 -0.3427 -0.2723
 7392SOL    HW133809   1.176   3.183   6.406  2.3504 -0.7769  1.9099
 7392SOL    HW233810   1.305   3.143   6.339 -0.0357  0.0349 -0.6220
 7393SOL     OW33811   2.793   2.134   1.225  0.0492 -0.4230  0.1383
 7393SOL    HW133812   2.718   2.149   1.167  0.1379 -2.9033 -0.6288
 7393SOL    HW233813   2.868   2.165   1.174  0.8456 -1.4689  0.6888
 7394SOL     OW33814   2.984   1.523   4.602 -0.0051  0.3178  0.1323
 7394SOL    HW133815   3.021   1.514   4.514  1.8770  0.9281  0.8630
 7394SOL    HW233816   2.908   1.465   4.593  0.1795 -0.2358  2.1919
 7395SOL     OW33817   2.121   3.822   1.451 -0.2314 -0.0319  0.4333
 7395SOL    HW133818   2.076   3.816   1.367 -0.4743 -0.9823  0.6352
 7395SOL    HW233819   2.041   3.836   1.502  0.3576  1.4612  0.9458
 7396SOL     OW33820   4.023   0.136   5.030 -0.1991 -0.2504  0.2553
 7396SOL    HW133821   4.082   0.070   4.995  0.0452 -0.9614  2.0417
 7396SOL    HW233822   3.940   0.090   5.046  0.0868 -1.1176 -0.7983
 7397SOL     OW33823   1.926   0.918   0.527 -0.2467 -0.0538 -0.4476
 7397SOL    HW133824   1.846   0.911   0.581  0.6727  2.4997  1.2155
 7397SOL    HW233825   1.915   0.848   0.463 -1.8716 -0.9654  0.8166
 7398SOL     OW33826   1.477   0.716   1.123 -0.1687  0.1197  0.2529
 7398SOL    HW133827   1.533   0.790   1.100 -0.8167  0.6138  0.2895
 7398SOL    HW233828   1.478   0.714   1.219  0.2943  1.0467  0.2679
 7399SOL     OW33829   0.812   0.006   3.933  0.1576 -0.3533 -0.5875
 7399SOL    HW133830   0.803   0.012   4.028 -0.1623 -2.5605 -0.4765
 7399SOL    HW233831   0.722   4.724   3.905 -0.1585 -0.4672  0.4886
 7400SOL     OW33832   1.566   0.654   5.374  0.5156 -0.4373 -0.2570
 7400SOL    HW133833   1.558   0.637   5.468  2.1151 -0.8155 -0.1808
 7400SOL    HW233834   1.557   0.748   5.359 -0.9559 -0.3732  1.1253
 7401SOL     OW33835   3.807   0.753   9.377  0.6824  0.0466  0.0369
 7401SOL    HW133836   3.735   0.808   9.345  0.7690  0.1435  0.0074
 7401SOL    HW233837   3.873   0.822   9.386  0.7769 -0.2768  1.7486
 7402SOL     OW33838   0.920   3.982   8.474  0.4132  0.0675 -0.1457
 7402SOL    HW133839   0.966   4.029   8.404  0.1166  0.9671  0.2638
 7402SOL    HW233840   0.958   3.894   8.471 -0.6661 -0.3808 -0.7548
 7403SOL     OW33841   0.062   0.198   3.618 -0.2217  0.0146  0.0479
 7403SOL    HW133842   0.006   0.275   3.621  0.6973  0.6279  1.6219
 7403SOL    HW233843   4.728   0.142   3.657  0.1259 -0.7173 -0.4028
 7404SOL     OW33844   4.177   3.363   8.590  0.1065  0.6770  0.2018
 7404SOL    HW133845   4.238   3.428   8.554  2.3398 -1.4451  0.1248
 7404SOL    HW233846   4.127   3.326   8.517  1.0870  2.3941 -1.3589
 7405SOL     OW33847   2.775   0.832  17.132  0.1698  0.3308  0.6980
 7405SOL    HW133848   2.748   0.864  17.046 -4.8597 -2.6725  1.1240
 7405SOL    HW233849   2.793   0.741  17.111 -0.4098  0.5510 -0.7638
 7406SOL     OW33850   2.374   3.481  13.752  0.4553  0.0481  0.0439
 7406SOL    HW133851   2.455   3.496  13.802  1.2319 -0.5567 -1.0238
 7406SOL    HW233852   2.388   3.400  13.704 -0.2427 -0.7786  1.2339
 7407SOL     OW33853   1.329   4.341   6.195 -0.0395 -0.1716  0.2054
 7407SOL    HW133854   1.380   4.399   6.252 -0.0702  0.8494 -0.8060
 7407SOL    HW233855   1.264   4.407   6.171  0.6428 -0.5116 -2.5527
 7408SOL     OW33856   4.048   3.960  12.324 -0.1450  0.4647  0.2819
 7408SOL    HW133857   4.047   3.932  12.415  1.2507  1.8248  0.7123
 7408SOL    HW233858   3.963   3.940  12.286 -0.1345  0.2275  0.3823
 7409SOL     OW33859   3.037   2.606   5.823  0.1554 -0.0848  0.1629
 7409SOL    HW133860   3.098   2.677   5.806  1.4032 -1.6224 -1.7067
 7409SOL    HW233861   2.953   2.636   5.788 -0.3116 -2.1761 -0.5383
 7410SOL     OW33862   0.665   1.396  12.153 -0.0102 -0.2448 -0.3744
 7410SOL    HW133863   0.701   1.367  12.237 -0.6228  1.1671  0.3757
 7410SOL    HW233864   0.739   1.454  12.134 -0.4955 -0.2427 -2.2487
 7411SOL     OW33865   3.163   2.781   0.120  0.7092  0.0021  0.1246
 7411SOL    HW133866   3.186   2.791   0.213 -1.2180  0.5395  0.5279
 7411SOL    HW233867   3.237   2.815   0.071  0.2305  0.4729 -0.2610
 7412SOL     OW33868   4.004   2.753   9.584  0.3160 -0.4015 -0.6379
 7412SOL    HW133869   3.951   2.725   9.659  0.8309 -1.3769 -0.6334
 7412SOL    HW233870   3.985   2.846   9.576  3.0330  0.2171  0.2598
 7413SOL     OW33871   4.591   0.201  16.870  0.1568  0.1608 -0.3953
 7413SOL    HW133872   4.669   0.172  16.822  1.2483 -1.6008  2.4313
 7413SOL    HW233873   4.626   0.280  16.912 -0.1327 -0.0807  0.2937
 7414SOL     OW33874   2.928   0.422  17.333 -0.1025 -0.0145  0.3743
 7414SOL    HW133875   2.951   0.432  17.425 -1.1729  2.4928  0.3670
 7414SOL    HW233876   2.969   0.339  17.310 -1.2968 -0.6756  0.6348
 7415SOL     OW33877   3.330   3.483   3.950  0.5247  0.2352  0.4248
 7415SOL    HW133878   3.351   3.502   3.859 -2.9108 -1.0011 -0.6099
 7415SOL    HW233879   3.294   3.395   3.944  1.0824  0.0584 -0.2565
 7416SOL     OW33880   2.774   0.138   6.192  0.2529  0.2531 -0.4162
 7416SOL    HW133881   2.742   0.054   6.223 -2.1085  1.4429  0.4121
 7416SOL    HW233882   2.867   0.116   6.189  0.1309 -0.5716  2.6503
 7417SOL     OW33883   4.108   1.953   9.495  0.4820  0.2202 -0.0143
 7417SOL    HW133884   4.197   1.962   9.530  0.3688 -0.3285  0.4205
 7417SOL    HW233885   4.096   1.860   9.477 -1.5731  0.7482 -1.4233
 7418SOL     OW33886   1.089   2.103   8.425 -0.0427 -0.1575  0.1554
 7418SOL    HW133887   1.023   2.105   8.355  1.4064  2.2464 -1.1690
 7418SOL    HW233888   1.145   2.031   8.397  0.5771  0.5796 -0.4938
 7419SOL     OW33889   3.745   0.976   1.003 -0.6859  0.4966  0.0694
 7419SOL    HW133890   3.715   0.934   0.923 -0.6408 -1.2644  0.9820
 7419SOL    HW233891   3.662   1.023   1.006  0.3337  2.3715 -0.6439
 7420SOL     OW33892   0.256   2.888  15.238 -0.3746 -0.6714 -0.3020
 7420SOL    HW133893   0.218   2.974  15.219  0.6077 -0.2011 -0.1433
 7420SOL    HW233894   0.269   2.856  15.149 -0.2959 -1.6097  0.0519
 7421SOL     OW33895   3.516   1.165   6.915  0.0441  0.2471  0.6003
 7421SOL    HW133896   3.499   1.073   6.932  0.5946 -0.4914 -2.9433
 7421SOL    HW233897   3.443   1.196   6.861  1.7752  2.2282 -0.6007
 7422SOL     OW33898   4.054   0.527   4.274  0.3939  0.1127  0.3820
 7422SOL    HW133899   4.055   0.539   4.369  2.0075  1.2849  0.2269
 7422SOL    HW233900   4.058   0.618   4.244  1.9265  0.2153  0.9109
 7423SOL     OW33901   4.637   0.235  17.208  0.0792 -0.7561 -0.0342
 7423SOL    HW133902   4.678   0.294  17.145 -2.5583  3.1626  1.8924
 7423SOL    HW233903   4.544   0.240  17.186  0.3362  1.4348 -0.6259
 7424SOL     OW33904   2.324   0.457   0.759 -0.2033  0.3979  0.0097
 7424SOL    HW133905   2.329   0.461   0.664  0.2846 -1.8217 -0.0689
 7424SOL    HW233906   2.274   0.377   0.778  0.8840 -0.5966 -1.3320
 7425SOL     OW33907   0.447   0.695   7.384 -0.5759 -0.4821 -0.5540
 7425SOL    HW133908   0.408   0.781   7.402 -1.5595 -0.8272 -1.0042
 7425SOL    HW233909   0.501   0.719   7.308 -0.8671  1.0779 -0.2795
 7426SOL     OW33910   2.548   3.084   4.859  0.0749 -0.5811 -0.5624
 7426SOL    HW133911   2.533   2.994   4.889  2.6110 -0.9305 -0.3837
 7426SOL    HW233912   2.490   3.081   4.782  0.3335 -0.9629 -0.7466
 7427SOL     OW33913   3.349   4.085  12.486  0.0380  0.0213  0.3230
 7427SOL    HW133914   3.436   4.122  12.496 -0.0006 -0.3621  1.9724
 7427SOL    HW233915   3.361   4.052  12.397 -1.1764 -0.8450  0.4814
 7428SOL     OW33916   4.458   2.484   9.550  0.0846  0.0863 -0.1136
 7428SOL    HW133917   4.484   2.533   9.628 -0.3185 -0.5925  0.4482
 7428SOL    HW233918   4.393   2.425   9.589  0.5254 -1.0937 -1.1543
 7429SOL     OW33919   4.072   1.889   8.576 -0.0628 -0.8192 -0.0983
 7429SOL    HW133920   3.994   1.888   8.521  0.9051 -0.5359 -1.4824
 7429SOL    HW233921   4.139   1.914   8.512  0.5710 -0.5642  0.6682
 7430SOL     OW33922   0.683   2.726   3.393  0.4074 -0.2645 -0.1163
 7430SOL    HW133923   0.636   2.806   3.369  2.9105  0.6860 -1.7935
 7430SOL    HW233924   0.642   2.660   3.338  0.4434  0.6363 -1.2262
 7431SOL     OW33925   2.395   1.430   8.442  0.5409 -0.0792  0.2469
 7431SOL    HW133926   2.390   1.516   8.484  1.2334 -0.6129  1.4351
 7431SOL    HW233927   2.490   1.427   8.449  0.6568  1.6389 -0.7597
 7432SOL     OW33928   0.139   2.634   7.115 -0.3862 -0.2417 -0.1438
 7432SOL    HW133929   0.164   2.587   7.195 -1.4792  0.7430  0.7754
 7432SOL    HW233930   0.071   2.568   7.099  0.7832 -2.0993  2.4812
 7433SOL     OW33931   0.011   2.247   5.597  0.3869 -0.7160  0.2088
 7433SOL    HW133932   4.722   2.326   5.648 -1.6081 -1.6658  0.8337
 7433SOL    HW233933   0.097   2.222   5.631  0.6665  0.3571  0.3066
 7434SOL     OW33934   3.658   0.392  16.439 -0.4233 -0.4931 -0.1333
 7434SOL    HW133935   3.607   0.414  16.361 -0.8171 -1.3924 -0.1325
 7434SOL    HW233936   3.622   0.304  16.451  2.2745 -1.3437  1.6572
 7435SOL     OW33937   0.734   2.091   8.505  0.1462 -0.4397  0.3148
 7435SOL    HW133938   0.663   2.155   8.511 -0.4876 -1.0865 -0.3411
 7435SOL    HW233939   0.810   2.127   8.458 -1.2792  3.1030  0.6855
 7436SOL     OW33940   3.219   0.856  12.902  0.7229  0.0407 -0.2907
 7436SOL    HW133941   3.309   0.874  12.873  1.2308  0.4202  1.5125
 7436SOL    HW233942   3.221   0.762  12.922  1.2016 -0.3605 -2.2263
 7437SOL     OW33943   2.578   1.295   5.455  0.3865  0.2269  0.2805
 7437SOL    HW133944   2.641   1.271   5.388  0.9791 -0.8135  1.2155
 7437SOL    HW233945   2.610   1.378   5.489 -2.1800  2.3036 -2.4258
 7438SOL     OW33946   4.307   4.500   9.485 -0.0258  0.4154 -0.4245
 7438SOL    HW133947   4.349   4.528   9.404  0.5173 -0.4469 -0.4321
 7438SOL    HW233948   4.373   4.524   9.550  0.0505  1.7122 -0.9842
 7439SOL     OW33949   1.561   1.911   7.253  0.0745 -0.0989 -0.4108
 7439SOL    HW133950   1.558   1.835   7.195  0.9477 -0.7034  0.3360
 7439SOL    HW233951   1.565   1.866   7.337 -1.1707  0.1589 -0.2111
 7440SOL     OW33952   4.191   3.057   3.996 -0.1406 -0.0457 -0.2072
 7440SOL    HW133953   4.118   2.996   3.983  0.4158 -0.5551 -0.9006
 7440SOL    HW233954   4.146   3.138   3.968  0.2723 -0.1218 -1.0811
 7441SOL     OW33955   0.300   1.460   4.455  0.2507  0.1089 -0.0557
 7441SOL    HW133956   0.320   1.524   4.524  0.4533 -0.6426  0.5889
 7441SOL    HW233957   0.372   1.396   4.453  0.8457  0.8124 -1.1516
 7442SOL     OW33958   2.204   1.244  12.821  0.3665  0.7152 -0.3517
 7442SOL    HW133959   2.299   1.240  12.822  0.3972  1.4291 -0.5282
 7442SOL    HW233960   2.182   1.280  12.734  0.5653  0.5305 -0.4769
 7443SOL     OW33961   1.156   4.021   1.173 -0.0832  0.1404 -0.5234
 7443SOL    HW133962   1.064   4.014   1.195 -0.5490 -0.9044 -2.8164
 7443SOL    HW233963   1.195   4.056   1.253 -1.7655 -1.1512  0.8581
 7444SOL     OW33964   3.774   2.394  15.930 -0.1199 -0.1511  0.4157
 7444SOL    HW133965   3.760   2.349  16.014 -1.0298  0.9518  0.8640
 7444SOL    HW233966   3.867   2.383  15.910 -0.6406 -0.9978 -1.5298
 7445SOL     OW33967   3.047   0.319   7.058 -0.5109  0.5692  0.5091
 7445SOL    HW133968   2.976   0.257   7.039  1.3670 -1.4407  0.0358
 7445SOL    HW233969   3.070   0.296   7.148 -0.4914  0.7755  0.5555
 7446SOL     OW33970   0.273   2.275   8.546 -0.3058 -0.0093 -0.6552
 7446SOL    HW133971   0.254   2.182   8.534 -0.4426 -0.0702  0.0126
 7446SOL    HW233972   0.368   2.276   8.535 -0.1511  1.3329  0.7430
 7447SOL     OW33973   4.010   3.201   3.859 -0.3927 -0.5138  0.0946
 7447SOL    HW133974   3.964   3.237   3.935  1.9903  2.2474  0.2493
 7447SOL    HW233975   3.987   3.265   3.791 -1.6864  0.4410  1.4355
 7448SOL     OW33976   3.600   0.573   6.411 -0.1653 -0.3432 -0.6952
 7448SOL    HW133977   3.521   0.598   6.363 -1.3853 -0.1639  1.4116
 7448SOL    HW233978   3.569   0.585   6.501 -0.5113 -0.9354 -0.7320
 7449SOL     OW33979   1.906   4.691  14.208  0.0668 -0.8459 -0.1026
 7449SOL    HW133980   1.885   0.050  14.191  0.6995 -0.5227  0.8401
 7449SOL    HW233981   1.945   4.692  14.295 -0.6530 -1.1482  0.2254
 7450SOL     OW33982   4.371   0.412   2.981 -0.4158 -0.0596 -0.7415
 7450SOL    HW133983   4.463   0.387   2.991 -0.7818 -0.9670  0.2840
 7450SOL    HW233984   4.354   0.471   3.054  0.5143  1.0434 -1.4164
 7451SOL     OW33985   1.604   0.866   8.528  0.1723 -0.7665 -0.0642
 7451SOL    HW133986   1.548   0.832   8.598  0.5724 -0.3740  0.4502
 7451SOL    HW233987   1.596   0.959   8.546  2.4155 -0.7216  0.7235
 7452SOL     OW33988   4.596   2.302   7.145 -0.1613 -0.0591 -0.0366
 7452SOL    HW133989   4.646   2.270   7.220 -0.4824 -3.7171 -1.3441
 7452SOL    HW233990   4.515   2.252   7.149 -0.5249  0.6838  1.5021
 7453SOL     OW33991   0.760   2.777   6.282 -0.3710 -0.2963  0.1590
 7453SOL    HW133992   0.801   2.693   6.301  1.9579  0.4395 -1.4701
 7453SOL    HW233993   0.713   2.760   6.200  0.4544  1.0843 -0.6229
 7454SOL     OW33994   2.664   2.806   3.748  0.4181  0.0032  0.2461
 7454SOL    HW133995   2.668   2.837   3.658  3.1101 -1.6675 -0.2124
 7454SOL    HW233996   2.749   2.819   3.791 -0.3176  0.2077  1.6712
 7455SOL     OW33997   1.330   4.137   8.006  0.7607 -0.3273 -0.2953
 7455SOL    HW133998   1.414   4.180   8.019  0.4599 -0.2217  1.3388
 7455SOL    HW233999   1.324   4.082   8.085  0.8641  1.0560  0.6779
 7456SOL     OW34000   2.863   1.039  11.755  0.0991 -0.0551 -0.6269
 7456SOL    HW134001   2.772   1.046  11.726  0.0221  1.4675 -0.0357
 7456SOL    HW234002   2.881   1.126  11.790 -1.2406 -0.8526  1.9724
 7457SOL     OW34003   0.930   2.457  13.079 -0.5116 -0.3527 -0.4515
 7457SOL    HW134004   0.916   2.422  12.991  0.5245  0.8115 -1.0758
 7457SOL    HW234005   1.025   2.445  13.077 -0.1771  1.2356  4.2236
 7458SOL     OW34006   0.008   2.567   1.719  0.6250  0.2499 -1.0197
 7458SOL    HW134007   4.680   2.498   1.690  3.8140 -1.8344 -2.7766
 7458SOL    HW234008   0.086   2.528   1.758  1.0505  0.6549 -1.4641
 7459SOL     OW34009   0.608   4.564   2.224 -0.1448 -0.0659  0.2984
 7459SOL    HW134010   0.513   4.575   2.215 -0.0164  0.0128 -0.9571
 7459SOL    HW234011   0.610   4.584   2.318 -1.4359  0.2172  0.2663
 7460SOL     OW34012   3.003   0.919  13.732  0.1447  0.2935  0.1349
 7460SOL    HW134013   3.093   0.949  13.722 -0.0971  0.4463 -1.5706
 7460SOL    HW234014   2.959   0.998  13.765 -1.6029  0.2092 -2.0297
 7461SOL     OW34015   2.028   2.737   7.323  0.0602 -0.4690  0.0271
 7461SOL    HW134016   1.965   2.665   7.330  0.0534 -0.3104  1.5611
 7461SOL    HW234017   1.988   2.801   7.382 -1.2699 -0.9214 -0.3701
 7462SOL     OW34018   1.034   2.532  13.463  0.1048  0.5727 -0.3745
 7462SOL    HW134019   1.005   2.449  13.426 -0.2573  0.1098  0.9406
 7462SOL    HW234020   0.987   2.594  13.408  2.8795  1.3221 -1.9038
 7463SOL     OW34021   0.667   2.402  15.033  0.1943 -0.2991 -0.4459
 7463SOL    HW134022   0.736   2.448  14.986 -0.0775  0.9614  0.3718
 7463SOL    HW234023   0.617   2.476  15.068  0.8112 -0.6124  1.0992
 7464SOL     OW34024   3.406   3.521  12.897 -0.0172 -0.1801  0.4131
 7464SOL    HW134025   3.375   3.488  12.812 -2.5118  1.0735  0.8117
 7464SOL    HW234026   3.418   3.614  12.877 -0.3923 -0.0971  0.5761
 7465SOL     OW34027   1.614   0.622  12.276 -0.4813 -0.4228 -0.1208
 7465SOL    HW134028   1.626   0.605  12.370  0.7625 -0.0288 -0.2189
 7465SOL    HW234029   1.518   0.621  12.267 -0.5072  1.6934 -0.0720
 7466SOL     OW34030   4.257   1.347   4.126 -1.0618 -0.1173 -0.1884
 7466SOL    HW134031   4.257   1.416   4.193  1.7209 -1.0901  0.7819
 7466SOL    HW234032   4.348   1.356   4.097 -0.8556 -0.7359  0.2700
 7467SOL     OW34033   0.059   3.275   5.277  0.5101 -0.3897 -0.0911
 7467SOL    HW134034   0.092   3.346   5.331 -1.2552 -0.1612  0.6686
 7467SOL    HW234035   0.141   3.228   5.260  1.7074  0.3194  3.8172
 7468SOL     OW34036   0.613   4.025  14.091  0.1170  0.1039  0.4964
 7468SOL    HW134037   0.539   4.036  14.151 -1.6602 -1.3267 -1.4358
 7468SOL    HW234038   0.569   3.978  14.020  2.1035  0.3976 -0.9419
 7469SOL     OW34039   1.372   2.051   6.143 -0.0161  0.2677 -0.2496
 7469SOL    HW134040   1.370   1.995   6.065  1.2028 -2.0810  1.3953
 7469SOL    HW234041   1.314   2.121   6.113  0.4029  1.1260  0.9381
 7470SOL     OW34042   4.625   3.348   2.151 -0.5192 -0.1750  0.1839
 7470SOL    HW134043   4.632   3.253   2.154  0.5631 -0.0924  0.4399
 7470SOL    HW234044   4.718   3.372   2.156 -0.5112  0.0619 -1.1569
 7471SOL     OW34045   2.058   0.346   4.002  0.1959 -0.9559 -0.1580
 7471SOL    HW134046   2.137   0.391   4.033 -1.0013  0.6391  0.6222
 7471SOL    HW234047   2.043   0.399   3.924  0.8061 -1.3047 -0.5116
 7472SOL     OW34048   1.195   1.836   1.578  0.2821 -0.5235  0.6363
 7472SOL    HW134049   1.280   1.882   1.579 -1.0273  1.9203  0.6271
 7472SOL    HW234050   1.155   1.885   1.650 -2.3656 -1.4183 -0.2459
 7473SOL     OW34051   3.546   1.159   5.817  0.1942  0.7259 -0.0979
 7473SOL    HW134052   3.611   1.119   5.874 -0.3272 -0.6714 -0.4852
 7473SOL    HW234053   3.479   1.092   5.803  0.2600  0.1017  2.6579
 7474SOL     OW34054   0.794   1.200  11.005  0.2697  0.2362  0.4723
 7474SOL    HW134055   0.806   1.256  10.928 -0.8849  0.4389  0.4409
 7474SOL    HW234056   0.714   1.240  11.039  1.4734 -0.1195  3.7094
 7475SOL     OW34057   3.764   0.806   3.100  0.5346  0.2686  0.0336
 7475SOL    HW134058   3.697   0.750   3.139  1.1298  0.6310  1.5939
 7475SOL    HW234059   3.744   0.883   3.154 -0.0370  0.9486 -1.1439
 7476SOL     OW34060   4.099   4.555   5.173  0.3856 -0.0548 -0.0357
 7476SOL    HW134061   4.097   4.590   5.084  1.6529 -1.6202 -0.6822
 7476SOL    HW234062   4.193   4.545   5.188  0.0977 -2.0190  0.4573
 7477SOL     OW34063   3.580   0.479  15.137  0.0244 -0.0224 -0.0563
 7477SOL    HW134064   3.593   0.529  15.057 -0.2030 -1.5641 -1.0506
 7477SOL    HW234065   3.665   0.442  15.161  0.2378  0.4869 -0.0376
 7478SOL     OW34066   3.905   1.441   6.965  0.3572  0.1090  0.2071
 7478SOL    HW134067   3.821   1.460   7.006  0.8931  0.6076  1.0725
 7478SOL    HW234068   3.938   1.528   6.984 -1.7429  0.6983  1.1707
 7479SOL     OW34069   4.095   1.132  12.097 -0.0325  0.5674  0.3204
 7479SOL    HW134070   4.102   1.192  12.172 -0.6023  1.3044 -0.2130
 7479SOL    HW234071   4.188   1.133  12.072  0.0428  0.0124  0.6002
 7480SOL     OW34072   1.236   3.509  17.210  0.6057  0.1693  0.6728
 7480SOL    HW134073   1.166   3.460  17.167  2.1813 -0.8647 -0.7027
 7480SOL    HW234074   1.264   3.583  17.156  1.8864  0.5716  1.9019
 7481SOL     OW34075   1.414   2.377  16.298  0.0870 -0.1267 -0.4581
 7481SOL    HW134076   1.465   2.454  16.273 -0.3763  0.3928  0.1901
 7481SOL    HW234077   1.352   2.375  16.225  0.4982  0.0486 -0.8115
 7482SOL     OW34078   3.927   0.678   2.650  0.0351 -0.2376  0.3812
 7482SOL    HW134079   3.861   0.683   2.720  0.7631  1.8544  0.9194
 7482SOL    HW234080   3.982   0.752   2.675  0.4521  0.1036 -1.5535
 7483SOL     OW34081   1.775   3.894  12.093 -0.3466  1.0605  0.4497
 7483SOL    HW134082   1.800   3.857  12.008 -0.8180 -4.1725  2.6272
 7483SOL    HW234083   1.860   3.887  12.136 -0.5239 -1.6025  0.3682
 7484SOL     OW34084   2.177   4.307   0.319  0.1798 -0.6254  0.0108
 7484SOL    HW134085   2.223   4.387   0.293 -1.7614 -0.0622 -1.6040
 7484SOL    HW234086   2.217   4.310   0.406 -1.1458 -2.7070  0.6842
 7485SOL     OW34087   4.718   4.593   5.113 -0.1222  0.3171 -0.3774
 7485SOL    HW134088   4.659   4.588   5.038  0.0005  1.8424 -0.5832
 7485SOL    HW234089   0.033   4.511   5.099  1.4162  0.9342  1.2342
 7486SOL     OW34090   0.290   1.406   5.118  0.3012  0.3541 -0.0097
 7486SOL    HW134091   0.299   1.314   5.142  2.5018  0.2228 -1.2953
 7486SOL    HW234092   0.212   1.438   5.162  0.2210 -2.9803  2.2525
 7487SOL     OW34093   3.952   3.687  15.031  0.1409 -0.0611  0.6674
 7487SOL    HW134094   3.960   3.761  15.091 -0.4630  1.0964 -0.6725
 7487SOL    HW234095   3.891   3.713  14.961  0.1599 -0.6977  0.4194
 7488SOL     OW34096   0.783   1.666  16.898  0.1208 -0.4836 -0.0227
 7488SOL    HW134097   0.790   1.590  16.956 -1.8392  1.7869  3.2144
 7488SOL    HW234098   0.795   1.736  16.962 -0.1135 -0.1475 -0.3431
 7489SOL     OW34099   1.525   2.597   4.011 -0.1302 -0.0067 -0.1364
 7489SOL    HW134100   1.561   2.660   3.948 -1.4604 -0.3254 -1.2169
 7489SOL    HW234101   1.580   2.523   3.984 -1.0947 -0.5900 -0.5109
 7490SOL     OW34102   0.372   2.496  11.227 -0.1520  0.3074 -0.0084
 7490SOL    HW134103   0.398   2.576  11.183  3.9569 -1.6703 -1.1173
 7490SOL    HW234104   0.280   2.521  11.237 -0.0019  0.4414  1.0547
 7491SOL     OW34105   0.716   4.326   0.293  0.1653  0.5013 -0.4946
 7491SOL    HW134106   0.811   4.340   0.287  0.3426 -0.9149 -1.0946
 7491SOL    HW234107   0.680   4.413   0.309  0.5780  0.3702  1.1587
 7492SOL     OW34108   4.291   3.338   5.262  0.0284  0.7261  0.4165
 7492SOL    HW134109   4.384   3.342   5.242  0.7759 -3.3411  2.9834
 7492SOL    HW234110   4.273   3.424   5.224 -1.5804 -0.0791 -0.6402
 7493SOL     OW34111   2.040   4.327   3.143  0.8381  0.5129 -0.4361
 7493SOL    HW134112   2.121   4.331   3.092 -0.4206  1.5967 -2.3443
 7493SOL    HW234113   2.025   4.235   3.165 -0.1506  0.1209 -2.7189
 7494SOL     OW34114   1.066   3.359   3.551 -0.4512 -0.5590  0.9943
 7494SOL    HW134115   1.045   3.266   3.540 -1.7432 -0.0542 -0.7376
 7494SOL    HW234116   1.149   3.352   3.599 -1.8704  1.8862  3.7820
 7495SOL     OW34117   2.332   3.464  11.604 -0.4617  0.2299 -0.3861
 7495SOL    HW134118   2.404   3.407  11.577  0.0454 -1.3152  4.3260
 7495SOL    HW234119   2.307   3.413  11.681  1.5987  0.5441  0.4994
 7496SOL     OW34120   1.146   4.657   1.612 -0.1074  0.2200 -0.2168
 7496SOL    HW134121   1.114   4.600   1.681 -0.2848  0.4587 -0.1035
 7496SOL    HW234122   1.073   4.654   1.549  1.9671 -0.2300 -2.6293
 7497SOL     OW34123   3.034   3.580   8.071 -0.3820  0.2023  0.0183
 7497SOL    HW134124   3.080   3.636   8.009 -1.6076  0.5739 -0.5607
 7497SOL    HW234125   3.037   3.636   8.148 -0.8325 -0.6105  0.6296
 7498SOL     OW34126   2.063   4.097  13.977  0.1930 -0.0256  0.4377
 7498SOL    HW134127   1.977   4.081  13.938  0.0165  1.6092  0.1756
 7498SOL    HW234128   2.108   4.021  13.940  2.2512  1.2830  0.2792
 7499SOL     OW34129   4.099   0.580  15.317 -0.2151  0.1403  0.1985
 7499SOL    HW134130   4.194   0.586  15.306 -0.3014 -0.8070 -1.0358
 7499SOL    HW234131   4.073   0.672  15.324  0.5010  0.2717  1.1268
 7500SOL     OW34132   2.524   3.394  14.227  0.0062 -0.3896 -0.4166
 7500SOL    HW134133   2.502   3.346  14.147 -1.1126 -2.1973  0.9723
 7500SOL    HW234134   2.620   3.396  14.226  0.0172 -0.7322  0.0498
 7501SOL     OW34135   3.853   2.462   1.147 -0.0208  0.4549  0.7236
 7501SOL    HW134136   3.793   2.417   1.205  0.3197  1.2052  1.6735
 7501SOL    HW234137   3.933   2.413   1.165 -1.0318 -1.7175 -0.7956
 7502SOL     OW34138   0.149   3.855  14.141  0.1081  0.6366 -0.1768
 7502SOL    HW134139   0.200   3.798  14.083 -1.2767 -1.3282  0.5408
 7502SOL    HW234140   0.098   3.787  14.185 -2.5667  2.5969 -0.2481
 7503SOL     OW34141   2.177   3.993   8.543  0.3973  0.1644 -0.0584
 7503SOL    HW134142   2.260   4.009   8.587  0.2746  2.9817 -0.8558
 7503SOL    HW234143   2.177   4.056   8.471 -1.5313  1.1172  0.7693
 7504SOL     OW34144   2.619   1.169  10.707 -0.0771  0.3177 -0.1773
 7504SOL    HW134145   2.531   1.179  10.742 -0.0046  0.2865  0.0115
 7504SOL    HW234146   2.668   1.096  10.745 -0.7549  0.0248  0.1139
 7505SOL     OW34147   2.472   3.658  16.131  0.6559 -0.1465 -0.2654
 7505SOL    HW134148   2.462   3.752  16.148  1.2421  0.3786 -2.7960
 7505SOL    HW234149   2.418   3.646  16.052 -0.0366 -0.1751  0.2098
 7506SOL     OW34150   1.289   0.698   0.916 -0.2601 -0.4995  0.3249
 7506SOL    HW134151   1.215   0.722   0.972  0.5042 -0.0735  1.1508
 7506SOL    HW234152   1.360   0.711   0.978 -0.9543  0.5362  0.9020
 7507SOL     OW34153   3.810   3.458   7.810  0.5680  0.4419 -0.2305
 7507SOL    HW134154   3.885   3.432   7.864 -1.1596 -0.8276  1.5156
 7507SOL    HW234155   3.756   3.383   7.788  1.4143 -0.5613  1.0787
 7508SOL     OW34156   2.004   0.979   4.692 -0.2540 -0.2628  0.0603
 7508SOL    HW134157   1.953   0.899   4.706 -0.3689 -0.2523 -0.3007
 7508SOL    HW234158   2.077   0.951   4.748 -0.2528 -2.0142 -0.8077
 7509SOL     OW34159   1.244   4.535   9.027 -0.5729 -0.7218  0.0221
 7509SOL    HW134160   1.193   4.464   9.066  0.0576 -1.8459 -1.2020
 7509SOL    HW234161   1.186   4.565   8.958  1.1060 -1.4662 -1.7173
 7510SOL     OW34162   3.673   0.250   9.980  0.0228  0.0535  0.6528
 7510SOL    HW134163   3.610   0.178   9.988 -1.0078  0.7383 -1.5816
 7510SOL    HW234164   3.744   0.208   9.930 -0.9832  0.4491 -1.1002
 7511SOL     OW34165   0.023   4.291   6.359  0.0395 -0.1539  0.3612
 7511SOL    HW134166   4.662   4.312   6.355 -0.3329 -1.2433  3.1313
 7511SOL    HW234167   0.029   4.246   6.275 -2.2394  1.1611 -0.5022
 7512SOL     OW34168   3.469   4.303   2.576 -0.3114 -0.3875 -0.3693
 7512SOL    HW134169   3.468   4.322   2.482  1.0354  0.9307 -0.1082
 7512SOL    HW234170   3.512   4.217   2.573 -0.6812 -0.6180  1.3703
 7513SOL     OW34171   2.395   1.242  10.843  0.5882 -0.4343 -0.8935
 7513SOL    HW134172   2.341   1.164  10.852  0.5087 -0.0699  1.7633
 7513SOL    HW234173   2.392   1.281  10.930  0.9072 -3.0501  0.2653
 7514SOL     OW34174   3.163   3.970   4.746 -0.4728  0.1433  0.0530
 7514SOL    HW134175   3.198   3.890   4.706  1.9375  0.2602  1.8929
 7514SOL    HW234176   3.243   3.983   4.798  0.9264  0.1544 -2.1158
 7515SOL     OW34177   0.218   4.170   9.004  0.4340 -0.5043  0.2580
 7515SOL    HW134178   0.151   4.156   9.072  1.9444 -0.2245  1.8024
 7515SOL    HW234179   0.286   4.219   9.049  0.1663  0.3426 -0.2544
 7516SOL     OW34180   2.185   4.388  16.835  0.2100 -0.2387 -0.8872
 7516SOL    HW134181   2.098   4.386  16.876  0.5767 -1.0097 -0.1587
 7516SOL    HW234182   2.239   4.354  16.906  2.9095 -0.4339 -3.0219
 7517SOL     OW34183   4.075   4.641   6.852 -0.3700 -0.0460 -0.1002
 7517SOL    HW134184   4.103   4.557   6.887 -0.8037 -1.0086 -2.1153
 7517SOL    HW234185   4.111   4.634   6.764 -0.2943  1.3700 -0.1839
 7518SOL     OW34186   2.480   3.514   7.114  0.1902  0.1244 -0.1161
 7518SOL    HW134187   2.487   3.577   7.186 -2.2198 -1.2947  1.3587
 7518SOL    HW234188   2.402   3.466   7.143  0.7166 -0.1550  0.8296
 7519SOL     OW34189   0.813   3.754   1.404  0.2111 -0.1201 -0.7542
 7519SOL    HW134190   0.764   3.685   1.447 -1.1668  2.1918  1.3817
 7519SOL    HW234191   0.771   3.823   1.455 -0.2406 -1.2659  0.4063
 7520SOL     OW34192   0.375   4.297   8.335 -1.0169 -0.6545  0.0219
 7520SOL    HW134193   0.414   4.211   8.317 -1.1454 -0.8085  0.4904
 7520SOL    HW234194   0.446   4.332   8.388  1.3299 -2.1974 -2.1487
 7521SOL     OW34195   2.236   3.869   9.264  0.5060 -0.4641  0.0027
 7521SOL    HW134196   2.299   3.827   9.206 -1.1720 -1.2653 -1.2243
 7521SOL    HW234197   2.174   3.797   9.268 -1.6266  1.2501 -2.5490
 7522SOL     OW34198   3.150   3.744   6.918 -0.4988 -0.3485 -0.7926
 7522SOL    HW134199   3.209   3.689   6.867 -1.4329 -1.2225 -0.9306
 7522SOL    HW234200   3.160   3.829   6.874  0.7377 -0.6711 -1.1282
 7523SOL     OW34201   4.343   3.936   6.966  0.3187 -0.0739  0.1691
 7523SOL    HW134202   4.248   3.950   6.964  0.3982  0.5855  0.7653
 7523SOL    HW234203   4.359   4.015   7.019 -2.3529  0.4379  0.1908
 7524SOL     OW34204   1.285   4.542   7.826  0.2764  0.6264 -0.1173
 7524SOL    HW134205   1.360   4.553   7.767 -1.1456  3.7725 -1.3732
 7524SOL    HW234206   1.230   4.501   7.760  0.5359 -0.1494  0.1483
 7525SOL     OW34207   3.220   2.859   6.043 -0.0592 -0.4164 -0.5467
 7525SOL    HW134208   3.127   2.881   6.039  0.9357  3.6172 -1.7508
 7525SOL    HW234209   3.253   2.935   6.091  0.6361 -1.0974  0.0583
 7526SOL     OW34210   2.093   0.815   8.182 -0.0082 -0.4279 -0.1947
 7526SOL    HW134211   2.061   0.848   8.098  0.8861 -1.0991 -0.8023
 7526SOL    HW234212   2.092   0.721   8.164 -1.1102 -0.8232  1.8746
 7527SOL     OW34213   0.738   2.639   1.870 -0.3820  0.0962  0.1053
 7527SOL    HW134214   0.748   2.633   1.965 -0.0823  0.3724  0.0888
 7527SOL    HW234215   0.828   2.668   1.862 -0.3791 -0.2740 -1.1812
 7528SOL     OW34216   0.362   2.881   3.596  0.2108 -0.0661 -0.1946
 7528SOL    HW134217   0.404   2.862   3.512  0.6136 -0.1976  0.0333
 7528SOL    HW234218   0.389   2.803   3.645  0.1693  0.6675  0.9878
 7529SOL     OW34219   4.558   4.169   5.259 -0.1451 -0.4650  0.0999
 7529SOL    HW134220   4.496   4.226   5.215 -1.1678 -1.4120  0.2952
 7529SOL    HW234221   4.626   4.144   5.197  0.1901 -0.1090  0.3227
 7530SOL     OW34222   4.576   3.253   8.242  0.1223 -0.0117  0.6100
 7530SOL    HW134223   4.644   3.193   8.274  2.0311  1.5818 -0.4606
 7530SOL    HW234224   4.535   3.201   8.173 -0.7018  0.3375  0.8293
 7531SOL     OW34225   3.668   4.468   4.859 -0.0261 -0.2034  0.1429
 7531SOL    HW134226   3.759   4.437   4.870  0.4769  0.6999 -1.5331
 7531SOL    HW234227   3.634   4.473   4.949 -0.4205 -0.2547 -0.0070
 7532SOL     OW34228   2.523   2.474   7.634 -0.0072 -0.0004 -0.5998
 7532SOL    HW134229   2.607   2.430   7.646 -0.0227  0.5149  1.3166
 7532SOL    HW234230   2.545   2.563   7.661  0.0068  0.1595 -1.1292
 7533SOL     OW34231   3.143   2.003   8.268 -0.4343 -0.3000  0.2622
 7533SOL    HW134232   3.055   2.026   8.238 -0.4159 -2.1314 -1.2242
 7533SOL    HW234233   3.160   2.079   8.324 -2.7826  1.0367 -0.8433
 7534SOL     OW34234   0.144   3.682  13.726  0.3986 -0.3793  0.0183
 7534SOL    HW134235   0.191   3.639  13.797  1.1079 -0.2272 -0.3647
 7534SOL    HW234236   0.092   3.747  13.773 -0.3725  0.5829 -2.1716
 7535SOL     OW34237   2.949   3.425  13.689  0.2439 -0.1271 -0.1272
 7535SOL    HW134238   2.942   3.462  13.777  0.6383 -2.4088  0.8787
 7535SOL    HW234239   2.917   3.335  13.689 -1.6438  0.5568 -0.3244
 7536SOL     OW34240   2.593   4.067   6.774 -0.5372 -0.7459  1.2338
 7536SOL    HW134241   2.665   4.026   6.821  0.8109  0.7753  0.5178
 7536SOL    HW234242   2.629   4.084   6.687 -1.1881 -0.6475  0.9791
 7537SOL     OW34243   1.481   4.612  16.848  0.3696 -0.2348  0.2532
 7537SOL    HW134244   1.511   4.521  16.849  0.2097 -0.2896 -0.5427
 7537SOL    HW234245   1.438   4.620  16.764  1.7141  1.8044 -0.2474
 7538SOL     OW34246   1.428   1.673   8.417  0.0977  0.0124  0.2355
 7538SOL    HW134247   1.350   1.675   8.473  0.5838  1.3076  0.8727
 7538SOL    HW234248   1.496   1.711   8.473  0.8559 -2.2050  0.8220
 7539SOL     OW34249   1.776   3.397   9.638  0.8457 -0.2991 -0.9409
 7539SOL    HW134250   1.823   3.481   9.631  1.7386 -0.4703  2.9071
 7539SOL    HW234251   1.847   3.349   9.681  1.5571  0.5794 -1.1203
 7540SOL     OW34252   3.647   3.807   2.925  0.0077  0.1875 -0.1231
 7540SOL    HW134253   3.616   3.766   2.844  0.5440  3.4700 -2.0098
 7540SOL    HW234254   3.666   3.895   2.893  0.3322  0.0143 -0.4097
 7541SOL     OW34255   2.409   0.114   7.598 -0.8304  0.3411  0.4392
 7541SOL    HW134256   2.499   0.084   7.616  0.2908  3.9015  0.8204
 7541SOL    HW234257   2.402   0.164   7.680 -2.1896  1.3653 -0.3060
 7542SOL     OW34258   0.830   2.245   0.148 -0.3183 -0.4372 -0.2193
 7542SOL    HW134259   0.809   2.313   0.213  1.3426  0.6600 -0.8286
 7542SOL    HW234260   0.902   2.282   0.096 -0.7243  1.4615  0.5651
 7543SOL     OW34261   1.060   0.560   9.608  0.2896 -0.4526  0.1220
 7543SOL    HW134262   1.011   0.616   9.547  0.8419  1.3809  1.3437
 7543SOL    HW234263   0.998   0.487   9.617 -0.2883 -0.0174 -0.3039
 7544SOL     OW34264   2.073   4.664   1.142 -0.7456 -0.0218 -0.1633
 7544SOL    HW134265   2.073   4.626   1.230  0.2164 -0.6780 -0.4415
 7544SOL    HW234266   2.021   0.010   1.159 -4.1356 -2.2516 -0.2021
 7545SOL     OW34267   3.645   2.619   0.889 -0.1228 -0.3873  0.1459
 7545SOL    HW134268   3.564   2.641   0.842  0.4654  0.0173 -0.6781
 7545SOL    HW234269   3.719   2.620   0.828 -0.5772 -0.8153 -0.4204
 7546SOL     OW34270   4.635   0.488   3.991 -0.7724  0.0148  0.0677
 7546SOL    HW134271   4.675   0.526   3.913  1.6800 -1.5890  0.5481
 7546SOL    HW234272   4.684   0.532   4.060 -0.0704 -1.3428  0.4381
 7547SOL     OW34273   3.460   1.129   5.532 -0.6633  0.3540 -0.1626
 7547SOL    HW134274   3.391   1.180   5.573 -1.5498  0.9508 -2.3840
 7547SOL    HW234275   3.451   1.042   5.571 -0.8221  0.1537 -0.6397
 7548SOL     OW34276   4.572   1.971  13.512 -0.0541  0.1195  0.2974
 7548SOL    HW134277   4.633   1.982  13.439 -1.4709 -0.6187 -1.0116
 7548SOL    HW234278   4.554   1.877  13.511  0.2909  0.0666 -1.1154
 7549SOL     OW34279   4.600   0.779   8.640  0.2482  0.3265 -0.0567
 7549SOL    HW134280   4.652   0.847   8.683 -2.3200  1.9636  0.4539
 7549SOL    HW234281   4.563   0.735   8.716  0.7007  2.7345  1.5550
 7550SOL     OW34282   2.481   3.929   5.748  0.6575  0.0856  0.0499
 7550SOL    HW134283   2.436   4.010   5.773 -0.9582 -0.6908 -0.3011
 7550SOL    HW234284   2.558   3.935   5.803  0.8494  0.1035 -0.2181
 7551SOL     OW34285   1.270   0.219   0.956  0.4687  0.1450  0.1969
 7551SOL    HW134286   1.210   0.205   1.029 -1.4981  2.0789 -1.0534
 7551SOL    HW234287   1.350   0.254   0.996  1.4346 -0.2460 -1.3827
 7552SOL     OW34288   4.540   1.310   9.647  0.2566 -0.0549 -0.1002
 7552SOL    HW134289   4.574   1.226   9.615 -0.3612  0.0314 -0.9969
 7552SOL    HW234290   4.515   1.337   9.559  2.6331  1.7486 -0.2090
 7553SOL     OW34291   3.456   1.541   2.886 -0.1191 -0.1098  0.1124
 7553SOL    HW134292   3.457   1.524   2.791 -1.1274  3.4578 -0.5199
 7553SOL    HW234293   3.470   1.635   2.889 -1.3806 -0.0014  2.0787
 7554SOL     OW34294   4.380   0.266   0.320 -0.6067 -0.0140  0.3950
 7554SOL    HW134295   4.432   0.346   0.319  0.9186 -1.0339 -0.3972
 7554SOL    HW234296   4.445   0.206   0.283  0.3764  0.4283  1.4076
 7555SOL     OW34297   3.350   1.111   6.620 -0.2184 -0.0471  0.1270
 7555SOL    HW134298   3.348   1.024   6.581 -1.3456  0.2533 -0.4870
 7555SOL    HW234299   3.311   1.158   6.546  2.1192  1.8941  0.1310
 7556SOL     OW34300   2.514   3.074  12.322 -0.3347 -0.2126 -0.2596
 7556SOL    HW134301   2.491   2.999  12.267  0.7525 -0.0805 -0.9005
 7556SOL    HW234302   2.457   3.065  12.398 -1.0101 -3.0203 -1.0881
 7557SOL     OW34303   3.595   2.849   4.033 -0.5164 -0.4101 -0.1851
 7557SOL    HW134304   3.592   2.803   4.117 -1.0105  0.2748  0.1683
 7557SOL    HW234305   3.500   2.857   4.025 -0.5969  0.6568  1.8545
 7558SOL     OW34306   0.266   4.074   5.150  0.3123 -0.0580  0.4438
 7558SOL    HW134307   0.285   4.082   5.243 -0.2342  0.6324  0.4908
 7558SOL    HW234308   0.332   4.006   5.135 -0.5477 -0.6752 -0.6049
 7559SOL     OW34309   2.541   2.985   8.197 -0.1003 -0.1741  0.1979
 7559SOL    HW134310   2.445   2.976   8.194  0.0183 -0.8728 -1.5718
 7559SOL    HW234311   2.547   3.013   8.288 -1.1348  0.1854  0.1573
 7560SOL     OW34312   0.507   3.202   6.778  0.3749 -0.0262  0.6048
 7560SOL    HW134313   0.453   3.266   6.730 -1.1349 -1.7975 -0.0484
 7560SOL    HW234314   0.537   3.135   6.716  2.5995  0.8472  0.7116
 7561SOL     OW34315   2.685   4.614   6.929  0.6399 -0.4569 -0.2845
 7561SOL    HW134316   2.748   4.553   6.890  0.2163  0.6653 -2.7501
 7561SOL    HW234317   2.619   4.553   6.963  1.9709 -2.5800 -1.5096
 7562SOL     OW34318   3.731   3.116   6.628 -0.7952  0.0884  0.0610
 7562SOL    HW134319   3.707   3.101   6.719 -0.9861 -1.2874 -0.2143
 7562SOL    HW234320   3.751   3.208   6.615  0.0059 -0.1474 -0.4114
 7563SOL     OW34321   4.227   0.163   4.304 -0.3429 -0.6851 -0.3288
 7563SOL    HW134322   4.213   0.255   4.282 -1.1013 -0.2427  1.9957
 7563SOL    HW234323   4.321   0.162   4.322 -0.3628 -2.9192 -0.3456
 7564SOL     OW34324   1.071   2.359   7.096  0.0985 -0.0879 -0.2521
 7564SOL    HW134325   1.018   2.424   7.142  1.6113  0.3413  0.8675
 7564SOL    HW234326   1.117   2.313   7.166 -1.9631  1.7269  2.2780
 7565SOL     OW34327   4.148   2.235   6.375 -0.3427 -0.1513 -0.7222
 7565SOL    HW134328   4.193   2.305   6.422 -2.6228  1.1702 -0.4864
 7565SOL    HW234329   4.068   2.282   6.349 -0.3038  0.6547  0.6199
 7566SOL     OW34330   2.031   2.809  12.251 -0.1633  0.0032  0.1253
 7566SOL    HW134331   2.002   2.739  12.194 -1.4882 -0.6492  1.6036
 7566SOL    HW234332   1.989   2.792  12.335  0.6118  0.2801  0.5726
 7567SOL     OW34333   3.629   4.713   4.102 -0.2180  0.5233  0.4738
 7567SOL    HW134334   3.618   4.621   4.126 -0.4970  1.7080  4.8934
 7567SOL    HW234335   3.540   4.727   4.068 -0.0985  0.3137  0.0673
 7568SOL     OW34336   0.645   3.646   8.703 -0.1666  0.2161  0.3007
 7568SOL    HW134337   0.659   3.739   8.682  0.9890  0.2840  1.3692
 7568SOL    HW234338   0.560   3.647   8.746  0.9682  0.4837  2.5321
 7569SOL     OW34339   2.109   4.302  17.647  0.8389 -0.1546  0.1510
 7569SOL    HW134340   2.085   4.220  17.691 -2.1791  1.5997  1.8216
 7569SOL    HW234341   2.065   4.293  17.562 -2.5812 -0.7821  1.9927
 7570SOL     OW34342   2.464   1.010  11.725  0.3249 -0.4208 -0.6765
 7570SOL    HW134343   2.480   1.040  11.814 -1.1674 -2.3827  0.2378
 7570SOL    HW234344   2.537   0.949  11.715  1.5701  0.9391  0.2227
 7571SOL     OW34345   3.544   1.425   5.921 -1.0235  0.6116 -0.2847
 7571SOL    HW134346   3.559   1.336   5.889 -0.1317  0.3376  0.8765
 7571SOL    HW234347   3.484   1.403   5.993 -1.6860 -0.2182 -1.1026
 7572SOL     OW34348   0.002   0.987   4.614  0.9791 -0.0452 -0.5162
 7572SOL    HW134349   0.070   1.053   4.628 -0.7740  1.4770  0.7166
 7572SOL    HW234350   0.061   0.912   4.602  4.1423  2.1589  1.3262
 7573SOL     OW34351   0.912   0.733   0.414 -0.0819 -0.0493 -0.1328
 7573SOL    HW134352   0.915   0.652   0.465 -2.2586  1.2914  2.1436
 7573SOL    HW234353   0.832   0.730   0.362 -0.1377  1.8733 -0.1821
 7574SOL     OW34354   0.803   3.397   6.774 -0.6773  0.7959  0.0425
 7574SOL    HW134355   0.836   3.431   6.691  1.6919  1.1035  1.1183
 7574SOL    HW234356   0.885   3.360   6.807 -0.6575 -0.6708 -1.6678
 7575SOL     OW34357   2.337   1.656   8.057  0.1139  0.3606  0.3239
 7575SOL    HW134358   2.399   1.717   8.097 -0.6404 -0.4570  2.7970
 7575SOL    HW234359   2.260   1.668   8.114 -0.0516 -0.0324  0.1812
 7576SOL     OW34360   0.540   2.059   5.985  0.4047 -0.2226  0.0646
 7576SOL    HW134361   0.476   1.996   6.018  0.8233 -0.9565 -0.5258
 7576SOL    HW234362   0.576   2.089   6.069 -0.0705  0.9071 -0.1423
 7577SOL     OW34363   1.029   0.196   0.506 -0.1864  0.4551  0.1691
 7577SOL    HW134364   1.085   0.246   0.448  1.7279 -2.5650 -0.6189
 7577SOL    HW234365   1.064   0.216   0.592 -1.0530 -1.1552  0.9126
 7578SOL     OW34366   0.229   3.897  11.408 -0.5133  0.2394  0.2745
 7578SOL    HW134367   0.186   3.844  11.475  0.0558 -2.3364 -1.3665
 7578SOL    HW234368   0.281   3.821  11.381  0.2305  0.6947  0.4437
 7579SOL     OW34369   2.920   3.681   4.104 -0.3461 -0.9541 -0.4147
 7579SOL    HW134370   2.983   3.619   4.139 -0.2475 -0.8531 -0.4130
 7579SOL    HW234371   2.974   3.726   4.039  0.0150 -1.0403 -0.1686
 7580SOL     OW34372   1.273   2.349   4.404  0.0764 -0.0453 -0.2291
 7580SOL    HW134373   1.340   2.297   4.449 -0.7245 -2.3165 -1.6253
 7580SOL    HW234374   1.334   2.411   4.365  1.7625 -0.7800  1.2518
 7581SOL     OW34375   0.159   4.636  11.425  1.0082 -0.1271  0.1923
 7581SOL    HW134376   0.191   4.564  11.371 -0.6787 -2.0637  1.7268
 7581SOL    HW234377   0.119   4.584  11.495 -0.6167  0.0265 -0.6261
 7582SOL     OW34378   2.295   2.923   2.749 -0.3401 -0.0285 -0.7874
 7582SOL    HW134379   2.206   2.890   2.747  0.7318 -3.0095  0.0741
 7582SOL    HW234380   2.315   2.934   2.656 -0.4450 -0.6596 -0.8840
 7583SOL     OW34381   2.556   3.152  11.012 -0.1291  0.0365  0.2096
 7583SOL    HW134382   2.634   3.103  10.983  1.4083  2.9756 -0.6702
 7583SOL    HW234383   2.574   3.237  10.972 -3.3353  0.7155  0.2453
 7584SOL     OW34384   3.994   2.352  14.563 -0.2033  0.6087 -0.4219
 7584SOL    HW134385   3.935   2.393  14.500  1.2463 -0.0250 -2.2120
 7584SOL    HW234386   4.065   2.410  14.536  0.9057 -0.9098 -0.8010
 7585SOL     OW34387   1.675   2.841   8.335 -0.7123  0.2960  0.2778
 7585SOL    HW134388   1.615   2.787   8.387 -2.0072  0.0510 -1.4573
 7585SOL    HW234389   1.653   2.816   8.245  1.3228 -3.0486  0.7024
 7586SOL     OW34390   2.861   0.443  15.747  0.4657 -0.4995 -0.3313
 7586SOL    HW134391   2.872   0.463  15.654 -2.8311 -1.6189 -0.9835
 7586SOL    HW234392   2.765   0.436  15.751  0.5060 -0.4022  0.7721
 7587SOL     OW34393   3.893   4.231   6.168 -0.4146  0.1570 -0.7706
 7587SOL    HW134394   3.982   4.202   6.151 -0.8198 -1.0465 -0.8550
 7587SOL    HW234395   3.901   4.324   6.148 -0.7385  0.7180  1.6316
 7588SOL     OW34396   1.712   1.254  12.097 -0.4297 -0.3877  0.5143
 7588SOL    HW134397   1.723   1.290  12.009  2.1005  0.2660  1.0787
 7588SOL    HW234398   1.705   1.160  12.080 -2.6674  0.3512 -2.5297
 7589SOL     OW34399   4.645   1.646   6.275 -0.0640  0.2033 -0.9649
 7589SOL    HW134400   4.651   1.554   6.301  1.3015  1.1994  2.2177
 7589SOL    HW234401   4.728   1.684   6.303  0.0428  0.3642 -1.5055
 7590SOL     OW34402   3.096   3.182  17.016  0.2707  0.2076  0.0355
 7590SOL    HW134403   3.183   3.221  17.002  0.1812  0.2754 -0.3226
 7590SOL    HW234404   3.074   3.168  16.924  1.8682 -0.0850 -0.3056
 7591SOL     OW34405   0.123   1.252   3.043  0.2095  0.6951 -0.1843
 7591SOL    HW134406   0.062   1.313   3.086  2.0146  0.6663  2.4018
 7591SOL    HW234407   0.129   1.185   3.111 -0.1144 -1.9319 -2.7891
 7592SOL     OW34408   0.928   2.906   3.116  0.6932  0.2190 -0.0137
 7592SOL    HW134409   0.841   2.925   3.153  0.0148 -0.1102 -1.4258
 7592SOL    HW234410   0.958   2.997   3.117  4.2309 -0.9715  0.6490
 7593SOL     OW34411   2.171   4.126  10.649  0.1718 -0.3725 -0.0999
 7593SOL    HW134412   2.170   4.155  10.740  0.4845  1.6299 -0.7401
 7593SOL    HW234413   2.103   4.061  10.663  1.2673 -1.9624 -2.1324
 7594SOL     OW34414   1.937   2.126   7.576  0.4731  0.4006 -0.3190
 7594SOL    HW134415   2.025   2.138   7.610 -0.6166  1.1942  2.1984
 7594SOL    HW234416   1.892   2.210   7.565 -1.3330 -0.5136  0.0319
 7595SOL     OW34417   1.313   3.516   9.004  0.6620 -0.1100 -0.4487
 7595SOL    HW134418   1.354   3.577   8.942  1.2986  1.7773  1.8290
 7595SOL    HW234419   1.388   3.458   9.019 -0.1033 -0.3241  2.3944
 7596SOL     OW34420   4.444   0.428  10.201  0.6020 -0.0160  0.5567
 7596SOL    HW134421   4.492   0.457  10.278  2.2823  0.8292 -0.8202
 7596SOL    HW234422   4.431   0.502  10.142 -1.1105 -1.4306 -0.8592
 7597SOL     OW34423   3.698   0.254   5.042 -0.0132  0.0714  0.3543
 7597SOL    HW134424   3.616   0.293   5.012  1.5951  3.0258 -0.2150
 7597SOL    HW234425   3.759   0.283   4.974 -1.5437  4.4465  0.9131
 7598SOL     OW34426   0.376   1.851   1.865  0.1050  0.3522  0.5284
 7598SOL    HW134427   0.377   1.946   1.872 -1.8166  0.4059 -0.0891
 7598SOL    HW234428   0.457   1.834   1.818 -0.3022  0.8605 -0.3493
 7599SOL     OW34429   1.515   2.434   9.325  0.0747 -0.0076  0.2706
 7599SOL    HW134430   1.546   2.465   9.411 -1.8609 -0.9043  1.2818
 7599SOL    HW234431   1.457   2.506   9.301  0.1828 -0.3152 -0.8965
 7600SOL     OW34432   0.359   2.564  16.237  0.1539 -0.2347 -0.0700
 7600SOL    HW134433   0.358   2.494  16.303 -3.4347 -0.8786 -0.8263
 7600SOL    HW234434   0.309   2.632  16.281 -0.2319 -0.5720  0.0151
 7601SOL     OW34435   0.897   4.489   7.624 -0.6863  0.2859 -0.2513
 7601SOL    HW134436   0.885   4.582   7.640  1.4196  0.2690  1.3549
 7601SOL    HW234437   0.992   4.479   7.619 -0.6216  0.4978  0.5836
 7602SOL     OW34438   2.459   1.830  12.333 -0.3580 -0.9720  0.2793
 7602SOL    HW134439   2.480   1.841  12.240 -1.3652 -0.7535  0.0697
 7602SOL    HW234440   2.477   1.736  12.328  0.1788 -0.9489  1.7574
 7603SOL     OW34441   1.533   2.802   7.398  0.0929 -0.2901  0.4285
 7603SOL    HW134442   1.526   2.712   7.365  0.4254 -1.2822  3.0448
 7603SOL    HW234443   1.597   2.837   7.336 -0.2498  0.3102  0.4197
 7604SOL     OW34444   2.072   3.741   3.046 -0.1214  0.0641 -0.5808
 7604SOL    HW134445   2.094   3.653   3.018  0.1618 -0.1613  0.3633
 7604SOL    HW234446   2.079   3.734   3.141 -0.6044 -3.2257 -0.8104
 7605SOL     OW34447   4.315   1.433  11.772 -0.0020 -0.8567 -0.0293
 7605SOL    HW134448   4.316   1.447  11.677 -1.0553  0.0933  0.1023
 7605SOL    HW234449   4.358   1.515  11.796 -1.3403 -0.5411  1.2664
 7606SOL     OW34450   1.830   4.041   6.206  0.3215 -0.1359 -0.3384
 7606SOL    HW134451   1.788   4.126   6.194  0.6492  0.2188  1.0255
 7606SOL    HW234452   1.810   4.023   6.298  1.6887  0.4816  0.0765
 7607SOL     OW34453   3.194   1.059   3.205  0.1098  0.0938 -0.1378
 7607SOL    HW134454   3.220   0.972   3.235 -0.5429  0.7100  2.2300
 7607SOL    HW234455   3.214   1.057   3.111  0.1895 -0.4185 -0.1085
 7608SOL     OW34456   3.883   4.186   9.405  0.7015  0.2183  0.0504
 7608SOL    HW134457   3.966   4.231   9.389  0.6003  0.3227 -0.1962
 7608SOL    HW234458   3.920   4.141   9.481  0.6496 -0.4625 -0.3217
 7609SOL     OW34459   4.124   3.778   3.969 -0.5601  0.3986 -0.2699
 7609SOL    HW134460   4.156   3.807   4.054  1.3558 -0.4106 -0.7354
 7609SOL    HW234461   4.189   3.713   3.943 -4.9664 -3.6909 -1.1936
 7610SOL     OW34462   2.384   2.285   3.998  0.3749  0.0631 -0.1759
 7610SOL    HW134463   2.440   2.213   4.029  0.2067 -1.1018 -2.5962
 7610SOL    HW234464   2.401   2.355   4.061 -1.0601 -0.5194  0.8827
 7611SOL     OW34465   3.580   2.430  12.792  0.1371 -0.0484  0.2863
 7611SOL    HW134466   3.676   2.436  12.796 -0.0535  2.8043  0.2866
 7611SOL    HW234467   3.572   2.373  12.715  1.2751  0.8022 -0.4766
 7612SOL     OW34468   0.495   1.261   6.547 -0.3217 -0.4201  0.3025
 7612SOL    HW134469   0.574   1.258   6.493  1.1956 -1.8337  2.5957
 7612SOL    HW234470   0.530   1.284   6.633  3.2238 -1.4492 -0.8551
 7613SOL     OW34471   2.688   3.326   7.953  0.1359 -0.0851  0.1646
 7613SOL    HW134472   2.651   3.392   8.012  2.0338  0.7529  0.4360
 7613SOL    HW234473   2.753   3.383   7.911 -1.7403  0.6592 -1.6879
 7614SOL     OW34474   2.017   4.723   1.857  0.0839  0.1714  0.4673
 7614SOL    HW134475   2.050   0.056   1.795  0.7198 -1.4623 -0.9020
 7614SOL    HW234476   2.085   4.705   1.921  0.4608 -0.9322 -0.2472
 7615SOL     OW34477   3.614   1.580   9.278 -0.1922  0.3888 -0.0950
 7615SOL    HW134478   3.658   1.511   9.327  0.4836  0.3545 -0.7429
 7615SOL    HW234479   3.581   1.628   9.354  0.4466 -0.7952  0.9358
 7616SOL     OW34480   1.076   3.249   8.301  0.0993  0.1692 -0.1415
 7616SOL    HW134481   1.091   3.302   8.379  3.0366  2.0404 -1.9866
 7616SOL    HW234482   1.154   3.272   8.251 -0.0085 -1.3009 -0.9798
 7617SOL     OW34483   2.787   0.682   1.035 -0.0021 -0.0105 -0.2571
 7617SOL    HW134484   2.721   0.750   1.022 -1.0000 -0.9116  0.0828
 7617SOL    HW234485   2.824   0.713   1.118 -3.4655 -0.1032  1.3637
 7618SOL     OW34486   4.489   2.821   3.852  0.1580  0.3419 -0.1782
 7618SOL    HW134487   4.561   2.864   3.807 -0.2416 -1.4074 -2.4645
 7618SOL    HW234488   4.475   2.750   3.789  0.4714 -1.0769  1.3447
 7619SOL     OW34489   1.002   3.409   5.664 -0.3949  0.0410  0.4753
 7619SOL    HW134490   1.068   3.407   5.595  0.7315 -0.9413  1.5727
 7619SOL    HW234491   1.049   3.459   5.731 -1.1267  0.2208  0.8677
 7620SOL     OW34492   4.355   4.181  15.166 -0.3851 -0.3392 -0.2901
 7620SOL    HW134493   4.341   4.253  15.105 -3.5568 -0.3524  0.4590
 7620SOL    HW234494   4.410   4.217  15.236  0.7982 -2.4839 -0.1083
 7621SOL     OW34495   2.819   0.112  13.639 -0.2054  0.3040  0.2690
 7621SOL    HW134496   2.861   0.033  13.672  0.4984 -0.4157 -2.3622
 7621SOL    HW234497   2.844   0.118  13.547 -0.9506 -0.6071 -0.0017
 7622SOL     OW34498   1.215   2.998   3.842 -0.0534 -0.7169 -0.4312
 7622SOL    HW134499   1.127   3.032   3.862 -0.1888 -2.0005  1.1137
 7622SOL    HW234500   1.190   2.911   3.871  0.3039 -0.4355  0.7260
 7623SOL     OW34501   1.475   3.512   7.150  0.2588  0.0565  0.1519
 7623SOL    HW134502   1.392   3.472   7.175  0.2789  0.6182  1.1215
 7623SOL    HW234503   1.530   3.503   7.228 -0.1793  0.9050  0.5603
 7624SOL     OW34504   0.127   4.611   4.781  0.4827  0.6164 -0.3428
 7624SOL    HW134505   0.101   4.521   4.761  0.9514 -0.2554  2.9801
 7624SOL    HW234506   0.205   4.597   4.834  1.5428 -0.3889 -2.1865
 7625SOL     OW34507   4.674   3.601   6.897 -0.7196 -0.0484 -0.2751
 7625SOL    HW134508   4.717   3.679   6.932 -1.5000 -0.0717  0.7347
 7625SOL    HW234509   4.597   3.633   6.849  0.1696  2.5845  0.0354
 7626SOL     OW34510   3.570   2.062   2.845  0.3074 -0.0963 -0.1258
 7626SOL    HW134511   3.583   1.978   2.890  1.2948 -0.6433 -1.4215
 7626SOL    HW234512   3.590   2.040   2.754 -1.5595  2.4551 -1.1382
 7627SOL     OW34513   1.543   3.184   0.448 -0.4428  0.2613  0.0980
 7627SOL    HW134514   1.453   3.162   0.471  0.3991 -1.8403  1.3790
 7627SOL    HW234515   1.588   3.186   0.532 -0.2532 -0.7251  0.0233
 7628SOL     OW34516   1.793   4.555   1.899 -0.0572 -0.1370  0.5594
 7628SOL    HW134517   1.870   4.577   1.846  0.8611 -2.1717  1.0606
 7628SOL    HW234518   1.738   4.519   1.829  1.0798  1.6661 -1.2642
 7629SOL     OW34519   0.691   0.599   7.499  0.8997  0.9227  0.2231
 7629SOL    HW134520   0.612   0.652   7.494  0.7164  0.6926  0.7565
 7629SOL    HW234521   0.714   0.625   7.588 -2.8913  1.0004  1.1872
 7630SOL     OW34522   4.248   0.784   3.307  0.5119  0.2083 -0.4794
 7630SOL    HW134523   4.239   0.807   3.400  2.3932  0.3586 -0.3411
 7630SOL    HW234524   4.195   0.857   3.275 -0.6037  0.5964  2.2081
 7631SOL     OW34525   4.609   1.066  13.168 -0.0363 -0.2733 -0.1648
 7631SOL    HW134526   4.545   1.129  13.199 -1.3322 -1.0515 -1.2223
 7631SOL    HW234527   4.689   1.117  13.160  0.3093 -0.8369 -0.2868
 7632SOL     OW34528   3.365   0.678   5.219  0.1715 -0.1272  0.1640
 7632SOL    HW134529   3.345   0.635   5.136  1.4153 -0.6476  0.1448
 7632SOL    HW234530   3.275   0.709   5.233  0.0808  0.0344 -0.8061
 7633SOL     OW34531   0.721   0.318   2.135 -0.4254  0.0102 -0.2187
 7633SOL    HW134532   0.636   0.281   2.108 -0.6512  0.5112 -0.1942
 7633SOL    HW234533   0.780   0.254   2.095  2.1612  1.9998  0.4252
 7634SOL     OW34534   1.620   3.032   6.547 -0.1470 -0.2727  0.2326
 7634SOL    HW134535   1.713   3.046   6.561  0.2120  1.1149 -3.5464
 7634SOL    HW234536   1.601   3.017   6.639 -0.1880 -0.4223  0.1995
 7635SOL     OW34537   0.413   3.450   2.322 -0.3875  0.5504  0.0572
 7635SOL    HW134538   0.421   3.413   2.410  1.1016  0.6555 -0.0392
 7635SOL    HW234539   0.472   3.525   2.324  0.9294 -0.4835  0.1340
 7636SOL     OW34540   3.944   3.437   3.405  0.0997  0.3525  0.6870
 7636SOL    HW134541   3.943   3.343   3.391  2.0397 -0.0085  3.1722
 7636SOL    HW234542   3.928   3.442   3.499 -0.9539  0.5538  0.5062
 7637SOL     OW34543   4.350   3.915   1.733  0.2077  0.0640 -0.3133
 7637SOL    HW134544   4.277   3.863   1.697 -0.6134  0.5960  0.5792
 7637SOL    HW234545   4.309   3.963   1.805  0.6636  1.0420 -0.7092
 7638SOL     OW34546   1.768   0.984  16.309  0.1045  0.3817  0.3728
 7638SOL    HW134547   1.803   1.067  16.277  0.5722  0.5651  1.3866
 7638SOL    HW234548   1.791   0.914  16.248 -1.2451  0.6883 -0.5082
 7639SOL     OW34549   4.011   2.044   7.249 -0.1337  0.0140 -0.3108
 7639SOL    HW134550   4.078   1.977   7.264  0.5242  1.2447  2.2640
 7639SOL    HW234551   3.985   2.031   7.158  2.4342 -0.5168 -0.9608
 7640SOL     OW34552   1.994   3.875   9.643  0.2110  0.0172  0.6336
 7640SOL    HW134553   1.951   3.949   9.601  0.9755  0.5373  0.7587
 7640SOL    HW234554   2.086   3.903   9.634 -1.1809  3.7378 -2.2012
 7641SOL     OW34555   0.886   1.782   2.574 -0.4532 -0.5819  0.1815
 7641SOL    HW134556   0.863   1.705   2.523 -2.1950 -0.0885  0.2383
 7641SOL    HW234557   0.968   1.803   2.529  0.0228 -1.3910  0.6770
 7642SOL     OW34558   2.852   2.446   0.905  0.0018  0.2106  0.2092
 7642SOL    HW134559   2.848   2.542   0.908  1.3932  0.2775 -0.2753
 7642SOL    HW234560   2.775   2.410   0.860  1.6802 -1.4028 -1.3467
 7643SOL     OW34561   4.071   3.215  12.691  0.5290  0.5482  0.6593
 7643SOL    HW134562   4.140   3.170  12.738  0.3826 -1.1494 -0.7629
 7643SOL    HW234563   4.008   3.155  12.652  2.2381 -0.3425 -0.7118
 7644SOL     OW34564   2.533   2.455   4.183 -0.0202 -0.0969  0.4701
 7644SOL    HW134565   2.605   2.482   4.126 -0.4468 -1.9797 -0.9490
 7644SOL    HW234566   2.576   2.409   4.254  0.4756 -1.3840 -0.6740
 7645SOL     OW34567   2.544   1.333  15.665  0.0387  0.6390  0.0358
 7645SOL    HW134568   2.462   1.300  15.630  1.9996 -3.4655 -0.7586
 7645SOL    HW234569   2.536   1.426  15.647 -1.3210  0.6846  0.9306
 7646SOL     OW34570   4.047   4.134  12.089  0.4087 -0.5647  0.2551
 7646SOL    HW134571   4.057   4.080  12.168  2.3324  0.9611  1.0614
 7646SOL    HW234572   4.018   4.209  12.141  1.8827 -1.8330  2.9429
 7647SOL     OW34573   3.651   3.173   8.813 -0.0344 -0.2071 -0.1799
 7647SOL    HW134574   3.679   3.099   8.758  3.5204  0.6225  0.4730
 7647SOL    HW234575   3.616   3.230   8.744  0.4131  2.2892  1.6639
 7648SOL     OW34576   0.100   0.046   2.134  0.4347 -0.2892  0.1250
 7648SOL    HW134577   0.107   0.140   2.155  1.1699 -0.5684  1.1600
 7648SOL    HW234578   0.186   0.031   2.094  1.2522  1.2551  1.2669
 7649SOL     OW34579   0.096   0.697   9.615  0.0553  0.0694  0.3343
 7649SOL    HW134580   0.148   0.726   9.690  0.0117  0.8946  0.0409
 7649SOL    HW234581   0.071   0.777   9.569  2.4576  0.6445  0.0487
 7650SOL     OW34582   0.874   2.828   7.995 -0.3714  0.0204 -0.0993
 7650SOL    HW134583   0.804   2.773   7.961  0.3967 -0.2753 -1.1997
 7650SOL    HW234584   0.828   2.910   8.010 -1.7540 -0.3971 -2.0750
 7651SOL     OW34585   1.538   1.798  15.695  0.1315 -0.3823  0.2979
 7651SOL    HW134586   1.529   1.893  15.689  0.2053 -0.3118  1.3711
 7651SOL    HW234587   1.563   1.784  15.604 -2.0915  0.1298 -0.3934
 7652SOL     OW34588   0.527   2.830  13.194 -0.7659 -0.4620 -0.3193
 7652SOL    HW134589   0.545   2.888  13.120 -0.0017  0.1102  0.3153
 7652SOL    HW234590   0.584   2.753  13.181 -2.7637 -1.5121 -2.9317
 7653SOL     OW34591   0.336   4.558   2.232  0.5484 -0.2420 -0.2377
 7653SOL    HW134592   0.314   4.471   2.266 -1.9150  0.1234 -0.8954
 7653SOL    HW234593   0.311   4.548   2.140 -2.3002 -1.1392  0.6393
 7654SOL     OW34594   1.274   4.694  17.056 -0.3894  0.1744 -0.5436
 7654SOL    HW134595   1.195   4.684  17.002 -3.1214  2.9318  2.9621
 7654SOL    HW234596   1.274   4.604  17.087 -0.4267 -0.1619 -1.4992
 7655SOL     OW34597   2.141   2.891  17.109  0.3981  0.6008 -0.6841
 7655SOL    HW134598   2.183   2.948  17.173  1.6581 -1.7716  0.5752
 7655SOL    HW234599   2.096   2.821  17.157  0.8363 -0.1638 -1.3916
 7656SOL     OW34600   3.531   2.655   6.375 -0.1572  0.4048 -0.3194
 7656SOL    HW134601   3.497   2.566   6.368  0.5532  0.3232 -3.0050
 7656SOL    HW234602   3.521   2.674   6.281  1.7143  1.0741 -0.3798
 7657SOL     OW34603   2.777   3.830  17.327 -0.2288  0.1668 -0.1516
 7657SOL    HW134604   2.720   3.863  17.258  0.0540  0.0129 -0.4533
 7657SOL    HW234605   2.715   3.825  17.400  0.0547 -0.2223  0.0608
 7658SOL     OW34606   0.008   0.861   1.858 -0.1055 -0.1700 -0.2796
 7658SOL    HW134607   4.678   0.802   1.900 -0.3321  0.3457  0.1113
 7658SOL    HW234608   4.722   0.936   1.915  0.4892  1.2231 -1.9236
 7659SOL     OW34609   4.310   0.123   4.744  0.6039 -0.0205  0.2687
 7659SOL    HW134610   4.361   0.182   4.688 -0.0438 -1.0321 -1.3736
 7659SOL    HW234611   4.243   0.101   4.680  1.3594 -0.3492 -0.4073
 7660SOL     OW34612   3.285   4.095   0.145  0.2795  0.3991 -0.2716
 7660SOL    HW134613   3.303   4.034   0.073 -0.9765  1.8560 -1.8194
 7660SOL    HW234614   3.322   4.046   0.218 -1.8394  0.4692  0.8376
 7661SOL     OW34615   1.457   0.458   3.533  0.1543  0.1942  0.5241
 7661SOL    HW134616   1.527   0.422   3.479 -2.0820  0.5169 -2.5776
 7661SOL    HW234617   1.382   0.474   3.476  0.3360  0.7395  0.4312
 7662SOL     OW34618   0.018   2.248   2.090  0.3946  0.0639 -0.0857
 7662SOL    HW134619   0.013   2.241   2.186  3.7744 -2.5400 -0.0985
 7662SOL    HW234620   0.020   2.155   2.069 -0.0232 -0.0001  0.1511
 7663SOL     OW34621   3.646   0.961   0.763 -0.5311 -0.1726 -0.1062
 7663SOL    HW134622   3.588   0.914   0.703 -0.7627 -0.3460  0.2568
 7663SOL    HW234623   3.731   0.925   0.737 -0.2173 -0.7023  1.6353
 7664SOL     OW34624   2.952   2.876   6.011  0.0855 -0.0366 -0.0932
 7664SOL    HW134625   2.900   2.868   5.931  2.1311  1.2210 -1.5601
 7664SOL    HW234626   2.895   2.848   6.082 -0.0997  1.5620  0.3868
 7665SOL     OW34627   0.083   3.125  11.578  0.3816  0.0722  0.3565
 7665SOL    HW134628   0.137   3.091  11.507 -0.0846  0.3979 -0.1577
 7665SOL    HW234629   0.154   3.138  11.640  1.5197  0.4816 -1.0376
 7666SOL     OW34630   2.179   2.723   7.076 -0.4638  0.6387  0.2076
 7666SOL    HW134631   2.127   2.706   7.155  1.1387 -0.1224  1.0973
 7666SOL    HW234632   2.267   2.730   7.114 -0.1856 -1.8287  0.0388
 7667SOL     OW34633   0.461   4.563   8.404  0.6134  0.0399 -0.0655
 7667SOL    HW134634   0.388   4.576   8.464  2.0870  1.4710  1.4258
 7667SOL    HW234635   0.502   4.649   8.390 -0.2839  0.5018  0.1575
 7668SOL     OW34636   3.223   0.057   8.225  0.3947 -0.1362 -0.4219
 7668SOL    HW134637   3.213   0.148   8.253 -1.6015 -1.0163  1.7386
 7668SOL    HW234638   3.154   0.016   8.277 -0.6009  0.3183 -1.3961
 7669SOL     OW34639   0.214   3.814   1.981  0.2052  0.1955 -0.5935
 7669SOL    HW134640   0.279   3.860   1.928  0.1132  0.4726 -0.4676
 7669SOL    HW234641   0.185   3.750   1.916  2.3971  0.2678 -1.6423
 7670SOL     OW34642   2.134   4.505   9.077  0.3310 -0.5344  0.1297
 7670SOL    HW134643   2.133   4.542   9.165 -3.1851  1.0112 -0.5667
 7670SOL    HW234644   2.182   4.576   9.034 -0.7023  0.1645  0.1554
 7671SOL     OW34645   4.417   1.813   6.239 -0.5880 -0.0352 -0.0776
 7671SOL    HW134646   4.375   1.839   6.321 -1.4308  1.3804 -0.9290
 7671SOL    HW234647   4.502   1.774   6.253 -0.6287  0.1562  0.6944
 7672SOL     OW34648   3.157   1.936   5.740  1.0576 -0.2245 -0.1077
 7672SOL    HW134649   3.245   1.966   5.719  0.8715 -0.4162 -1.1682
 7672SOL    HW234650   3.098   1.990   5.688 -0.6915 -1.5817  0.4314
 7673SOL     OW34651   4.009   3.011   6.612 -0.1075  0.1257 -0.3415
 7673SOL    HW134652   4.032   2.931   6.565  0.5939 -0.6443  1.3368
 7673SOL    HW234653   3.930   3.047   6.571 -1.7449 -0.8567  1.9312
 7674SOL     OW34654   2.125   1.837  16.334 -0.5278  0.0910  0.0192
 7674SOL    HW134655   2.173   1.762  16.369  0.6157  0.9239  0.2536
 7674SOL    HW234656   2.108   1.797  16.249 -1.2931 -1.1453  0.7508
 7675SOL     OW34657   1.415   3.995   0.730  0.0266 -0.0902 -0.1206
 7675SOL    HW134658   1.431   4.006   0.824  1.9332 -0.8044 -0.3678
 7675SOL    HW234659   1.504   3.996   0.693 -0.4323 -1.1045 -1.2387
 7676SOL     OW34660   1.319   1.260   0.490 -0.4113 -0.3012 -0.4339
 7676SOL    HW134661   1.316   1.224   0.579  1.2643 -0.2990 -0.3762
 7676SOL    HW234662   1.382   1.331   0.504 -0.0599 -0.5643 -0.6733
 7677SOL     OW34663   3.624   1.678   0.619 -0.3218 -0.0908 -0.1478
 7677SOL    HW134664   3.549   1.700   0.564 -0.1765  1.2956  0.1822
 7677SOL    HW234665   3.691   1.737   0.584  0.2599 -0.3962  0.4488
 7678SOL     OW34666   2.415   3.513   2.436 -1.4290  0.1784  0.1434
 7678SOL    HW134667   2.495   3.551   2.398 -2.1537  0.3707 -1.1796
 7678SOL    HW234668   2.452   3.431   2.470  0.5004  0.5246 -1.0953
 7679SOL     OW34669   2.148   4.662   3.422  0.6661  0.0031  0.3265
 7679SOL    HW134670   2.146   4.691   3.331  2.3985 -1.4076 -0.1457
 7679SOL    HW234671   2.171   0.011   3.467  0.6475 -0.8820  1.9322
 7680SOL     OW34672   3.133   3.591  10.698  0.8975 -0.4474  0.3408
 7680SOL    HW134673   3.156   3.615  10.608 -1.4167 -0.2785 -0.2064
 7680SOL    HW234674   3.062   3.655  10.711  0.7597 -0.1962 -1.5737
 7681SOL     OW34675   3.277   4.007   8.762 -0.0785  0.1857  0.0491
 7681SOL    HW134676   3.224   3.984   8.838 -0.7029 -0.0041 -0.4400
 7681SOL    HW234677   3.363   4.023   8.801 -0.2081 -0.7781  0.7208
 7682SOL     OW34678   2.330   0.684  12.437  0.0011  0.9254 -0.3046
 7682SOL    HW134679   2.403   0.712  12.493  0.6230 -0.3098 -0.4943
 7682SOL    HW234680   2.296   0.603  12.474  3.4891  0.3049  1.5527
 7683SOL     OW34681   4.721   1.832  13.162  0.3002  0.1828  0.2388
 7683SOL    HW134682   4.648   1.894  13.167 -0.2531 -0.3878 -0.8572
 7683SOL    HW234683   0.063   1.877  13.121 -1.3924  2.8897  0.1708
 7684SOL     OW34684   4.295   1.894   0.475  0.5132  0.1847 -0.2949
 7684SOL    HW134685   4.378   1.876   0.432 -0.8095 -1.6026 -2.1234
 7684SOL    HW234686   4.306   1.846   0.557 -2.5013  2.5304  1.5025
 7685SOL     OW34687   4.501   1.657   2.769  0.1713 -0.4766 -0.0957
 7685SOL    HW134688   4.498   1.571   2.728  3.9077 -0.6157 -0.0199
 7685SOL    HW234689   4.489   1.632   2.861 -1.6102 -1.7053 -0.6672
 7686SOL     OW34690   1.789   2.261   3.679  0.1999 -0.0918 -0.0920
 7686SOL    HW134691   1.880   2.282   3.663 -0.1105  1.4060  0.1368
 7686SOL    HW234692   1.756   2.248   3.590 -5.5809 -1.8134  2.2939
 7687SOL     OW34693   0.578   0.581   5.983 -0.2147  0.1045  0.4124
 7687SOL    HW134694   0.598   0.501   6.033 -1.5794 -0.4939 -0.0113
 7687SOL    HW234695   0.486   0.599   6.000 -0.5763 -0.0009 -1.4620
 7688SOL     OW34696   0.455   1.181  12.370  0.3956  0.7235 -0.2693
 7688SOL    HW134697   0.431   1.175  12.278 -0.0562  2.8989 -0.2950
 7688SOL    HW234698   0.550   1.196  12.377  0.6256 -1.0676  0.3065
 7689SOL     OW34699   0.743   4.095   1.870 -0.0188  0.6267 -0.5885
 7689SOL    HW134700   0.649   4.104   1.857 -0.2482 -1.7111 -0.5828
 7689SOL    HW234701   0.765   4.046   1.791  2.9412 -1.0312  1.2336
 7690SOL     OW34702   0.079   4.456   9.881 -0.1553  0.2772 -0.2811
 7690SOL    HW134703   0.144   4.526   9.878  1.0111 -0.6141  3.8677
 7690SOL    HW234704   0.139   4.387   9.910 -0.4534  0.5899  1.0745
 7691SOL     OW34705   1.824   4.501   3.152 -0.3379 -0.1510 -0.5159
 7691SOL    HW134706   1.821   4.511   3.247  1.9658  0.7100 -0.5458
 7691SOL    HW234707   1.905   4.449   3.150 -1.4462 -1.9357  0.6755
 7692SOL     OW34708   0.801   3.739  15.918  0.3000 -0.5085  0.1344
 7692SOL    HW134709   0.830   3.750  16.009 -1.3847  1.3633  0.4622
 7692SOL    HW234710   0.881   3.764  15.872 -0.0049  0.2390  0.0125
 7693SOL     OW34711   2.495   2.752  10.739  0.0997  0.1721 -0.2489
 7693SOL    HW134712   2.472   2.806  10.815  1.6148  0.6409 -0.1205
 7693SOL    HW234713   2.581   2.790  10.722 -0.4065  0.4019 -2.3396
 7694SOL     OW34714   1.604   4.697   0.379 -0.4460 -0.2777  0.1988
 7694SOL    HW134715   1.644   4.612   0.363  3.7270  1.4259  1.4001
 7694SOL    HW234716   1.578   4.680   0.470 -0.3428  1.4384  0.5575
 7695SOL     OW34717   2.201   4.233   2.164 -0.5276  0.0960 -0.2776
 7695SOL    HW134718   2.150   4.211   2.242 -1.1613  0.6055 -0.5511
 7695SOL    HW234719   2.262   4.160   2.172 -0.8513 -0.2408 -0.8663
 7696SOL     OW34720   2.231   2.784   3.304 -0.2163 -1.1821 -0.4601
 7696SOL    HW134721   2.324   2.775   3.284 -0.7568 -0.1385 -3.4260
 7696SOL    HW234722   2.215   2.867   3.259  0.3100  0.5789  2.5913
 7697SOL     OW34723   4.440   0.285  10.935  0.3893 -0.4170  0.2949
 7697SOL    HW134724   4.527   0.269  10.972  0.2618  1.0379  1.2631
 7697SOL    HW234725   4.408   0.357  10.989 -0.2012 -1.2253  1.0199
 7698SOL     OW34726   1.841   4.094   1.377  0.6841 -0.6531  0.3381
 7698SOL    HW134727   1.861   4.165   1.316  0.3036  0.1004  1.0916
 7698SOL    HW234728   1.924   4.047   1.385  1.1178  0.5322  2.6747
 7699SOL     OW34729   2.165   2.356   5.836  0.1127  0.0172  0.3553
 7699SOL    HW134730   2.254   2.373   5.805 -0.1384  1.8605  0.6391
 7699SOL    HW234731   2.174   2.387   5.926 -1.8444  2.5513 -0.3077
 7700SOL     OW34732   0.759   3.688  14.786  0.3559  0.1917 -0.0195
 7700SOL    HW134733   0.736   3.744  14.860  0.4838  0.0926  0.0950
 7700SOL    HW234734   0.778   3.759  14.724 -1.3867  0.1307 -0.6284
 7701SOL     OW34735   4.240   0.000   7.550 -0.4423  0.1542  0.4212
 7701SOL    HW134736   4.171   4.732   7.484 -0.7769  0.5835  0.7670
 7701SOL    HW234737   4.193   4.687   7.620 -2.2509 -0.8132 -1.4181
 7702SOL     OW34738   3.804   0.740  10.690  0.4241 -0.0428 -0.1473
 7702SOL    HW134739   3.790   0.785  10.774  0.1967  1.6650 -1.0994
 7702SOL    HW234740   3.774   0.813  10.636 -0.3210 -1.1118 -1.1738
 7703SOL     OW34741   0.762   1.995   6.658 -0.1749 -0.4036  0.0666
 7703SOL    HW134742   0.739   2.037   6.741 -4.3624  0.2425 -1.4272
 7703SOL    HW234743   0.819   2.063   6.622 -2.6474  1.0958 -0.9934
 7704SOL     OW34744   2.223   3.931   7.149  0.0809 -0.0640 -0.2873
 7704SOL    HW134745   2.276   3.952   7.073  0.0011 -1.6067 -0.7718
 7704SOL    HW234746   2.254   3.995   7.213  0.1865 -1.1840  0.7918
 7705SOL     OW34747   3.891   0.001   3.951  0.2885  0.1855 -0.4012
 7705SOL    HW134748   3.809   0.026   3.994 -1.1012 -3.3361 -1.0091
 7705SOL    HW234749   3.950   0.012   4.026  0.8626 -0.0595 -0.8167
 7706SOL     OW34750   2.411   4.077   9.245 -0.2383  0.3769 -0.1211
 7706SOL    HW134751   2.333   4.022   9.248  0.8205 -1.1801 -1.2396
 7706SOL    HW234752   2.399   4.121   9.329 -0.2789 -1.5521  0.8800
 7707SOL     OW34753   4.454   3.048   5.679  0.1522 -0.6448  0.2567
 7707SOL    HW134754   4.548   3.038   5.661 -0.2352 -0.0259 -2.1888
 7707SOL    HW234755   4.449   3.123   5.738 -0.4458 -0.8205  0.4255
 7708SOL     OW34756   3.849   3.080  11.247  0.1204  0.0124 -0.9715
 7708SOL    HW134757   3.894   3.164  11.246  0.4376 -0.1366  0.5238
 7708SOL    HW234758   3.768   3.090  11.297  1.6159 -0.4113  1.5612
 7709SOL     OW34759   4.224   0.550   7.723 -0.0047 -0.2604  0.0773
 7709SOL    HW134760   4.304   0.498   7.713  0.9005  1.1407 -0.0368
 7709SOL    HW234761   4.243   0.592   7.806 -1.1183  1.1220 -0.3715
 7710SOL     OW34762   0.179   1.414   5.854 -0.0259 -0.1513  0.3094
 7710SOL    HW134763   0.159   1.321   5.841 -0.9641 -0.0552  1.0439
 7710SOL    HW234764   0.269   1.421   5.886 -0.1723  0.2809  0.6191
 7711SOL     OW34765   0.583   3.084   0.268  0.2250 -0.5280  0.0110
 7711SOL    HW134766   0.498   3.099   0.310  1.2080  1.5175  1.2605
 7711SOL    HW234767   0.619   3.173   0.264 -0.0176 -0.4068  0.5338
 7712SOL     OW34768   1.024   1.188  17.352 -0.0831  0.1272 -0.0565
 7712SOL    HW134769   1.059   1.171  17.265 -0.9767  1.0413 -0.6045
 7712SOL    HW234770   0.976   1.269  17.335 -1.6044 -1.2872 -2.4786
 7713SOL     OW34771   3.447   2.378   9.080 -0.0050  0.0008  0.1682
 7713SOL    HW134772   3.381   2.447   9.088  0.5764  0.5417  0.3113
 7713SOL    HW234773   3.526   2.431   9.074  0.1543 -0.2527  0.0284
 7714SOL     OW34774   2.880   1.898   5.233  0.0447  0.5845  0.5131
 7714SOL    HW134775   2.900   1.991   5.231 -1.2690  0.8506 -0.7050
 7714SOL    HW234776   2.790   1.897   5.200  0.3553 -0.2914 -0.3218
 7715SOL     OW34777   2.760   0.324   5.373  0.2085  0.0690 -0.3432
 7715SOL    HW134778   2.706   0.266   5.319  0.5237 -1.1004  0.5867
 7715SOL    HW234779   2.758   0.276   5.456  1.4444  1.5005  0.4944
 7716SOL     OW34780   2.653   1.485   6.830  0.1899  0.1908  0.2794
 7716SOL    HW134781   2.696   1.400   6.823 -0.3656 -0.2033  1.5466
 7716SOL    HW234782   2.562   1.462   6.849 -0.8294  2.0627 -2.4840
 7717SOL     OW34783   3.594   2.105  12.324 -0.5648 -0.2290  0.5094
 7717SOL    HW134784   3.586   2.011  12.342  0.7901 -0.5813 -0.7190
 7717SOL    HW234785   3.685   2.102  12.295 -1.2014 -1.9289 -1.3091
 7718SOL     OW34786   1.314   1.480   6.982  1.0609  0.0063  0.0007
 7718SOL    HW134787   1.360   1.398   6.999  3.7711  1.7567  1.0063
 7718SOL    HW234788   1.300   1.470   6.888  0.2718 -0.4680  0.1715
 7719SOL     OW34789   2.704   4.251   8.337  0.4998  0.1482 -0.4447
 7719SOL    HW134790   2.641   4.317   8.311 -0.3174 -0.8520 -1.0026
 7719SOL    HW234791   2.734   4.286   8.421 -2.6344 -2.5073  1.7702
 7720SOL     OW34792   1.110   0.619   9.206  0.2442 -0.1199  0.2994
 7720SOL    HW134793   1.149   0.577   9.130 -0.6092 -1.5249  0.6307
 7720SOL    HW234794   1.192   0.649   9.245  1.2111 -0.9574 -1.1139
 7721SOL     OW34795   4.619   0.388   8.422  0.0275 -0.0093  0.1234
 7721SOL    HW134796   4.691   0.422   8.475  0.7897 -1.5191  0.0610
 7721SOL    HW234797   4.666   0.316   8.381 -0.5502 -1.5683  2.2214
 7722SOL     OW34798   4.695   0.512   6.841  0.0632 -0.6044 -0.0704
 7722SOL    HW134799   0.043   0.516   6.894  1.3632 -2.8538 -1.9185
 7722SOL    HW234800   4.713   0.429   6.798 -0.9694 -1.1227  0.4850
 7723SOL     OW34801   0.617   2.022   3.339  0.5671 -0.4814 -0.1606
 7723SOL    HW134802   0.608   2.064   3.424  0.1718  0.6675 -0.7746
 7723SOL    HW234803   0.613   2.102   3.287  1.3439 -0.8694 -0.8066
 7724SOL     OW34804   4.241   1.525   4.960  0.6704  0.9705  0.2447
 7724SOL    HW134805   4.233   1.618   4.979  0.8901  1.2037 -0.8475
 7724SOL    HW234806   4.228   1.488   5.048 -0.8095 -1.7342 -1.0914
 7725SOL     OW34807   1.199   2.956  11.484 -0.4153 -0.7152  0.1325
 7725SOL    HW134808   1.273   2.896  11.480 -0.7784 -1.2370  1.5786
 7725SOL    HW234809   1.150   2.924  11.408  1.7883 -3.2415 -0.2121
 7726SOL     OW34810   2.677   3.244   6.729  1.1616 -0.2084  0.0172
 7726SOL    HW134811   2.716   3.306   6.668 -0.5704  0.0012 -0.8850
 7726SOL    HW234812   2.669   3.295   6.810  1.9571  0.7288 -0.5050
 7727SOL     OW34813   4.512   1.688   3.076  0.4522  0.3727  0.7486
 7727SOL    HW134814   4.539   1.740   3.151 -0.3236 -0.9681  1.9577
 7727SOL    HW234815   4.420   1.678   3.100  0.0281  0.0028 -1.0487
 7728SOL     OW34816   4.203   4.645   5.639 -0.4520 -0.1076 -0.1998
 7728SOL    HW134817   4.165   4.562   5.615  1.3371 -0.8200 -0.5947
 7728SOL    HW234818   4.267   4.616   5.704 -0.5820 -1.9338 -0.9056
 7729SOL     OW34819   0.170   4.685   0.811 -0.0316  0.1038 -0.1811
 7729SOL    HW134820   0.228   4.660   0.883 -2.2142 -2.2368  0.7568
 7729SOL    HW234821   0.228   4.721   0.744  1.0119  1.9528  1.6960
 7730SOL     OW34822   1.930   2.358   3.321 -0.2728  0.4606 -0.1281
 7730SOL    HW134823   1.858   2.309   3.363  0.6778  0.6638  1.7319
 7730SOL    HW234824   1.957   2.418   3.390  1.7146  1.7703 -2.0844
 7731SOL     OW34825   3.320   4.053  17.080 -0.5687  0.3315 -0.8358
 7731SOL    HW134826   3.380   3.979  17.082 -0.9603  0.0641  0.8612
 7731SOL    HW234827   3.373   4.104  17.019 -0.8979  1.0868 -0.4919
 7732SOL     OW34828   2.530   2.471   5.023  0.1132 -0.5512  0.2667
 7732SOL    HW134829   2.535   2.454   4.929 -2.7432 -0.3266  0.0831
 7732SOL    HW234830   2.487   2.556   5.022  1.1689 -0.0667 -2.4552
 7733SOL     OW34831   2.142   3.875  13.258 -0.4165 -0.3523  0.7375
 7733SOL    HW134832   2.114   3.813  13.191  1.8064 -1.3358  0.7302
 7733SOL    HW234833   2.094   3.854  13.339  1.0978 -0.4019  1.6276
 7734SOL     OW34834   1.194   0.255   1.264 -0.0787  0.4546 -0.1178
 7734SOL    HW134835   1.210   0.243   1.357 -0.0661  0.0176 -0.1766
 7734SOL    HW234836   1.276   0.302   1.250 -0.2988  0.6244 -0.8614
 7735SOL     OW34837   2.526   1.140   5.684  0.6843  0.1071 -0.2416
 7735SOL    HW134838   2.596   1.121   5.747 -0.5988 -0.7187  0.9320
 7735SOL    HW234839   2.567   1.184   5.610 -1.8650  2.7883 -0.0842
 7736SOL     OW34840   2.349   0.899   9.313  0.0409 -0.1322  0.5778
 7736SOL    HW134841   2.384   0.949   9.240 -3.6990  0.8989 -0.5318
 7736SOL    HW234842   2.297   0.960   9.366  0.4483 -0.2960  1.1739
 7737SOL     OW34843   0.654   0.915  14.893  0.2519 -0.2715  0.2315
 7737SOL    HW134844   0.736   0.891  14.937  1.5786  2.0195 -0.9922
 7737SOL    HW234845   0.692   0.973  14.828  0.1489  0.8761  1.2067
 7738SOL     OW34846   1.955   1.537   5.457 -0.1007  0.4342  0.6132
 7738SOL    HW134847   2.022   1.472   5.477 -0.1919 -0.0284 -0.5378
 7738SOL    HW234848   1.982   1.608   5.515  0.5927 -1.7650  2.9639
 7739SOL     OW34849   2.683   1.441   3.398 -0.2524 -0.3125  0.3692
 7739SOL    HW134850   2.649   1.362   3.438  1.0316 -0.3723  1.3422
 7739SOL    HW234851   2.599   1.488   3.398 -0.6118 -0.9549 -2.1234
 7740SOL     OW34852   0.688   4.633   5.318  0.4444  0.5125 -0.1630
 7740SOL    HW134853   0.666   4.611   5.227 -0.7074  1.4128 -0.0975
 7740SOL    HW234854   0.750   4.704   5.306 -0.1702  1.2583  1.1057
 7741SOL     OW34855   3.597   3.201   9.534  0.2663  0.2099 -0.4940
 7741SOL    HW134856   3.691   3.211   9.519  0.6951 -1.5170  0.9359
 7741SOL    HW234857   3.596   3.150   9.616  0.5242  0.8088 -0.1175
 7742SOL     OW34858   2.929   1.550   9.604  0.3767  1.1161 -0.3886
 7742SOL    HW134859   2.955   1.477   9.660  2.4416  3.0455  1.1881
 7742SOL    HW234860   2.925   1.489   9.530 -0.7265  1.2981 -0.4730
 7743SOL     OW34861   1.707   4.086   7.680  0.1114  0.5497  0.3357
 7743SOL    HW134862   1.644   4.157   7.670 -1.7949 -0.7348  3.1212
 7743SOL    HW234863   1.723   4.062   7.589 -1.4221  1.8260 -0.2748
 7744SOL     OW34864   4.237   2.314   2.115  0.2124  0.4216 -0.0892
 7744SOL    HW134865   4.178   2.340   2.185  1.2275 -1.2633  1.4048
 7744SOL    HW234866   4.205   2.224   2.108  0.5075  0.3534 -0.6177
 7745SOL     OW34867   2.271   1.706   4.748 -0.4636 -0.6180 -0.3654
 7745SOL    HW134868   2.176   1.699   4.740 -0.6263 -1.7574  2.5066
 7745SOL    HW234869   2.296   1.779   4.692 -2.7259  0.7057  0.3648
 7746SOL     OW34870   3.380   3.826  12.579  0.0460 -0.2755  0.0927
 7746SOL    HW134871   3.353   3.915  12.559  2.7502 -0.0194 -2.3426
 7746SOL    HW234872   3.423   3.801  12.497  1.2624  1.7023  0.1441
 7747SOL     OW34873   2.408   4.002   4.771  0.1540 -0.3171  0.0752
 7747SOL    HW134874   2.495   4.036   4.789 -1.2616  2.8913  0.9906
 7747SOL    HW234875   2.380   3.983   4.861 -3.3865  0.1050 -0.9133
 7748SOL     OW34876   4.586   1.756   2.491 -0.5664 -0.1072 -0.0727
 7748SOL    HW134877   4.641   1.700   2.545 -0.8523  0.3468  0.6955
 7748SOL    HW234878   4.522   1.691   2.464 -2.0946  2.3006 -2.3104
 7749SOL     OW34879   1.606   2.807  10.510 -0.5964 -0.2847 -0.3966
 7749SOL    HW134880   1.558   2.726  10.524  0.0670 -0.4635  0.8097
 7749SOL    HW234881   1.681   2.771  10.463  0.6541  0.5098  0.9694
 7750SOL     OW34882   0.633   1.973  15.509 -0.5770 -0.3827  0.4903
 7750SOL    HW134883   0.638   2.066  15.489  0.3940 -0.8068 -1.2848
 7750SOL    HW234884   0.696   1.947  15.442 -1.0183  0.0243 -0.0901
 7751SOL     OW34885   2.993   3.622  17.394  0.7534 -0.5827  0.4802
 7751SOL    HW134886   2.923   3.683  17.372 -0.4568 -0.7764  3.7637
 7751SOL    HW234887   3.001   3.568  17.315  0.6014 -0.3958  0.3371
 7752SOL     OW34888   4.454   4.222   2.459  0.1328  0.0115  0.5022
 7752SOL    HW134889   4.361   4.242   2.472  0.1955  0.9307 -0.4704
 7752SOL    HW234890   4.444   4.134   2.422 -0.3993  0.0522  0.5398
 7753SOL     OW34891   4.635   3.584   1.636 -0.6055  0.3375  0.1558
 7753SOL    HW134892   4.546   3.610   1.614 -1.7843 -1.8554  2.2523
 7753SOL    HW234893   4.613   3.501   1.679 -0.6861 -0.3514 -1.2179
 7754SOL     OW34894   1.298   4.472   8.630 -0.3504  0.0100  0.0838
 7754SOL    HW134895   1.265   4.513   8.709  1.6722 -0.5116  1.1839
 7754SOL    HW234896   1.250   4.392   8.651 -0.7517  0.2685  0.1546
 7755SOL     OW34897   0.097   3.013  14.025 -0.0423  0.3433 -0.6076
 7755SOL    HW134898   0.013   3.034  13.984  0.5830  2.9455 -0.5523
 7755SOL    HW234899   0.146   2.980  13.949  0.8037 -2.5601  1.1983
 7756SOL     OW34900   4.630   2.301   2.622  0.4282 -0.3558 -0.5515
 7756SOL    HW134901   4.552   2.282   2.674  0.7795 -1.0288 -0.2694
 7756SOL    HW234902   4.668   2.213   2.626  0.9714 -0.0880  0.0389
 7757SOL     OW34903   4.344   4.308   7.296 -0.0745 -0.2819 -0.6956
 7757SOL    HW134904   4.428   4.308   7.250  0.2017 -1.9061 -0.2012
 7757SOL    HW234905   4.369   4.299   7.388  0.8592 -1.6045 -1.0832
 7758SOL     OW34906   3.668   3.168  10.763  0.5976  0.2317 -0.1971
 7758SOL    HW134907   3.759   3.149  10.786 -0.0049 -2.4908 -0.0373
 7758SOL    HW234908   3.682   3.247  10.711 -1.8731  1.5518  1.0840
 7759SOL     OW34909   2.215   3.238  12.779  0.0233 -0.5434 -0.4917
 7759SOL    HW134910   2.215   3.334  12.772  0.6591 -0.6050 -1.2726
 7759SOL    HW234911   2.142   3.222  12.839 -0.3109  0.4051 -0.6436
 7760SOL     OW34912   0.189   0.810   1.230  0.5932  0.4274 -0.3563
 7760SOL    HW134913   0.095   0.801   1.217  0.5292 -1.8837  1.9740
 7760SOL    HW234914   0.208   0.898   1.195 -0.0631 -0.6535 -3.4558
 7761SOL     OW34915   2.452   3.036  11.955 -0.2144  0.1607  0.3636
 7761SOL    HW134916   2.421   3.010  11.869  0.6387  1.8523 -0.4520
 7761SOL    HW234917   2.363   3.030  11.991  0.6970 -2.2965  2.2463
 7762SOL     OW34918   3.585   4.158   7.504 -0.0201 -0.3059 -0.1451
 7762SOL    HW134919   3.576   4.077   7.553  3.0286  0.0189  0.9093
 7762SOL    HW234920   3.555   4.136   7.415  0.3019  1.3647 -0.6750
 7763SOL     OW34921   0.902   4.258   7.287  0.3440  0.5423  0.5684
 7763SOL    HW134922   0.975   4.196   7.301 -0.0408 -0.0680 -0.1584
 7763SOL    HW234923   0.825   4.202   7.298  1.7092 -0.4242  5.5727
 7764SOL     OW34924   3.745   2.867   5.975  0.4054  0.1289 -0.1029
 7764SOL    HW134925   3.750   2.931   5.904 -1.3319  0.3938  0.0175
 7764SOL    HW234926   3.818   2.809   5.955 -1.1386 -1.3132 -1.5829
 7765SOL     OW34927   3.216   0.017   6.480 -0.1524  0.1457  0.1844
 7765SOL    HW134928   3.257   4.667   6.508 -0.0382  0.2512  0.3279
 7765SOL    HW234929   3.291   0.075   6.464  0.9587 -1.6520 -1.0568
 7766SOL     OW34930   1.816   0.588   8.043 -0.3651  0.9385  0.0902
 7766SOL    HW134931   1.735   0.551   8.006 -0.2633 -0.4932  1.2847
 7766SOL    HW234932   1.811   0.675   8.003  0.4045  0.5068 -0.9669
 7767SOL     OW34933   0.106   4.351   7.751 -0.1354 -0.3255  0.0259
 7767SOL    HW134934   0.114   4.334   7.657  2.0190 -4.8756  1.0286
 7767SOL    HW234935   0.011   4.359   7.759 -0.0808 -0.6097  0.9163
 7768SOL     OW34936   1.468   3.713   4.599 -0.4080  0.4813  0.2471
 7768SOL    HW134937   1.513   3.775   4.658  1.2374 -0.6050  0.1243
 7768SOL    HW234938   1.423   3.772   4.539  3.0097  1.1250 -1.7087
 7769SOL     OW34939   4.518   2.187   5.466 -0.2129  0.1227 -0.4766
 7769SOL    HW134940   4.536   2.146   5.381  1.1955 -0.6825  0.1947
 7769SOL    HW234941   4.603   2.199   5.510 -0.3933  1.0311 -0.3773
 7770SOL     OW34942   0.670   0.526  17.631  0.5234 -0.2521 -0.4675
 7770SOL    HW134943   0.622   0.483  17.702  0.0673  0.0464 -0.5954
 7770SOL    HW234944   0.702   0.447  17.586 -0.6349  0.0743 -1.8886
 7771SOL     OW34945   3.366   0.840  11.110  0.2757 -0.1441 -0.1747
 7771SOL    HW134946   3.450   0.819  11.149  0.0946  0.5046  0.5651
 7771SOL    HW234947   3.392   0.858  11.020  1.2884  2.4326  0.6332
 7772SOL     OW34948   3.020   0.844  11.820 -0.1376 -0.3449 -0.2956
 7772SOL    HW134949   3.008   0.841  11.915 -2.2396  0.2500 -0.5380
 7772SOL    HW234950   2.968   0.920  11.793  1.4790  0.3173 -1.5379
 7773SOL     OW34951   4.580   4.401   3.583 -0.1336  0.2325  0.2502
 7773SOL    HW134952   4.671   4.411   3.555 -0.2855  0.3058 -0.2146
 7773SOL    HW234953   4.545   4.468   3.523  2.4423  2.1082  0.8553
 7774SOL     OW34954   3.808   0.002   5.117 -0.4483  0.8740  0.7343
 7774SOL    HW134955   3.728   0.048   5.142  1.0940  2.7329  2.1856
 7774SOL    HW234956   3.803   4.645   5.152  1.5106  0.7653  0.7085
 7775SOL     OW34957   1.199   1.532   8.576 -0.7725 -0.0830 -0.4458
 7775SOL    HW134958   1.247   1.465   8.528  1.8746 -0.2394  2.4627
 7775SOL    HW234959   1.249   1.519   8.656  1.0732  1.4939 -1.3483
 7776SOL     OW34960   1.566   0.146  13.996  0.1977  0.5896 -0.3535
 7776SOL    HW134961   1.544   0.233  13.964 -2.7951 -0.1184 -0.2355
 7776SOL    HW234962   1.628   0.118  13.929 -0.4537 -0.2328 -0.6131
 7777SOL     OW34963   0.835   0.813  10.303  0.0994  0.6758 -0.5430
 7777SOL    HW134964   0.893   0.790  10.230 -1.5200 -1.3424 -1.1977
 7777SOL    HW234965   0.900   0.864  10.351  1.1026  0.1836 -1.3825
 7778SOL     OW34966   3.659   3.264   2.586 -0.2487  0.2293 -0.1472
 7778SOL    HW134967   3.604   3.293   2.658 -2.0284 -0.8956 -1.0674
 7778SOL    HW234968   3.724   3.334   2.583  1.3208 -1.2100 -0.2793
 7779SOL     OW34969   3.463   4.308  15.048  0.6685 -0.0919 -0.2452
 7779SOL    HW134970   3.371   4.319  15.022  0.5318 -0.6388 -0.0020
 7779SOL    HW234971   3.519   4.359  14.990  1.4914 -1.4518 -0.6207
 7780SOL     OW34972   2.048   2.518   4.657 -0.1093  0.5346  0.1059
 7780SOL    HW134973   2.024   2.544   4.568  1.9157  1.1152 -0.2843
 7780SOL    HW234974   2.002   2.439   4.685 -1.0769  0.7139 -0.9570
 7781SOL     OW34975   3.315   3.350  16.948  0.0300  0.3055  0.3423
 7781SOL    HW134976   3.331   3.397  16.866  0.4299  1.7088  1.2164
 7781SOL    HW234977   3.283   3.419  17.007  1.6977  1.5363 -0.2099
 7782SOL     OW34978   0.911   2.332   3.018 -0.5093  0.2244  0.0799
 7782SOL    HW134979   0.858   2.359   2.943  0.2772 -1.9510 -1.2396
 7782SOL    HW234980   0.876   2.387   3.089  2.0464  0.9876  0.7531
 7783SOL     OW34981   2.579   0.653   5.081 -0.1375  0.0198  0.1278
 7783SOL    HW134982   2.590   0.561   5.105  0.1839  0.1952  0.6584
 7783SOL    HW234983   2.667   0.673   5.049  0.4229  1.1916  2.4395
 7784SOL     OW34984   3.934   0.942   2.038  0.6033 -0.5097  0.2696
 7784SOL    HW134985   3.845   0.948   2.073  1.7036  1.1310  2.8522
 7784SOL    HW234986   3.965   1.028   2.067 -0.8489  0.6475 -1.6672
 7785SOL     OW34987   2.289   4.401   6.420 -0.1386 -0.3918 -0.0577
 7785SOL    HW134988   2.224   4.417   6.352  0.8192 -0.1909 -0.9101
 7785SOL    HW234989   2.355   4.469   6.405 -1.8400  1.4247  0.6357
 7786SOL     OW34990   0.808   3.123   8.631  0.0375 -0.1663 -0.0043
 7786SOL    HW134991   0.837   3.184   8.699 -0.8628 -0.4787  0.6680
 7786SOL    HW234992   0.730   3.089   8.675  0.5459 -1.5988 -0.2227
 7787SOL     OW34993   4.446   0.767  12.262 -0.5252 -0.0061 -0.1556
 7787SOL    HW134994   4.359   0.760  12.223  0.1972 -0.8906 -1.6170
 7787SOL    HW234995   4.495   0.791  12.184 -0.2990  2.9651  0.8883
 7788SOL     OW34996   1.645   0.849   2.980 -0.1450 -0.0936  0.6423
 7788SOL    HW134997   1.635   0.757   2.958 -1.3008 -0.0736  1.0542
 7788SOL    HW234998   1.739   0.865   2.972 -0.1003 -0.8722 -0.3159
 7789SOL     OW34999   0.619   1.250  10.512  0.4420  0.2064 -0.0213
 7789SOL    HW135000   0.561   1.326  10.511  1.2016  0.7927  2.6016
 7789SOL    HW235001   0.707   1.277  10.486 -0.3257  1.2640 -1.5706
 7790SOL     OW35002   3.750   3.752   4.837 -0.4299  0.3913 -0.2198
 7790SOL    HW135003   3.802   3.689   4.887 -0.7366  0.4681  0.1958
 7790SOL    HW235004   3.697   3.788   4.908  0.6536 -0.4187  0.9894
 7791SOL     OW35005   3.574   2.363  10.430  0.1802 -0.1889 -0.0793
 7791SOL    HW135006   3.541   2.393  10.514 -1.5662  2.7525 -1.8222
 7791SOL    HW235007   3.616   2.439  10.391  0.4724  0.0652  0.7312
 7792SOL     OW35008   4.074   2.695   7.928  0.3502  0.4828  0.5394
 7792SOL    HW135009   4.019   2.679   8.005 -2.2166 -0.5463 -1.5474
 7792SOL    HW235010   4.149   2.737   7.971  2.6227 -1.8286 -1.2172
 7793SOL     OW35011   2.658   3.768  17.559  0.4681 -0.1176  0.0100
 7793SOL    HW135012   2.649   3.849  17.609  0.3897  0.7026 -1.3189
 7793SOL    HW235013   2.648   3.694  17.618 -0.6361  1.6747  2.0971
 7794SOL     OW35014   1.988   4.440  14.381  0.2199  0.0779 -0.1884
 7794SOL    HW135015   2.010   4.393  14.301  1.3795 -0.0103  0.1707
 7794SOL    HW235016   1.995   4.359  14.433  0.6004  1.5495  2.0678
 7795SOL     OW35017   4.405   2.739   7.907 -0.2779 -0.0931  0.4704
 7795SOL    HW135018   4.371   2.661   7.952  0.0150  0.9531  2.5373
 7795SOL    HW235019   4.345   2.747   7.833 -0.3591  0.5374  0.6080
 7796SOL     OW35020   3.754   0.576   5.308  0.6321  0.2758 -0.3898
 7796SOL    HW135021   3.714   0.491   5.326 -0.2955  1.0285  1.1679
 7796SOL    HW235022   3.687   0.632   5.347 -0.5434 -2.4114  1.4333
 7797SOL     OW35023   1.809   0.906  12.547  0.2127 -0.1782  0.1610
 7797SOL    HW135024   1.805   0.990  12.593  1.5284  1.9539 -3.6143
 7797SOL    HW235025   1.777   0.844  12.612  0.4221 -0.3952  0.0550
 7798SOL     OW35026   0.282   2.831  16.247  0.2667 -0.1650  0.6388
 7798SOL    HW135027   0.223   2.873  16.310 -2.2351 -2.8138  0.0786
 7798SOL    HW235028   0.371   2.852  16.275  1.2826 -0.0985 -2.7152
 7799SOL     OW35029   1.993   0.374   9.760 -0.0737 -0.3922  0.0026
 7799SOL    HW135030   2.076   0.335   9.788  0.1416 -0.6243 -0.9312
 7799SOL    HW235031   1.942   0.342   9.834  0.7962 -0.2105  0.6788
 7800SOL     OW35032   2.136   2.545   9.517  0.1404  0.1045 -0.1099
 7800SOL    HW135033   2.084   2.622   9.495  1.8123  0.8010 -1.6677
 7800SOL    HW235034   2.199   2.575   9.583 -0.4798 -0.1105  0.5766
 7801SOL     OW35035   1.149   2.387   5.379 -0.1391 -0.5446  0.1604
 7801SOL    HW135036   1.207   2.453   5.341 -1.6551  0.0404 -1.1209
 7801SOL    HW235037   1.185   2.309   5.337  1.7712 -0.0817  0.9317
 7802SOL     OW35038   1.921   2.984   4.526 -0.3143 -0.0518 -0.5011
 7802SOL    HW135039   1.941   2.990   4.432 -4.3337 -0.2432 -1.3837
 7802SOL    HW235040   1.993   2.930   4.558 -0.4993 -0.0345 -0.0588
 7803SOL     OW35041   2.376   1.580   7.223 -0.6093 -0.9720  0.1829
 7803SOL    HW135042   2.369   1.495   7.267  2.7065  0.0170  2.5555
 7803SOL    HW235043   2.297   1.581   7.169 -0.3748 -0.8939 -0.1572
 7804SOL     OW35044   3.852   3.405  13.237 -0.0407  0.0312 -0.5977
 7804SOL    HW135045   3.781   3.465  13.212  0.2781  0.4134 -0.5788
 7804SOL    HW235046   3.873   3.371  13.150  0.2364  2.1287 -1.3408
 7805SOL     OW35047   2.085   3.990   6.133 -0.5673 -0.3466 -0.2184
 7805SOL    HW135048   2.008   4.034   6.171 -0.1702  0.5556 -0.4561
 7805SOL    HW235049   2.154   4.011   6.196 -0.4075  0.0908 -0.5381
 7806SOL     OW35050   4.181   4.680   4.893 -0.3025  0.5081  0.2833
 7806SOL    HW135051   4.204   0.029   4.849 -0.2504 -0.5559 -1.6605
 7806SOL    HW235052   4.236   4.619   4.844 -0.2380  0.3546  0.5516
 7807SOL     OW35053   0.539   4.043   6.110  0.1857  0.1433  0.5911
 7807SOL    HW135054   0.588   4.087   6.179 -0.6804 -0.9427  1.9083
 7807SOL    HW235055   0.447   4.033   6.137  0.0761  1.0153  0.5539
 7808SOL     OW35056   3.791   4.538   2.284  0.4901  0.1269  0.3970
 7808SOL    HW135057   3.868   4.594   2.296  0.9134 -0.1308 -1.1396
 7808SOL    HW235058   3.832   4.474   2.227 -0.3598 -0.2818  0.2468
 7809SOL     OW35059   2.346   2.676   9.735 -0.3870 -0.1490 -0.6140
 7809SOL    HW135060   2.383   2.596   9.697  0.0907 -0.5489  0.6878
 7809SOL    HW235061   2.324   2.664   9.827  1.0536 -0.6138 -0.3304
 7810SOL     OW35062   4.605   4.259  17.463  0.5715  0.4116  0.1927
 7810SOL    HW135063   4.584   4.183  17.518  0.3550 -0.7009 -1.4158
 7810SOL    HW235064   4.600   4.208  17.382 -3.9403  2.5081 -0.8439
 7811SOL     OW35065   1.774   0.549   0.389  0.4605 -0.0128  0.0054
 7811SOL    HW135066   1.712   0.608   0.345  1.3330  1.4634  0.7268
 7811SOL    HW235067   1.857   0.590   0.365 -0.6176 -0.0964 -3.8626
 7812SOL     OW35068   2.314   1.915   8.940 -0.0694  0.3331  0.4854
 7812SOL    HW135069   2.294   1.955   9.024 -0.7576 -0.4046  0.6630
 7812SOL    HW235070   2.389   1.858   8.958  0.3281  0.1740 -1.6422
 7813SOL     OW35071   2.935   4.059  14.556  0.1575 -0.1414 -0.1719
 7813SOL    HW135072   2.876   4.106  14.615  0.5032 -1.3427  1.1248
 7813SOL    HW235073   2.930   4.106  14.473 -3.5221  1.8312  1.1793
 7814SOL     OW35074   2.845   2.781   2.167  0.1743 -0.6395 -0.4478
 7814SOL    HW135075   2.867   2.714   2.102  0.1649 -3.1964  2.1785
 7814SOL    HW235076   2.783   2.733   2.222 -2.7234  0.4639 -2.6913
 7815SOL     OW35077   4.240   3.337  12.889 -0.2156  0.6851  0.2508
 7815SOL    HW135078   4.306   3.288  12.939  0.8160  0.9799 -0.8182
 7815SOL    HW235079   4.287   3.421  12.895 -0.7700  1.0485 -0.6376
 7816SOL     OW35080   2.700   4.030   5.146  0.3825  0.1427  0.7279
 7816SOL    HW135081   2.777   4.044   5.091 -1.0236  1.0890 -1.0078
 7816SOL    HW235082   2.728   4.056   5.233  0.6779  2.0850  0.0531
 7817SOL     OW35083   1.344   2.611   3.732 -0.3325  0.6292  0.1787
 7817SOL    HW135084   1.290   2.556   3.788 -1.7351  1.7034 -0.0941
 7817SOL    HW235085   1.382   2.542   3.678 -1.0222  2.1500 -2.2628
 7818SOL     OW35086   0.601   0.160   0.713  0.0709 -0.3122 -0.0488
 7818SOL    HW135087   0.639   0.173   0.626 -2.0027  3.3690 -0.3983
 7818SOL    HW235088   0.647   0.238   0.742  0.4728 -0.0194 -1.4644
 7819SOL     OW35089   0.982   4.124  15.359 -0.2644 -0.0071 -0.6136
 7819SOL    HW135090   0.916   4.128  15.289  0.0749  2.0043 -0.8270
 7819SOL    HW235091   0.972   4.029  15.354 -3.4414  0.2581  0.1581
 7820SOL     OW35092   3.670   0.363   8.894  0.0880 -0.1213 -0.0936
 7820SOL    HW135093   3.633   0.419   8.827  0.3009  0.8352  0.5971
 7820SOL    HW235094   3.758   0.399   8.901 -0.1115  0.1122  1.1118
 7821SOL     OW35095   2.114   2.487   2.794 -0.5476 -0.3535  0.3750
 7821SOL    HW135096   2.054   2.462   2.725  1.2076 -3.0472 -0.2089
 7821SOL    HW235097   2.059   2.527   2.861 -1.9520  1.2719 -1.7713
 7822SOL     OW35098   1.634   1.411   8.523 -0.0276  0.1515  0.3795
 7822SOL    HW135099   1.667   1.468   8.593 -2.0653 -1.0601  2.3422
 7822SOL    HW235100   1.697   1.433   8.454 -0.4778 -3.2930 -1.1505
 7823SOL     OW35101   4.493   2.091   4.931 -0.4752  0.3884 -0.1883
 7823SOL    HW135102   4.540   2.174   4.941 -0.0176  0.0392  0.5099
 7823SOL    HW235103   4.416   2.124   4.884 -0.6969 -0.9649 -0.7810
 7824SOL     OW35104   0.556   3.268   8.005 -0.3224  0.4029 -0.5234
 7824SOL    HW135105   0.592   3.312   7.928  0.4434 -0.3238 -0.5761
 7824SOL    HW235106   0.472   3.313   8.016 -0.5941 -1.4112  4.6949
 7825SOL     OW35107   2.250   0.529  15.560 -0.1749 -0.4755  0.5116
 7825SOL    HW135108   2.233   0.549  15.468  1.0980  1.0772  0.6080
 7825SOL    HW235109   2.296   0.605  15.597  2.1675 -2.4794  1.7261
 7826SOL     OW35110   1.959   3.512  14.863 -0.0832 -0.1969 -0.3786
 7826SOL    HW135111   1.865   3.525  14.876  0.0411 -0.1752  0.5213
 7826SOL    HW235112   1.964   3.518  14.768  0.5439 -3.1563 -0.5507
 7827SOL     OW35113   2.168   2.788   8.372 -0.1388 -0.5263 -0.4041
 7827SOL    HW135114   2.161   2.770   8.466  1.4293 -0.7722 -0.3258
 7827SOL    HW235115   2.073   2.801   8.364 -0.2090 -2.2318 -2.1426
 7828SOL     OW35116   1.599   0.360   4.355 -0.2570  0.1472 -0.1216
 7828SOL    HW135117   1.517   0.371   4.307 -1.0422  2.3267  1.7105
 7828SOL    HW235118   1.568   0.311   4.432  0.1493 -1.5387 -1.0331
 7829SOL     OW35119   2.318   1.206   4.730  0.0539 -0.0796 -0.0291
 7829SOL    HW135120   2.262   1.198   4.807  0.9525  1.2256  0.7506
 7829SOL    HW235121   2.401   1.173   4.765 -1.0995 -1.5501  1.2949
 7830SOL     OW35122   1.813   0.743   0.919 -0.1516 -0.3435  0.7506
 7830SOL    HW135123   1.772   0.756   0.834 -0.7216  0.7904  1.1838
 7830SOL    HW235124   1.904   0.757   0.892 -0.1953 -2.7284 -0.6076
 7831SOL     OW35125   0.677   1.545   2.250  0.9493  0.7311  0.0512
 7831SOL    HW135126   0.632   1.615   2.201  0.1596  0.5143  0.4639
 7831SOL    HW235127   0.611   1.479   2.268  1.0029  1.0895  1.5564
 7832SOL     OW35128   4.465   3.648  16.830  0.1657  0.2098 -0.2736
 7832SOL    HW135129   4.481   3.566  16.878 -0.6418 -0.5890 -1.3667
 7832SOL    HW235130   4.397   3.682  16.888 -1.1270 -1.2405 -0.9220
 7833SOL     OW35131   3.153   2.621   4.470 -0.2839 -0.3348  0.2983
 7833SOL    HW135132   3.158   2.677   4.393 -2.9842 -0.6210 -0.0908
 7833SOL    HW235133   3.066   2.583   4.459  0.6269 -2.3064 -0.0610
 7834SOL     OW35134   2.128   2.444   2.323 -0.4539  0.0315 -0.3799
 7834SOL    HW135135   2.188   2.465   2.251 -2.8558 -1.7399 -2.9162
 7834SOL    HW235136   2.075   2.377   2.280  1.3449 -1.5055 -0.1782
 7835SOL     OW35137   0.861   0.076  17.619 -0.1116 -0.0440 -0.3151
 7835SOL    HW135138   0.928   0.078  17.551 -0.8374  0.0344 -1.0369
 7835SOL    HW235139   0.918   0.044  17.689 -0.6109 -3.3520 -1.3940
 7836SOL     OW35140   0.601   4.236  16.964 -0.7336 -0.3174 -0.1718
 7836SOL    HW135141   0.566   4.166  17.020  1.5315 -0.9171  0.4642
 7836SOL    HW235142   0.564   4.308  17.016  2.2378  2.1364 -1.4528
 7837SOL     OW35143   3.330   0.754   2.901  0.1727 -0.3101 -0.5592
 7837SOL    HW135144   3.318   0.789   2.989  1.5499 -0.0543 -0.4762
 7837SOL    HW235145   3.317   0.663   2.925 -0.8595  0.0485  0.2700
 7838SOL     OW35146   3.761   0.859   7.583 -0.8578 -0.1090 -0.0537
 7838SOL    HW135147   3.852   0.852   7.609 -0.1656 -3.1488 -3.1943
 7838SOL    HW235148   3.729   0.769   7.576  0.6188 -0.7082  1.0572
 7839SOL     OW35149   0.563   4.339   4.526 -0.5381 -0.3022  0.2498
 7839SOL    HW135150   0.544   4.321   4.433 -0.7847  0.1260  0.2211
 7839SOL    HW235151   0.575   4.249   4.557  0.3784 -0.3224 -0.1699
 7840SOL     OW35152   3.926   3.496   8.768 -0.1372 -0.4298 -0.7072
 7840SOL    HW135153   3.870   3.554   8.820 -0.7132 -1.5029 -0.1559
 7840SOL    HW235154   3.962   3.456   8.848 -0.9144 -0.1967 -0.2418
 7841SOL     OW35155   1.263   0.212   9.231 -0.2513 -0.3084 -0.2790
 7841SOL    HW135156   1.210   0.206   9.310 -2.4626  1.1345 -1.6611
 7841SOL    HW235157   1.326   0.140   9.235  1.3882  1.1012 -0.6754
 7842SOL     OW35158   3.718   1.421  14.603 -0.3532 -0.3270  0.2048
 7842SOL    HW135159   3.810   1.448  14.599  0.1300 -1.5969  2.7011
 7842SOL    HW235160   3.682   1.489  14.659  0.9420  1.0291 -0.6038
 7843SOL     OW35161   3.126   1.834   4.203 -0.3714  0.2129 -0.1848
 7843SOL    HW135162   3.189   1.777   4.158 -1.3546  0.0159 -1.3028
 7843SOL    HW235163   3.156   1.832   4.294 -1.2680  1.2639  0.1233
 7844SOL     OW35164   0.461   0.665   1.287  0.9358 -0.4101 -0.5229
 7844SOL    HW135165   0.384   0.721   1.302  1.6901 -0.1962  2.5471
 7844SOL    HW235166   0.430   0.598   1.227  1.0464 -1.9894  1.2053
 7845SOL     OW35167   2.267   1.564  12.103  0.0318 -0.1723 -0.1574
 7845SOL    HW135168   2.223   1.482  12.123 -0.3477  0.4881  1.6808
 7845SOL    HW235169   2.201   1.631  12.121  0.0842 -0.3533  0.7058
 7846SOL     OW35170   0.438   2.348  11.436 -0.0341 -0.1745  0.3257
 7846SOL    HW135171   0.348   2.330  11.464 -0.3419 -2.1763 -1.9831
 7846SOL    HW235172   0.416   2.388  11.352  0.6886  0.4970  0.4570
 7847SOL     OW35173   0.091   0.717   7.201 -0.1151 -0.5851 -0.1045
 7847SOL    HW135174   0.131   0.631   7.215  0.1513 -0.5503 -0.6402
 7847SOL    HW235175   0.113   0.725   7.108  0.1431 -2.6824 -0.2418
 7848SOL     OW35176   2.744   4.079   3.144  0.4201 -0.2130  1.1628
 7848SOL    HW135177   2.694   4.044   3.218 -3.8892 -0.9829 -2.0450
 7848SOL    HW235178   2.709   4.167   3.134  1.5627  0.0804 -0.2132
 7849SOL     OW35179   4.529   0.203  12.346  0.1747 -0.4668  0.0361
 7849SOL    HW135180   4.568   0.264  12.284  0.0629 -0.3777  0.0525
 7849SOL    HW235181   4.580   0.225  12.424 -1.2288  5.1383 -0.6362
 7850SOL     OW35182   1.829   0.928   4.208 -0.0058  0.4934  0.5024
 7850SOL    HW135183   1.837   0.840   4.245 -0.1914  0.8264  1.3323
 7850SOL    HW235184   1.879   0.972   4.277  0.4715  0.2161  0.3325
 7851SOL     OW35185   1.613   0.820   8.965  0.3259  0.1270  0.1936
 7851SOL    HW135186   1.671   0.896   8.960  0.3387  0.2446  2.0118
 7851SOL    HW235187   1.652   0.775   9.039  2.0609  0.2481 -0.6500
 7852SOL     OW35188   4.521   0.994   1.581  0.1229  0.4805 -0.2977
 7852SOL    HW135189   4.526   1.041   1.664  1.8565 -1.6548  0.8048
 7852SOL    HW235190   4.463   0.921   1.603 -0.9203  1.1893 -0.6883
 7853SOL     OW35191   2.305   4.715  15.832 -0.0507  0.4120 -0.3449
 7853SOL    HW135192   2.395   0.001  15.861 -0.9718  1.3467  1.9689
 7853SOL    HW235193   2.313   4.623  15.808 -1.7805 -0.2654  1.6526
 7854SOL     OW35194   3.518   1.642   7.873 -0.0516 -0.0018  0.7160
 7854SOL    HW135195   3.546   1.628   7.783 -0.0254 -1.5155  0.9569
 7854SOL    HW235196   3.604   1.635   7.914 -0.0073 -0.0682  0.6113
 7855SOL     OW35197   0.890   2.322  13.804  0.5187 -0.6371  0.0417
 7855SOL    HW135198   0.803   2.333  13.842  1.3282 -0.5533  1.8777
 7855SOL    HW235199   0.871   2.231  13.780 -0.5237 -0.2253 -0.6830
 7856SOL     OW35200   1.029   3.988   7.106 -0.3956  0.2320  0.0004
 7856SOL    HW135201   0.939   3.970   7.078  0.2230 -0.0878 -1.7557
 7856SOL    HW235202   1.067   3.916   7.055 -1.9267  0.2051 -1.1195
 7857SOL     OW35203   3.217   3.494   9.412  0.0946 -0.0391 -0.3448
 7857SOL    HW135204   3.224   3.583   9.447  1.2928 -0.0231 -0.6378
 7857SOL    HW235205   3.284   3.469   9.476  1.2313  1.2357 -1.0459
 7858SOL     OW35206   2.296   0.115   4.539  0.3323  0.7328 -0.2217
 7858SOL    HW135207   2.313   0.035   4.489 -1.6037  0.5788 -0.6423
 7858SOL    HW235208   2.264   0.081   4.623  0.0478 -0.3400 -0.7637
 7859SOL     OW35209   4.155   2.557  17.216  0.3131 -0.0107 -0.0041
 7859SOL    HW135210   4.210   2.533  17.142  2.2714  0.6613  1.2508
 7859SOL    HW235211   4.169   2.486  17.279  0.8205  0.2932  0.2257
 7860SOL     OW35212   1.651   3.194   9.514  0.3808 -0.1051  0.3151
 7860SOL    HW135213   1.656   3.286   9.542  0.9044 -0.2922  0.8516
 7860SOL    HW235214   1.724   3.194   9.452 -1.1326  0.1767 -1.4480
 7861SOL     OW35215   0.055   1.559   2.582 -0.7888 -0.1751 -0.2100
 7861SOL    HW135216   0.126   1.598   2.633  0.0005 -1.0898 -0.6201
 7861SOL    HW235217   0.095   1.480   2.545 -0.1552 -1.0011  2.2268
 7862SOL     OW35218   4.433   0.860   2.217 -0.4347  0.4513  0.6963
 7862SOL    HW135219   4.489   0.934   2.239 -3.0706  1.7901  3.0022
 7862SOL    HW235220   4.475   0.831   2.136 -0.9080  2.1738 -0.1544
 7863SOL     OW35221   1.585   2.896   2.233 -0.1199  0.2023  0.3094
 7863SOL    HW135222   1.571   2.947   2.153  0.8894 -1.6008 -1.0294
 7863SOL    HW235223   1.503   2.848   2.240  0.0076 -0.0189  0.2923
 7864SOL     OW35224   4.272   0.042  10.108  0.2569  0.2069  0.1777
 7864SOL    HW135225   4.277   0.122  10.160 -0.7275  1.7240 -2.0576
 7864SOL    HW235226   4.308   0.065  10.023  2.3869 -0.4950  0.8970
 7865SOL     OW35227   3.138   1.059   4.129 -0.5304 -0.0074  0.9071
 7865SOL    HW135228   3.093   1.141   4.149 -2.4984 -0.6219 -1.1011
 7865SOL    HW235229   3.122   0.999   4.202  1.0648 -1.0246  0.4216
 7866SOL     OW35230   2.286   4.308   4.626 -0.0111 -0.0116  0.3050
 7866SOL    HW135231   2.332   4.237   4.671 -2.3731 -1.0840  1.0195
 7866SOL    HW235232   2.213   4.267   4.580 -0.0929 -0.0795  0.4972
 7867SOL     OW35233   2.155   3.897   4.709  0.1650  0.1060  0.2233
 7867SOL    HW135234   2.247   3.906   4.685 -0.0757  0.3339 -0.6034
 7867SOL    HW235235   2.107   3.886   4.627 -0.6110 -1.3233  0.8811
 7868SOL     OW35236   3.957   2.490   5.277 -0.0857  0.1806  0.0960
 7868SOL    HW135237   3.868   2.504   5.310 -0.2410  0.3711 -0.4056
 7868SOL    HW235238   4.011   2.533   5.344 -4.7330  2.0412  2.6753
 7869SOL     OW35239   4.670   0.832   4.167  0.0992  0.5002  0.5561
 7869SOL    HW135240   4.643   0.751   4.210  1.5173  0.6893  1.7925
 7869SOL    HW235241   4.670   0.885   4.246  0.5661  1.0460  0.1906
 7870SOL     OW35242   0.900   2.188   6.922  0.5441 -0.4162 -0.0172
 7870SOL    HW135243   0.854   2.261   6.881  0.6120 -0.0127  0.6199
 7870SOL    HW235244   0.954   2.243   6.979  1.8003 -1.6147 -0.0505
 7871SOL     OW35245   3.761   0.881  10.941 -0.0023  0.3180 -0.3266
 7871SOL    HW135246   3.686   0.937  10.961 -1.6108 -2.3123  0.9015
 7871SOL    HW235247   3.799   0.879  11.029  2.1056  3.3422 -1.1785
 7872SOL     OW35248   4.540   3.996   2.726 -0.5250 -0.2816 -0.4170
 7872SOL    HW135249   4.485   3.919   2.743  1.0398 -1.1682  0.6578
 7872SOL    HW235250   4.481   4.060   2.767  0.2382 -1.1846  2.1406
 7873SOL     OW35251   1.925   3.375   0.303  0.4444  0.7987  0.5559
 7873SOL    HW135252   1.934   3.431   0.226  0.5644  1.8995  1.3613
 7873SOL    HW235253   1.938   3.439   0.373 -0.9382  1.4830  0.1791
 7874SOL     OW35254   4.469   4.583   9.294  0.2553 -0.1086 -0.1410
 7874SOL    HW135255   4.522   4.515   9.253  0.9327  0.2914  0.0652
 7874SOL    HW235256   4.529   4.641   9.342  1.8029 -2.7152  1.0729
 7875SOL     OW35257   2.328   0.843   8.027 -0.0461  0.0825 -0.1339
 7875SOL    HW135258   2.322   0.921   7.971 -2.8519  1.2243  1.7455
 7875SOL    HW235259   2.255   0.851   8.088  0.0968 -3.5862  0.5419
 7876SOL     OW35260   0.432   2.433  13.622  0.1486 -0.0742  0.1929
 7876SOL    HW135261   0.359   2.375  13.642  0.0684  1.0550  3.1995
 7876SOL    HW235262   0.482   2.380  13.560  1.9000  0.4859  1.1048
 7877SOL     OW35263   0.466   1.580  15.435  0.6587  0.4419 -0.1038
 7877SOL    HW135264   0.394   1.641  15.450 -0.5112 -1.4922  2.1905
 7877SOL    HW235265   0.475   1.532  15.518  1.5129 -0.0025 -0.4535
 7878SOL     OW35266   4.050   2.872   5.517  0.0020 -0.2537 -0.3548
 7878SOL    HW135267   4.104   2.814   5.463 -0.1438 -1.5788  0.9131
 7878SOL    HW235268   3.978   2.892   5.457 -0.8938  0.6113  1.0077
 7879SOL     OW35269   2.682   3.295   3.397  0.3429 -0.1809 -0.0353
 7879SOL    HW135270   2.636   3.379   3.390  0.4834 -0.2107 -1.2264
 7879SOL    HW235271   2.607   3.236   3.383  0.2511  0.6572 -3.0809
 7880SOL     OW35272   3.882   2.163   8.382  0.4895 -0.6985 -0.5464
 7880SOL    HW135273   3.818   2.171   8.453  1.6920 -1.7990  0.6591
 7880SOL    HW235274   3.954   2.220   8.409 -0.9563  1.4356 -1.1730
 7881SOL     OW35275   3.244   3.772   5.129  0.1357  0.0379 -0.1980
 7881SOL    HW135276   3.288   3.693   5.095  1.0087  0.2894  0.3364
 7881SOL    HW235277   3.166   3.778   5.074 -0.9746  0.8527  1.4699
 7882SOL     OW35278   4.275   1.854   2.768  0.0605 -0.4277  0.3865
 7882SOL    HW135279   4.238   1.850   2.679 -0.1586  1.5604  0.3874
 7882SOL    HW235280   4.348   1.795   2.748  2.3285  2.1676  1.1305
 7883SOL     OW35281   4.283   4.723   8.069 -0.0788 -0.1907  0.0115
 7883SOL    HW135282   4.260   4.635   8.040  0.0505 -0.3812  0.4910
 7883SOL    HW235283   4.327   4.693   8.148  0.6444  1.2765  0.1704
 7884SOL     OW35284   1.001   0.019   2.934  0.1850 -0.0756 -0.4271
 7884SOL    HW135285   1.067   4.727   2.999  0.9698  1.7445 -0.5488
 7884SOL    HW235286   0.939   4.678   2.937 -0.5988  0.4746 -2.9555
 7885SOL     OW35287   1.206   3.585   5.174 -0.7695  0.1965  0.4955
 7885SOL    HW135288   1.253   3.668   5.181  0.6524 -0.6022  0.4256
 7885SOL    HW235289   1.241   3.550   5.092 -2.6900 -1.4230  0.3618
 7886SOL     OW35290   2.924   2.030   6.225  0.7466 -0.3054  0.6355
 7886SOL    HW135291   2.839   2.070   6.245 -0.7185 -2.4735 -1.2695
 7886SOL    HW235292   2.934   1.954   6.282 -2.6985 -1.2390 -0.0365
 7887SOL     OW35293   1.646   0.209   4.647  0.2734  0.3134  0.2416
 7887SOL    HW135294   1.583   0.243   4.711  1.4176 -2.0972  2.6143
 7887SOL    HW235295   1.583   0.144   4.618  1.0335 -0.4339  0.2515
 7888SOL     OW35296   3.355   2.548   7.501  0.2215 -0.0112  0.2298
 7888SOL    HW135297   3.408   2.476   7.468 -0.4335 -0.6947  0.6744
 7888SOL    HW235298   3.417   2.599   7.553  1.1379 -1.3588  0.4729
 7889SOL     OW35299   1.026   2.833  13.557  0.0112  0.8032  0.3109
 7889SOL    HW135300   1.027   2.907  13.497 -1.8130  0.7324  0.2003
 7889SOL    HW235301   0.933   2.813  13.571  0.1421 -0.2362 -0.3316
 7890SOL     OW35302   3.818   1.520   4.940  0.2504  0.3031  0.0063
 7890SOL    HW135303   3.847   1.469   5.015 -2.1083 -1.9523 -0.6252
 7890SOL    HW235304   3.788   1.599   4.986 -1.8578 -0.1111 -0.6282
 7891SOL     OW35305   4.435   0.410   1.191 -0.1364 -0.3037 -0.3544
 7891SOL    HW135306   4.414   0.492   1.145  0.3972 -0.6648 -1.2435
 7891SOL    HW235307   4.526   0.394   1.169 -0.2700 -1.6213  0.0506
 7892SOL     OW35308   1.981   2.446   6.317 -0.4439  0.1326  0.0846
 7892SOL    HW135309   1.921   2.520   6.308  1.5172  1.9508  2.1614
 7892SOL    HW235310   1.989   2.434   6.412 -0.3734  2.2793  0.3386
 7893SOL     OW35311   0.513   4.303   6.714 -0.5317  1.2544 -0.3074
 7893SOL    HW135312   0.488   4.218   6.678  1.0424  0.8053 -0.3440
 7893SOL    HW235313   0.609   4.293   6.712 -0.6136  0.0853  1.9961
 7894SOL     OW35314   1.699   1.675   1.562  0.4321  0.4308 -0.1665
 7894SOL    HW135315   1.779   1.727   1.562  1.1541 -0.6622  0.5233
 7894SOL    HW235316   1.654   1.705   1.640 -0.7454 -0.8870 -0.3279
 7895SOL     OW35317   2.043   1.783   2.539 -0.6324  0.4193 -0.4224
 7895SOL    HW135318   1.978   1.844   2.502 -2.1213 -1.0790 -0.2880
 7895SOL    HW235319   2.114   1.846   2.553 -0.8574  0.2950  1.2919
 7896SOL     OW35320   1.504   3.014   3.201 -0.5431  0.3607 -0.0493
 7896SOL    HW135321   1.569   2.945   3.212  0.2910  1.4143  1.6712
 7896SOL    HW235322   1.434   2.960   3.239 -1.9798  1.7059 -0.7783
 7897SOL     OW35323   3.514   1.276   4.138  0.1626 -0.3024  0.3482
 7897SOL    HW135324   3.560   1.291   4.056  0.2234  0.3342  0.4949
 7897SOL    HW235325   3.440   1.337   4.135 -0.7770 -1.5222 -1.1886
 7898SOL     OW35326   2.866   0.482   5.130  0.1503  0.0280 -0.1408
 7898SOL    HW135327   2.861   0.502   5.223  0.2126  2.1280 -0.5674
 7898SOL    HW235328   2.835   0.392   5.127  0.2036 -0.0462  1.9699
 7899SOL     OW35329   1.151   0.684   4.634 -0.0505  0.2026  0.3857
 7899SOL    HW135330   1.241   0.705   4.659  1.0310  0.0995 -3.4854
 7899SOL    HW235331   1.113   0.637   4.708 -3.1531  0.9268 -0.7526
 7900SOL     OW35332   2.456   1.979   0.239  0.0322  0.0162  0.1951
 7900SOL    HW135333   2.388   1.943   0.181  0.0656 -0.9708  0.7699
 7900SOL    HW235334   2.491   1.899   0.278  2.1493 -1.1565 -4.1805
 7901SOL     OW35335   3.378   3.535   2.448 -0.2104 -0.7935  0.4170
 7901SOL    HW135336   3.457   3.483   2.441 -0.3570 -0.9136 -0.3014
 7901SOL    HW235337   3.396   3.605   2.511  0.5636  2.3588 -3.3296
 7902SOL     OW35338   0.784   1.303   2.652  0.1169 -0.4893 -0.2620
 7902SOL    HW135339   0.812   1.233   2.712  0.4497  0.0645  0.2316
 7902SOL    HW235340   0.833   1.384   2.667 -1.5270  0.1877  1.4091
 7903SOL     OW35341   4.583   3.411   2.949  0.3017 -0.1494 -0.2126
 7903SOL    HW135342   4.622   3.414   3.037  0.3112 -1.0973 -0.1896
 7903SOL    HW235343   4.637   3.475   2.903  0.5048 -0.7056 -0.7414
 7904SOL     OW35344   2.475   2.178  15.884  0.5403 -0.1859 -0.2389
 7904SOL    HW135345   2.564   2.211  15.869  1.3658 -2.3572  0.0122
 7904SOL    HW235346   2.429   2.225  15.814 -0.0544 -1.2934 -0.5866
 7905SOL     OW35347   1.725   2.423   3.925  0.4059 -0.0956 -0.1867
 7905SOL    HW135348   1.734   2.373   3.844 -0.5699  0.7588 -0.8294
 7905SOL    HW235349   1.771   2.368   3.988 -1.0033 -1.0066  0.0378
 7906SOL     OW35350   0.294   1.979   6.260 -0.3604  0.4288 -0.4330
 7906SOL    HW135351   0.213   1.966   6.211  0.8801  0.0766 -2.3838
 7906SOL    HW235352   0.357   1.924   6.214 -1.3381 -0.4571 -0.6917
 7907SOL     OW35353   3.275   1.578   9.452  0.2401 -0.6638 -0.2252
 7907SOL    HW135354   3.278   1.602   9.360 -0.1661  1.4160  0.3081
 7907SOL    HW235355   3.309   1.488   9.453 -1.2280 -1.2240 -0.1003
 7908SOL     OW35356   4.403   3.166   6.476 -0.6538  0.4499  0.7943
 7908SOL    HW135357   4.485   3.207   6.504  0.1916 -1.4252  1.0016
 7908SOL    HW235358   4.401   3.174   6.380  1.9970 -1.7025  0.5798
 7909SOL     OW35359   3.913   4.611   5.552  0.4024  0.4118 -0.1649
 7909SOL    HW135360   3.915   4.650   5.465  0.0785  1.9026  0.4902
 7909SOL    HW235361   3.990   4.557   5.535  0.6558  0.4533  0.8197
 7910SOL     OW35362   1.406   2.701   9.261 -0.1550 -0.0853  0.1939
 7910SOL    HW135363   1.423   2.732   9.173  1.4195  1.8109  1.1611
 7910SOL    HW235364   1.313   2.717   9.278  0.0151  1.6443 -0.5902
 7911SOL     OW35365   4.702   4.484   8.524  0.1630  0.0367 -0.9651
 7911SOL    HW135366   0.024   4.497   8.602  0.1774  1.2091 -1.1697
 7911SOL    HW235367   0.034   4.491   8.454  1.5845 -1.1339  0.2152
 7912SOL     OW35368   0.822   2.350   9.873 -0.4782  0.3035 -0.7593
 7912SOL    HW135369   0.861   2.265   9.893  0.8825  1.4245  1.3663
 7912SOL    HW235370   0.889   2.418   9.871  0.2823 -0.4218 -0.1492
 7913SOL     OW35371   0.050   0.186   1.315 -0.3312  0.1336 -0.5271
 7913SOL    HW135372   4.711   0.131   1.346  1.3616 -1.1227  1.1988
 7913SOL    HW235373   0.046   0.259   1.377 -0.5049  0.5369 -1.0103
 7914SOL     OW35374   0.469   0.416   8.423 -0.1396  0.0302 -0.2215
 7914SOL    HW135375   0.539   0.481   8.428 -0.1345 -0.1401  2.0078
 7914SOL    HW235376   0.459   0.425   8.328  0.3575 -2.2334 -0.4876
 7915SOL     OW35377   1.930   3.387   5.229  0.2035  0.1011  0.2677
 7915SOL    HW135378   1.981   3.400   5.149 -0.3694  0.9814  0.0548
 7915SOL    HW235379   1.970   3.302   5.248 -0.1811 -0.1399 -0.0072
 7916SOL     OW35380   1.733   0.688   0.652 -0.1924  0.0424  0.3303
 7916SOL    HW135381   1.645   0.683   0.691  0.3497 -0.0196  1.5306
 7916SOL    HW235382   1.724   0.616   0.590 -1.8650  0.5246  0.0004
 7917SOL     OW35383   1.079   2.738   3.914 -0.0695 -0.2114 -0.3767
 7917SOL    HW135384   1.076   2.706   4.004  0.2666 -2.6182 -1.2137
 7917SOL    HW235385   1.032   2.664   3.875  1.0559  0.5612 -3.2331
 7918SOL     OW35386   1.218   4.544   0.502  0.0181 -0.0666 -0.1334
 7918SOL    HW135387   1.193   4.597   0.578  1.6854 -0.0219  0.3930
 7918SOL    HW235388   1.201   4.453   0.525  1.9160 -0.3564  0.0848
 7919SOL     OW35389   4.480   0.709  13.650  0.2837 -0.6240  0.4254
 7919SOL    HW135390   4.392   0.717  13.686 -0.5107 -0.5995 -1.5177
 7919SOL    HW235391   4.477   0.619  13.618  1.3100 -0.5390  0.0974
 7920SOL     OW35392   4.173   2.678   2.146  0.5112 -0.1418  0.3945
 7920SOL    HW135393   4.148   2.586   2.138  4.1277 -1.1794  1.1528
 7920SOL    HW235394   4.225   2.682   2.065  0.2822 -3.1712  0.0807
 7921SOL     OW35395   3.883   2.678   3.346  0.8368 -0.1731  0.2432
 7921SOL    HW135396   3.928   2.717   3.271  0.0654  0.4782  0.1225
 7921SOL    HW235397   3.868   2.756   3.400 -1.0329 -1.1098  1.0615
 7922SOL     OW35398   1.104   1.240   5.111  0.1469  0.0723 -0.0948
 7922SOL    HW135399   1.070   1.284   5.033 -0.7834 -1.4072 -0.5170
 7922SOL    HW235400   1.117   1.319   5.164 -1.5058  0.7484 -0.6871
 7923SOL     OW35401   3.247   3.893   1.569 -0.5193 -0.0996  0.4670
 7923SOL    HW135402   3.213   3.935   1.648  0.2411 -0.5587  1.0313
 7923SOL    HW235403   3.213   3.805   1.587 -0.6608  0.0023  0.6989
 7924SOL     OW35404   0.717   1.547   5.964 -0.1461 -0.3374  0.0806
 7924SOL    HW135405   0.805   1.527   5.996  0.1319  1.2988  0.3443
 7924SOL    HW235406   0.733   1.640   5.946  0.2549 -0.6582 -1.2759
 7925SOL     OW35407   3.862   1.487  11.402  0.1472  0.6025 -0.1023
 7925SOL    HW135408   3.792   1.518  11.460 -1.5717 -0.1438 -1.7944
 7925SOL    HW235409   3.915   1.438  11.465  0.1282  0.5299 -0.1432
 7926SOL     OW35410   0.510   3.562   9.239  0.2212  0.1877  0.1842
 7926SOL    HW135411   0.486   3.654   9.230  3.1853  0.9439  0.0030
 7926SOL    HW235412   0.522   3.551   9.333 -3.1231 -0.8386  0.4965
 7927SOL     OW35413   1.008   4.101   5.243 -0.1392 -0.0591  0.1878
 7927SOL    HW135414   1.012   4.038   5.316 -1.2677 -0.1213  0.1814
 7927SOL    HW235415   1.027   4.040   5.172  0.1201 -0.0860  0.2781
 7928SOL     OW35416   1.489   0.173   8.961 -0.4908 -0.3435  0.9513
 7928SOL    HW135417   1.470   0.099   9.019  1.7419 -0.0808  2.0108
 7928SOL    HW235418   1.523   0.244   9.016  0.9294 -0.3498  0.0731
 7929SOL     OW35419   3.008   4.503  14.291 -0.1336  0.1017  0.1916
 7929SOL    HW135420   2.937   4.458  14.247  0.9496 -0.5856 -0.8590
 7929SOL    HW235421   3.078   4.439  14.277 -0.9691 -1.2421  2.1841
 7930SOL     OW35422   2.769   0.620   6.387 -0.1330 -0.5656 -0.2993
 7930SOL    HW135423   2.806   0.573   6.312  0.6146  0.8218 -0.8021
 7930SOL    HW235424   2.714   0.556   6.432  0.0954  0.2456  1.1313
 7931SOL     OW35425   1.748   1.307  11.022  0.5863  0.2034 -0.4182
 7931SOL    HW135426   1.753   1.317  10.927 -1.9115  1.5730 -0.4168
 7931SOL    HW235427   1.790   1.224  11.044  0.4654  0.1776 -0.2798
 7932SOL     OW35428   0.094   3.825   2.659  0.4010 -0.2693  0.0163
 7932SOL    HW135429   0.154   3.841   2.587  0.1274 -0.5870 -0.2847
 7932SOL    HW235430   0.144   3.858   2.734 -0.6153  1.3399  0.0123
 7933SOL     OW35431   1.980   2.973   4.257 -0.2749  0.5052 -0.1320
 7933SOL    HW135432   1.949   2.904   4.198  0.9079 -1.6108  1.7264
 7933SOL    HW235433   2.060   2.992   4.208 -0.5289  1.2909 -0.2409
 7934SOL     OW35434   4.124   3.634   8.023  0.5823  0.3362 -0.1409
 7934SOL    HW135435   4.216   3.640   7.996 -0.0510  2.7127 -1.8046
 7934SOL    HW235436   4.067   3.658   7.950 -3.2696 -1.2032  2.3715
 7935SOL     OW35437   0.928   3.210  16.711  0.0537  0.1387  0.2621
 7935SOL    HW135438   0.927   3.269  16.636  0.9763 -0.2495 -0.0469
 7935SOL    HW235439   0.883   3.138  16.667 -3.5072  0.7746  2.7978
 7936SOL     OW35440   2.462   1.903   9.289 -0.1719 -0.1615  0.9249
 7936SOL    HW135441   2.479   1.880   9.380  0.3237  1.2036  1.1711
 7936SOL    HW235442   2.374   1.867   9.278 -0.0798 -0.3151  0.6800
 7937SOL     OW35443   4.027   0.564   7.179  0.1721  0.3145  0.3048
 7937SOL    HW135444   4.113   0.605   7.165  0.7165 -1.0232 -0.3305
 7937SOL    HW235445   3.973   0.628   7.133  1.1614  0.2917 -0.8896
 7938SOL     OW35446   4.445   0.855   9.504  0.0717  0.0471 -0.2756
 7938SOL    HW135447   4.528   0.814   9.529  0.7418  2.2005  1.1215
 7938SOL    HW235448   4.384   0.816   9.567 -3.2315 -0.2607 -3.7159
 7939SOL     OW35449   1.823   0.209   3.983  0.4452 -0.6092  0.2595
 7939SOL    HW135450   1.765   0.281   4.007  1.9318 -0.0191  2.0304
 7939SOL    HW235451   1.907   0.253   3.989  0.2080 -0.1883  0.4804
 7940SOL     OW35452   2.378   1.808   2.738  0.4754 -0.3710 -0.1450
 7940SOL    HW135453   2.322   1.746   2.784  2.8454 -1.5140  1.2484
 7940SOL    HW235454   2.453   1.815   2.798  0.6666 -1.9424 -0.2125
 7941SOL     OW35455   3.081   1.092   8.440  0.4314 -0.4074  0.0036
 7941SOL    HW135456   3.014   1.098   8.509  0.7099  1.0192  0.1637
 7941SOL    HW235457   3.044   1.026   8.382  2.2539 -2.6426  1.4203
 7942SOL     OW35458   2.286   0.372   3.506  0.3001 -0.1986 -0.3064
 7942SOL    HW135459   2.233   0.300   3.542 -1.0720  0.8557 -0.2064
 7942SOL    HW235460   2.325   0.417   3.581  0.8582 -0.7544 -0.2614
 7943SOL     OW35461   4.436   3.240  13.054  0.2199 -0.2574  0.2006
 7943SOL    HW135462   4.472   3.308  13.111  1.9052 -0.7198 -0.3365
 7943SOL    HW235463   4.385   3.195  13.122  0.9462  0.2984  1.1103
 7944SOL     OW35464   1.597   2.021  15.344  0.1729 -1.0286  0.2915
 7944SOL    HW135465   1.533   1.995  15.278 -0.9843  1.3068  0.4774
 7944SOL    HW235466   1.617   2.111  15.318  0.3199 -1.4857 -1.1892
 7945SOL     OW35467   1.775   1.855   2.896  0.1324  0.2740 -0.8365
 7945SOL    HW135468   1.782   1.803   2.816  0.4970 -0.3694 -0.3915
 7945SOL    HW235469   1.827   1.805   2.959 -0.9868 -0.9587 -0.8848
 7946SOL     OW35470   3.367   2.481   9.458  0.0736  0.6322 -0.1495
 7946SOL    HW135471   3.289   2.440   9.422 -0.8898  4.0600 -1.8869
 7946SOL    HW235472   3.397   2.539   9.388 -1.3295  2.1057  0.4744
 7947SOL     OW35473   1.051   3.629   1.581 -0.7053  0.1398 -0.0114
 7947SOL    HW135474   1.047   3.691   1.654 -0.5223 -1.3921  1.2886
 7947SOL    HW235475   0.982   3.664   1.525  0.9550  0.9135 -1.5958
 7948SOL     OW35476   2.079   1.281  12.563 -0.3528  1.0043 -0.0163
 7948SOL    HW135477   2.053   1.302  12.473 -1.0073 -0.6269 -0.2195
 7948SOL    HW235478   2.122   1.196  12.552  1.2184  2.1833 -2.6489
 7949SOL     OW35479   4.589   3.634   8.895  0.4411 -0.2032  0.3731
 7949SOL    HW135480   4.499   3.642   8.927  0.3880  0.7150  0.0001
 7949SOL    HW235481   4.577   3.616   8.801 -2.7250 -0.0901  0.7679
 7950SOL     OW35482   1.200   2.665  10.277  0.1921  0.2781  0.6086
 7950SOL    HW135483   1.125   2.721  10.254 -0.1360 -0.7853 -0.9188
 7950SOL    HW235484   1.184   2.655  10.371  2.0353  0.3782  0.9173
 7951SOL     OW35485   4.134   1.441  13.236 -0.6883 -0.2186  0.1719
 7951SOL    HW135486   4.184   1.397  13.305 -1.4942  1.0874  1.5821
 7951SOL    HW235487   4.042   1.431  13.262 -0.8988  1.2984 -0.0100
 7952SOL     OW35488   1.755   0.023   7.945  0.0619  0.1405 -0.0468
 7952SOL    HW135489   1.736   4.727   8.035 -0.5912  1.1751  0.1369
 7952SOL    HW235490   1.787   0.110   7.970  1.1273 -0.2118 -0.1768
 7953SOL     OW35491   1.164   3.097   6.685  0.1285 -0.4882  0.2396
 7953SOL    HW135492   1.220   3.153   6.737 -0.8180  1.4199 -0.7978
 7953SOL    HW235493   1.190   3.096   6.593  2.9940  0.3846  1.0442
 7954SOL     OW35494   0.382   0.377   5.830 -0.1878 -0.3777  0.5313
 7954SOL    HW135495   0.371   0.332   5.746  0.4476 -1.0711  0.8202
 7954SOL    HW235496   0.476   0.392   5.827 -0.6424  1.7866 -2.8384
 7955SOL     OW35497   1.083   3.393  10.865  0.5648 -0.0998 -0.9516
 7955SOL    HW135498   1.018   3.430  10.806 -2.3563  0.3641  2.5489
 7955SOL    HW235499   1.157   3.454  10.857  0.3699 -0.1471 -3.1703
 7956SOL     OW35500   0.809   2.589  10.314  0.1966 -0.2304  0.1731
 7956SOL    HW135501   0.762   2.542  10.383  0.0125 -1.1003 -0.5550
 7956SOL    HW235502   0.748   2.661  10.296  1.1931  0.1032 -1.8178
 7957SOL     OW35503   4.397   0.998  11.485  0.3806 -0.3664 -0.0909
 7957SOL    HW135504   4.319   1.002  11.540 -0.2068 -1.7143 -0.8136
 7957SOL    HW235505   4.424   1.090  11.484 -0.8319 -0.0251 -1.2466
 7958SOL     OW35506   4.063   1.702   0.800  0.1271 -0.1714  0.6665
 7958SOL    HW135507   3.976   1.663   0.792  1.3536 -2.9419  0.8351
 7958SOL    HW235508   4.036   1.790   0.827 -0.0208 -0.6613  2.1243
 7959SOL     OW35509   2.495   1.150   5.094 -0.3785 -0.3757  0.2897
 7959SOL    HW135510   2.566   1.194   5.046  1.2103 -2.5589  0.6643
 7959SOL    HW235511   2.516   1.058   5.076  1.8692  0.1988 -0.1315
 7960SOL     OW35512   0.566   3.655   1.869  0.2972 -0.1507  0.3980
 7960SOL    HW135513   0.524   3.569   1.862  1.7038 -0.9191  1.3465
 7960SOL    HW235514   0.651   3.632   1.907  0.3871 -1.2350 -0.4839
 7961SOL     OW35515   2.427   1.842   7.327 -0.1653 -0.0366 -0.0063
 7961SOL    HW135516   2.397   1.756   7.300 -1.4508  1.2284 -2.5770
 7961SOL    HW235517   2.359   1.895   7.284  0.5344  1.0506  0.2238
 7962SOL     OW35518   2.130   0.724   3.322  0.1863 -0.0289  0.2579
 7962SOL    HW135519   2.095   0.711   3.410  0.6172  0.9554  0.5770
 7962SOL    HW235520   2.064   0.777   3.276  1.3696  1.0705 -0.1794
 7963SOL     OW35521   4.585   0.078   3.237 -0.2933 -0.2994  0.1699
 7963SOL    HW135522   4.644   0.066   3.312 -0.7482  0.5960  0.6652
 7963SOL    HW235523   4.588   4.719   3.207 -1.4614 -0.4780  0.5736
 7964SOL     OW35524   1.349   3.965   4.190  0.0422  0.2464 -0.0090
 7964SOL    HW135525   1.438   3.933   4.174  0.2097  0.1575  1.0453
 7964SOL    HW235526   1.314   3.955   4.102 -1.2595  2.3598  0.2563
 7965SOL     OW35527   4.103   2.132   2.482  0.4829  0.4895  0.1942
 7965SOL    HW135528   4.157   2.166   2.553  0.2401  0.8535  0.2059
 7965SOL    HW235529   4.068   2.218   2.457  2.4427  1.0749 -0.5330
 7966SOL     OW35530   3.046   1.908   1.197  0.1334 -0.5329  0.3166
 7966SOL    HW135531   2.997   1.904   1.280  1.4998  1.6770  1.2305
 7966SOL    HW235532   2.971   1.929   1.141  1.8265  2.1815 -0.9312
 7967SOL     OW35533   0.660   2.456  10.532  0.5569 -0.5192  0.2538
 7967SOL    HW135534   0.662   2.375  10.481  4.1703  1.1436 -2.2682
 7967SOL    HW235535   0.674   2.414  10.616 -2.3915 -0.0957  0.9517
 7968SOL     OW35536   2.811   4.272   4.145  0.0116 -0.6613 -0.0423
 7968SOL    HW135537   2.899   4.241   4.124  0.3314 -0.7725  1.4850
 7968SOL    HW235538   2.827   4.354   4.191 -1.6171  0.4250 -1.4046
 7969SOL     OW35539   2.208   0.802   6.323 -0.0899 -0.0654  0.0723
 7969SOL    HW135540   2.148   0.790   6.396 -0.3683 -1.2901 -0.3532
 7969SOL    HW235541   2.232   0.712   6.305 -1.1948  0.1378 -2.4564
 7970SOL     OW35542   2.929   3.544   5.135  0.1575 -0.6868  0.1496
 7970SOL    HW135543   2.971   3.622   5.098 -1.0970  0.1948  0.6117
 7970SOL    HW235544   2.910   3.494   5.056 -0.9423  1.2738 -0.8184
 7971SOL     OW35545   1.219   2.465   3.949 -0.3153 -0.4380 -0.0150
 7971SOL    HW135546   1.161   2.425   4.014 -1.5809  1.3631 -0.0372
 7971SOL    HW235547   1.250   2.537   4.004  0.1563 -1.3729  0.9540
 7972SOL     OW35548   0.351   0.038   4.147  0.2093 -0.3050  0.9466
 7972SOL    HW135549   0.367   0.112   4.206 -2.2808  1.1422 -0.2091
 7972SOL    HW235550   0.292   0.074   4.081 -0.8395 -2.8195  0.5178
 7973SOL     OW35551   0.067   3.415  16.292  0.0061 -0.0777 -0.1375
 7973SOL    HW135552   0.108   3.491  16.250  2.5745 -1.8847 -0.8527
 7973SOL    HW235553   4.715   3.452  16.321 -0.9853 -1.9985 -0.5588
 7974SOL     OW35554   2.321   1.448   0.045  0.8994  0.3119 -0.0239
 7974SOL    HW135555   2.406   1.492   0.038  1.4447 -0.8258 -0.6405
 7974SOL    HW235556   2.286   1.480  17.691 -1.4377 -0.6550  0.5878
 7975SOL     OW35557   0.045   1.903   5.561  0.5318 -0.2194  0.9813
 7975SOL    HW135558   0.048   1.996   5.542  1.6507 -1.0186 -2.6993
 7975SOL    HW235559   0.126   1.885   5.513  0.2775 -0.8863  0.7966
 7976SOL     OW35560   0.920   4.676   0.847 -0.3270 -0.3983  0.4155
 7976SOL    HW135561   0.890   4.723   0.925  2.2505  2.2582 -0.2125
 7976SOL    HW235562   0.857   4.604   0.849  0.5105 -1.2191 -2.6608
 7977SOL     OW35563   2.956   3.392   4.016  0.3043 -0.3465  0.3307
 7977SOL    HW135564   3.006   3.428   4.090 -0.9678  2.4989 -0.1783
 7977SOL    HW235565   3.005   3.310   4.008 -0.3485 -0.8138  1.0148
 7978SOL     OW35566   0.262   3.042   7.490 -0.1710  0.0905  0.0707
 7978SOL    HW135567   0.308   2.985   7.428  0.6778  0.3972  0.4084
 7978SOL    HW235568   0.186   3.067   7.438 -0.7605  1.5017  1.5943
 7979SOL     OW35569   2.135   3.709  11.250  0.6177  0.7486  0.3363
 7979SOL    HW135570   2.165   3.791  11.211 -2.4721  1.1841 -1.1303
 7979SOL    HW235571   2.055   3.684  11.203  0.2357  1.1680  0.7592
 7980SOL     OW35572   3.305   3.162   8.695  0.0720  0.2289  0.6179
 7980SOL    HW135573   3.255   3.111   8.758 -3.0413  2.1269 -0.2702
 7980SOL    HW235574   3.317   3.244   8.742  0.4131  1.6495 -1.9201
 7981SOL     OW35575   4.719   0.765   2.399  0.2467  0.1915  0.3786
 7981SOL    HW135576   4.664   0.843   2.397 -1.9967 -1.3428  2.2287
 7981SOL    HW235577   4.709   0.756   2.494 -0.2874  0.1304  0.3136
 7982SOL     OW35578   1.683   1.099  17.147 -0.0139 -0.3485  0.3605
 7982SOL    HW135579   1.731   1.153  17.084  0.4862 -2.4116 -1.0698
 7982SOL    HW235580   1.749   1.029  17.150 -0.2372 -0.5293  1.1439
 7983SOL     OW35581   2.153   4.312  15.332 -0.0692 -0.0872 -0.1709
 7983SOL    HW135582   2.080   4.251  15.337 -0.7304  0.7126  0.0436
 7983SOL    HW235583   2.164   4.343  15.422 -1.6552  1.4659 -0.5099
 7984SOL     OW35584   4.180   2.472  11.315  0.4282  0.2479 -0.7001
 7984SOL    HW135585   4.143   2.557  11.294 -2.1575 -0.8988 -0.7619
 7984SOL    HW235586   4.231   2.493  11.394  1.9384 -1.0655 -1.3297
 7985SOL     OW35587   4.599   4.714   6.204  0.4498 -0.3964  0.5540
 7985SOL    HW135588   4.550   0.031   6.138  2.0127 -0.0816 -0.3771
 7985SOL    HW235589   4.595   4.629   6.159  0.2542 -0.5521  0.8628
 7986SOL     OW35590   2.903   0.816  12.064 -0.5920  0.3105 -0.6736
 7986SOL    HW135591   2.867   0.758  11.996 -2.6793 -0.8470  1.4353
 7986SOL    HW235592   2.836   0.817  12.132  0.3778 -0.6213  0.2856
 7987SOL     OW35593   3.282   4.161   3.493  0.1638  0.2279  0.6849
 7987SOL    HW135594   3.347   4.201   3.435 -0.8924 -0.1959 -0.7769
 7987SOL    HW235595   3.343   4.111   3.548 -1.1154  0.9092  2.7023
 7988SOL     OW35596   0.286   0.823  13.256  0.2147 -0.5359  0.0443
 7988SOL    HW135597   0.326   0.879  13.323 -1.4693 -0.6896  1.2026
 7988SOL    HW235598   0.194   0.835  13.281  1.2885 -0.4765  4.1148
 7989SOL     OW35599   1.347   1.420  16.230  0.0466  0.4805  0.0023
 7989SOL    HW135600   1.316   1.466  16.309  2.4289  1.0116  0.6379
 7989SOL    HW235601   1.440   1.434  16.216 -0.0169  0.9439  0.0272
 7990SOL     OW35602   2.414   3.620   3.906  0.6271  0.1153 -0.3676
 7990SOL    HW135603   2.491   3.562   3.906  1.8256  1.7092  0.0039
 7990SOL    HW235604   2.440   3.698   3.857  0.3736 -0.7252 -1.8277
 7991SOL     OW35605   2.528   4.619  13.742 -0.2831 -0.3746 -0.4524
 7991SOL    HW135606   2.455   4.591  13.687 -1.0307 -1.0530  0.8864
 7991SOL    HW235607   2.490   4.606  13.828  1.7494  0.5535  0.5819
 7992SOL     OW35608   0.730   0.739   2.322  0.0193 -0.0384 -0.0679
 7992SOL    HW135609   0.662   0.804   2.339 -0.2022 -0.1769 -0.4180
 7992SOL    HW235610   0.738   0.683   2.399  1.7132 -1.0841 -1.0156
 7993SOL     OW35611   3.038   3.200   5.900 -0.1411  0.3491 -1.4630
 7993SOL    HW135612   3.072   3.287   5.879  0.2784  0.9555  1.7226
 7993SOL    HW235613   3.098   3.137   5.860 -0.6819  0.3398 -2.2598
 7994SOL     OW35614   4.235   3.028  13.153 -0.0431  0.5665  0.3027
 7994SOL    HW135615   4.268   2.939  13.164 -0.4264  0.2306 -1.2892
 7994SOL    HW235616   4.236   3.033  13.057 -2.7296  0.6519  0.2757
 7995SOL     OW35617   4.043   2.343   7.901 -0.3515 -0.1952  0.0580
 7995SOL    HW135618   3.973   2.314   7.960 -1.1124  1.2400 -0.1361
 7995SOL    HW235619   3.986   2.347   7.824 -1.1631  0.9343  0.7298
 7996SOL     OW35620   1.606   0.146   8.370  0.0609  0.0378 -0.3855
 7996SOL    HW135621   1.666   0.215   8.398 -0.6694  0.2748  0.5924
 7996SOL    HW235622   1.594   0.098   8.452 -0.1346  0.1236 -0.3627
 7997SOL     OW35623   2.569   0.726  12.585 -0.1296  0.5404 -0.8049
 7997SOL    HW135624   2.551   0.735  12.679 -2.0574  0.7597 -1.2024
 7997SOL    HW235625   2.657   0.690  12.596 -0.6252 -0.5665 -0.3959
 7998SOL     OW35626   4.127   1.199  13.089  0.7040  0.2488 -0.5255
 7998SOL    HW135627   4.081   1.173  13.169 -1.0008 -1.5696 -2.1213
 7998SOL    HW235628   4.185   1.268  13.120 -0.7142  0.9996  0.4499
 7999SOL     OW35629   3.719   2.219   8.603 -0.4753 -0.0640  0.1659
 7999SOL    HW135630   3.662   2.144   8.623 -1.8042  1.4929  2.2757
 7999SOL    HW235631   3.661   2.281   8.559 -0.7038 -0.6991 -0.4311
 8000SOL     OW35632   2.729   1.316   4.763 -0.1363 -0.4336  0.0368
 8000SOL    HW135633   2.655   1.376   4.753 -0.4119 -1.0331 -1.3757
 8000SOL    HW235634   2.732   1.301   4.858 -0.1033 -0.4338  0.0359
 8001SOL     OW35635   4.311   2.260  16.591  0.4540 -0.3106  0.4699
 8001SOL    HW135636   4.321   2.336  16.648  1.4834  0.4720 -0.7374
 8001SOL    HW235637   4.247   2.301  16.532  1.8278  1.2613  0.0712
 8002SOL     OW35638   3.221   2.770   8.637 -0.0167  0.0245  0.7573
 8002SOL    HW135639   3.195   2.684   8.604  1.0458  0.7929 -2.0222
 8002SOL    HW235640   3.237   2.819   8.557 -1.1871 -2.0129 -0.7086
 8003SOL     OW35641   3.984   0.444   6.816 -0.1575  0.2924 -0.3738
 8003SOL    HW135642   3.948   0.411   6.899  1.1475 -0.8649 -0.2556
 8003SOL    HW235643   4.077   0.459   6.832  0.2886 -0.5441 -2.2011
 8004SOL     OW35644   3.067   4.495   3.868  0.3974 -0.0716 -0.0142
 8004SOL    HW135645   3.094   4.444   3.792 -2.5892  0.6628 -1.5552
 8004SOL    HW235646   3.096   4.448   3.946  0.1533  0.0335  0.1427
 8005SOL     OW35647   2.157   0.154   1.693 -0.3400 -0.3288 -0.2215
 8005SOL    HW135648   2.124   0.244   1.685  0.7524  0.1561  0.8247
 8005SOL    HW235649   2.250   0.168   1.674 -0.3881 -2.1886 -1.8691
 8006SOL     OW35650   1.624   0.104   3.686 -0.2702  0.2372 -0.2280
 8006SOL    HW135651   1.540   0.073   3.652 -0.2302 -0.5351  0.3699
 8006SOL    HW235652   1.599   0.136   3.772 -1.3882 -0.7785 -0.1793
 8007SOL     OW35653   2.568   0.791   6.398  0.0947 -0.6021 -0.6052
 8007SOL    HW135654   2.533   0.782   6.310 -1.1824 -1.3860 -0.0018
 8007SOL    HW235655   2.645   0.733   6.396  0.1021 -0.5371 -1.8864
 8008SOL     OW35656   0.399   1.123  11.304 -0.1566 -0.0281  0.0903
 8008SOL    HW135657   0.394   1.028  11.303 -0.9056  0.0214 -0.3188
 8008SOL    HW235658   0.353   1.147  11.224 -1.8571 -1.5804  0.6187
 8009SOL     OW35659   2.355   2.805  13.775 -0.3912 -0.0646  0.0387
 8009SOL    HW135660   2.273   2.783  13.819 -1.1753  0.8196 -0.9914
 8009SOL    HW235661   2.408   2.748  13.831 -1.8790 -0.8246  0.6677
 8010SOL     OW35662   3.009   0.444   5.467 -0.7025  0.1287 -0.0243
 8010SOL    HW135663   2.925   0.415   5.430 -0.6333 -0.4327  0.2688
 8010SOL    HW235664   3.068   0.374   5.440  0.2156  0.8761  0.0572
 8011SOL     OW35665   4.110   2.599   1.465  0.1124  0.0429  0.0107
 8011SOL    HW135666   4.055   2.658   1.414 -0.5151 -1.9038 -1.5596
 8011SOL    HW235667   4.069   2.600   1.552 -0.3533 -1.5127 -0.1855
 8012SOL     OW35668   4.450   0.337   6.962  0.0657  0.6001  0.0022
 8012SOL    HW135669   4.458   0.243   6.942 -0.7422 -0.0708  2.7986
 8012SOL    HW235670   4.529   0.368   6.918 -1.0171 -0.9752 -3.0585
 8013SOL     OW35671   3.004   1.283   4.755 -0.2665 -0.5103  0.1353
 8013SOL    HW135672   2.908   1.280   4.761 -0.1035 -0.9930  2.4063
 8013SOL    HW235673   3.002   1.373   4.721 -0.3051  0.1739  1.9406
 8014SOL     OW35674   2.596   3.890   8.523 -0.2087 -0.0871  0.5042
 8014SOL    HW135675   2.602   3.815   8.582 -0.6098 -0.1627  0.4490
 8014SOL    HW235676   2.548   3.946   8.585 -0.7822 -1.2743  1.1281
 8015SOL     OW35677   1.692   1.024   7.308 -0.5883  0.2610  0.0174
 8015SOL    HW135678   1.628   1.061   7.370 -2.3705 -1.8545 -0.5959
 8015SOL    HW235679   1.645   0.943   7.289 -0.9349  0.7507 -1.1674
 8016SOL     OW35680   0.817   3.132   4.752 -0.1722  0.2765 -0.1027
 8016SOL    HW135681   0.857   3.060   4.800 -2.3731 -0.3444  0.7835
 8016SOL    HW235682   0.725   3.132   4.778  0.1409 -0.3600  0.9738
 8017SOL     OW35683   3.863   3.631  12.427 -0.0103  0.0677  0.2077
 8017SOL    HW135684   3.921   3.579  12.483  0.2696 -0.2359 -0.3657
 8017SOL    HW235685   3.805   3.564  12.390  0.7037  0.8594 -2.3172
 8018SOL     OW35686   3.629   1.170   8.393 -0.3046  0.3751  0.4913
 8018SOL    HW135687   3.686   1.227   8.342 -3.0592  1.4505 -1.3533
 8018SOL    HW235688   3.682   1.171   8.473  0.8633 -0.7732 -0.2835
 8019SOL     OW35689   2.234   2.784  15.240  0.2539  0.1301 -0.2711
 8019SOL    HW135690   2.303   2.819  15.183  0.7127 -2.6106 -1.3584
 8019SOL    HW235691   2.153   2.796  15.189 -1.2588 -1.4054  1.7763
 8020SOL     OW35692   3.363   3.939   6.588 -0.1969 -0.3107 -0.4707
 8020SOL    HW135693   3.432   3.873   6.587 -0.7011 -0.8508  0.7264
 8020SOL    HW235694   3.362   3.961   6.681 -0.2485 -0.1332 -0.5130
 8021SOL     OW35695   0.232   2.837   4.516  0.3573 -0.1929  0.1837
 8021SOL    HW135696   0.260   2.804   4.601 -1.8131 -1.2679  0.4934
 8021SOL    HW235697   0.224   2.756   4.466  0.3872 -0.5954  0.8368
 8022SOL     OW35698   3.033   3.411   8.405 -0.2391  0.3217  0.3231
 8022SOL    HW135699   3.091   3.421   8.480 -0.3912 -0.4927  0.5461
 8022SOL    HW235700   3.046   3.496   8.363  1.7282 -0.2602 -0.2405
 8023SOL     OW35701   1.257   0.029  13.656 -0.2960 -0.4323  0.8860
 8023SOL    HW135702   1.271   4.673  13.620  0.7445  0.7050 -1.4839
 8023SOL    HW235703   1.350   0.053  13.662 -0.3046 -0.1654  0.0336
 8024SOL     OW35704   2.449   4.634   4.434 -0.3257 -0.0498 -0.6347
 8024SOL    HW135705   2.543   4.633   4.449 -0.2916 -1.8645 -0.9657
 8024SOL    HW235706   2.461   4.667   4.345  3.0291 -0.2498 -0.2551
 8025SOL     OW35707   0.353   2.957   9.398  0.5195 -0.0404  0.8179
 8025SOL    HW135708   0.319   3.033   9.351  1.2357  0.0187  0.3958
 8025SOL    HW235709   0.303   2.894   9.346 -1.2657  2.3851 -0.3954
 8026SOL     OW35710   3.220   0.764  17.138  0.4321  0.0686 -0.2884
 8026SOL    HW135711   3.314   0.754  17.119  0.1158 -0.6982 -1.4355
 8026SOL    HW235712   3.199   0.826  17.068  1.3368  0.5261 -0.1605
 8027SOL     OW35713   2.133   2.857   6.661 -0.0480 -0.1372 -0.0803
 8027SOL    HW135714   2.169   2.927   6.606 -1.0686  0.8209  0.4718
 8027SOL    HW235715   2.178   2.883   6.742  0.3776  0.9653 -0.6679
 8028SOL     OW35716   4.656   1.970   7.175  0.1137  0.6314  0.5203
 8028SOL    HW135717   4.613   1.888   7.201 -0.7864  0.6318 -0.9475
 8028SOL    HW235718   4.720   1.986   7.244  1.6441  0.1903 -0.7921
 8029SOL     OW35719   0.363   2.824   2.165  0.4946  0.4563  0.5838
 8029SOL    HW135720   0.325   2.903   2.202 -1.5056 -0.7819  1.1608
 8029SOL    HW235721   0.441   2.858   2.122 -0.2820 -1.1306 -2.0824
 8030SOL     OW35722   1.847   1.226  14.732  0.0345  0.3115 -0.5581
 8030SOL    HW135723   1.862   1.176  14.812 -0.0057  0.4319 -0.4747
 8030SOL    HW235724   1.828   1.153  14.673  0.3361  0.6737 -1.1159
 8031SOL     OW35725   0.167   0.769   4.531 -0.2659  0.2915  0.4330
 8031SOL    HW135726   0.148   0.675   4.520  1.1966 -0.0859  1.1919
 8031SOL    HW235727   0.236   0.786   4.467 -0.0698  0.1394  0.6042
 8032SOL     OW35728   4.208   2.417   5.081  0.3650  0.8164 -0.1498
 8032SOL    HW135729   4.137   2.457   5.131 -1.4823  0.2275 -2.2803
 8032SOL    HW235730   4.230   2.352   5.148 -0.9384  1.6534  1.0777
 8033SOL     OW35731   3.413   2.528   6.778  0.2937  0.3953 -0.2267
 8033SOL    HW135732   3.382   2.437   6.782  0.6495  0.2498 -0.8128
 8033SOL    HW235733   3.424   2.556   6.869 -0.1621 -1.1855  0.3116
 8034SOL     OW35734   2.910   1.581   2.347 -0.1565 -0.1458 -0.3111
 8034SOL    HW135735   2.827   1.615   2.313  0.9134  0.7817 -2.0010
 8034SOL    HW235736   2.963   1.655   2.375  1.6114 -1.5573  0.0459
 8035SOL     OW35737   2.876   4.436   1.648  0.0904  0.5056 -0.5944
 8035SOL    HW135738   2.911   4.414   1.734 -0.1805  4.3605  0.5349
 8035SOL    HW235739   2.839   4.522   1.672  1.1283  0.5099  1.0107
 8036SOL     OW35740   2.788   1.080   4.635  0.1260 -0.1060 -0.1462
 8036SOL    HW135741   2.717   1.023   4.664 -0.8176  1.7992  1.3297
 8036SOL    HW235742   2.760   1.162   4.677  1.6165  0.2882  0.0873
 8037SOL     OW35743   3.951   0.775   5.994  0.0823  0.4347  0.1750
 8037SOL    HW135744   3.923   0.725   5.918  0.9054  1.3284 -0.7150
 8037SOL    HW235745   3.953   0.709   6.064 -3.2641 -1.5784 -1.6093
 8038SOL     OW35746   2.452   2.901   3.542 -0.2172 -0.0010  0.3012
 8038SOL    HW135747   2.506   2.978   3.555 -2.2984  1.2181  1.6989
 8038SOL    HW235748   2.491   2.864   3.463 -1.1400  0.0007 -0.1627
 8039SOL     OW35749   4.444   2.734   7.611  0.1727 -0.3626  0.0705
 8039SOL    HW135750   4.536   2.732   7.635  0.0114 -1.1453  0.6114
 8039SOL    HW235751   4.406   2.654   7.646 -3.2759  0.5006 -1.6328
 8040SOL     OW35752   2.583   3.963   1.576  0.1204 -0.5314  0.1244
 8040SOL    HW135753   2.517   4.019   1.534 -1.3993 -0.1472  3.0578
 8040SOL    HW235754   2.655   4.023   1.597 -0.2934 -0.0364  0.1304
 8041SOL     OW35755   2.133   1.334   5.411  0.0909  0.8426  0.1026
 8041SOL    HW135756   2.204   1.271   5.397 -2.1197 -1.6323 -0.0093
 8041SOL    HW235757   2.099   1.335   5.321  3.6942  1.7204 -1.2646
 8042SOL     OW35758   0.623   4.687   4.351 -0.4319 -0.3049  0.1176
 8042SOL    HW135759   0.588   0.043   4.362  0.5709  0.3234 -1.5990
 8042SOL    HW235760   0.644   4.666   4.442  0.0024  2.5326  0.6811
 8043SOL     OW35761   4.247   2.670   7.280 -0.1019 -0.1428  0.6143
 8043SOL    HW135762   4.337   2.657   7.309 -0.2546 -1.8765  0.3077
 8043SOL    HW235763   4.223   2.585   7.242  0.8247 -0.4107  0.6336
 8044SOL     OW35764   2.572   3.680   3.672 -0.2319 -0.1639 -0.0008
 8044SOL    HW135765   2.632   3.631   3.729  0.7342  2.0532  0.9389
 8044SOL    HW235766   2.612   3.684   3.585  1.9918 -0.4792  0.9819
 8045SOL     OW35767   1.646   2.696   7.855  0.0587  0.0824 -0.2793
 8045SOL    HW135768   1.633   2.789   7.834  0.3365  0.5885  1.7633
 8045SOL    HW235769   1.698   2.650   7.789 -2.6604 -2.7251 -0.4809
 8046SOL     OW35770   2.866   4.666   8.120  0.5970 -0.1116 -0.1028
 8046SOL    HW135771   2.935   4.633   8.062  1.2563  0.1354  0.5329
 8046SOL    HW235772   2.863   4.597   8.187  0.4758 -0.7590 -0.7713
 8047SOL     OW35773   0.049   4.630  10.381 -0.3881  0.3934  0.6088
 8047SOL    HW135774   0.081   4.562  10.441 -1.1160 -0.4556  0.0172
 8047SOL    HW235775   0.083   4.704  10.432  2.3706 -0.7488  0.3943
 8048SOL     OW35776   3.481   2.829   3.034  0.4365 -0.0259 -0.2183
 8048SOL    HW135777   3.561   2.882   3.029 -0.6899  1.6654 -0.3655
 8048SOL    HW235778   3.493   2.760   3.100  1.8277 -1.7259 -2.2542
 8049SOL     OW35779   4.621   2.440   5.790 -0.3558 -0.4967 -0.3374
 8049SOL    HW135780   4.629   2.518   5.845 -3.2422  1.0656 -2.1001
 8049SOL    HW235781   4.556   2.392   5.841 -0.8266  0.5966  0.0858
 8050SOL     OW35782   2.489   2.291   8.771 -0.0635 -0.0344 -0.3966
 8050SOL    HW135783   2.397   2.283   8.798  0.6947 -1.5436  1.7345
 8050SOL    HW235784   2.483   2.315   8.678 -0.4998 -1.3532 -0.7015
 8051SOL     OW35785   4.690   4.090   7.028  0.3625 -0.5850  0.6084
 8051SOL    HW135786   4.663   4.164   7.082 -0.0775 -0.2456 -0.0700
 8051SOL    HW235787   0.026   4.131   6.975  0.7488 -0.7427  0.9851
 8052SOL     OW35788   1.377   2.934  10.585  0.0392 -0.1562  0.0057
 8052SOL    HW135789   1.466   2.900  10.574 -0.0121 -0.4225  0.3959
 8052SOL    HW235790   1.375   3.001  10.516  0.0935  0.1149  0.2703
 8053SOL     OW35791   0.686   0.779   1.458  0.1293  0.6200 -0.7010
 8053SOL    HW135792   0.623   0.766   1.387  0.8095 -1.3459 -0.9439
 8053SOL    HW235793   0.772   0.771   1.417  0.0741 -2.0198 -0.2790
 8054SOL     OW35794   0.233   2.926  17.529  0.2326 -0.3389  0.0398
 8054SOL    HW135795   0.256   3.011  17.493  1.2158 -0.5581  0.1433
 8054SOL    HW235796   0.232   2.952  17.621  1.8406 -0.2783  0.0411
 8055SOL     OW35797   3.577   1.650   2.184  0.1724  0.4504 -0.2961
 8055SOL    HW135798   3.621   1.710   2.244 -0.5714 -1.1568  1.8066
 8055SOL    HW235799   3.656   1.596   2.175  0.0592  0.3039 -0.4141
 8056SOL     OW35800   3.724   1.892  17.611 -0.1349 -0.9919  0.0011
 8056SOL    HW135801   3.763   1.930  17.532 -2.2466 -1.1234 -1.0903
 8056SOL    HW235802   3.645   1.857  17.572  0.0125 -1.2266 -0.0870
 8057SOL     OW35803   3.526   2.358   8.507 -0.3013 -0.6606 -0.0648
 8057SOL    HW135804   3.496   2.436   8.460  0.7445 -0.0801  0.2245
 8057SOL    HW235805   3.471   2.361   8.585  0.2316 -1.8909  0.3639
 8058SOL     OW35806   0.200   1.114   3.669 -0.0450  0.3021 -0.0993
 8058SOL    HW135807   0.106   1.130   3.666 -0.2584 -1.0529 -0.7774
 8058SOL    HW235808   0.197   1.023   3.699 -0.1934 -0.0560 -1.1815
 8059SOL     OW35809   4.673   3.788   5.101 -0.1571 -0.1688  0.4830
 8059SOL    HW135810   4.606   3.750   5.043 -0.9472  1.0539  0.6027
 8059SOL    HW235811   4.637   3.775   5.189  1.0108 -0.9593  0.8444
 8060SOL     OW35812   3.075   3.482   4.237  0.2064 -0.3150 -0.1703
 8060SOL    HW135813   3.024   3.486   4.318  0.1244 -0.0898 -0.2321
 8060SOL    HW235814   3.129   3.411   4.272 -0.4461 -0.4074  0.6496
 8061SOL     OW35815   1.746   1.031   9.184  0.2390 -0.4099  0.0184
 8061SOL    HW135816   1.727   1.103   9.243 -1.4764 -1.2393  0.4830
 8061SOL    HW235817   1.841   1.022   9.179  0.1817 -1.2053  0.3019
 8062SOL     OW35818   1.769   4.607   8.511  0.2452  1.0538  0.3229
 8062SOL    HW135819   1.733   4.638   8.594 -0.1034 -0.4180  0.7251
 8062SOL    HW235820   1.688   4.582   8.466  0.5241  0.5430  0.0971
 8063SOL     OW35821   1.757   2.716   8.120  0.1993  0.3289  0.3477
 8063SOL    HW135822   1.697   2.699   8.047  0.1742  2.0753 -0.0281
 8063SOL    HW235823   1.761   2.629   8.159  1.8027  1.0960  1.8467
 8064SOL     OW35824   0.717   1.752  12.031 -0.2224 -0.1266  0.5018
 8064SOL    HW135825   0.678   1.732  11.946 -3.0808 -2.5281  2.3858
 8064SOL    HW235826   0.660   1.704  12.092 -1.7758  1.5942  0.4058
 8065SOL     OW35827   3.953   1.925   9.716  0.0671  0.1281 -0.0480
 8065SOL    HW135828   3.995   1.944   9.632  0.0449 -1.0031 -0.3257
 8065SOL    HW235829   3.991   1.838   9.731  0.6240  0.1866 -1.1486
 8066SOL     OW35830   0.518   1.284   8.316  0.0774  0.1648 -0.4558
 8066SOL    HW135831   0.524   1.263   8.409 -0.9868 -1.6802 -0.7963
 8066SOL    HW235832   0.550   1.204   8.275  2.0946  2.2243 -2.8926
 8067SOL     OW35833   0.290   1.409   2.826  0.0950 -0.4192  0.4114
 8067SOL    HW135834   0.351   1.415   2.900  1.2700 -1.5640 -0.4666
 8067SOL    HW235835   0.238   1.335   2.858 -1.3413  0.5730  0.3803
 8068SOL     OW35836   3.982   3.805   7.851  0.1357 -0.0693 -0.1463
 8068SOL    HW135837   3.956   3.855   7.929  0.9740 -0.9399  0.6886
 8068SOL    HW235838   3.895   3.781   7.819 -0.0337 -0.7463  0.8304
 8069SOL     OW35839   1.281   3.904   9.584 -0.2380 -0.0284 -0.0876
 8069SOL    HW135840   1.366   3.922   9.542  0.5421  2.6983  2.6005
 8069SOL    HW235841   1.259   3.821   9.542 -0.4753 -0.1440  0.2730
 8070SOL     OW35842   3.793   0.481   9.981  0.3525 -0.0591  0.2110
 8070SOL    HW135843   3.742   0.401   9.989 -0.4455  0.6473  2.4340
 8070SOL    HW235844   3.744   0.551  10.025  0.0921  1.2047 -2.0789
 8071SOL     OW35845   4.485   3.578   6.243 -0.4901  0.3146 -0.8083
 8071SOL    HW135846   4.445   3.501   6.203  1.7654  0.5809 -3.5393
 8071SOL    HW235847   4.577   3.553   6.257 -0.6123  0.0274 -0.5126
 8072SOL     OW35848   1.501   4.098   9.245 -0.1387 -0.5072  0.0712
 8072SOL    HW135849   1.547   4.177   9.214 -0.7947  0.8153  2.4504
 8072SOL    HW235850   1.421   4.123   9.200 -0.1913  0.4716  0.7106
 8073SOL     OW35851   4.296   1.428   6.975 -0.0579  0.2347  0.0118
 8073SOL    HW135852   4.392   1.431   6.983  0.2623 -2.4266 -2.5791
 8073SOL    HW235853   4.273   1.478   7.053  1.9523  0.0679  0.7134
 8074SOL     OW35854   1.554   4.304   7.536  0.5125 -0.1098  0.1322
 8074SOL    HW135855   1.507   4.236   7.487  2.6014 -1.3650 -0.1071
 8074SOL    HW235856   1.499   4.378   7.509  0.3241 -0.3390 -0.1204
 8075SOL     OW35857   3.796   2.435   7.345 -0.7096  0.1890 -0.4498
 8075SOL    HW135858   3.794   2.445   7.250 -0.7260 -0.1170 -0.4824
 8075SOL    HW235859   3.878   2.387   7.352 -1.6434 -1.5820 -1.5968
 8076SOL     OW35860   0.790   4.013   7.015 -0.3721 -0.3808  0.7251
 8076SOL    HW135861   0.752   4.081   6.958 -0.9827 -0.7408  0.7021
 8076SOL    HW235862   0.769   4.044   7.103 -0.6792  1.5344 -0.0075
 8077SOL     OW35863   0.659   0.121  17.354 -0.5778  0.3052  0.3506
 8077SOL    HW135864   0.704   0.197  17.391  0.1731 -0.5267  1.1338
 8077SOL    HW235865   0.565   0.138  17.353 -0.2229  2.1017 -0.8680
 8078SOL     OW35866   4.595   1.290   5.723 -0.7640  0.1872 -0.1882
 8078SOL    HW135867   4.528   1.269   5.788 -1.0033  1.9694  0.1374
 8078SOL    HW235868   4.624   1.199   5.717 -1.3273 -0.1102  1.5469
 8079SOL     OW35869   1.725   4.221   2.772 -0.3779  0.0243 -0.0239
 8079SOL    HW135870   1.685   4.204   2.687 -0.0573 -0.6481 -0.0421
 8079SOL    HW235871   1.675   4.160   2.827 -0.7324  0.4800  0.1511
 8080SOL     OW35872   4.658   4.001  16.094 -0.2925  0.1621  0.4197
 8080SOL    HW135873   4.655   3.907  16.076 -0.5578  0.1418  0.5580
 8080SOL    HW235874   4.583   4.036  16.046  0.1430 -2.6319 -2.3059
 8081SOL     OW35875   1.693   4.252   3.393  0.2060  0.5250 -0.7198
 8081SOL    HW135876   1.659   4.308   3.463  1.1549 -1.2828  1.1949
 8081SOL    HW235877   1.783   4.238   3.420 -0.4101  1.2710  1.7243
 8082SOL     OW35878   1.685   0.691  14.140  0.3258 -0.2095  0.1001
 8082SOL    HW135879   1.615   0.741  14.097  1.1227 -2.0602 -3.3201
 8082SOL    HW235880   1.756   0.755  14.137 -0.1504  0.2958 -0.5901
 8083SOL     OW35881   2.146   0.489   8.640 -0.1518 -0.0887  0.2035
 8083SOL    HW135882   2.145   0.543   8.719 -1.2732 -2.6828  1.9585
 8083SOL    HW235883   2.227   0.517   8.597 -0.7567  0.3164 -0.6512
 8084SOL     OW35884   2.879   0.499  12.105 -0.5232 -0.4834 -0.0580
 8084SOL    HW135885   2.816   0.427  12.105 -1.2299  0.1251  3.8220
 8084SOL    HW235886   2.931   0.475  12.181  1.6428 -1.3477 -1.8147
 8085SOL     OW35887   3.168   3.211   3.392  0.1373  0.1366 -0.0230
 8085SOL    HW135888   3.074   3.200   3.377 -0.0484  1.8094 -0.1470
 8085SOL    HW235889   3.185   3.281   3.329 -0.3668  0.8714  0.6624
 8086SOL     OW35890   3.464   2.199  15.342 -0.1118  0.2324  0.8628
 8086SOL    HW135891   3.555   2.181  15.318 -0.5331  0.3701 -0.8674
 8086SOL    HW235892   3.435   2.266  15.280  1.0565  0.3259  0.3959
 8087SOL     OW35893   1.175   3.462  14.886 -0.8681 -0.4625  0.3631
 8087SOL    HW135894   1.157   3.554  14.906 -2.0503 -0.5732 -0.2241
 8087SOL    HW235895   1.134   3.455  14.800 -1.8457 -2.6198  1.0035
 8088SOL     OW35896   2.113   0.357   0.560 -0.8831  0.1450 -0.5818
 8088SOL    HW135897   2.078   0.418   0.625 -1.7875  0.6339 -1.5300
 8088SOL    HW235898   2.074   0.272   0.578  0.6030 -0.6185 -0.9041
 8089SOL     OW35899   1.797   2.531   3.166  0.0257  0.7305  0.5093
 8089SOL    HW135900   1.852   2.486   3.230  2.0767  3.2988  0.5389
 8089SOL    HW235901   1.713   2.498   3.198 -0.3417  0.0628 -1.1313
 8090SOL     OW35902   2.437   0.535   2.883 -0.0252 -0.0038 -0.0105
 8090SOL    HW135903   2.347   0.561   2.904 -0.1389 -0.1511 -0.3114
 8090SOL    HW235904   2.454   0.599   2.815 -0.9383  1.7107  1.3871
 8091SOL     OW35905   1.788   0.938   2.194 -0.1716  0.3648 -0.0366
 8091SOL    HW135906   1.745   0.861   2.157 -0.5853 -0.0354  1.2643
 8091SOL    HW235907   1.733   0.996   2.248 -0.8917 -0.6540  0.3286
 8092SOL     OW35908   2.961   0.145  11.942 -0.2515 -0.6600  0.1467
 8092SOL    HW135909   2.885   0.093  11.915  0.5394 -0.7357 -1.9662
 8092SOL    HW235910   3.001   0.154  11.855  0.3200  2.3150  0.7072
 8093SOL     OW35911   4.127   0.443   3.462 -0.2135  0.1419 -0.7423
 8093SOL    HW135912   4.066   0.513   3.442 -0.9428  0.4350  2.4857
 8093SOL    HW235913   4.101   0.385   3.391 -1.1810  0.2791 -0.5011
 8094SOL     OW35914   4.352   0.637  15.287  0.2216 -0.2954 -0.4289
 8094SOL    HW135915   4.420   0.574  15.262 -0.1840 -1.0112  0.2553
 8094SOL    HW235916   4.405   0.710  15.318 -1.5404  1.5930 -1.8730
 8095SOL     OW35917   2.180   0.510   2.251 -0.5008 -0.1762  0.1745
 8095SOL    HW135918   2.249   0.502   2.317  1.0677 -0.1082 -1.4430
 8095SOL    HW235919   2.110   0.546   2.304 -2.1728 -1.3214 -1.2304
 8096SOL     OW35920   4.151   2.674   4.334  0.0563 -0.2695  0.6817
 8096SOL    HW135921   4.165   2.735   4.406 -0.4021  0.4798  0.1419
 8096SOL    HW235922   4.170   2.713   4.248 -1.4762  0.8043  0.8472
 8097SOL     OW35923   0.831   4.256   3.069  0.1011 -0.0919  0.3400
 8097SOL    HW135924   0.913   4.220   3.102  2.2596  3.0338 -1.6036
 8097SOL    HW235925   0.809   4.318   3.138 -1.8230  1.7167 -1.8797
 8098SOL     OW35926   1.489   3.077   4.062  0.4936 -0.4153  0.2469
 8098SOL    HW135927   1.541   3.072   4.142  0.8757 -0.3716 -0.0039
 8098SOL    HW235928   1.456   2.988   4.056  1.0684 -0.6289  0.2699
 8099SOL     OW35929   1.896   2.654   7.687  0.3278  0.4778 -0.2437
 8099SOL    HW135930   1.812   2.620   7.657  0.4695  0.6808 -0.8812
 8099SOL    HW235931   1.901   2.743   7.650  4.5468  0.6316  0.6727
 8100SOL     OW35932   4.449   4.702   2.563 -0.1162  0.2766  0.6630
 8100SOL    HW135933   4.524   4.651   2.593 -0.0965  0.1692  0.4372
 8100SOL    HW235934   4.466   0.052   2.608 -3.8371  0.2092  2.1864
 8101SOL     OW35935   0.345   2.438  14.222 -0.1332  0.0629  0.0294
 8101SOL    HW135936   0.256   2.471  14.239  0.9583  3.1686 -0.3972
 8101SOL    HW235937   0.354   2.457  14.129  3.0600  0.3753  0.4218
 8102SOL     OW35938   2.015   4.626   4.638  0.2606 -0.1752  0.3722
 8102SOL    HW135939   2.014   4.531   4.646  0.6515 -0.2531 -0.5596
 8102SOL    HW235940   2.108   4.645   4.624 -0.0329  1.6342  0.8670
 8103SOL     OW35941   3.506   3.901   5.313  0.2424  0.1955 -0.1823
 8103SOL    HW135942   3.442   3.943   5.372  0.7491  0.2112  0.3527
 8103SOL    HW235943   3.493   3.816   5.353 -1.0976 -1.3064 -3.8253
 8104SOL     OW35944   1.018   4.694  16.939 -0.0343 -0.3637  0.0213
 8104SOL    HW135945   1.013   4.633  17.012  0.8063  0.5739  0.8559
 8104SOL    HW235946   0.969   0.039  16.966  1.6261  0.4191  0.8044
 8105SOL     OW35947   1.092   0.933   5.973  0.9129 -0.3906  0.8736
 8105SOL    HW135948   1.151   0.859   5.961  2.4097  0.8807  0.4603
 8105SOL    HW235949   1.066   0.937   5.880 -0.9313 -0.4701  1.3833
 8106SOL     OW35950   0.178   3.322   2.854  0.0706 -0.3506  0.7570
 8106SOL    HW135951   0.121   3.375   2.910 -0.5168  0.9276 -1.0369
 8106SOL    HW235952   0.199   3.382   2.782  0.0395 -1.2568 -0.0061
 8107SOL     OW35953   2.523   1.493   8.927 -0.1267  0.0337  0.4443
 8107SOL    HW135954   2.533   1.588   8.924 -1.3092  0.1555  0.5854
 8107SOL    HW235955   2.615   1.476   8.906 -0.5322 -2.1066  0.3762
 8108SOL     OW35956   3.932   2.988   0.172 -0.3417  0.1356 -1.1169
 8108SOL    HW135957   3.975   3.002   0.257 -0.3432 -1.1814 -0.8933
 8108SOL    HW235958   3.846   3.031   0.176 -0.8543 -1.0864  1.0188
 8109SOL     OW35959   3.767   2.193   8.953  0.1713  0.2863  0.0329
 8109SOL    HW135960   3.823   2.256   8.999  0.4678  0.3501 -0.4196
 8109SOL    HW235961   3.684   2.241   8.944 -0.7241 -1.2961 -0.0208
 8110SOL     OW35962   4.106   3.671  10.988  0.0622 -0.4890  0.5492
 8110SOL    HW135963   4.189   3.709  11.016 -1.0314  2.0657  0.3457
 8110SOL    HW235964   4.093   3.732  10.916 -1.5239 -0.2301  1.0409
 8111SOL     OW35965   1.630   3.933   9.825  0.7677 -0.2813  0.7754
 8111SOL    HW135966   1.714   3.902   9.861  2.1761  0.7113 -1.6759
 8111SOL    HW235967   1.591   3.848   9.805 -1.6379  1.0641 -0.1913
 8112SOL     OW35968   3.742   3.713   8.454  0.0614  0.1206 -0.2269
 8112SOL    HW135969   3.702   3.749   8.533  1.8092 -0.5683  0.9908
 8112SOL    HW235970   3.819   3.770   8.455 -0.4126  0.7308  1.2784
 8113SOL     OW35971   3.845   3.304   9.331 -0.0761  0.4400 -0.1491
 8113SOL    HW135972   3.779   3.302   9.261  0.9705  0.8109 -1.1408
 8113SOL    HW235973   3.890   3.224   9.304  3.1524  1.8532  1.1106
 8114SOL     OW35974   1.563   2.143   1.717 -0.1847 -0.4447  0.1999
 8114SOL    HW135975   1.519   2.228   1.715  0.7976  0.0522 -0.0644
 8114SOL    HW235976   1.656   2.164   1.730 -0.6769  0.5189  2.0935
 8115SOL     OW35977   0.454   0.549   4.834 -0.1461  0.4438  0.4585
 8115SOL    HW135978   0.461   0.558   4.929 -0.9820  0.8051  0.4832
 8115SOL    HW235979   0.368   0.585   4.814  0.1577  2.4713  2.7284
 8116SOL     OW35980   2.104   3.692   7.125 -0.5090  0.0200  0.2072
 8116SOL    HW135981   2.099   3.671   7.219 -1.0318  0.2150  0.2214
 8116SOL    HW235982   2.131   3.783   7.134  0.1183 -0.1169 -0.3052
 8117SOL     OW35983   4.189   1.419  12.234 -0.1932 -0.4926  0.2783
 8117SOL    HW135984   4.205   1.506  12.199 -0.0110 -0.3717  0.6672
 8117SOL    HW235985   4.104   1.424  12.278 -0.6890 -0.3949 -0.6816
 8118SOL     OW35986   1.472   2.376   6.336  0.2727 -0.8635 -0.4541
 8118SOL    HW135987   1.483   2.349   6.245 -0.0786  1.3298 -1.1447
 8118SOL    HW235988   1.550   2.334   6.373  1.1705  1.5415  0.3220
 8119SOL     OW35989   1.186   4.580   1.315 -0.2289  0.0233 -0.5606
 8119SOL    HW135990   1.212   4.506   1.370 -2.2728  1.2706  2.0761
 8119SOL    HW235991   1.125   4.633   1.366 -0.3663  0.3318 -1.0473
 8120SOL     OW35992   2.812   2.792   6.249 -0.2592 -0.1333  0.1910
 8120SOL    HW135993   2.759   2.720   6.215 -1.7716  0.7356  0.7268
 8120SOL    HW235994   2.880   2.734   6.286  1.3910  1.0185 -1.0566
 8121SOL     OW35995   2.519   4.642   2.598  0.2225  0.9011  0.2029
 8121SOL    HW135996   2.516   4.547   2.606  0.9702  0.9874  1.4839
 8121SOL    HW235997   2.425   4.663   2.593 -0.0748 -0.2511  1.0826
 8122SOL     OW35998   2.080   2.733   6.006  0.3919  0.1016  0.1135
 8122SOL    HW135999   2.074   2.639   6.023  1.1583  0.1348  0.5962
 8122SOL    HW236000   2.108   2.753   6.095  2.8540  1.7171 -1.0151
 8123SOL     OW36001   0.159   0.715   6.930 -0.2504 -0.2375 -0.0771
 8123SOL    HW136002   0.132   0.748   6.844 -0.2623  0.7440  0.3047
 8123SOL    HW236003   0.249   0.749   6.930  0.3853 -1.9053 -0.2492
 8124SOL     OW36004   4.232   4.461   0.117  0.1312  0.1996 -0.1369
 8124SOL    HW136005   4.232   4.407   0.196  0.9902 -0.8034 -0.8236
 8124SOL    HW236006   4.217   4.547   0.157 -1.5844 -0.7979  1.3512
 8125SOL     OW36007   2.352   4.016  11.737  0.2652  0.0445 -0.1934
 8125SOL    HW136008   2.402   3.983  11.812  1.0335  4.0482  1.0344
 8125SOL    HW236009   2.345   4.103  11.776 -0.1650  0.0375 -0.2533
 8126SOL     OW36010   2.258   3.053   8.740 -0.2560  0.3411 -0.2531
 8126SOL    HW136011   2.261   3.098   8.656  1.5649 -1.5889 -1.2284
 8126SOL    HW236012   2.240   2.963   8.714 -0.8529  0.4729 -0.2833
 8127SOL     OW36013   1.236   0.995  11.574 -0.3976  0.4327  0.1460
 8127SOL    HW136014   1.181   0.994  11.653  0.7159  1.5624  0.9425
 8127SOL    HW236015   1.326   0.967  11.592 -1.3895 -2.9771 -0.1076
 8128SOL     OW36016   4.316   3.070   3.705 -0.0736 -0.1774 -0.1370
 8128SOL    HW136017   4.334   3.024   3.787  2.6916 -0.0954 -0.7107
 8128SOL    HW236018   4.380   3.019   3.655  0.0901  0.6527 -0.7764
 8129SOL     OW36019   1.547   2.683  10.007  0.8732  0.0244 -0.2195
 8129SOL    HW136020   1.548   2.742  10.082  1.3562 -1.2426  0.7692
 8129SOL    HW236021   1.465   2.635  10.022  0.8690 -0.5188 -1.9593
 8130SOL     OW36022   3.323   0.597   4.313 -0.3586  0.3417 -0.0199
 8130SOL    HW136023   3.351   0.627   4.399  0.5965 -2.1664  0.5348
 8130SOL    HW236024   3.414   0.584   4.286 -0.0474  0.6878  0.8771
 8131SOL     OW36025   1.462   3.305  15.861  0.2139 -0.1224 -0.6618
 8131SOL    HW136026   1.450   3.400  15.854  2.0608  0.3058  2.0090
 8131SOL    HW236027   1.544   3.300  15.910 -1.2916  0.8953  1.9692
 8132SOL     OW36028   1.430   2.800  14.935 -0.1014  0.0337  0.0566
 8132SOL    HW136029   1.461   2.840  15.016 -0.1817  1.3954 -0.5789
 8132SOL    HW236030   1.392   2.719  14.968 -0.1789  0.2242  0.4318
 8133SOL     OW36031   3.658   2.192   3.858  0.1653 -0.3938  0.0758
 8133SOL    HW136032   3.736   2.216   3.907 -2.2221  1.2665  3.0867
 8133SOL    HW236033   3.688   2.164   3.772  1.5365  1.7060 -0.1218
 8134SOL     OW36034   3.133   2.184   6.146 -0.2373  0.2457 -0.1489
 8134SOL    HW136035   3.107   2.271   6.116 -0.2793 -0.7698 -2.9999
 8134SOL    HW236036   3.046   2.145   6.159 -0.4297 -0.5932 -3.9416
 8135SOL     OW36037   4.021   0.016   9.335 -0.0480  0.2764 -0.0503
 8135SOL    HW136038   4.080   4.698   9.280  1.0748  0.7611  0.7069
 8135SOL    HW236039   4.082   0.044   9.403 -1.9715  1.0051  1.3967
 8136SOL     OW36040   0.414   2.522  12.377  0.0002  0.7982 -0.0442
 8136SOL    HW136041   0.479   2.464  12.418 -0.1283 -0.1251 -1.1426
 8136SOL    HW236042   0.461   2.576  12.313 -0.5397  1.1618 -0.1298
 8137SOL     OW36043   2.789   3.143   8.763 -0.6320  0.0160  0.1422
 8137SOL    HW136044   2.874   3.104   8.781 -0.1330  0.6822 -0.7533
 8137SOL    HW236045   2.796   3.154   8.668 -3.3870 -1.7836 -0.2826
 8138SOL     OW36046   0.223   4.591   7.270  0.4718  0.2000  0.1577
 8138SOL    HW136047   0.302   4.540   7.287  0.2148 -0.0865  0.4908
 8138SOL    HW236048   0.177   4.578   7.352  0.6495 -0.2849  0.1816
 8139SOL     OW36049   1.780   4.379  15.269  0.2104  0.7469 -0.7479
 8139SOL    HW136050   1.841   4.318  15.312  0.4424  0.7353 -1.0849
 8139SOL    HW236051   1.767   4.426  15.351 -0.1293  0.2549 -0.5213
 8140SOL     OW36052   3.247   1.081   2.953 -0.6897 -0.5000 -0.4853
 8140SOL    HW136053   3.274   1.048   2.868 -1.4414 -1.2660 -0.4274
 8140SOL    HW236054   3.270   1.173   2.941 -0.0417 -0.2336  2.7755
 8141SOL     OW36055   4.156   4.230   4.928  0.7304  0.3876 -0.4379
 8141SOL    HW136056   4.222   4.253   4.994  1.6696  1.4969 -1.7604
 8141SOL    HW236057   4.183   4.147   4.889  1.1318 -0.0074  0.6977
 8142SOL     OW36058   3.863   2.418   9.102  0.6622 -0.2236  0.0533
 8142SOL    HW136059   3.809   2.415   9.181  0.2587 -2.4430 -0.3169
 8142SOL    HW236060   3.901   2.505   9.116 -0.6889  0.1936  1.0831
 8143SOL     OW36061   3.311   3.380   8.862 -0.0391 -0.3225  0.1189
 8143SOL    HW136062   3.349   3.468   8.857  0.0978 -0.5386 -2.7032
 8143SOL    HW236063   3.233   3.404   8.912 -2.0209 -2.3628 -2.0277
 8144SOL     OW36064   3.243   4.531   5.232 -0.0211  0.2898  0.7700
 8144SOL    HW136065   3.235   4.452   5.178  0.9791  1.9481 -1.7989
 8144SOL    HW236066   3.328   4.509   5.270 -0.1258 -0.3639  0.6310
 8145SOL     OW36067   0.649   3.695   2.821 -0.1013  0.0753 -0.5729
 8145SOL    HW136068   0.696   3.718   2.902  1.2171 -0.4720 -1.1939
 8145SOL    HW236069   0.600   3.617   2.848  1.8766 -0.2705  1.9928
 8146SOL     OW36070   0.701   3.477   8.903 -0.5368  0.4211 -0.7820
 8146SOL    HW136071   0.730   3.420   8.832  0.0836  2.6574 -2.3086
 8146SOL    HW236072   0.673   3.539   8.835  1.1280  1.9076 -0.1146
 8147SOL     OW36073   1.389   3.271   4.349  0.1766 -0.7355 -0.2477
 8147SOL    HW136074   1.348   3.337   4.404 -0.2396 -0.3215 -1.0520
 8147SOL    HW236075   1.473   3.314   4.335 -1.4982  2.4948 -0.2207
 8148SOL     OW36076   1.237   1.568   4.702  0.1799 -0.3461 -0.4883
 8148SOL    HW136077   1.259   1.585   4.793  1.5055 -0.1075 -0.8655
 8148SOL    HW236078   1.287   1.643   4.671  0.0403 -0.4696 -1.0173
 8149SOL     OW36079   0.377   3.987   1.810  0.1678 -0.2408 -0.6202
 8149SOL    HW136080   0.318   4.036   1.753  0.7388  2.2058  0.9137
 8149SOL    HW236081   0.429   3.956   1.736  0.2699 -2.0364  0.1886
 8150SOL     OW36082   0.683   2.764   9.350 -0.3312 -0.4465 -0.4199
 8150SOL    HW136083   0.705   2.673   9.334  1.7296 -0.2105  1.0349
 8150SOL    HW236084   0.590   2.756   9.329 -0.9944 -0.2215  2.4079
 8151SOL     OW36085   1.392   4.088   3.674  0.0078 -0.5734  0.1883
 8151SOL    HW136086   1.442   4.164   3.704 -0.4597 -0.0072 -0.4711
 8151SOL    HW236087   1.370   4.042   3.755 -0.5682  0.5389  0.6638
 8152SOL     OW36088   2.409   0.039   4.929 -0.8172  0.4128 -0.3538
 8152SOL    HW136089   2.357   0.081   4.860 -1.7767 -2.0897 -1.1356
 8152SOL    HW236090   2.362   4.693   4.956  1.5540 -0.7963  0.2293
 8153SOL     OW36091   1.372   4.245   4.045  0.7434 -0.1137  0.3751
 8153SOL    HW136092   1.304   4.182   4.068 -0.5514  1.0894 -0.1348
 8153SOL    HW236093   1.434   4.182   4.081  0.3827 -0.2655  0.7347
 8154SOL     OW36094   1.461   4.663   3.025  0.1847 -0.5228 -0.5746
 8154SOL    HW136095   1.522   4.695   3.092  1.0381 -1.4989 -0.8887
 8154SOL    HW236096   1.493   4.576   3.004 -0.2136 -1.3662  2.3148
 8155SOL     OW36097   3.856   2.709   6.916  0.6266 -0.4462  0.4703
 8155SOL    HW136098   3.928   2.772   6.912 -0.3313  0.6848  1.0844
 8155SOL    HW236099   3.814   2.721   6.831  1.8279  1.8178  0.2022
 8156SOL     OW36100   0.269   0.436   6.859 -0.2325  0.1454 -0.4018
 8156SOL    HW136101   0.241   0.518   6.900  3.1031  0.7417  0.7523
 8156SOL    HW236102   0.278   0.368   6.925  0.4630  1.5823  0.9960
 8157SOL     OW36103   3.814   0.492   7.333 -0.0631 -0.2201  0.2811
 8157SOL    HW136104   3.762   0.490   7.252 -0.4875 -0.0082  0.5518
 8157SOL    HW236105   3.900   0.523   7.304 -1.5053  2.8372 -0.7154
 8158SOL     OW36106   2.943   1.575   4.028 -0.0943  0.6243  0.2523
 8158SOL    HW136107   2.855   1.584   3.991 -1.0178  0.4670  2.4124
 8158SOL    HW236108   2.965   1.482   4.020  0.7451  0.8952 -0.6305
 8159SOL     OW36109   0.566   3.015  12.951  0.1295 -0.2205 -0.4073
 8159SOL    HW136110   0.642   3.037  12.897 -0.0606 -0.9508 -0.9879
 8159SOL    HW236111   0.530   3.103  12.947  0.0889 -0.1059  2.9488
 8160SOL     OW36112   1.032   3.514  10.595 -0.9105  0.1011 -0.1848
 8160SOL    HW136113   1.079   3.432  10.579 -0.5293 -0.1489  2.2712
 8160SOL    HW236114   1.105   3.574  10.577  0.0430 -0.5033  1.7231
 8161SOL     OW36115   1.527   0.896   3.816 -0.4598 -0.2143 -0.0192
 8161SOL    HW136116   1.563   0.983   3.833  2.3683 -1.5935  1.0716
 8161SOL    HW236117   1.477   0.918   3.737  2.9217  0.0200 -2.1179
 8162SOL     OW36118   3.450   3.254   6.900  0.2117 -0.0319  0.1423
 8162SOL    HW136119   3.416   3.331   6.945 -0.8656 -1.6000  2.0310
 8162SOL    HW236120   3.411   3.265   6.813 -0.5014 -2.5717  0.1378
 8163SOL     OW36121   4.562   4.654   1.781  0.4348  0.1755  0.1335
 8163SOL    HW136122   4.574   4.653   1.876  1.5198  0.2419  0.0050
 8163SOL    HW236123   4.613   4.732   1.759  1.0518 -0.0523  0.7290
 8164SOL     OW36124   3.959   2.191   2.754  0.0041  0.0322 -0.1656
 8164SOL    HW136125   3.946   2.119   2.815 -0.2167  1.0564  1.0004
 8164SOL    HW236126   3.997   2.257   2.813 -0.7802 -0.9771  1.4680
 8165SOL     OW36127   3.571   2.255   3.153  0.7365 -0.2918 -0.0509
 8165SOL    HW136128   3.637   2.301   3.205  1.5898 -0.3136 -1.1286
 8165SOL    HW236129   3.598   2.264   3.062  0.3255 -1.6591 -0.3095
 8166SOL     OW36130   1.334   3.002   8.459 -0.6007 -0.2477  0.1960
 8166SOL    HW136131   1.422   3.019   8.490 -0.9977  1.5669  0.3409
 8166SOL    HW236132   1.280   3.030   8.533  2.4591  1.2564  1.8512
 8167SOL     OW36133   1.713   0.004   5.361 -0.3136  0.2154  0.3364
 8167SOL    HW136134   1.785   4.685   5.397  0.1625 -0.8830 -2.2173
 8167SOL    HW236135   1.771   0.068   5.320 -0.6785  1.2396  1.4045
 8168SOL     OW36136   1.855   1.787  14.850 -0.1570 -0.2122 -0.3512
 8168SOL    HW136137   1.871   1.694  14.867  1.4110  0.2526  0.7528
 8168SOL    HW236138   1.805   1.785  14.768 -2.9897 -0.5340  1.3860
 8169SOL     OW36139   3.736   2.991   5.683  0.4493 -0.0372  0.1720
 8169SOL    HW136140   3.765   2.914   5.633 -1.9415 -1.3985  0.8872
 8169SOL    HW236141   3.804   3.052   5.655  2.3339 -0.7793  3.1462
 8170SOL     OW36142   3.515   3.027   7.068 -0.0792  0.0560  0.1076
 8170SOL    HW136143   3.492   2.965   7.000 -0.2829  0.9617 -0.6465
 8170SOL    HW236144   3.459   3.101   7.046 -0.6757 -0.5100 -0.2554
 8171SOL     OW36145   1.327   2.309   2.546  0.0186  0.4350  0.2656
 8171SOL    HW136146   1.394   2.263   2.494  1.0598  0.6476  1.4126
 8171SOL    HW236147   1.251   2.270   2.503  0.7885 -1.3791  0.5456
 8172SOL     OW36148   1.293   0.879   1.947 -0.3748  0.5616 -0.3934
 8172SOL    HW136149   1.326   0.906   1.861  3.3867 -0.5995  0.7007
 8172SOL    HW236150   1.365   0.905   2.004 -0.6065 -0.8378  0.5330
 8173SOL     OW36151   2.569   4.723  16.601  0.0315 -0.1307 -0.0551
 8173SOL    HW136152   2.629   4.652  16.577  0.1855  0.5759 -1.7632
 8173SOL    HW236153   2.479   4.691  16.601 -0.1533  0.4055 -0.9478
 8174SOL     OW36154   0.080   0.256   2.778 -0.7476 -0.5349  0.0552
 8174SOL    HW136155   0.006   0.198   2.793 -1.0889 -0.1918 -0.3092
 8174SOL    HW236156   0.098   0.249   2.684  0.6228 -2.6020  0.4633
 8175SOL     OW36157   2.097   4.711   6.640  0.7405 -0.0552 -0.0497
 8175SOL    HW136158   2.149   0.046   6.685  0.6777  0.6675 -1.0484
 8175SOL    HW236159   2.081   0.023   6.556 -0.4500  0.3474  0.3967
 8176SOL     OW36160   4.014   1.384   9.647  0.0937  0.7229  0.7538
 8176SOL    HW136161   3.992   1.363   9.737 -1.4120  0.7927  0.4025
 8176SOL    HW236162   3.938   1.421   9.603  1.4439  1.2600 -1.1333
 8177SOL     OW36163   4.165   1.311  16.409 -0.3775 -0.0875 -0.5862
 8177SOL    HW136164   4.157   1.283  16.500 -0.0622 -0.3880 -0.6539
 8177SOL    HW236165   4.195   1.235  16.360  4.6289  1.2915  0.3338
 8178SOL     OW36166   1.963   0.012  13.888  0.9277  0.0802 -0.5166
 8178SOL    HW136167   2.012   0.074  13.944 -2.5188 -0.4804  3.1200
 8178SOL    HW236168   2.019   4.671  13.913  0.2014  0.3721  2.0307
 8179SOL     OW36169   4.387   4.324   1.966 -0.6368  0.0758 -0.1917
 8179SOL    HW136170   4.463   4.354   2.015 -0.8659  1.3266 -0.6006
 8179SOL    HW236171   4.372   4.236   1.999  1.9902  0.4454  1.9501
 8180SOL     OW36172   4.066   2.602   7.635  0.1418 -0.4708  0.1507
 8180SOL    HW136173   4.055   2.653   7.556 -0.7682  1.0954  1.2917
 8180SOL    HW236174   4.042   2.665   7.703  0.7138 -1.0013  0.8494
 8181SOL     OW36175   3.850   2.628  12.779 -0.2584  0.0465 -0.5041
 8181SOL    HW136176   3.800   2.705  12.751  2.0021  1.2751 -1.1191
 8181SOL    HW236177   3.848   2.579  12.697  1.4139  1.6630 -1.4968
 8182SOL     OW36178   1.075   2.857  16.350 -0.7155 -0.2499 -0.2363
 8182SOL    HW136179   1.087   2.912  16.272  1.1856  1.7659  1.4809
 8182SOL    HW236180   0.988   2.884  16.380 -0.5507  1.5476 -1.3294
 8183SOL     OW36181   0.873   0.029   7.623 -0.2279 -0.0202 -0.3476
 8183SOL    HW136182   0.949   0.087   7.615  3.1606 -4.3841 -0.3188
 8183SOL    HW236183   0.806   0.095   7.637 -0.1065 -0.0585  0.4036
 8184SOL     OW36184   2.229   2.616  14.735  0.1720  0.7454 -0.1888
 8184SOL    HW136185   2.247   2.673  14.661  0.7831 -0.6406 -1.1273
 8184SOL    HW236186   2.180   2.540  14.703 -0.9695  0.8914  1.2395
 8185SOL     OW36187   3.743   0.245   3.470  0.2041 -0.3258  0.0584
 8185SOL    HW136188   3.752   0.320   3.410 -1.9540  0.3837  0.6142
 8185SOL    HW236189   3.720   0.296   3.548 -0.0026 -1.6475  0.8520
 8186SOL     OW36190   4.357   0.643   6.309  0.3058  0.3143 -0.4052
 8186SOL    HW136191   4.444   0.645   6.350  0.0029  1.0513  0.1975
 8186SOL    HW236192   4.306   0.683   6.378 -0.9455 -0.2040 -1.0283
 8187SOL     OW36193   3.743   3.274   9.061 -0.3104  0.0129 -0.0232
 8187SOL    HW136194   3.704   3.205   9.007  2.2171 -1.1931 -0.2868
 8187SOL    HW236195   3.709   3.343   9.005 -0.7865  1.0456  1.5268
 8188SOL     OW36196   0.237   0.431   8.961 -0.3219  0.3568 -0.2842
 8188SOL    HW136197   0.281   0.348   8.973  0.6516  1.3897  3.3313
 8188SOL    HW236198   0.161   0.414   9.017 -0.2383  0.3459 -0.1737
 8189SOL     OW36199   2.821   3.847  16.047  0.2273 -0.5871 -0.5426
 8189SOL    HW136200   2.834   3.893  15.964  0.2227 -1.6336 -1.1205
 8189SOL    HW236201   2.883   3.893  16.104  0.8241 -0.0456 -1.6434
 8190SOL     OW36202   3.632   2.156  15.093 -0.2808 -0.1183  0.4240
 8190SOL    HW136203   3.686   2.233  15.108 -0.3193 -0.0121  0.0206
 8190SOL    HW236204   3.548   2.201  15.083  0.9646  1.8207 -1.2594
 8191SOL     OW36205   2.519   3.382   4.282 -0.4574  0.4077  0.0385
 8191SOL    HW136206   2.564   3.417   4.358 -0.0690  0.6227 -0.2883
 8191SOL    HW236207   2.582   3.410   4.215 -2.4421  1.0623 -1.5446
 8192SOL     OW36208   2.055   0.427   3.354  0.1592 -0.0252 -0.6687
 8192SOL    HW136209   2.003   0.387   3.425  0.5232  0.5261 -0.0933
 8192SOL    HW236210   2.144   0.432   3.389  0.3365 -2.2190 -0.7950
 8193SOL     OW36211   3.326   3.234  15.490  0.7931  0.4441  0.3455
 8193SOL    HW136212   3.378   3.308  15.459 -0.5454  0.4965 -1.7475
 8193SOL    HW236213   3.391   3.164  15.492  1.7122  1.2965  0.3195
 8194SOL     OW36214   4.494   3.824   4.716  0.4789 -0.0274 -0.3529
 8194SOL    HW136215   4.420   3.885   4.723  0.5371 -0.0270  0.2524
 8194SOL    HW236216   4.493   3.802   4.623  3.3577 -1.6540 -0.0040
 8195SOL     OW36217   0.895   2.195   7.896  0.0845 -0.0863  0.7432
 8195SOL    HW136218   0.803   2.169   7.897  0.2752 -0.8005 -0.9852
 8195SOL    HW236219   0.889   2.290   7.904 -0.9422 -0.1033  0.1708
 8196SOL     OW36220   3.185   0.612  16.309  0.4229 -0.0837  0.4376
 8196SOL    HW136221   3.188   0.641  16.218  1.1260 -0.0384  0.4804
 8196SOL    HW236222   3.095   0.634  16.333  1.1522  0.4512  2.6297
 8197SOL     OW36223   0.954   1.624   3.696  0.2497 -0.0415  0.3030
 8197SOL    HW136224   0.864   1.600   3.719  0.6593 -0.4339  1.5188
 8197SOL    HW236225   1.001   1.543   3.719 -0.1536  0.1414  1.8275
 8198SOL     OW36226   3.144   0.076   4.241  1.0698  0.4140  0.1501
 8198SOL    HW136227   3.052   0.095   4.224  1.4923  0.5061 -1.9781
 8198SOL    HW236228   3.138   0.069   4.337  2.6830  0.5969  0.2689
 8199SOL     OW36229   1.408   3.083   9.424  0.3592 -0.1638  0.2088
 8199SOL    HW136230   1.448   3.020   9.363  1.7436  0.3069  0.6302
 8199SOL    HW236231   1.491   3.103   9.466 -0.5651  2.0108  1.0072
 8200SOL     OW36232   1.265   2.232   7.898  0.0799 -0.2655  0.4522
 8200SOL    HW136233   1.275   2.199   7.987 -2.0114  0.4528  0.9594
 8200SOL    HW236234   1.232   2.153   7.855 -2.5347  1.3054 -0.4127
 8201SOL     OW36235   0.870   2.046   0.389 -0.3628 -0.4119 -0.5839
 8201SOL    HW136236   0.777   2.031   0.409  0.8595  0.3451  5.4068
 8201SOL    HW236237   0.863   2.079   0.299  3.8464  1.2791 -0.2621
 8202SOL     OW36238   2.816   2.790  17.414 -0.2424  0.0932 -0.2125
 8202SOL    HW136239   2.899   2.773  17.370 -0.0720 -0.6706  0.4139
 8202SOL    HW236240   2.805   2.885  17.402 -2.0506 -0.2791 -1.4367
 8203SOL     OW36241   3.133   2.539   8.494 -0.1914  0.1317 -0.4423
 8203SOL    HW136242   3.080   2.544   8.415 -0.3625 -0.7594 -0.3845
 8203SOL    HW236243   3.092   2.467   8.543  0.6739  0.4379  0.7271
 8204SOL     OW36244   1.939   0.011   6.854 -0.3062 -0.0986  0.2412
 8204SOL    HW136245   2.027   0.003   6.893 -0.1833  0.5799  0.1089
 8204SOL    HW236246   1.958   0.077   6.787 -1.1679  0.0446  0.1359
 8205SOL     OW36247   3.355   3.332   2.122 -0.0639  0.0142  0.0061
 8205SOL    HW136248   3.326   3.241   2.107 -0.0361 -0.1910  1.2118
 8205SOL    HW236249   3.283   3.372   2.171 -0.1902 -1.2181  0.8355
 8206SOL     OW36250   1.949   4.532   0.916  0.0380 -0.1629  0.1310
 8206SOL    HW136251   1.986   4.555   1.002 -0.8491 -1.4677  0.8590
 8206SOL    HW236252   1.902   4.452   0.941 -0.6273 -0.7895 -3.1103
 8207SOL     OW36253   4.400   3.381  11.977  0.1756  0.5895 -0.1461
 8207SOL    HW136254   4.363   3.293  11.983  2.1508 -0.2340  0.0681
 8207SOL    HW236255   4.372   3.434  12.052  1.9949  0.2119  0.8236
 8208SOL     OW36256   0.323   4.432   2.932  0.0843  0.6548 -0.1508
 8208SOL    HW136257   0.334   4.527   2.938  1.5016  0.6653 -3.1634
 8208SOL    HW236258   0.409   4.394   2.913  1.3958  3.5650 -0.0890
 8209SOL     OW36259   2.303   0.140   5.213  0.3206  0.3537 -0.1594
 8209SOL    HW136260   2.292   0.159   5.119  0.8352  0.2421 -0.2425
 8209SOL    HW236261   2.270   0.223   5.246  1.5980  0.3010  1.2663
 8210SOL     OW36262   1.550   2.943   2.517  0.1793  0.0333  0.6875
 8210SOL    HW136263   1.467   2.941   2.470  0.8967  1.2230 -0.6340
 8210SOL    HW236264   1.612   2.912   2.451  0.3530  2.1230 -0.1345
 8211SOL     OW36265   0.166   2.988   2.307  0.2281 -0.1156 -0.1031
 8211SOL    HW136266   0.113   2.909   2.295 -0.3930  0.5120 -1.3348
 8211SOL    HW236267   0.098   3.052   2.288  0.8272  0.7790  0.7512
 8212SOL     OW36268   0.379   4.346  14.581  0.5375  0.1212  0.1146
 8212SOL    HW136269   0.344   4.428  14.616 -0.5126  0.5860 -2.0131
 8212SOL    HW236270   0.303   4.316  14.530 -0.3328  0.6134  1.1163
 8213SOL     OW36271   0.560   0.789  15.193 -0.1942  0.3001  0.2725
 8213SOL    HW136272   0.569   0.865  15.135 -0.0620 -0.5347 -0.8042
 8213SOL    HW236273   0.537   0.723  15.128 -1.5843  0.5031  0.5523
 8214SOL     OW36274   0.388   3.791  15.268 -0.4895 -0.6356 -0.2592
 8214SOL    HW136275   0.422   3.759  15.352  0.7904  0.9504 -0.1628
 8214SOL    HW236276   0.440   3.751  15.198 -0.6060 -2.2487  0.5557
 8215SOL     OW36277   4.461   2.676   2.394  0.0914  0.2033 -0.0491
 8215SOL    HW136278   4.412   2.594   2.399  1.3904 -0.5805 -0.3044
 8215SOL    HW236279   4.449   2.702   2.485 -1.1972  0.2691 -0.2428
 8216SOL     OW36280   0.852   3.423   8.228  0.4284  0.0833 -0.4450
 8216SOL    HW136281   0.864   3.504   8.179  2.0052 -0.8697 -1.6413
 8216SOL    HW236282   0.943   3.395   8.231  1.1536  2.5161 -0.2752
 8217SOL     OW36283   1.720   4.280   0.827 -0.7462 -0.4570 -0.4664
 8217SOL    HW136284   1.787   4.223   0.863  1.4650  1.1624 -2.0101
 8217SOL    HW236285   1.697   4.333   0.903 -1.4757 -1.4023 -0.0263
 8218SOL     OW36286   3.955   2.818   3.121 -0.1091  0.2466  0.0065
 8218SOL    HW136287   3.888   2.862   3.068 -1.4087  0.7841  2.0660
 8218SOL    HW236288   4.006   2.895   3.145  1.6886 -0.8573 -0.3179
 8219SOL     OW36289   1.202   3.127   8.663 -0.0543 -0.1837  0.3748
 8219SOL    HW136290   1.234   3.157   8.748  0.1874 -3.1585  1.3213
 8219SOL    HW236291   1.138   3.197   8.648 -1.6625 -1.7531 -0.1286
 8220SOL     OW36292   0.075   0.060  17.324 -1.0363  0.3188 -0.1328
 8220SOL    HW136293   0.004   0.041  17.385  1.2980 -1.3446  2.0687
 8220SOL    HW236294   0.027   0.111  17.258  0.1473  1.4595 -0.1135
 8221SOL     OW36295   4.075   4.659  15.662 -0.0473  0.5692 -0.0885
 8221SOL    HW136296   4.025   4.696  15.589  1.7486  1.9202 -0.6315
 8221SOL    HW236297   4.066   4.565  15.650  0.1918  0.1335  3.0210
 8222SOL     OW36298   0.926   3.850  15.395 -0.0232 -0.0750 -0.6453
 8222SOL    HW136299   0.871   3.784  15.354  1.9714 -1.0834 -1.7071
 8222SOL    HW236300   1.001   3.798  15.424 -1.6629 -1.3709  1.2665
 8223SOL     OW36301   2.422   2.784   4.874  0.6299  0.0970  0.1142
 8223SOL    HW136302   2.340   2.828   4.851 -0.4810 -1.2533  1.4814
 8223SOL    HW236303   2.419   2.712   4.811 -2.9350 -0.3774  0.8407
 8224SOL     OW36304   2.802   2.594  17.624  0.3150 -0.2554 -0.1313
 8224SOL    HW136305   2.825   2.678  17.583 -0.7539 -0.0941 -0.3830
 8224SOL    HW236306   2.799   2.618  17.717  2.7966 -0.3115 -0.0217
 8225SOL     OW36307   0.472   4.454   4.739 -0.4674 -0.0484 -0.0161
 8225SOL    HW136308   0.522   4.433   4.659 -0.3973 -0.1781  0.0617
 8225SOL    HW236309   0.400   4.394   4.725 -1.4003  0.9670  0.4709
 8226SOL     OW36310   2.394   3.212   6.723 -0.0935  0.4608 -0.3764
 8226SOL    HW136311   2.483   3.187   6.699 -0.6431  0.4222 -2.4164
 8226SOL    HW236312   2.394   3.308   6.721  0.6143  0.4439 -1.0720
 8227SOL     OW36313   4.360   0.819   4.086  0.2361 -0.2762 -0.1583
 8227SOL    HW136314   4.411   0.738   4.078 -0.0258 -0.2569 -1.9671
 8227SOL    HW236315   4.392   0.872   4.158 -2.5635  1.8182 -0.4625
 8228SOL     OW36316   1.160   4.124   3.502 -0.0935 -0.2662  0.5228
 8228SOL    HW136317   1.212   4.204   3.504  1.2113 -1.0283 -4.4636
 8228SOL    HW236318   1.209   4.071   3.565  3.3676  2.2158 -0.0478
 8229SOL     OW36319   3.097   0.026   8.494  0.1336  0.5222  0.5056
 8229SOL    HW136320   3.110   4.703   8.571  1.5535 -1.2006 -0.9697
 8229SOL    HW236321   3.100   0.110   8.539  1.4035  0.1192  1.1750
 8230SOL     OW36322   4.018   4.039   0.998 -0.3761 -0.8899 -0.1028
 8230SOL    HW136323   4.103   4.081   1.004  0.2253 -2.2236  0.8830
 8230SOL    HW236324   3.988   4.066   0.911  0.5046 -0.6991 -0.3429
 8231SOL     OW36325   2.837   0.917   0.371  0.0575  0.2632 -0.1042
 8231SOL    HW136326   2.865   0.842   0.318 -0.6885 -1.4309  1.9387
 8231SOL    HW236327   2.904   0.904   0.438  1.7780  1.8936 -1.4945
 8232SOL     OW36328   0.922   1.682   6.990 -0.4693  0.2862 -0.3589
 8232SOL    HW136329   0.944   1.698   7.082 -1.1304 -0.4090 -0.0883
 8232SOL    HW236330   0.960   1.761   6.952  0.7339 -0.7650 -1.3347
 8233SOL     OW36331   1.142   1.574  10.451  0.0144 -0.1755  0.3394
 8233SOL    HW136332   1.122   1.495  10.500  0.1977  0.3378  1.2515
 8233SOL    HW236333   1.137   1.642  10.518  0.9145  0.0885  0.1444
 8234SOL     OW36334   4.485   0.456  10.686 -0.2872 -0.7409  0.1491
 8234SOL    HW136335   4.538   0.436  10.609 -0.5002  0.9351 -0.4316
 8234SOL    HW236336   4.504   0.385  10.748  2.0555  1.6749  2.1807
 8235SOL     OW36337   3.313   2.066   5.061 -0.1418  0.1799 -0.3740
 8235SOL    HW136338   3.254   1.991   5.051 -1.4140  1.1532 -0.2316
 8235SOL    HW236339   3.273   2.124   5.126  0.2156 -1.0857  0.9779
 8236SOL     OW36340   4.635   1.655   4.159 -0.1483  0.6178  0.3788
 8236SOL    HW136341   4.556   1.694   4.122 -1.2339 -1.2007  0.8173
 8236SOL    HW236342   4.598   1.609   4.234  1.3527 -0.4955  0.4247
 8237SOL     OW36343   0.717   0.834   8.313  0.4446 -0.3399 -0.1337
 8237SOL    HW136344   0.697   0.826   8.406  0.8722 -1.9333 -0.1872
 8237SOL    HW236345   0.809   0.805   8.316  0.4081 -0.4638 -0.1967
 8238SOL     OW36346   0.811   1.408   4.147 -0.0070  0.2691 -0.6269
 8238SOL    HW136347   0.826   1.374   4.059  0.9193 -0.5206 -0.1617
 8238SOL    HW236348   0.731   1.460   4.138 -0.4863 -0.1617  1.2463
 8239SOL     OW36349   0.957   3.036   8.395 -0.1080 -0.2837  0.1800
 8239SOL    HW136350   1.019   3.106   8.374 -1.2989 -0.0301 -2.4667
 8239SOL    HW236351   0.906   3.083   8.461  1.9911  0.4537  1.2935
 8240SOL     OW36352   2.535   1.503   5.238  0.0631 -0.0368 -0.1256
 8240SOL    HW136353   2.511   1.454   5.317 -0.2665 -0.4984 -0.5091
 8240SOL    HW236354   2.504   1.591   5.258  1.0687  0.9265 -2.9332
 8241SOL     OW36355   0.343   1.907   5.677 -0.2675 -0.0446 -0.7095
 8241SOL    HW136356   0.316   1.816   5.691  2.1192 -0.3837  1.6148
 8241SOL    HW236357   0.434   1.899   5.648 -0.3589  1.8254 -1.5165
 8242SOL     OW36358   1.414   3.051   8.193 -0.7277 -0.1391  0.0714
 8242SOL    HW136359   1.385   2.981   8.135  2.6885 -0.2104 -1.4997
 8242SOL    HW236360   1.364   3.025   8.271  1.1233  0.0178  1.3006
 8243SOL     OW36361   1.721   0.907  13.663  0.0118  0.0618  0.1532
 8243SOL    HW136362   1.676   0.992  13.660 -1.4754 -0.7412 -0.2064
 8243SOL    HW236363   1.655   0.851  13.621  1.5887 -1.4489 -0.2863
 8244SOL     OW36364   1.182   2.609   4.416  0.5178  0.1307 -0.3102
 8244SOL    HW136365   1.102   2.601   4.467  0.7791  1.0365  0.2391
 8244SOL    HW236366   1.202   2.516   4.418  0.4890  0.1332  0.0303
 8245SOL     OW36367   4.049   4.575   3.248  0.2466 -0.8735  0.2159
 8245SOL    HW136368   4.141   4.600   3.264 -0.8792  2.8067  0.9846
 8245SOL    HW236369   4.042   4.491   3.292  3.2746 -1.3969 -0.2810
 8246SOL     OW36370   3.205   3.192   5.081 -0.6410 -0.4624 -0.1774
 8246SOL    HW136371   3.134   3.233   5.130  0.9616  0.4214  1.4024
 8246SOL    HW236372   3.156   3.145   5.014  0.4022  0.2314 -1.4473
 8247SOL     OW36373   0.458   0.553  13.906  0.4616 -0.1333  0.1066
 8247SOL    HW136374   0.423   0.482  13.960  0.7946 -1.5512 -1.5613
 8247SOL    HW236375   0.386   0.564  13.845  1.2336 -1.6339 -1.0898
 8248SOL     OW36376   0.527   4.560   3.162 -0.1248  0.2964  0.3306
 8248SOL    HW136377   0.454   4.532   3.216 -2.1032  0.9331 -2.0467
 8248SOL    HW236378   0.571   4.634   3.205 -1.1186  0.6464  0.7276
 8249SOL     OW36379   0.006   0.584   7.674  0.2831  0.5190 -0.0993
 8249SOL    HW136380   0.097   0.580   7.644  0.3920 -0.5431  0.3990
 8249SOL    HW236381   0.023   0.623   7.760  0.1671  4.5608 -1.9091
 8250SOL     OW36382   4.382   0.067   6.867  0.0015 -0.0730 -0.3778
 8250SOL    HW136383   4.333   4.717   6.864 -2.1279  1.1978 -0.9418
 8250SOL    HW236384   4.474   0.045   6.857  0.2569  0.0921  1.7003
 8251SOL     OW36385   2.543   3.180  12.903 -0.0376  0.1467  0.0722
 8251SOL    HW136386   2.571   3.219  12.820 -0.6260  2.1334  0.8222
 8251SOL    HW236387   2.605   3.216  12.966 -0.2575 -1.0701  0.9746
 8252SOL     OW36388   4.238   4.137   4.377 -0.4954  0.0622  0.2125
 8252SOL    HW136389   4.214   4.201   4.309 -1.4640  0.8208  1.2679
 8252SOL    HW236390   4.282   4.179   4.451  1.0248 -0.0432 -0.6420
 8253SOL     OW36391   3.502   3.780   7.029 -0.2766  0.0695  0.2513
 8253SOL    HW136392   3.550   3.719   7.085  2.1094  1.1104 -0.6584
 8253SOL    HW236393   3.566   3.849   7.012 -0.3563  0.1363  0.2230
 8254SOL     OW36394   3.130   3.875   3.854 -0.2659  0.0953 -0.2271
 8254SOL    HW136395   3.142   3.882   3.760 -0.6662  1.4011 -0.1801
 8254SOL    HW236396   3.051   3.821   3.852 -0.2121  0.0344 -0.5610
 8255SOL     OW36397   4.286   2.726  16.976 -0.2260  0.4229  0.3451
 8255SOL    HW136398   4.324   2.746  17.062 -1.8196  0.0250  1.1527
 8255SOL    HW236399   4.267   2.807  16.930 -3.0927 -1.2484 -1.4304
 8256SOL     OW36400   1.989   1.191  14.487 -0.2416 -0.4186  0.9591
 8256SOL    HW136401   2.027   1.213  14.402 -0.1400 -3.0385  0.3403
 8256SOL    HW236402   2.054   1.228  14.546  1.7037  2.1523 -2.8187
 8257SOL     OW36403   0.096   2.762  13.266  0.1715 -0.0458  0.2812
 8257SOL    HW136404   0.092   2.857  13.266  0.1408 -0.0522  2.6453
 8257SOL    HW236405   0.177   2.743  13.217  0.2921 -3.0135  1.6193
 8258SOL     OW36406   3.133   2.860   2.767 -0.1427  0.0145  0.4280
 8258SOL    HW136407   3.077   2.907   2.705 -4.0876 -1.9768  2.4857
 8258SOL    HW236408   3.064   2.823   2.822  0.3946 -1.7901 -0.1188
 8259SOL     OW36409   2.297   0.297   6.225 -0.0582  0.1775  0.2035
 8259SOL    HW136410   2.384   0.309   6.186 -0.9249 -0.5018 -1.9131
 8259SOL    HW236411   2.265   0.228   6.168  1.5525  1.2011 -1.9511
 8260SOL     OW36412   4.614   1.334   7.969 -0.2439  0.2267  0.1264
 8260SOL    HW136413   4.569   1.418   7.961  3.1452  2.3506  3.4311
 8260SOL    HW236414   4.543   1.271   7.955 -1.4085  1.1707  1.7093
 8261SOL     OW36415   3.422   4.491   6.159  0.2779  0.2430  0.3650
 8261SOL    HW136416   3.463   4.471   6.074  0.4962  1.2442  0.2323
 8261SOL    HW236417   3.327   4.477   6.150  0.0977  1.1193  0.9410
 8262SOL     OW36418   3.079   1.604  16.285 -0.3838  0.4999  0.0216
 8262SOL    HW136419   3.073   1.619  16.191  0.3906  1.3333  0.1068
 8262SOL    HW236420   3.016   1.532  16.294 -0.5082  0.6902  0.7025
 8263SOL     OW36421   0.438   3.610   8.436 -0.0285  0.2443 -0.0393
 8263SOL    HW136422   0.451   3.581   8.526 -0.5050  0.0399 -0.0370
 8263SOL    HW236423   0.416   3.528   8.391  2.5998  0.4819 -1.7996
 8264SOL     OW36424   1.488   1.319   3.748  0.2347 -0.1276  0.1051
 8264SOL    HW136425   1.524   1.408   3.754 -0.8837  0.1917  2.0083
 8264SOL    HW236426   1.443   1.323   3.664 -0.3706 -1.5905  0.3570
 8265SOL     OW36427   1.044   1.266  15.376  0.2830 -0.0451  0.6329
 8265SOL    HW136428   1.089   1.299  15.453  2.3802  0.5303 -0.8581
 8265SOL    HW236429   0.953   1.248  15.402  0.4132  1.8202  2.3616
 8266SOL     OW36430   4.305   3.058  17.106  0.1527 -0.4527 -0.3652
 8266SOL    HW136431   4.259   3.127  17.153  0.1942  0.9833 -2.4125
 8266SOL    HW236432   4.388   3.056  17.154  0.2373  0.7841 -0.4689
 8267SOL     OW36433   3.714   1.355   4.727  0.2888 -0.1630  0.1405
 8267SOL    HW136434   3.644   1.323   4.784  0.3068  1.2046  0.9156
 8267SOL    HW236435   3.768   1.398   4.792  0.3932  1.3397 -0.9511
 8268SOL     OW36436   4.500   1.100   4.831  0.3014 -0.5388 -0.0138
 8268SOL    HW136437   4.478   1.178   4.780 -1.0866  0.6186  2.3742
 8268SOL    HW236438   4.426   1.098   4.892 -0.9066 -0.6215 -1.4844
 8269SOL     OW36439   4.629   1.064   3.202 -0.2557 -0.5123 -0.2491
 8269SOL    HW136440   4.546   1.109   3.218 -0.4140 -0.8639 -0.0728
 8269SOL    HW236441   4.589   0.996   3.147 -0.6489 -1.1152  0.7892
 8270SOL     OW36442   1.351   3.965   2.537 -0.4889 -0.2795  0.0412
 8270SOL    HW136443   1.335   3.916   2.457  3.4780 -0.5684 -0.5368
 8270SOL    HW236444   1.257   3.984   2.545 -0.2895  1.9234 -2.9357
 8271SOL     OW36445   0.638   3.059   3.069  0.6395 -0.0844 -0.4201
 8271SOL    HW136446   0.586   3.108   3.133  0.7086  1.8056 -1.8083
 8271SOL    HW236447   0.694   3.125   3.027 -0.6532  0.3048 -1.5231
 8272SOL     OW36448   0.059   1.216   3.952 -0.8412 -0.1183 -0.3138
 8272SOL    HW136449   4.713   1.224   3.898 -1.5259 -1.5242  0.4837
 8272SOL    HW236450   0.078   1.307   3.976 -1.5414 -0.6893  2.4208
 8273SOL     OW36451   1.730   2.496   1.426  0.1217 -0.0053 -0.2484
 8273SOL    HW136452   1.820   2.475   1.452  0.0444  1.1757  0.9178
 8273SOL    HW236453   1.747   2.579   1.381 -1.8122  0.1204 -0.7407
 8274SOL     OW36454   1.290   3.741   4.341 -0.5834  0.2694 -0.1328
 8274SOL    HW136455   1.317   3.816   4.288 -1.2255  1.0224  0.6062
 8274SOL    HW236456   1.273   3.675   4.274 -2.0140 -0.5449  1.0367
 8275SOL     OW36457   1.967   3.348  11.230  0.0256  0.1130 -0.2144
 8275SOL    HW136458   1.963   3.357  11.325 -1.1924  1.4231 -0.3727
 8275SOL    HW236459   1.925   3.432  11.209  1.5451  1.2148  1.2015
 8276SOL     OW36460   1.361   2.821   4.414  0.5421  0.9917  0.0947
 8276SOL    HW136461   1.296   2.752   4.407  1.8246 -0.2742  0.8107
 8276SOL    HW236462   1.316   2.905   4.400 -3.7082 -0.8150  3.2061
 8277SOL     OW36463   4.364   1.458   6.579 -0.2740 -0.1651 -0.4687
 8277SOL    HW136464   4.346   1.421   6.493  0.2719  0.6216 -0.9122
 8277SOL    HW236465   4.283   1.437   6.626  1.3506 -3.4991  0.9271
 8278SOL     OW36466   4.423   3.062   7.045  0.2988  0.0785  0.2888
 8278SOL    HW136467   4.362   3.122   7.003 -1.7126 -0.6422  2.1610
 8278SOL    HW236468   4.406   2.971   7.018  1.1474 -1.4790  5.0676
 8279SOL     OW36469   0.862   1.941  11.773 -0.2279 -0.3718 -0.2699
 8279SOL    HW136470   0.938   1.886  11.795  0.1841  1.0731  1.8242
 8279SOL    HW236471   0.788   1.896  11.812  0.1840 -1.0545 -0.2589
 8280SOL     OW36472   3.882   0.323   7.961 -0.1889  0.1578 -0.5465
 8280SOL    HW136473   3.901   0.358   8.048  2.3693 -1.2751 -0.5053
 8280SOL    HW236474   3.944   0.249   7.964  1.0105  1.1230 -1.3760
 8281SOL     OW36475   1.361   4.012  11.397 -0.5721 -0.4294 -0.3605
 8281SOL    HW136476   1.426   3.961  11.447  1.5516  2.1698 -0.4807
 8281SOL    HW236477   1.400   4.012  11.309 -0.9161  1.1675 -0.5044
 8282SOL     OW36478   1.321   2.285   6.608  0.2625  0.1284  0.1198
 8282SOL    HW136479   1.388   2.261   6.672  1.0536 -3.2832 -2.0213
 8282SOL    HW236480   1.387   2.281   6.539 -0.9747  1.7535 -1.1746
 8283SOL     OW36481   4.590   0.827   3.914 -0.3500  0.3476 -0.3241
 8283SOL    HW136482   4.634   0.825   3.999 -1.9448  1.1173  0.5255
 8283SOL    HW236483   4.515   0.883   3.934  0.5813  2.3355 -2.3801
 8284SOL     OW36484   1.980   3.500   3.225 -0.1399  0.3839  0.2017
 8284SOL    HW136485   1.896   3.504   3.270  0.0514  1.2479  0.4804
 8284SOL    HW236486   2.033   3.516   3.303 -1.5238 -0.0467  1.2258
 8285SOL     OW36487   4.574   3.156  12.823 -0.2268 -0.2640 -0.5907
 8285SOL    HW136488   4.517   3.177  12.898 -2.3571  1.9628 -2.8458
 8285SOL    HW236489   4.645   3.101  12.857 -0.4226 -0.6924 -0.8841
 8286SOL     OW36490   1.457   3.656   8.817  0.0890 -0.1259 -0.2326
 8286SOL    HW136491   1.530   3.598   8.794  0.8285  2.6155 -4.7430
 8286SOL    HW236492   1.497   3.708   8.886 -0.4795  0.4696 -0.3563
 8287SOL     OW36493   4.458   2.941   4.298  0.3610 -0.5717 -0.3355
 8287SOL    HW136494   4.484   2.894   4.218  0.0847 -0.7929 -0.2963
 8287SOL    HW236495   4.545   2.980   4.300  0.1071 -0.1139  1.2979
 8288SOL     OW36496   4.466   1.639  12.214 -0.5313  0.4099 -0.2588
 8288SOL    HW136497   4.378   1.670  12.193 -0.1780  0.7115 -1.2828
 8288SOL    HW236498   4.461   1.547  12.186  1.8835  0.3229 -0.3386
 8289SOL     OW36499   2.980   2.647   9.226 -0.0537 -0.1840 -0.5238
 8289SOL    HW136500   2.971   2.733   9.186 -1.7764 -0.2635 -0.3165
 8289SOL    HW236501   2.918   2.598   9.172  0.5745 -0.1841 -1.2419
 8290SOL     OW36502   0.237   3.993   2.197 -0.2263  0.0910  0.4257
 8290SOL    HW136503   0.305   4.053   2.167 -1.4986  0.8067 -1.0170
 8290SOL    HW236504   0.218   3.949   2.114 -1.5240  1.6255 -0.0895
 8291SOL     OW36505   1.450   3.334   2.619  0.2376  0.0873  0.6297
 8291SOL    HW136506   1.514   3.266   2.638 -1.3690 -1.4258  0.5966
 8291SOL    HW236507   1.389   3.323   2.691  0.2042 -0.5831  0.4967
 8292SOL     OW36508   0.212   2.744   8.237 -0.0621 -0.1923 -0.1652
 8292SOL    HW136509   0.245   2.669   8.187  0.3536  0.2042 -0.4861
 8292SOL    HW236510   0.144   2.772   8.177 -0.4194 -0.1964  0.2410
 8293SOL     OW36511   0.509   3.854  11.265  0.1176  0.5330 -0.2611
 8293SOL    HW136512   0.541   3.873  11.176  0.9580  1.4282  0.2289
 8293SOL    HW236513   0.523   3.936  11.312  0.8427  0.8332 -0.9736
 8294SOL     OW36514   0.536   3.695   2.388 -0.1648 -0.0080 -0.0652
 8294SOL    HW136515   0.490   3.773   2.357 -0.2178 -0.2668 -0.6338
 8294SOL    HW236516   0.595   3.735   2.451  0.6983 -0.7957 -0.3805
 8295SOL     OW36517   1.758   3.306   6.600  0.0479 -0.2531  0.4556
 8295SOL    HW136518   1.793   3.229   6.556  0.1064 -1.2039  2.1601
 8295SOL    HW236519   1.695   3.268   6.661 -0.0666  0.2627  0.6596
 8296SOL     OW36520   2.730   3.912   1.884 -0.0722  0.0498 -0.3596
 8296SOL    HW136521   2.782   3.976   1.834 -0.6987 -0.6581 -1.9125
 8296SOL    HW236522   2.644   3.952   1.881  0.3753  1.0030 -0.4975
 8297SOL     OW36523   4.103   0.090   4.573  0.7124  0.3160  0.1775
 8297SOL    HW136524   4.045   0.014   4.571  0.0861  0.8400 -1.5398
 8297SOL    HW236525   4.143   0.095   4.486  0.0929 -1.1962 -0.1901
 8298SOL     OW36526   1.243   4.181   2.940  0.0688  0.5852 -0.3340
 8298SOL    HW136527   1.262   4.262   2.986  0.4426  0.9515 -1.1434
 8298SOL    HW236528   1.328   4.136   2.947 -0.4591 -0.2546  0.6905
 8299SOL     OW36529   3.356   3.047   5.229  0.6512  0.1985 -0.1159
 8299SOL    HW136530   3.310   3.121   5.190  0.2045  0.5711  1.1139
 8299SOL    HW236531   3.288   2.980   5.224  0.1057  0.7360  0.0818
 8300SOL     OW36532   2.710   1.959  11.067 -0.3710  0.1388 -0.4404
 8300SOL    HW136533   2.648   1.946  11.138  0.7925  0.0005  0.5459
 8300SOL    HW236534   2.661   1.913  10.999  0.5092  0.2938 -1.1805
 8301SOL     OW36535   2.835   0.672   2.750 -0.2693  0.1879  0.0394
 8301SOL    HW136536   2.916   0.707   2.787  0.4650 -2.2291  0.7374
 8301SOL    HW236537   2.798   0.623   2.824 -2.1835 -0.7980 -1.5876
 8302SOL     OW36538   1.041   3.793   1.781 -0.4501  0.3667  1.0447
 8302SOL    HW136539   1.047   3.886   1.758  0.8524  0.1441  0.4728
 8302SOL    HW236540   1.069   3.795   1.872 -1.4168 -0.7535  1.3679
 8303SOL     OW36541   0.718   2.416   4.673  0.6626  0.4177  0.1144
 8303SOL    HW136542   0.776   2.384   4.741 -1.8272 -0.6588  1.7298
 8303SOL    HW236543   0.711   2.346   4.608 -0.5765  0.4118  0.2375
 8304SOL     OW36544   0.720   4.059   7.270 -0.5620  0.4440  0.5555
 8304SOL    HW136545   0.628   4.036   7.261 -0.4291 -0.2721  1.0008
 8304SOL    HW236546   0.740   4.010   7.350  0.7874 -0.2713 -0.2121
 8305SOL     OW36547   2.550   1.203   3.444 -0.1138 -0.1623  0.5264
 8305SOL    HW136548   2.574   1.192   3.536 -2.2990 -0.3591  1.0821
 8305SOL    HW236549   2.493   1.133   3.414 -0.5709  1.4485 -2.3649
 8306SOL     OW36550   1.977   3.238  11.727 -0.4079  0.0055  0.3207
 8306SOL    HW136551   1.918   3.172  11.763 -0.9212 -0.8559 -2.1107
 8306SOL    HW236552   2.050   3.193  11.685  0.0119  0.3819  0.6452
 8307SOL     OW36553   0.730   2.066   2.050  0.0540 -0.2956  0.0874
 8307SOL    HW136554   0.701   2.143   2.099 -1.1696 -0.6591 -0.0601
 8307SOL    HW236555   0.765   2.008   2.117  0.1458 -1.4441 -0.9669
 8308SOL     OW36556   2.849   0.574   8.001 -0.3657 -0.5630  0.0598
 8308SOL    HW136557   2.757   0.591   7.980 -0.5307 -1.7410 -0.2059
 8308SOL    HW236558   2.888   0.643   7.947  2.4784  0.0086  2.8002
 8309SOL     OW36559   2.642   4.630   2.988  0.1421  0.0657  0.3012
 8309SOL    HW136560   2.653   4.540   2.959 -3.1332 -0.7616  1.6623
 8309SOL    HW236561   2.676   4.637   3.078  2.2643 -0.2868 -0.4748
 8310SOL     OW36562   1.562   0.024  14.346  0.2905 -0.5722  0.9858
 8310SOL    HW136563   1.590   4.668  14.323 -2.6031 -0.6585 -2.3049
 8310SOL    HW236564   1.640   0.068  14.311 -0.3500 -2.4417 -2.8865
 8311SOL     OW36565   3.134   4.690   9.049 -0.3077  0.2202 -0.2929
 8311SOL    HW136566   3.082   0.018   8.997  2.0352  2.7165  0.2766
 8311SOL    HW236567   3.089   4.665   9.130 -0.6157 -1.6603 -1.0466
 8312SOL     OW36568   3.560   0.617   3.167  0.1903 -0.3324  0.1719
 8312SOL    HW136569   3.532   0.548   3.107  1.0445 -0.0762 -0.5183
 8312SOL    HW236570   3.473   0.635   3.204  0.1718 -2.5792  1.2298
 8313SOL     OW36571   4.058   2.080   6.779 -0.5168 -0.0219  0.4080
 8313SOL    HW136572   4.077   2.038   6.695  0.6686 -0.0118  0.6680
 8313SOL    HW236573   4.015   2.162   6.759 -0.4794 -0.6045 -1.9945
 8314SOL     OW36574   4.725   0.398   1.157 -0.4355 -0.0574 -0.4021
 8314SOL    HW136575   0.028   0.317   1.194  0.6952 -0.3177 -2.0719
 8314SOL    HW236576   0.039   0.403   1.074 -0.2904  0.4389 -0.2902
 8315SOL     OW36577   2.499   2.649   4.637  0.1236  0.3562  0.3326
 8315SOL    HW136578   2.437   2.670   4.568 -0.7369 -1.7682  0.4743
 8315SOL    HW236579   2.574   2.701   4.609 -1.7938  2.2033 -1.2954
 8316SOL     OW36580   1.181   1.536  12.292 -0.3295  0.4557 -0.1106
 8316SOL    HW136581   1.252   1.600  12.285  0.2392 -0.0249  1.2839
 8316SOL    HW236582   1.232   1.456  12.300  1.5719  1.5577 -1.4659
 8317SOL     OW36583   3.574   0.964   9.301  0.4567  0.4903  0.6174
 8317SOL    HW136584   3.508   1.006   9.356 -2.8161 -3.4071 -0.3980
 8317SOL    HW236585   3.554   0.876   9.333  0.2814 -0.0538 -0.9891
 8318SOL     OW36586   3.607   1.425   3.560  0.3191 -0.2168  0.1817
 8318SOL    HW136587   3.662   1.368   3.506  0.6368 -0.3664  0.6641
 8318SOL    HW236588   3.520   1.388   3.546 -0.7397  1.9585  1.0393
 8319SOL     OW36589   3.596   4.105   7.887 -0.0942  0.0081  0.4684
 8319SOL    HW136590   3.625   4.043   7.954 -1.1023  0.4326  1.3082
 8319SOL    HW236591   3.502   4.109   7.905  0.0854 -1.5401  1.8145
 8320SOL     OW36592   4.231   4.336   8.265 -0.1193  0.9183  0.0658
 8320SOL    HW136593   4.245   4.418   8.313  0.7395  1.2852 -0.8017
 8320SOL    HW236594   4.144   4.309   8.294  0.4877 -0.4080  0.6694
 8321SOL     OW36595   4.364   0.574   3.184  0.2012 -0.3983  0.6124
 8321SOL    HW136596   4.406   0.526   3.255  1.4754  0.6521  0.5746
 8321SOL    HW236597   4.315   0.634   3.240  1.0362 -0.1446  1.0723
 8322SOL     OW36598   2.524   3.973  13.020 -0.5668  0.0775 -0.4556
 8322SOL    HW136599   2.451   3.969  12.958  0.4316  0.1029 -1.6437
 8322SOL    HW236600   2.485   3.943  13.102 -0.1490  1.8152  0.3897
 8323SOL     OW36601   1.777   3.591   8.190 -0.2406  0.2081 -0.0379
 8323SOL    HW136602   1.858   3.547   8.168  0.5106  2.6906 -2.2246
 8323SOL    HW236603   1.816   3.663   8.240  0.1084  1.3815 -1.9693
 8324SOL     OW36604   3.763   0.676  16.867  0.0948 -0.6037  0.5173
 8324SOL    HW136605   3.707   0.599  16.857 -0.7878  0.0102  0.7025
 8324SOL    HW236606   3.807   0.643  16.946  0.5174 -0.5646  0.2947
 8325SOL     OW36607   2.258   0.577   7.477 -0.2213 -0.6165 -0.3305
 8325SOL    HW136608   2.263   0.509   7.409 -1.7697  0.0731 -1.1570
 8325SOL    HW236609   2.232   0.657   7.432 -1.6851 -0.8788  0.0306
 8326SOL     OW36610   1.086   3.689   7.625  0.3000 -0.2718 -0.1947
 8326SOL    HW136611   1.019   3.624   7.604  0.8568 -1.0424  0.3936
 8326SOL    HW236612   1.165   3.653   7.585  0.2871 -0.5111 -0.0058
 8327SOL     OW36613   1.047   2.038   5.469 -0.4950  0.1506 -0.0790
 8327SOL    HW136614   0.971   2.095   5.478 -0.7421  0.0491 -1.4357
 8327SOL    HW236615   1.018   1.960   5.421 -2.2576  0.1475  1.0029
 8328SOL     OW36616   1.966   1.764   5.628 -0.0691  0.3130 -0.6293
 8328SOL    HW136617   1.879   1.804   5.625  0.2430  1.0686  0.5530
 8328SOL    HW236618   2.015   1.845   5.641 -0.1384  0.5115 -1.5706
 8329SOL     OW36619   1.963   1.805   8.446  0.1563  0.1549  0.4272
 8329SOL    HW136620   2.001   1.861   8.378 -0.7284 -0.6698 -0.7410
 8329SOL    HW236621   1.966   1.866   8.520  1.5933  0.5220  0.0794
 8330SOL     OW36622   1.262   1.493   8.004  0.4609  0.1639 -0.3244
 8330SOL    HW136623   1.331   1.514   8.067 -1.1586 -1.6893  2.0638
 8330SOL    HW236624   1.303   1.494   7.918  1.6850 -0.5990  0.2510
 8331SOL     OW36625   0.486   1.209  10.882 -0.4535  0.3488  0.0657
 8331SOL    HW136626   0.537   1.277  10.925 -0.4540  1.9633 -2.5373
 8331SOL    HW236627   0.404   1.202  10.932 -0.2453  2.1560  0.6390
 8332SOL     OW36628   2.033   3.567  11.767  0.1444  0.5266 -0.0766
 8332SOL    HW136629   2.036   3.652  11.812 -0.7053  0.6938 -0.3349
 8332SOL    HW236630   2.100   3.523  11.820  0.0923  0.5762  0.0319
 8333SOL     OW36631   1.334   4.705   8.074  0.4116  0.0573  0.0154
 8333SOL    HW136632   1.344   4.669   7.986 -0.1981  2.0764 -0.8643
 8333SOL    HW236633   1.298   4.628   8.119 -1.6112  0.9968  0.0228
 8334SOL     OW36634   1.954   0.005   6.382 -1.1213 -0.1271  0.0130
 8334SOL    HW136635   2.042   4.717   6.351  0.0596  1.5695  2.2252
 8334SOL    HW236636   1.961   0.100   6.388  0.0852 -0.1568 -0.8114
 8335SOL     OW36637   0.148   1.729   6.363  0.0168  0.0844 -0.4502
 8335SOL    HW136638   0.208   1.801   6.382 -0.8607  0.7930 -0.4055
 8335SOL    HW236639   0.201   1.654   6.392  0.6456 -0.1355 -2.1600
 8336SOL     OW36640   3.128   2.599   6.607  0.4420 -0.5921  0.0911
 8336SOL    HW136641   3.134   2.599   6.703 -0.0912  0.6943  0.1274
 8336SOL    HW236642   3.094   2.512   6.586  0.6380 -1.0932  1.8316
 8337SOL     OW36643   2.773   3.163  12.269  0.5298  0.2655  0.0516
 8337SOL    HW136644   2.776   3.089  12.208 -0.1758  0.2465  0.0442
 8337SOL    HW236645   2.683   3.148  12.298  1.1173 -2.4600  0.4114
 8338SOL     OW36646   2.046   2.704   9.316 -0.7785  0.1846 -0.1595
 8338SOL    HW136647   1.973   2.752   9.276 -0.0547  1.2662 -0.1928
 8338SOL    HW236648   2.109   2.776   9.321 -2.4716  1.5874  1.3359
 8339SOL     OW36649   4.186   2.888   6.280  0.0576  0.4260 -0.5552
 8339SOL    HW136650   4.154   2.977   6.261  0.4242  1.0007  1.5537
 8339SOL    HW236651   4.232   2.872   6.198  1.1297  2.4720 -0.3505
 8340SOL     OW36652   0.327   1.856   9.401 -0.2638  0.1237 -0.2644
 8340SOL    HW136653   0.410   1.846   9.355  0.8358  2.4965  1.2371
 8340SOL    HW236654   0.356   1.841   9.491 -1.7966 -0.8770  0.0693
 8341SOL     OW36655   1.933   2.318   4.258 -0.9306 -0.1478 -0.5458
 8341SOL    HW136656   1.871   2.285   4.193 -2.8688  1.0103  0.7298
 8341SOL    HW236657   2.010   2.262   4.246  0.4786  0.8730  3.8157
 8342SOL     OW36658   4.295   0.068  10.772 -0.0819 -0.1106 -0.0209
 8342SOL    HW136659   4.319   0.125  10.699 -0.1639 -1.0426 -0.7776
 8342SOL    HW236660   4.344   0.106  10.845  0.1401  0.2613 -0.3611
 8343SOL     OW36661   0.545   2.017   6.973 -0.2386 -0.9874 -1.0397
 8343SOL    HW136662   0.497   1.966   7.037  0.7972 -1.8375 -0.9412
 8343SOL    HW236663   0.527   2.104   7.009 -1.2323 -0.7204 -2.1647
 8344SOL     OW36664   1.132   2.104   4.822  0.0096  0.3748  0.0789
 8344SOL    HW136665   1.205   2.068   4.871 -0.9968 -2.1533 -0.2596
 8344SOL    HW236666   1.107   2.165   4.891 -1.9903  0.0637 -0.3633
 8345SOL     OW36667   1.414   3.417  13.521 -0.8247 -0.0961 -0.4445
 8345SOL    HW136668   1.442   3.410  13.430  1.7663 -1.5491  0.4601
 8345SOL    HW236669   1.327   3.378  13.507 -0.3802 -0.9104 -0.9401
 8346SOL     OW36670   1.954   4.152   5.399  0.1053  0.1813 -0.0895
 8346SOL    HW136671   1.965   4.208   5.322  3.0726  1.5688  1.3204
 8346SOL    HW236672   1.910   4.079   5.357 -0.8863  0.9398 -0.3744
 8347SOL     OW36673   1.522   3.618   1.210  0.2965 -0.3993  0.4808
 8347SOL    HW136674   1.539   3.535   1.166 -0.5033  0.2244 -1.0125
 8347SOL    HW236675   1.507   3.592   1.301 -2.5476 -0.0351  0.1318
 8348SOL     OW36676   0.784   2.207  16.258 -0.2715 -0.0736 -0.2452
 8348SOL    HW136677   0.801   2.290  16.301  0.2511  0.6766 -1.8762
 8348SOL    HW236678   0.872   2.188  16.225 -0.3527 -0.2740 -0.3505
 8349SOL     OW36679   2.288   1.267   2.569  0.4392 -0.1715  0.3468
 8349SOL    HW136680   2.280   1.314   2.652  0.7731 -0.2306  0.4142
 8349SOL    HW236681   2.334   1.186   2.590  0.4127  0.2700  2.0672
 8350SOL     OW36682   1.795   3.479  10.852 -0.2799 -0.0138 -0.4890
 8350SOL    HW136683   1.830   3.401  10.810  0.3817 -0.3812  0.7540
 8350SOL    HW236684   1.873   3.511  10.898 -1.1553  0.3623  0.7414
 8351SOL     OW36685   1.849   3.954  11.783  0.1294 -0.0571  0.1898
 8351SOL    HW136686   1.808   4.010  11.717 -1.5592 -0.4962  0.8891
 8351SOL    HW236687   1.940   3.944  11.754  0.0178 -2.2216  0.5472
 8352SOL     OW36688   0.955   4.712   7.173 -0.5500 -0.4421 -0.2560
 8352SOL    HW136689   0.860   4.711   7.166 -0.5735 -3.5088  0.5477
 8352SOL    HW236690   0.967   4.635   7.229 -0.8875 -1.8961 -2.1815
 8353SOL     OW36691   2.385   0.208   3.298 -0.3249  0.5126 -0.1808
 8353SOL    HW136692   2.366   0.265   3.372 -0.2850 -0.7345  0.7766
 8353SOL    HW236693   2.367   0.123   3.338  0.9874  1.3655  2.2041
 8354SOL     OW36694   0.037   3.627   7.595  0.2994  0.2683  0.3518
 8354SOL    HW136695   4.702   3.633   7.527 -1.0564  1.4613  1.8270
 8354SOL    HW236696   0.054   3.719   7.614 -0.9312  0.9774 -2.0381
 8355SOL     OW36697   2.302   2.756  13.178  0.0491 -0.2504 -0.0225
 8355SOL    HW136698   2.387   2.747  13.134  0.1587  0.6957  0.0008
 8355SOL    HW236699   2.328   2.720  13.263  0.0339 -0.7500 -0.2295
 8356SOL     OW36700   1.678   2.218  13.812  0.2937  0.1732 -0.3433
 8356SOL    HW136701   1.613   2.181  13.871  0.5507  0.8405  0.3740
 8356SOL    HW236702   1.682   2.310  13.841 -0.6355  0.8128 -2.2427
 8357SOL     OW36703   1.539   2.196   6.744 -0.2343 -0.2576  0.5121
 8357SOL    HW136704   1.583   2.112   6.730 -2.3095 -1.7564  2.8799
 8357SOL    HW236705   1.578   2.219   6.828  0.7358  2.0718 -0.5909
 8358SOL     OW36706   1.953   0.655   2.058 -0.5613 -0.0655  0.1038
 8358SOL    HW136707   1.973   0.646   2.152 -0.0895 -0.7351 -0.0605
 8358SOL    HW236708   1.859   0.640   2.061 -0.3805 -1.3778 -0.7267
 8359SOL     OW36709   3.605   1.663   8.898  0.1977  0.2076  0.1568
 8359SOL    HW136710   3.584   1.673   8.805  1.8895 -0.2631 -0.2734
 8359SOL    HW236711   3.524   1.631   8.938  0.8519 -1.4002  0.2228
 8360SOL     OW36712   2.681   1.632  17.196  0.4646 -0.5023 -0.1573
 8360SOL    HW136713   2.646   1.554  17.239 -0.0724  0.9527  2.0720
 8360SOL    HW236714   2.775   1.616  17.208  0.8889  0.3589 -2.2795
 8361SOL     OW36715   1.498   0.498  11.921  0.2227  0.2085 -0.2030
 8361SOL    HW136716   1.482   0.477  11.829  1.6869  1.0515 -0.6443
 8361SOL    HW236717   1.493   0.411  11.962  2.1417  1.8036  3.4390
 8362SOL     OW36718   1.567   1.294   7.077 -0.7235 -0.2450  0.1473
 8362SOL    HW136719   1.536   1.340   7.155 -0.9798  0.0784 -0.1466
 8362SOL    HW236720   1.505   1.221   7.067 -1.8024  0.8290 -0.9916
 8363SOL     OW36721   0.480   0.437   3.655  0.1410 -0.6217 -0.4529
 8363SOL    HW136722   0.394   0.421   3.616 -0.1312  0.1968 -0.1871
 8363SOL    HW236723   0.464   0.489   3.733 -2.5029 -1.3999 -0.4695
 8364SOL     OW36724   2.092   2.937  12.869  0.3996  0.3138 -0.5064
 8364SOL    HW136725   2.158   2.963  12.933  0.2503  1.2931 -0.7352
 8364SOL    HW236726   2.151   2.931  12.794 -1.2486 -0.0348 -1.7758
 8365SOL     OW36727   3.621   4.571   8.374 -0.1019  0.3287 -0.3304
 8365SOL    HW136728   3.686   4.537   8.435  1.7367  2.3997 -1.1418
 8365SOL    HW236729   3.654   4.660   8.358  1.2699  0.1713  1.7122
 8366SOL     OW36730   0.099   2.621   7.414 -0.0095 -0.8347  0.1462
 8366SOL    HW136731   0.060   2.604   7.500 -2.1653 -2.7290 -1.1912
 8366SOL    HW236732   0.146   2.539   7.401  2.3999  0.5157  0.5118
 8367SOL     OW36733   0.870   3.951   8.024  0.4496  0.4413  0.0874
 8367SOL    HW136734   0.877   3.909   7.938  1.3830  0.1275  0.3250
 8367SOL    HW236735   0.817   4.026   7.993  2.7536  2.1657  0.3481
 8368SOL     OW36736   0.463   1.764   4.174  0.1717  0.1047 -0.2957
 8368SOL    HW136737   0.469   1.784   4.268  0.3572 -1.8894  0.1104
 8368SOL    HW236738   0.384   1.817   4.163 -1.0634 -1.4177  1.3219
 8369SOL     OW36739   1.314   0.512   5.742  0.0537  0.0876 -0.5904
 8369SOL    HW136740   1.283   0.519   5.833 -0.1977  0.8331 -0.7333
 8369SOL    HW236741   1.294   0.420   5.725 -1.2136  0.2201  0.1425
 8370SOL     OW36742   2.401   1.187  12.609 -0.1464  0.0311 -0.0323
 8370SOL    HW136743   2.412   1.095  12.633  0.1576  0.1601  0.3216
 8370SOL    HW236744   2.350   1.184  12.528  0.0318  0.1303 -0.1456
 8371SOL     OW36745   1.313   3.104   0.551  0.0112  0.0344  0.4067
 8371SOL    HW136746   1.278   3.067   0.632  0.2621 -1.3690 -0.1155
 8371SOL    HW236747   1.259   3.182   0.541  1.4154  1.1144  1.3560
 8372SOL     OW36748   0.445   4.138   2.747 -0.3846  0.1284  0.2588
 8372SOL    HW136749   0.472   4.096   2.665  1.8795  0.1176  1.0232
 8372SOL    HW236750   0.419   4.223   2.711  1.8094  0.4748 -0.5003
 8373SOL     OW36751   3.293   0.082  16.576 -0.5931  0.3104 -0.5875
 8373SOL    HW136752   3.250   0.158  16.538  0.7116  0.9384 -0.8247
 8373SOL    HW236753   3.347   0.132  16.637 -1.9115  1.9769 -0.7916
 8374SOL     OW36754   0.451   0.747   8.595  0.0025 -0.0231 -0.1206
 8374SOL    HW136755   0.534   0.714   8.559 -1.4872  1.2067 -4.7502
 8374SOL    HW236756   0.464   0.736   8.689  2.6331  0.1168 -0.4764
 8375SOL     OW36757   1.927   1.119   3.741 -0.4500 -0.0469  0.7145
 8375SOL    HW136758   1.898   1.189   3.682 -0.9701  0.4795  1.6009
 8375SOL    HW236759   1.844   1.088   3.777 -1.0323 -0.0491 -0.6043
 8376SOL     OW36760   4.676   0.662  15.491  0.3746 -0.1511  0.2717
 8376SOL    HW136761   4.628   0.744  15.481 -2.6856 -2.0159 -0.3225
 8376SOL    HW236762   4.638   0.628  15.572  0.6297 -1.4768 -0.1682
 8377SOL     OW36763   2.745   3.750   4.823 -0.0428  0.3260 -0.1793
 8377SOL    HW136764   2.701   3.754   4.738 -0.9889 -1.6730  0.2181
 8377SOL    HW236765   2.680   3.783   4.885 -0.0046 -2.7867  1.4857
 8378SOL     OW36766   1.904   4.455   6.618 -0.3461 -0.2943  0.3828
 8378SOL    HW136767   1.972   4.517   6.643 -1.2522  1.3050 -1.1396
 8378SOL    HW236768   1.951   4.395   6.560 -1.0795  0.4631 -0.9957
 8379SOL     OW36769   0.430   1.877   5.334 -0.0779 -0.1405 -0.0431
 8379SOL    HW136770   0.476   1.842   5.410  0.0620  0.1563  0.0069
 8379SOL    HW236771   0.370   1.807   5.308  2.2338 -1.9945 -0.3329
 8380SOL     OW36772   1.311   1.294   5.422 -0.5146 -0.0395  0.2471
 8380SOL    HW136773   1.300   1.200   5.411  2.1694 -0.4757  1.3434
 8380SOL    HW236774   1.242   1.325   5.481 -1.2887 -0.7092 -0.3171
 8381SOL     OW36775   1.017   2.917   4.834 -0.1846  0.0339 -0.1673
 8381SOL    HW136776   1.032   2.967   4.914 -0.3366  1.0262 -0.7544
 8381SOL    HW236777   1.041   2.827   4.854 -0.9175  0.2139  1.5313
 8382SOL     OW36778   3.772   3.882   7.022 -0.1262 -0.2273 -0.1549
 8382SOL    HW136779   3.791   3.944   7.092  1.4577  0.1012 -0.8703
 8382SOL    HW236780   3.755   3.940   6.948  0.9121  0.1839 -0.0690
 8383SOL     OW36781   2.010   1.750   7.902 -0.3949  0.0857  0.0671
 8383SOL    HW136782   2.027   1.822   7.841 -0.7142 -0.9362 -1.2252
 8383SOL    HW236783   2.098   1.737   7.936 -1.8115 -1.8650  3.0666
 8384SOL     OW36784   3.278   3.373  10.577  0.6456 -0.5157  0.4549
 8384SOL    HW136785   3.221   3.428  10.632  1.4227 -0.2093  0.9476
 8384SOL    HW236786   3.367   3.396  10.604  1.2010 -1.4542 -0.5791
 8385SOL     OW36787   1.709   3.695  13.269 -1.1217  0.2416  0.0078
 8385SOL    HW136788   1.682   3.782  13.237 -0.6110 -0.4813 -2.4006
 8385SOL    HW236789   1.727   3.661  13.181 -1.9215 -1.3762  0.4767
 8386SOL     OW36790   4.127   1.867   2.993 -0.2057 -0.3287  0.3696
 8386SOL    HW136791   4.177   1.877   2.911  2.7231 -0.4981  2.1430
 8386SOL    HW236792   4.047   1.843   2.947  0.4638  0.2382 -1.1120
 8387SOL     OW36793   2.333   0.791  12.044 -0.1391 -0.2311  0.0723
 8387SOL    HW136794   2.317   0.832  12.129  1.3211 -2.1162  1.2499
 8387SOL    HW236795   2.354   0.702  12.071 -0.3278 -0.2397  0.1936
 8388SOL     OW36796   4.114   2.293  17.351  0.2211  0.4376  0.2473
 8388SOL    HW136797   4.118   2.267  17.443  0.3304 -0.4460 -0.0097
 8388SOL    HW236798   4.021   2.312  17.345  0.1562  0.7764  2.1178
 8389SOL     OW36799   3.245   0.178  17.448  0.3101 -0.5062  0.0777
 8389SOL    HW136800   3.234   0.255  17.503  0.7373 -0.7209  0.4624
 8389SOL    HW236801   3.178   0.117  17.481 -1.3323  0.8875 -0.6976
 8390SOL     OW36802   2.231   3.652  15.891  0.2067  0.5820  0.0050
 8390SOL    HW136803   2.226   3.747  15.903 -1.7359  0.2953  1.2526
 8390SOL    HW236804   2.279   3.652  15.808  2.1580 -0.7900  1.1253
 8391SOL     OW36805   3.367   4.181   4.345 -0.7692  0.7709 -0.0452
 8391SOL    HW136806   3.311   4.173   4.268  1.2670  2.0398 -1.6544
 8391SOL    HW236807   3.438   4.119   4.325 -3.4148 -2.3631  0.2600
 8392SOL     OW36808   3.061   3.791  16.380 -0.1912 -0.1929  0.4271
 8392SOL    HW136809   3.044   3.862  16.442 -0.8345  0.3337 -0.3330
 8392SOL    HW236810   3.093   3.839  16.303  0.1919 -0.6193  0.3235
 8393SOL     OW36811   2.574   1.006   1.548 -0.1596  0.3642 -0.2691
 8393SOL    HW136812   2.592   1.099   1.560  2.6406 -0.2777  0.5449
 8393SOL    HW236813   2.660   0.978   1.579  0.0273 -0.0719 -1.1712
 8394SOL     OW36814   4.197   1.448   3.549  0.0512 -0.1327  0.2548
 8394SOL    HW136815   4.253   1.516   3.511 -0.7540 -0.1390 -0.9518
 8394SOL    HW236816   4.235   1.434   3.635 -0.9896 -1.6962  0.4504
 8395SOL     OW36817   3.013   1.888   7.471  0.6768 -0.2804 -0.5010
 8395SOL    HW136818   2.920   1.873   7.459  0.5458 -0.3499  0.5836
 8395SOL    HW236819   3.037   1.909   7.381 -1.1229  1.2541 -0.6218
 8396SOL     OW36820   2.323   0.973  12.923  0.2015 -0.1658 -0.2687
 8396SOL    HW136821   2.342   1.066  12.921  0.8659 -0.2582  1.2775
 8396SOL    HW236822   2.406   0.927  12.914  0.3790 -0.0297  0.6952
 8397SOL     OW36823   3.057   0.308   8.870  0.3411  0.2779 -0.1890
 8397SOL    HW136824   3.020   0.390   8.837  0.4232  0.1662 -0.5551
 8397SOL    HW236825   3.150   0.313   8.849  0.4386  1.1150  0.4712
 8398SOL     OW36826   0.379   4.031   7.169 -0.0291  0.5567 -0.4675
 8398SOL    HW136827   0.423   4.106   7.129 -1.4901  0.3143 -2.4929
 8398SOL    HW236828   0.361   3.976   7.093 -2.2278 -1.6206  1.5937
 8399SOL     OW36829   4.695   0.659  12.295  0.4669  0.1367  0.4206
 8399SOL    HW136830   0.019   0.626  12.365  0.4338 -3.0636 -1.0362
 8399SOL    HW236831   4.628   0.707  12.344 -1.9307 -2.9392  0.2490
 8400SOL     OW36832   4.466   0.112   4.396  0.0047 -0.2507 -0.6772
 8400SOL    HW136833   4.548   0.108   4.346  0.4752  0.4680  0.0455
 8400SOL    HW236834   4.492   0.164   4.471 -1.7531 -0.1464 -0.1321
 8401SOL     OW36835   0.139   3.065   2.752 -0.7365  0.1771  0.2219
 8401SOL    HW136836   0.225   3.057   2.710 -0.5764  0.3803  0.5088
 8401SOL    HW236837   0.146   3.159   2.766  0.1975 -0.2122  2.2958
 8402SOL     OW36838   3.367   3.867   3.539 -0.1654 -0.3380 -0.6208
 8402SOL    HW136839   3.430   3.897   3.474 -1.1849  1.2339 -0.8719
 8402SOL    HW236840   3.424   3.791   3.551  1.0665  0.6177 -0.4440
 8403SOL     OW36841   4.310   3.602   4.552  0.1229  0.0689  0.0370
 8403SOL    HW136842   4.319   3.508   4.537  0.3962  0.4669 -2.2787
 8403SOL    HW236843   4.261   3.607   4.633 -0.6374  1.1426 -0.4974
 8404SOL     OW36844   4.467   0.918   6.004  0.1862 -0.2250 -0.2510
 8404SOL    HW136845   4.380   0.884   6.022  0.8240 -1.6664  0.1153
 8404SOL    HW236846   4.464   0.911   5.909 -0.0471 -1.0877 -0.1748
 8405SOL     OW36847   1.000   3.530   2.738 -0.1956  0.7073  0.0980
 8405SOL    HW136848   0.977   3.611   2.782  1.1865 -0.3389  2.7858
 8405SOL    HW236849   1.016   3.466   2.808 -1.1194 -1.4380 -1.6232
 8406SOL     OW36850   3.856   3.246  17.438  0.6697 -0.1898  0.6852
 8406SOL    HW136851   3.839   3.330  17.481  3.1682 -0.9159  3.0882
 8406SOL    HW236852   3.874   3.188  17.511 -1.7305 -1.6366  0.1180
 8407SOL     OW36853   3.607   4.300   2.983  0.7110 -0.0343  0.1421
 8407SOL    HW136854   3.528   4.246   2.994  1.7174 -1.4571  0.3258
 8407SOL    HW236855   3.626   4.298   3.077 -0.4980 -0.3522  0.3842
 8408SOL     OW36856   4.664   4.048   8.948 -0.3926  0.4737 -0.2857
 8408SOL    HW136857   4.703   4.105   8.882 -0.7649  2.4095  1.1654
 8408SOL    HW236858   4.591   4.017   8.893 -0.2565 -1.1240  0.4435
 8409SOL     OW36859   3.828   0.650   0.917 -0.2666 -0.1221  0.1616
 8409SOL    HW136860   3.827   0.714   0.845  2.3603 -2.9744 -2.4473
 8409SOL    HW236861   3.761   0.587   0.892 -1.8205  1.3002  0.7154
 8410SOL     OW36862   1.285   2.913   3.320  0.1951  0.3209 -0.2114
 8410SOL    HW136863   1.256   2.835   3.273  2.2748  0.9756 -2.6110
 8410SOL    HW236864   1.272   2.880   3.409  2.6237  0.7868  0.3242
 8411SOL     OW36865   2.261   2.140   7.997 -0.2413  0.3042 -0.4109
 8411SOL    HW136866   2.249   2.203   7.926 -0.8795 -0.7138 -1.1844
 8411SOL    HW236867   2.316   2.074   7.956  0.3039  1.2189 -1.1594
 8412SOL     OW36868   0.295   2.493   3.264  0.3250 -0.7728 -0.1285
 8412SOL    HW136869   0.211   2.451   3.244  0.0439 -0.0195 -0.5232
 8412SOL    HW236870   0.329   2.481   3.175  2.3032 -0.6325  0.6029
 8413SOL     OW36871   2.928   3.707   5.762  0.2152  0.2848  0.4099
 8413SOL    HW136872   2.948   3.675   5.674  1.3188  2.7578 -0.2373
 8413SOL    HW236873   2.927   3.801   5.744 -1.3225  0.0066 -0.9342
 8414SOL     OW36874   2.131   3.346   7.380  0.2171  0.0468 -0.1402
 8414SOL    HW136875   2.056   3.362   7.437 -0.6564 -0.2568 -1.1969
 8414SOL    HW236876   2.102   3.261   7.348  0.7176 -0.4791  0.8106
 8415SOL     OW36877   2.221   2.340  14.493 -0.2237  0.3644  0.5779
 8415SOL    HW136878   2.156   2.332  14.423 -1.3671  0.8244  1.5859
 8415SOL    HW236879   2.164   2.384  14.555 -0.5319  1.2917 -0.3707
 8416SOL     OW36880   3.974   3.444   9.032 -0.2844 -0.1248 -0.1159
 8416SOL    HW136881   3.909   3.384   9.069 -1.5150 -0.1330 -2.3074
 8416SOL    HW236882   4.015   3.484   9.109  0.9571 -0.5747 -0.5493
 8417SOL     OW36883   2.930   4.109  15.344 -0.6087 -0.5366 -0.0820
 8417SOL    HW136884   3.004   4.048  15.352 -2.0727 -1.9592  2.7488
 8417SOL    HW236885   2.963   4.172  15.408 -0.1051  0.7351 -1.6097
 8418SOL     OW36886   1.768   3.125   8.830 -0.3382  0.2873 -0.4910
 8418SOL    HW136887   1.677   3.134   8.801  0.7318  1.2715 -3.5379
 8418SOL    HW236888   1.816   3.151   8.752  1.3537  1.3381  0.9016
 8419SOL     OW36889   0.622   0.809   5.001 -0.2116  0.5246  0.2589
 8419SOL    HW136890   0.594   0.722   5.029 -0.4535  0.3352 -0.5641
 8419SOL    HW236891   0.541   0.860   5.010 -1.7202 -1.6375 -1.0615
 8420SOL     OW36892   3.920   2.417  10.387 -0.3743  0.2048  0.5131
 8420SOL    HW136893   3.946   2.406  10.479  1.0899  0.5493  0.1381
 8420SOL    HW236894   3.925   2.328  10.351 -0.4976  0.9599 -1.3469
 8421SOL     OW36895   0.261   2.744   1.228  0.3786 -0.3104  0.0823
 8421SOL    HW136896   0.174   2.759   1.190 -0.0003 -1.0620  0.6567
 8421SOL    HW236897   0.253   2.649   1.234 -1.4190  0.0392  3.6623
 8422SOL     OW36898   1.460   2.791  10.271  0.3747  0.1669 -0.3196
 8422SOL    HW136899   1.376   2.746  10.268  0.6254 -0.1169 -2.6832
 8422SOL    HW236900   1.481   2.817  10.361 -1.3344 -4.1593  1.3149
 8423SOL     OW36901   1.835   1.478  15.108  0.7249  0.5505  0.2474
 8423SOL    HW136902   1.840   1.495  15.014  0.2393  2.9763  0.6526
 8423SOL    HW236903   1.773   1.405  15.113  0.6378  0.4951 -1.4921
 8424SOL     OW36904   2.295   0.184   6.834  0.1656 -0.1678  0.1152
 8424SOL    HW136905   2.251   0.105   6.867 -0.6271 -0.0254 -0.6084
 8424SOL    HW236906   2.231   0.255   6.827  1.8940  1.1951 -1.7084
 8425SOL     OW36907   3.574   2.087   0.653 -0.5625 -0.1701 -0.0234
 8425SOL    HW136908   3.517   2.163   0.658 -1.4820 -0.7930 -0.9903
 8425SOL    HW236909   3.660   2.128   0.668 -1.7744  0.9516  3.7739
 8426SOL     OW36910   1.599   3.666  14.594 -0.6476  0.2664  0.4265
 8426SOL    HW136911   1.640   3.726  14.530 -0.9585 -1.3354 -1.2756
 8426SOL    HW236912   1.557   3.604  14.534  1.6566 -0.8371 -0.0513
 8427SOL     OW36913   2.061   3.186   1.178 -0.2234 -0.1837  0.3351
 8427SOL    HW136914   2.082   3.272   1.141 -1.3122  0.6140  1.5679
 8427SOL    HW236915   2.150   3.158   1.202 -0.0541  0.5901  0.6172
 8428SOL     OW36916   2.381   3.885  15.833 -0.4180  1.0039 -0.3479
 8428SOL    HW136917   2.447   3.838  15.781 -2.0025 -0.7819 -0.7491
 8428SOL    HW236918   2.358   3.954  15.771 -3.0762  0.0596 -0.4021
 8429SOL     OW36919   1.568   3.697   5.649 -0.7599  0.3481 -0.7339
 8429SOL    HW136920   1.570   3.776   5.596 -0.3949 -1.1441 -2.9518
 8429SOL    HW236921   1.590   3.739   5.732  0.2848  1.4626 -1.5816
 8430SOL     OW36922   0.825   1.106   7.550 -0.4973 -0.1040  0.2212
 8430SOL    HW136923   0.912   1.143   7.561 -0.0485 -1.4478  1.2308
 8430SOL    HW236924   0.785   1.133   7.633  0.7649  1.3387  0.3641
 8431SOL     OW36925   4.365   3.698  14.911  0.6568 -0.2395  0.5772
 8431SOL    HW136926   4.329   3.777  14.951  1.3002 -0.6156  1.8697
 8431SOL    HW236927   4.306   3.636  14.953 -1.0161  1.2777  0.5031
 8432SOL     OW36928   1.628   0.585   4.976 -0.2877 -0.1079  0.0278
 8432SOL    HW136929   1.548   0.577   4.924 -1.8227  1.1755  2.1904
 8432SOL    HW236930   1.604   0.543   5.059 -0.4290  0.2337  0.1568
 8433SOL     OW36931   1.660   3.106   5.706 -0.4374  0.0053 -0.0753
 8433SOL    HW136932   1.744   3.152   5.710 -0.1175 -0.7334  1.4524
 8433SOL    HW236933   1.652   3.088   5.799 -0.7744  0.5429  0.0041
 8434SOL     OW36934   2.161   3.190  14.031  0.0564 -0.2606 -0.2407
 8434SOL    HW136935   2.212   3.135  13.972  0.1700 -1.3821  0.8953
 8434SOL    HW236936   2.161   3.269  13.978 -0.8343  0.3626  0.6892
 8435SOL     OW36937   1.452   1.912   1.622  1.0007  0.5379 -0.8241
 8435SOL    HW136938   1.495   1.996   1.640 -0.1085  0.5912  1.6879
 8435SOL    HW236939   1.511   1.846   1.660 -2.3875 -0.0045  3.5514
 8436SOL     OW36940   3.169   0.798   6.671  0.2205 -0.2632 -0.4329
 8436SOL    HW136941   3.158   0.845   6.754 -0.4737  1.1170 -1.3099
 8436SOL    HW236942   3.080   0.764   6.659  0.2830 -0.0627 -1.4798
 8437SOL     OW36943   0.980   2.552   6.608  0.0691 -0.3494 -0.5007
 8437SOL    HW136944   1.002   2.551   6.701 -1.7217  1.1982 -0.0521
 8437SOL    HW236945   0.909   2.616   6.600  0.9319  0.8617  1.5362
 8438SOL     OW36946   1.470   1.354  12.223  0.2003  0.1625  0.7981
 8438SOL    HW136947   1.427   1.271  12.243 -1.0702  0.2698 -1.4382
 8438SOL    HW236948   1.547   1.314  12.182 -0.9826 -0.4195 -0.8739
 8439SOL     OW36949   3.228   0.067   7.641  0.7010 -0.1265 -0.0215
 8439SOL    HW136950   3.244   0.150   7.595 -0.0615 -0.4005 -0.7768
 8439SOL    HW236951   3.282   0.078   7.719  2.1077  0.8426 -1.1228
 8440SOL     OW36952   3.070   3.149   6.585  0.5631 -0.1247 -0.8281
 8440SOL    HW136953   3.121   3.079   6.544  0.4528 -1.6168  1.5970
 8440SOL    HW236954   3.030   3.194   6.510  1.6450  0.9047 -0.7946
 8441SOL     OW36955   4.388   0.810   4.775  0.0442  0.5036  0.4670
 8441SOL    HW136956   4.482   0.796   4.765 -0.1261 -0.8150  0.7528
 8441SOL    HW236957   4.363   0.738   4.716  0.5055  0.8359 -0.1256
 8442SOL     OW36958   3.944   3.283   7.561 -0.3090 -0.0110  0.2108
 8442SOL    HW136959   3.982   3.323   7.640  1.3379 -1.7652  0.2963
 8442SOL    HW236960   4.015   3.227   7.530 -1.4409 -0.6846 -1.1750
 8443SOL     OW36961   3.599   4.394   2.006  0.5236 -0.2001 -0.3197
 8443SOL    HW136962   3.553   4.321   1.965 -0.6441  0.2608  0.1635
 8443SOL    HW236963   3.679   4.345   2.028  0.6060  1.2011  2.5287
 8444SOL     OW36964   3.879   4.367  12.923 -0.1294 -0.5072  0.0183
 8444SOL    HW136965   3.891   4.372  13.018  3.2912  0.7421 -0.4806
 8444SOL    HW236966   3.923   4.448  12.899  0.2438 -0.9729 -0.8869
 8445SOL     OW36967   1.196   0.623   3.638  0.0149  0.0135 -0.0186
 8445SOL    HW136968   1.181   0.608   3.731  1.4037  0.2709  0.2452
 8445SOL    HW236969   1.186   0.534   3.604  1.7347 -0.0503 -0.3772
 8446SOL     OW36970   2.153   3.089   9.457 -0.4170  0.3370 -0.0436
 8446SOL    HW136971   2.108   3.113   9.538 -0.3207 -0.4344  0.2386
 8446SOL    HW236972   2.233   3.045   9.487 -0.0081 -0.0803 -1.7435
 8447SOL     OW36973   0.984   1.677   6.436 -0.0880 -0.2925 -0.3446
 8447SOL    HW136974   0.993   1.770   6.458  1.8779  0.0877 -2.7539
 8447SOL    HW236975   1.025   1.623   6.504 -0.0209 -1.9587 -1.7054
 8448SOL     OW36976   4.357   1.953   3.535 -0.1755 -0.0379  0.3878
 8448SOL    HW136977   4.352   2.003   3.453  2.7805 -0.9869 -0.3522
 8448SOL    HW236978   4.269   1.914   3.532 -0.8419  1.4818  0.0914
 8449SOL     OW36979   4.080   3.433  15.316 -0.4257  0.2822 -0.5227
 8449SOL    HW136980   4.022   3.482  15.374 -0.6322  0.2561 -0.7077
 8449SOL    HW236981   4.139   3.500  15.281 -2.2739  1.9600 -0.3589
 8450SOL     OW36982   4.168   0.461   0.364  0.4202  0.3066 -0.6261
 8450SOL    HW136983   4.200   0.371   0.374 -0.9081 -0.1971 -0.9296
 8450SOL    HW236984   4.076   0.449   0.342  0.6288  2.2634 -2.6155
 8451SOL     OW36985   3.870   2.108   9.917 -0.2182 -0.1818  0.3883
 8451SOL    HW136986   3.926   2.040   9.880 -3.6123 -2.4855 -0.4759
 8451SOL    HW236987   3.809   2.125   9.845  2.8178  1.9742 -1.7223
 8452SOL     OW36988   2.704   2.541   5.285 -0.0716  0.0589  0.3343
 8452SOL    HW136989   2.669   2.590   5.211  1.5133 -0.5104 -0.7912
 8452SOL    HW236990   2.750   2.610   5.332 -1.6071  1.4590 -0.2113
 8453SOL     OW36991   4.243   4.380   0.377 -0.4499 -0.8980 -0.1257
 8453SOL    HW136992   4.202   4.448   0.430  0.3384  1.1271 -2.1461
 8453SOL    HW236993   4.169   4.326   0.350 -0.7173 -1.7578  2.3059
 8454SOL     OW36994   2.530   3.984  16.037  0.2337 -0.4234 -0.5124
 8454SOL    HW136995   2.495   3.930  15.966 -1.7954  1.0007 -0.5898
 8454SOL    HW236996   2.624   3.984  16.020  0.3738 -0.6579  0.3006
 8455SOL     OW36997   3.962   4.501   6.096 -0.1452  0.1200  0.4974
 8455SOL    HW136998   3.904   4.574   6.116 -1.2524 -0.4847 -0.5616
 8455SOL    HW236999   4.042   4.553   6.085 -0.6744  1.7235  4.0800
 8456SOL     OW37000   3.964   1.575   7.689 -0.3808 -0.5140 -0.1789
 8456SOL    HW137001   3.933   1.547   7.775  1.3467  0.6027  0.8148
 8456SOL    HW237002   4.033   1.510   7.674 -0.0017 -0.4375  1.2214
 8457SOL     OW37003   0.020   2.372   5.246  0.0342 -0.0121  0.7658
 8457SOL    HW137004   0.027   2.465   5.267 -2.6799  0.6508 -1.1169
 8457SOL    HW237005   0.073   2.342   5.320  0.9647  1.6054  0.7557
 8458SOL     OW37006   3.646   0.389   1.969  0.1031  0.3057 -0.4464
 8458SOL    HW137007   3.564   0.343   1.988 -1.0925  2.1759 -0.9841
 8458SOL    HW237008   3.695   0.354   2.043  2.1687  2.9208 -0.5470
 8459SOL     OW37009   3.514   0.069   5.198  0.5515 -0.0463  0.4831
 8459SOL    HW137010   3.503   0.088   5.291 -1.1129  0.7921  0.1270
 8459SOL    HW237011   3.441   0.121   5.163  1.0416 -1.0390 -2.0610
 8460SOL     OW37012   1.139   2.687  17.631  0.3168  0.3148  0.2441
 8460SOL    HW137013   1.209   2.640  17.677  0.4558 -1.0384 -1.3627
 8460SOL    HW237014   1.133   2.646  17.545  0.0838 -1.0299  0.9084
 8461SOL     OW37015   4.226   3.408   3.570  0.4761 -0.3446  0.1675
 8461SOL    HW137016   4.146   3.359   3.586 -1.2759  2.0758 -1.1294
 8461SOL    HW237017   4.240   3.462   3.648 -1.0262  1.2164 -0.6496
 8462SOL     OW37018   3.934   3.063  17.615 -0.0612 -0.3853  0.5942
 8462SOL    HW137019   3.950   3.041  17.707 -1.4288 -0.7475  0.7535
 8462SOL    HW237020   3.927   2.976  17.575 -0.1844  0.1559 -0.5547
 8463SOL     OW37021   1.099   3.698   8.041 -0.2216  0.7926 -0.0140
 8463SOL    HW137022   1.043   3.771   8.017  1.9675  2.6422  0.4795
 8463SOL    HW237023   1.074   3.628   7.981 -1.0867  0.0329  1.2249
 8464SOL     OW37024   3.333   2.975  14.221  0.2798  0.3668  0.1674
 8464SOL    HW137025   3.301   2.951  14.308  1.6372 -1.5334  0.1342
 8464SOL    HW237026   3.347   3.070  14.228 -0.1949  0.6377 -2.5734
 8465SOL     OW37027   1.872   4.149   4.802  0.3659  0.0171  0.1299
 8465SOL    HW137028   1.850   4.065   4.761 -1.0072  0.6112 -0.3596
 8465SOL    HW237029   1.927   4.108   4.869  1.3470  1.2724  0.1056
 8466SOL     OW37030   4.183   2.626   2.803  0.2728 -0.4327 -0.1828
 8466SOL    HW137031   4.261   2.627   2.858  1.4770  1.1543 -1.8973
 8466SOL    HW237032   4.180   2.720   2.787 -2.2622 -0.7401 -1.4428
 8467SOL     OW37033   2.893   0.547   7.119  0.8340  0.4070 -0.1441
 8467SOL    HW137034   2.965   0.610   7.125 -0.2463  1.5354  0.7850
 8467SOL    HW237035   2.937   0.462   7.106  1.7090  0.9970 -1.0422
 8468SOL     OW37036   4.304   2.902   9.535 -0.4702 -0.2273  0.3406
 8468SOL    HW137037   4.291   2.982   9.484  2.5677 -0.8488 -1.4030
 8468SOL    HW237038   4.388   2.876   9.497 -2.3152 -1.5443 -2.7715
 8469SOL     OW37039   3.066   3.370   3.133  1.0024  0.0527 -0.3504
 8469SOL    HW137040   3.058   3.443   3.071 -1.2153  1.9015  2.1166
 8469SOL    HW237041   2.985   3.327   3.104  1.4398 -1.8620  1.2841
 8470SOL     OW37042   4.578   1.921   2.778 -0.3072 -0.1098  0.2957
 8470SOL    HW137043   4.542   1.941   2.692  0.3472 -0.3108 -0.0251
 8470SOL    HW237044   4.585   1.826   2.772  0.7122 -0.0153 -0.0785
 8471SOL     OW37045   0.373   2.630  10.800  0.1621 -0.2851 -0.1446
 8471SOL    HW137046   0.438   2.657  10.735 -0.9511 -0.0691 -1.1522
 8471SOL    HW237047   0.294   2.609  10.751  0.5168  1.8932 -1.6374
 8472SOL     OW37048   0.324   4.050  10.909  0.7602 -0.0982  0.1263
 8472SOL    HW137049   0.326   3.963  10.868  0.0840  0.7518 -1.6972
 8472SOL    HW237050   0.230   4.060  10.925  0.8564  1.5522 -0.4363
 8473SOL     OW37051   0.800   0.696   7.716 -0.4175  0.1532 -0.3858
 8473SOL    HW137052   0.855   0.742   7.653 -1.1216 -1.0200 -1.8885
 8473SOL    HW237053   0.864   0.669   7.781  0.6233 -1.6146 -2.1208
 8474SOL     OW37054   1.956   1.152  12.913 -0.0372  0.0132  0.0228
 8474SOL    HW137055   1.935   1.228  12.967 -1.5310  0.5485 -1.3038
 8474SOL    HW237056   2.044   1.178  12.885 -0.5722  0.4579 -1.2584
 8475SOL     OW37057   4.346   2.309  11.112  0.4090  0.3469  0.4908
 8475SOL    HW137058   4.297   2.380  11.152 -1.8269 -0.5853 -0.5634
 8475SOL    HW237059   4.370   2.349  11.029 -0.7197  1.8406  0.8924
 8476SOL     OW37060   3.641   2.132  17.224  0.2377  0.1237 -0.0579
 8476SOL    HW137061   3.733   2.149  17.208  0.2760 -1.1296 -1.1516
 8476SOL    HW237062   3.645   2.048  17.271 -1.0904 -0.1914 -0.4955
 8477SOL     OW37063   2.228   3.978   4.140 -0.2191  0.5236 -0.3287
 8477SOL    HW137064   2.315   3.964   4.104 -0.6871  0.7282 -1.5414
 8477SOL    HW237065   2.244   4.053   4.198 -0.3571 -1.0104  1.7187
 8478SOL     OW37066   1.092   3.732  14.939 -0.0682 -0.4233  0.2072
 8478SOL    HW137067   1.019   3.792  14.926 -1.8241 -2.5297  0.4735
 8478SOL    HW237068   1.150   3.792  14.893 -0.1289  1.1026  2.0911
 8479SOL     OW37069   4.496   0.627   8.239  0.3552 -0.1083  0.5262
 8479SOL    HW137070   4.476   0.715   8.205 -1.9150 -0.6014  0.5599
 8479SOL    HW237071   4.456   0.636   8.326  0.5575 -0.6822  0.6719
 8480SOL     OW37072   2.050   3.122   1.960  0.5312 -0.6430 -0.4158
 8480SOL    HW137073   2.095   3.100   2.042  2.3250  0.5239 -1.0985
 8480SOL    HW237074   1.985   3.177   2.004  1.9485 -0.1776  1.0712
 8481SOL     OW37075   3.590   4.141   5.154 -0.5473 -0.1796  0.4135
 8481SOL    HW137076   3.576   4.070   5.217 -0.4776 -0.4803  0.0875
 8481SOL    HW237077   3.628   4.094   5.080 -0.9057  1.1911 -0.6375
 8482SOL     OW37078   1.306   0.638  12.571  0.3433 -0.4672 -0.1637
 8482SOL    HW137079   1.365   0.565  12.586  0.4674  0.0300  1.7878
 8482SOL    HW237080   1.311   0.688  12.652  1.1818  1.0400 -1.1431
 8483SOL     OW37081   3.595   0.262  14.274 -0.1421 -0.1953  0.1317
 8483SOL    HW137082   3.659   0.327  14.305  0.7095 -0.1302 -1.7431
 8483SOL    HW237083   3.648   0.191  14.310 -0.3272 -1.4183 -2.0102
 8484SOL     OW37084   2.758   0.424   0.204  0.0376 -0.2990 -0.4794
 8484SOL    HW137085   2.718   0.437   0.118 -0.3682  2.9236  0.2318
 8484SOL    HW237086   2.823   0.353   0.198  1.6574  1.1133  0.3240
 8485SOL     OW37087   0.750   3.413   3.856 -0.3060  0.5649  0.4268
 8485SOL    HW137088   0.769   3.480   3.790 -0.8269  0.1483 -0.1489
 8485SOL    HW237089   0.722   3.340   3.801 -0.8183  1.1690 -0.1168
 8486SOL     OW37090   2.024   4.450   8.278 -0.1042 -0.2863 -0.1481
 8486SOL    HW137091   2.117   4.443   8.255  0.2980  0.6954  1.1997
 8486SOL    HW237092   2.022   4.540   8.310 -2.3945 -1.1623  2.1811
 8487SOL     OW37093   1.009   1.105  11.739  0.4533  0.5727  0.6146
 8487SOL    HW137094   0.922   1.094  11.778  0.3236 -0.9937 -0.1549
 8487SOL    HW237095   1.068   1.040  11.777  0.1382  0.1095  0.2917
 8488SOL     OW37096   2.724   2.412   3.586  0.4365  0.2161  0.1002
 8488SOL    HW137097   2.769   2.329   3.571 -0.8760 -0.5643  0.4665
 8488SOL    HW237098   2.782   2.460   3.646  2.6194 -1.5771 -0.5920
 8489SOL     OW37099   3.462   2.992   8.528  0.3744  0.2416 -0.4539
 8489SOL    HW137100   3.401   3.048   8.576 -0.6840  0.0271 -1.5481
 8489SOL    HW237101   3.437   3.029   8.443 -3.0139 -1.7556 -0.3062
 8490SOL     OW37102   1.896   2.008   8.621 -0.0828 -0.0973 -0.0726
 8490SOL    HW137103   1.819   2.041   8.666  0.7019  0.8486  0.5730
 8490SOL    HW237104   1.965   2.015   8.687 -0.0730  0.0687 -0.1001
 8491SOL     OW37105   3.148   3.330  11.462  0.0880  0.4034 -0.2369
 8491SOL    HW137106   3.078   3.296  11.407 -0.2706  0.9767 -0.1358
 8491SOL    HW237107   3.196   3.248  11.471 -1.3179 -0.2548  1.4441
 8492SOL     OW37108   1.459   4.459   6.374  0.5736  0.0537 -0.2914
 8492SOL    HW137109   1.540   4.505   6.394 -0.6910  1.7712  0.9476
 8492SOL    HW237110   1.456   4.391   6.442 -1.0040 -1.5033 -1.9347
 8493SOL     OW37111   0.806   3.242   0.213  0.3245 -0.1224  0.3775
 8493SOL    HW137112   0.869   3.247   0.142  0.9430 -2.0682  0.7913
 8493SOL    HW237113   0.867   3.223   0.285  0.8412  1.6047  0.3891
 8494SOL     OW37114   0.217   2.940   5.373  0.5581 -0.1996 -0.2919
 8494SOL    HW137115   0.160   2.893   5.312  0.0441 -0.9870  0.7922
 8494SOL    HW237116   0.251   3.018   5.328 -1.0179  0.8485  0.3169
 8495SOL     OW37117   1.936   1.571  14.561 -0.2785 -0.1154  0.2054
 8495SOL    HW137118   1.892   1.552  14.479  0.0423  1.1868 -0.2639
 8495SOL    HW237119   2.012   1.513  14.570 -0.3316 -0.2360 -0.1518
 8496SOL     OW37120   2.413   2.717   5.317  0.1273  0.2551  0.0321
 8496SOL    HW137121   2.329   2.759   5.298  0.0282  0.9189  1.9655
 8496SOL    HW237122   2.381   2.641   5.365  0.9725 -0.6984 -0.9042
 8497SOL     OW37123   0.620   1.675   7.662 -0.4048 -0.1039  0.1756
 8497SOL    HW137124   0.681   1.608   7.692 -0.2118 -0.6866 -1.4987
 8497SOL    HW237125   0.540   1.633   7.696 -0.7612  0.5349  0.1224
 8498SOL     OW37126   4.717   0.240   6.724  0.0316  0.1918 -0.3150
 8498SOL    HW137127   4.697   0.169   6.785 -1.1477  0.1960 -0.6878
 8498SOL    HW237128   0.024   0.179   6.662 -0.1988  0.1518 -0.4219
 8499SOL     OW37129   2.706   2.075   6.368 -0.2617 -0.1522 -0.2815
 8499SOL    HW137130   2.718   2.029   6.451 -0.1038  1.0284  0.3446
 8499SOL    HW237131   2.656   2.149   6.403 -0.5196 -0.7693  0.6632
 8500SOL     OW37132   2.172   1.628   0.206  0.2928  0.1747 -0.6974
 8500SOL    HW137133   2.191   1.541   0.173 -0.0816 -0.4568  0.7361
 8500SOL    HW237134   2.144   1.674   0.126 -1.8775  2.7983  1.5590
 8501SOL     OW37135   1.430   2.178  13.947  0.2908  0.0332 -0.4709
 8501SOL    HW137136   1.360   2.207  13.890 -1.1260  0.6187  1.5647
 8501SOL    HW237137   1.415   2.244  14.014 -1.6898  0.8624 -1.7596
 8502SOL     OW37138   4.410   2.105   9.176 -0.2150 -0.6915  0.0413
 8502SOL    HW137139   4.356   2.149   9.242  0.8305  0.3894  0.1775
 8502SOL    HW237140   4.495   2.138   9.207 -0.2033 -1.4751  0.8495
 8503SOL     OW37141   1.418   2.394   9.742 -0.3448  0.4259  0.0176
 8503SOL    HW137142   1.367   2.375   9.821 -2.1138 -2.5719 -1.8202
 8503SOL    HW237143   1.362   2.462   9.703 -1.2739 -1.4139 -1.8400
 8504SOL     OW37144   0.727   3.984   1.526 -0.3704  0.0703 -0.1380
 8504SOL    HW137145   0.681   4.066   1.510 -0.5957 -0.3490 -1.6725
 8504SOL    HW237146   0.652   3.940   1.565  0.2248 -0.2301  0.6556
 8505SOL     OW37147   3.151   3.291  14.236  0.3774  0.4523  0.9189
 8505SOL    HW137148   3.242   3.266  14.252  0.1965  0.3102  1.7445
 8505SOL    HW237149   3.165   3.378  14.200  1.1371  0.0100  0.1615
 8506SOL     OW37150   0.535   3.862   3.426 -0.3360 -0.2031  0.1903
 8506SOL    HW137151   0.615   3.822   3.458 -0.3981 -0.7235 -0.2987
 8506SOL    HW237152   0.520   3.931   3.491  2.0687 -0.0212  0.5300
 8507SOL     OW37153   3.214   1.961   6.857  0.1894 -0.0418 -0.5245
 8507SOL    HW137154   3.215   1.887   6.919 -0.4508  0.2613 -0.1528
 8507SOL    HW237155   3.240   2.025   6.923 -2.0460  0.2206  0.1088
 8508SOL     OW37156   3.176   0.207   4.708  0.5835  0.1751  0.5972
 8508SOL    HW137157   3.212   0.184   4.793 -1.2224  0.2970  1.3870
 8508SOL    HW237158   3.226   0.161   4.639  0.3509  2.3943 -1.0542
 8509SOL     OW37159   0.809   1.001   2.446 -0.7021 -0.1169 -0.0736
 8509SOL    HW137160   0.721   0.965   2.437  0.3728 -3.1874  1.4696
 8509SOL    HW237161   0.812   0.999   2.541 -1.2682 -1.4725 -0.0852
 8510SOL     OW37162   0.699   0.189   2.828  0.5234 -0.3679 -0.1501
 8510SOL    HW137163   0.642   0.219   2.757  1.0371 -1.4222 -1.0033
 8510SOL    HW237164   0.639   0.207   2.900  1.0106 -0.4552  0.2813
 8511SOL     OW37165   2.160   1.015  12.547 -0.0713 -0.3305  0.2410
 8511SOL    HW137166   2.138   0.970  12.628 -1.5007  0.1905  0.1330
 8511SOL    HW237167   2.102   0.977  12.481  1.5156 -1.9378 -0.2275
 8512SOL     OW37168   0.229   3.052  13.513 -0.3398  0.7327 -0.2559
 8512SOL    HW137169   0.287   2.987  13.473 -0.7801  1.1651 -1.5743
 8512SOL    HW237170   0.231   3.033  13.607  2.4522  0.0855 -0.4140
 8513SOL     OW37171   0.481   2.403   6.024  0.1851 -0.1431 -0.2527
 8513SOL    HW137172   0.459   2.408   5.931  1.4377  1.3358 -0.4652
 8513SOL    HW237173   0.440   2.318   6.042  0.5677 -0.2213  0.2609
 8514SOL     OW37174   2.950   1.314   5.816  0.4273 -0.5707  0.3816
 8514SOL    HW137175   2.939   1.284   5.906  0.0965 -1.4626  0.0343
 8514SOL    HW237176   2.933   1.408   5.830  0.1564 -0.7405  1.1826
 8515SOL     OW37177   2.508   2.985   5.324 -1.0454 -0.8029 -0.1427
 8515SOL    HW137178   2.536   2.959   5.412 -1.6529 -0.0751  0.2668
 8515SOL    HW237179   2.452   2.917   5.287 -2.7108  0.9683 -0.8743
 8516SOL     OW37180   1.528   1.493   1.809 -0.2345  0.5275 -0.4203
 8516SOL    HW137181   1.494   1.431   1.874  2.0567  0.0454  0.3257
 8516SOL    HW237182   1.450   1.492   1.754 -0.3241 -0.2233 -0.2806
 8517SOL     OW37183   3.294   1.753   5.587  0.4945 -0.2501 -0.1877
 8517SOL    HW137184   3.231   1.805   5.636 -0.1400  0.4546 -1.7753
 8517SOL    HW237185   3.278   1.789   5.500 -1.5018  2.0925  1.1771
 8518SOL     OW37186   0.114   0.900   8.434  0.4222  0.4269 -0.3026
 8518SOL    HW137187   0.107   0.825   8.376  1.2473  0.5004 -0.4892
 8518SOL    HW237188   0.207   0.921   8.430  0.4388  0.2851 -0.6612
 8519SOL     OW37189   2.246   0.066   5.776  0.4964  0.1585 -0.4785
 8519SOL    HW137190   2.154   0.085   5.757  0.6993  0.8860 -0.7406
 8519SOL    HW237191   2.287   0.120   5.709  0.6646  0.3207 -0.2462
 8520SOL     OW37192   3.708   4.155   8.688  0.0476 -0.2609  0.1950
 8520SOL    HW137193   3.658   4.221   8.736 -1.9194 -1.3249 -0.4072
 8520SOL    HW237194   3.663   4.154   8.603  0.6342  0.1158 -0.1275
 8521SOL     OW37195   2.534   3.203   1.423  0.1665 -0.8514 -0.0864
 8521SOL    HW137196   2.520   3.168   1.511  1.1319 -0.8776  0.0504
 8521SOL    HW237197   2.533   3.292   1.456 -2.9503 -0.1555 -2.0042
 8522SOL     OW37198   0.587   4.536   1.562  0.5841 -0.0026  0.2562
 8522SOL    HW137199   0.656   4.477   1.530  0.4575  0.4919 -0.9147
 8522SOL    HW237200   0.597   4.514   1.655 -0.6834  0.7585  0.5650
 8523SOL     OW37201   2.743   0.647  11.903  0.0197  0.6722  0.2913
 8523SOL    HW137202   2.656   0.609  11.911 -1.1296  2.9899 -1.1012
 8523SOL    HW237203   2.796   0.600  11.968 -0.2746 -0.2931 -0.1782
 8524SOL     OW37204   1.482   2.674   8.175 -0.0375  0.5640 -0.4874
 8524SOL    HW137205   1.483   2.579   8.184  1.4323  0.3701 -2.8950
 8524SOL    HW237206   1.413   2.700   8.237  0.3611 -0.1336  0.2525
 8525SOL     OW37207   0.199   4.252   0.662 -0.2187  0.2051 -0.1182
 8525SOL    HW137208   0.132   4.306   0.620  0.4980  1.1426 -0.0644
 8525SOL    HW237209   0.155   4.167   0.662 -1.2910  0.7595 -0.9504
 8526SOL     OW37210   0.143   3.774   6.686 -0.1316  0.0478  0.7196
 8526SOL    HW137211   0.230   3.760   6.722  0.2017  0.1279 -0.0551
 8526SOL    HW237212   0.090   3.819   6.752 -2.6494 -2.8942  0.7569
 8527SOL     OW37213   0.582   4.658  16.915 -0.3557 -0.1903  0.2946
 8527SOL    HW137214   0.591   4.591  16.847 -1.1388  2.7697 -2.6708
 8527SOL    HW237215   0.579   0.003  16.860 -0.3307 -0.2131  0.2609
 8528SOL     OW37216   4.533   3.336   2.630 -0.2740  0.0390  0.3973
 8528SOL    HW137217   4.453   3.381   2.660 -2.4457 -2.1374 -2.1128
 8528SOL    HW237218   4.580   3.337   2.713 -0.2469 -1.9277  0.3960
 8529SOL     OW37219   1.638   0.568  17.326  0.0539  0.1060 -0.2391
 8529SOL    HW137220   1.570   0.503  17.307 -3.3279  3.4886  0.4276
 8529SOL    HW237221   1.658   0.546  17.417 -2.6773 -2.2190 -0.1896
 8530SOL     OW37222   2.368   0.568   6.594 -0.0249 -0.5010  0.7419
 8530SOL    HW137223   2.406   0.653   6.571 -0.2498 -0.7505 -0.5917
 8530SOL    HW237224   2.363   0.525   6.508  0.2390  1.4615 -0.2590
 8531SOL     OW37225   0.921   3.571  15.092 -0.6432  0.4904 -0.6607
 8531SOL    HW137226   1.005   3.615  15.080  0.0424 -0.5710  0.2752
 8531SOL    HW237227   0.914   3.566  15.187 -2.5013  3.5403 -0.6213
 8532SOL     OW37228   1.925   4.489   1.623 -0.3097  0.6196 -0.3786
 8532SOL    HW137229   1.898   4.427   1.690 -2.7478  1.8557 -0.2211
 8532SOL    HW237230   2.003   4.442   1.594  1.3715  1.8858  2.0564
 8533SOL     OW37231   3.456   3.129  16.814  0.5146 -0.2538 -0.2694
 8533SOL    HW137232   3.410   3.203  16.855  1.0600  0.9809 -1.8661
 8533SOL    HW237233   3.542   3.171  16.817  0.3413 -0.0026  1.1545
 8534SOL     OW37234   2.276   2.788  14.555  0.1907  0.1053  0.1295
 8534SOL    HW137235   2.226   2.853  14.506 -1.7272 -0.3728  1.4612
 8534SOL    HW237236   2.343   2.844  14.593 -0.6455  1.5182 -0.4920
 8535SOL     OW37237   0.540   4.731   3.402 -0.9254 -0.5397 -0.0808
 8535SOL    HW137238   0.474   4.676   3.444 -0.3065 -0.6717  0.7119
 8535SOL    HW237239   0.570   0.044   3.481 -2.0881 -0.7016  0.4570
 8536SOL     OW37240   0.637   0.505   3.024  0.0992 -0.4755  0.5837
 8536SOL    HW137241   0.598   0.589   3.048 -0.4888 -0.5039 -0.3026
 8536SOL    HW237242   0.731   0.520   3.018 -0.1816  0.7162 -0.6282
 8537SOL     OW37243   2.054   3.811  13.533  0.3094  0.4385 -0.3405
 8537SOL    HW137244   2.123   3.773  13.588  0.3925  1.5209  0.3108
 8537SOL    HW237245   1.990   3.740  13.543  0.3166  0.4685 -0.0890
 8538SOL     OW37246   3.662   0.651  11.210  0.2701  0.0749 -0.1087
 8538SOL    HW137247   3.718   0.583  11.247 -1.3009 -1.1759 -0.0680
 8538SOL    HW237248   3.635   0.697  11.290  0.1269 -0.3264  0.0750
 8539SOL     OW37249   4.244   1.415   7.725  0.2000  0.0496  0.1398
 8539SOL    HW137250   4.225   1.420   7.819 -0.7581  1.7761 -0.1582
 8539SOL    HW237251   4.183   1.342   7.713 -2.1169  2.1885 -1.0661
 8540SOL     OW37252   1.419   0.768   4.039  0.2138  0.2791  0.4603
 8540SOL    HW137253   1.416   0.855   4.078  1.3911  1.9883 -3.1811
 8540SOL    HW237254   1.459   0.797   3.957 -2.0231  0.5974 -0.5189
 8541SOL     OW37255   1.819   1.516   8.294  0.8672 -0.5479 -0.2763
 8541SOL    HW137256   1.795   1.520   8.202 -0.2636 -2.1125 -0.0494
 8541SOL    HW237257   1.780   1.598   8.324  1.2295 -1.0160  1.4635
 8542SOL     OW37258   4.163   2.395   6.876  0.0440  0.3801  0.7006
 8542SOL    HW137259   4.088   2.361   6.924 -0.3269  0.2782  0.0526
 8542SOL    HW237260   4.155   2.487   6.900  1.8585  0.6373  0.3933
 8543SOL     OW37261   1.778   3.040   6.991  0.3298 -0.1524  0.7637
 8543SOL    HW137262   1.769   2.979   6.918  0.0349  1.3171 -0.4378
 8543SOL    HW237263   1.872   3.038   7.006  0.3432  2.1804  1.1263
 8544SOL     OW37264   2.608   3.596  11.690  0.1593  0.3076 -0.0110
 8544SOL    HW137265   2.612   3.503  11.711 -0.5682  0.6081  1.4384
 8544SOL    HW237266   2.649   3.640  11.764  1.3326  0.4030 -0.7148
 8545SOL     OW37267   1.322   4.646   7.307 -0.2725 -0.1318 -0.2102
 8545SOL    HW137268   1.246   4.694   7.273 -1.2964 -1.4115  0.2348
 8545SOL    HW237269   1.336   4.584   7.236  1.7535  0.2716 -0.1433
 8546SOL     OW37270   0.843   2.938   5.148  0.4192  0.6885 -0.3483
 8546SOL    HW137271   0.908   2.988   5.099 -0.3618  1.6286 -0.4185
 8546SOL    HW237272   0.885   2.853   5.137 -1.0473  0.1673 -1.8738
 8547SOL     OW37273   4.210   4.199   1.076 -0.1608 -0.3261  0.2662
 8547SOL    HW137274   4.302   4.173   1.066 -0.5354 -1.2847 -0.6637
 8547SOL    HW237275   4.200   4.205   1.171 -1.3322  3.3036 -0.0743
 8548SOL     OW37276   0.386   2.502   7.578  0.4504  0.0366  0.3205
 8548SOL    HW137277   0.426   2.550   7.506 -0.1324  0.4417  0.2647
 8548SOL    HW237278   0.321   2.444   7.538  0.4559  0.4709 -0.3160
 8549SOL     OW37279   1.621   4.401  15.032  0.0994 -0.2128  0.1181
 8549SOL    HW137280   1.676   4.351  15.093  1.1400  0.7631 -0.0298
 8549SOL    HW237281   1.540   4.351  15.021 -0.1063  0.7535 -2.7455
 8550SOL     OW37282   4.018   4.194  12.545  0.5408 -0.0510  0.4276
 8550SOL    HW137283   4.044   4.107  12.578  1.0038 -0.5206 -1.1688
 8550SOL    HW237284   4.099   4.245  12.546  0.1877  0.4859  1.3266
 8551SOL     OW37285   0.582   1.342  10.198  0.0105 -0.4155 -0.5647
 8551SOL    HW137286   0.643   1.273  10.225  2.2823  0.9347 -2.1965
 8551SOL    HW237287   0.515   1.276  10.179 -0.4549 -0.4647  1.2616
 8552SOL     OW37288   4.186   1.749   1.694  0.0806  0.4338  0.0667
 8552SOL    HW137289   4.117   1.811   1.718  0.1416  0.7148 -0.4975
 8552SOL    HW237290   4.266   1.794   1.666  0.0134 -0.1106 -1.0147
 8553SOL     OW37291   4.461   3.408  16.991 -0.3968  0.1843 -0.2712
 8553SOL    HW137292   4.486   3.384  17.081 -0.9083 -0.4466 -0.2956
 8553SOL    HW237293   4.372   3.374  16.982 -0.9953  2.1061 -1.4547
 8554SOL     OW37294   3.210   3.858   6.151 -0.0578  0.0091 -0.4452
 8554SOL    HW137295   3.202   3.950   6.126  0.7792 -0.1050 -1.1161
 8554SOL    HW237296   3.120   3.829   6.165  0.3345  0.0489  2.0722
 8555SOL     OW37297   0.216   1.115   2.202  0.1245  0.5828  0.3716
 8555SOL    HW137298   0.229   1.060   2.280 -0.3038  0.4151  0.3234
 8555SOL    HW237299   0.255   1.074   2.124 -0.7911 -0.5296  0.4975
 8556SOL     OW37300   2.551   2.421   4.768  0.0550  0.1790  0.4335
 8556SOL    HW137301   2.513   2.493   4.717  0.5758  1.1711  1.4573
 8556SOL    HW237302   2.642   2.445   4.750 -0.6521  0.6398 -2.4620
 8557SOL     OW37303   4.199   0.467   8.006  0.3997  0.1086 -0.2392
 8557SOL    HW137304   4.137   0.394   8.004 -0.1920  0.6890 -2.9428
 8557SOL    HW237305   4.286   0.427   8.002 -0.3285 -1.5405  0.6184
 8558SOL     OW37306   0.164   2.261   5.042  0.3399 -0.1726  0.5093
 8558SOL    HW137307   0.236   2.205   5.071  2.1858  0.9427 -1.8480
 8558SOL    HW237308   0.113   2.270   5.122 -1.2821  0.7753 -0.6157
 8559SOL     OW37309   0.815   1.894   1.483  0.5792 -0.3668  0.7748
 8559SOL    HW137310   0.896   1.934   1.450  0.2991 -0.8656 -0.5477
 8559SOL    HW237311   0.784   1.875   1.394 -1.4375  0.0747  1.3921
 8560SOL     OW37312   3.208   2.694   3.379 -0.0563 -0.1229 -0.0768
 8560SOL    HW137313   3.211   2.789   3.393 -2.5141  0.3397 -2.6716
 8560SOL    HW237314   3.138   2.698   3.313  0.3567  3.0121 -0.3364
 8561SOL     OW37315   2.376   4.053   1.160 -0.1452  0.1309 -0.5355
 8561SOL    HW137316   2.409   4.122   1.103 -3.1637  2.0426  0.0332
 8561SOL    HW237317   2.435   3.986   1.125 -2.3991 -2.3442  0.3304
 8562SOL     OW37318   4.085   3.374   4.851  0.1411  0.1863  0.4162
 8562SOL    HW137319   4.130   3.450   4.814  0.4256  0.5553  1.5339
 8562SOL    HW237320   4.136   3.299   4.820 -0.3478  1.4678 -3.5826
 8563SOL     OW37321   2.810   1.185   5.636  0.0744 -0.2214 -0.4799
 8563SOL    HW137322   2.847   1.228   5.713 -0.0029  1.5081 -1.4185
 8563SOL    HW237323   2.787   1.265   5.589  1.5851  0.0746 -0.7257
 8564SOL     OW37324   1.869   1.408   3.930 -0.1164  0.5481  0.1606
 8564SOL    HW137325   1.899   1.318   3.915 -1.3508  0.2424 -0.4997
 8564SOL    HW237326   1.843   1.436   3.842 -0.1586 -1.8332 -0.5941
 8565SOL     OW37327   2.005   3.665  13.897  0.5759 -0.4663  0.4736
 8565SOL    HW137328   1.928   3.646  13.844 -0.8079  1.6526  1.7060
 8565SOL    HW237329   2.061   3.729  13.852 -0.2310 -0.6320 -0.7612
 8566SOL     OW37330   0.927   0.605   6.047 -0.1013  0.1928  0.2730
 8566SOL    HW137331   0.891   0.636   5.964  0.4857  0.2781  0.0515
 8566SOL    HW237332   0.901   0.513   6.048  1.6606 -0.3349 -0.5686
 8567SOL     OW37333   2.066   4.588   5.204 -0.3440 -0.1289 -0.3802
 8567SOL    HW137334   2.129   4.660   5.204 -1.5824  0.9318  1.4787
 8567SOL    HW237335   2.028   4.609   5.289  1.2367  0.4971  0.1758
 8568SOL     OW37336   2.828   4.556   3.732  0.4892 -0.0006  0.1650
 8568SOL    HW137337   2.879   4.549   3.651 -0.5104 -1.1531 -0.3608
 8568SOL    HW237338   2.894   4.555   3.802 -0.6917  0.5855  1.2810
 8569SOL     OW37339   0.663   0.091   6.333 -0.1853 -0.8350 -0.1296
 8569SOL    HW137340   0.629   0.085   6.422  2.3525 -2.9169  0.7033
 8569SOL    HW237341   0.755   0.063   6.340 -0.4788 -1.1316  2.6459
 8570SOL     OW37342   1.778   2.748   1.336  0.4324 -0.4590 -0.0024
 8570SOL    HW137343   1.836   2.816   1.370  0.6751 -0.2975 -0.7241
 8570SOL    HW237344   1.698   2.794   1.311  0.1109  0.0056  1.9017
 8571SOL     OW37345   3.451   4.554   6.480 -0.5455  0.0012  0.1947
 8571SOL    HW137346   3.485   4.623   6.423  1.1851 -0.8743  0.1672
 8571SOL    HW237347   3.447   4.485   6.413 -1.3239 -0.6371  0.9039
 8572SOL     OW37348   0.802   0.145   4.784 -0.0188  0.1452  0.3820
 8572SOL    HW137349   0.849   0.209   4.732 -1.5778  1.2895  0.3797
 8572SOL    HW237350   0.741   0.198   4.835  0.2165  0.3632  0.4336
 8573SOL     OW37351   0.891   1.785   5.005 -0.1574  0.5359 -0.2839
 8573SOL    HW137352   0.860   1.859   4.953 -0.9494 -0.6480 -1.4998
 8573SOL    HW237353   0.845   1.716   4.957 -1.5578  1.5449 -0.4135
 8574SOL     OW37354   2.748   4.424   3.189  0.4972 -0.4025  0.6173
 8574SOL    HW137355   2.699   4.496   3.229  2.1638  0.8686  0.3486
 8574SOL    HW237356   2.671   4.386   3.146  0.1069  1.1161 -0.0468
 8575SOL     OW37357   3.585   4.054   2.585  0.1203 -1.0266 -0.7212
 8575SOL    HW137358   3.638   4.063   2.665 -0.9937 -2.8414  0.2176
 8575SOL    HW237359   3.649   4.010   2.528 -0.8949  0.0939 -2.6947
 8576SOL     OW37360   4.051   2.468   2.571 -0.5452  0.7081  0.2296
 8576SOL    HW137361   4.100   2.463   2.654  1.5351  0.9680 -0.9736
 8576SOL    HW237362   4.114   2.527   2.530 -3.9554  2.1511 -2.9490
 8577SOL     OW37363   3.708   4.158   5.933 -0.3775 -0.5502  0.3671
 8577SOL    HW137364   3.723   4.171   6.027 -0.9239 -0.2560  0.4092
 8577SOL    HW237365   3.743   4.244   5.910 -0.1747 -0.7354 -0.0210
 8578SOL     OW37366   1.638   0.247   5.045 -0.2785 -0.2942  0.5684
 8578SOL    HW137367   1.585   0.255   4.965  1.7044 -3.0767 -0.9848
 8578SOL    HW237368   1.593   0.313   5.098  0.9245  0.3724  0.7682
 8579SOL     OW37369   3.075   2.321   8.622 -0.3978 -0.1942  0.0928
 8579SOL    HW137370   3.107   2.235   8.652 -1.6076 -0.3669  0.8784
 8579SOL    HW237371   2.981   2.303   8.627 -0.8111  0.9402 -3.9621
 8580SOL     OW37372   4.497   3.782   4.437  0.7430  0.1378 -0.1811
 8580SOL    HW137373   4.498   3.770   4.342  0.4841  1.2551 -0.3237
 8580SOL    HW237374   4.456   3.702   4.471  1.1154 -0.3734 -0.9319
 8581SOL     OW37375   0.980   2.594   9.800 -0.5010  0.0669 -0.1563
 8581SOL    HW137376   0.900   2.593   9.746  0.2877  2.3231 -1.3457
 8581SOL    HW237377   1.033   2.531   9.752  2.3085  0.2628  2.7380
 8582SOL     OW37378   1.936   2.132   2.625 -0.2631 -0.0590 -0.1798
 8582SOL    HW137379   1.887   2.063   2.580 -3.7376  2.2911 -0.0480
 8582SOL    HW237380   2.029   2.116   2.609 -0.0107  0.1897  1.0548
 8583SOL     OW37381   3.368   0.317   5.553 -0.2322  0.3468 -0.2783
 8583SOL    HW137382   3.315   0.282   5.625  2.1385  1.1428  1.8297
 8583SOL    HW237383   3.363   0.237   5.500  2.7496  0.0931 -0.1519
 8584SOL     OW37384   1.634   0.633  15.302 -0.1248  0.8395  0.5373
 8584SOL    HW137385   1.602   0.720  15.279  0.7532  0.6407 -1.4555
 8584SOL    HW237386   1.563   0.577  15.270  1.5555 -0.7941 -0.2989
 8585SOL     OW37387   0.421   1.615   6.955  0.3485 -0.5961 -0.3474
 8585SOL    HW137388   0.342   1.663   6.929 -0.9437 -3.2066 -1.2627
 8585SOL    HW237389   0.437   1.662   7.037  0.6470 -0.1744 -0.6517
 8586SOL     OW37390   2.731   4.697  11.883  0.0355 -0.7150 -0.2480
 8586SOL    HW137391   2.751   4.627  11.946 -0.0790 -2.4450 -2.1536
 8586SOL    HW237392   2.661   4.663  11.828 -0.5771 -0.4599  0.3709
 8587SOL     OW37393   2.487   1.126   1.281  0.6344  0.0474  0.1129
 8587SOL    HW137394   2.582   1.130   1.268  0.7733 -0.4412  0.9922
 8587SOL    HW237395   2.444   1.114   1.196  0.9247 -1.8191  0.2165
 8588SOL     OW37396   4.033   3.481  12.613 -0.1767  0.1733 -0.2635
 8588SOL    HW137397   4.078   3.518  12.689 -0.7369  1.8265 -0.7295
 8588SOL    HW237398   4.017   3.391  12.640  1.0204 -0.4815 -1.8142
 8589SOL     OW37399   1.846   2.107   2.887 -0.2388  0.3744  0.0531
 8589SOL    HW137400   1.871   2.120   2.796  0.2384  2.1200  0.4216
 8589SOL    HW237401   1.819   2.016   2.882 -0.9582  0.7213 -2.1759
 8590SOL     OW37402   2.949   4.592   6.535  0.1292 -0.5954 -0.4569
 8590SOL    HW137403   2.895   4.544   6.473 -0.7659  0.2672 -0.3426
 8590SOL    HW237404   2.943   4.676   6.490  0.6295 -2.6210 -4.2604
 8591SOL     OW37405   4.528   2.792   3.426 -0.4809  0.0299  0.6307
 8591SOL    HW137406   4.507   2.733   3.499  0.3764  0.2386  1.0477
 8591SOL    HW237407   4.568   2.860   3.480 -0.3608 -0.5317  1.2477
 8592SOL     OW37408   3.510   2.238   4.659 -0.2687  0.2848  0.0463
 8592SOL    HW137409   3.416   2.243   4.674 -0.2182  1.0312  0.0735
 8592SOL    HW237410   3.537   2.192   4.738 -0.2582  0.5236  0.1809
 8593SOL     OW37411   3.553   4.416   7.270  0.6801 -0.9561  0.1786
 8593SOL    HW137412   3.610   4.488   7.246  0.3448 -0.6923  0.1642
 8593SOL    HW237413   3.622   4.350   7.279 -0.3664 -1.6549  3.1652
 8594SOL     OW37414   2.879   0.139   2.155 -0.1753 -0.6787 -0.0427
 8594SOL    HW137415   2.805   0.192   2.125  0.9079 -0.2683 -2.0112
 8594SOL    HW237416   2.845   0.078   2.221  0.8299  1.5351  2.4976
 8595SOL     OW37417   2.530   2.211   7.047 -0.4371 -0.0089  0.0035
 8595SOL    HW137418   2.561   2.257   6.968  0.2574 -1.5797 -0.6307
 8595SOL    HW237419   2.514   2.119   7.026  0.1190 -0.2183  0.5175
 8596SOL     OW37420   4.647   0.406  12.195  0.0650  0.1711 -0.0208
 8596SOL    HW137421   4.659   0.489  12.241 -0.1512  1.1599 -1.7038
 8596SOL    HW237422   4.591   0.433  12.122  0.7743  1.4313 -0.1116
 8597SOL     OW37423   4.058   1.863   2.576 -0.2466 -0.2873  0.1102
 8597SOL    HW137424   4.080   1.953   2.551  0.8304 -0.2838  1.0944
 8597SOL    HW237425   4.039   1.821   2.492 -0.1967 -1.1355  0.5184
 8598SOL     OW37426   0.373   2.877   6.301  0.0595  0.7775 -0.0799
 8598SOL    HW137427   0.377   2.842   6.390  2.7265 -1.0933 -0.9389
 8598SOL    HW237428   0.446   2.938   6.306  1.1931 -0.7294  2.0584
 8599SOL     OW37429   4.647   1.605  12.495 -0.5062  0.1682 -0.0859
 8599SOL    HW137430   4.644   1.700  12.481 -1.6119  0.0414 -0.7027
 8599SOL    HW237431   4.610   1.561  12.419  1.0626 -1.7788  0.2638
 8600SOL     OW37432   0.105   0.432   7.322  0.0811  0.4923  0.3378
 8600SOL    HW137433   0.081   0.355   7.373 -0.0707  0.4327  0.1765
 8600SOL    HW237434   0.016   0.459   7.299 -0.2311 -0.1789  0.7732
 8601SOL     OW37435   4.445   3.170   1.802  0.3380  0.4139  0.3774
 8601SOL    HW137436   4.378   3.118   1.847 -0.4841  0.8712 -0.3150
 8601SOL    HW237437   4.397   3.197   1.724 -2.0152 -0.3529  1.5266
 8602SOL     OW37438   3.916   3.545   8.221  0.0794 -0.1132  0.0113
 8602SOL    HW137439   3.992   3.597   8.244  0.7320 -0.2437 -1.8737
 8602SOL    HW237440   3.896   3.508   8.307 -0.6042  2.3572  0.9034
 8603SOL     OW37441   1.749   2.436   9.125 -0.2147  0.0780 -0.2106
 8603SOL    HW137442   1.691   2.428   9.201  0.3199  0.9125  0.2878
 8603SOL    HW237443   1.830   2.392   9.153  0.8768  1.6217 -0.9169
 8604SOL     OW37444   0.409   0.784  10.249  1.0130 -1.2039 -0.0376
 8604SOL    HW137445   0.348   0.826  10.310  0.4675 -1.4253 -0.4296
 8604SOL    HW237446   0.476   0.774  10.316  0.1478 -3.1711  0.5452
 8605SOL     OW37447   2.800   3.432   3.674  0.0403 -0.3555 -0.3073
 8605SOL    HW137448   2.825   3.340   3.669  0.1908 -0.4337  2.0096
 8605SOL    HW237449   2.879   3.475   3.643 -0.1038 -0.3303 -0.6412
 8606SOL     OW37450   1.202   1.106  14.831 -0.1763  0.2628 -0.3223
 8606SOL    HW137451   1.118   1.152  14.829  0.3270  1.2920  2.3790
 8606SOL    HW237452   1.208   1.094  14.736 -0.6512 -0.7002 -0.2235
 8607SOL     OW37453   1.764   2.916   5.517  0.2630  0.1919  0.0145
 8607SOL    HW137454   1.728   2.916   5.606 -2.2009  1.6387 -0.9671
 8607SOL    HW237455   1.837   2.978   5.522  1.7580 -1.3500 -2.6364
 8608SOL     OW37456   4.036   0.766   4.153 -0.1946 -0.2533  0.3930
 8608SOL    HW137457   4.109   0.809   4.109  0.2092 -1.1192  0.2162
 8608SOL    HW237458   3.976   0.765   4.078 -1.0382  2.1386  1.0499
 8609SOL     OW37459   2.896   4.194   2.131  0.1603  0.0562 -0.2928
 8609SOL    HW137460   2.860   4.279   2.156 -0.2157  0.1475 -1.1531
 8609SOL    HW237461   2.942   4.168   2.211 -2.4899 -0.9304  0.8982
 8610SOL     OW37462   0.847   4.103   4.172  0.2513 -0.0892 -0.3232
 8610SOL    HW137463   0.922   4.052   4.200  0.1716  1.2360  2.2842
 8610SOL    HW237464   0.866   4.171   4.237  2.2100 -0.5382 -0.4424
 8611SOL     OW37465   3.940   2.294   3.196  0.0868 -0.5390 -0.9882
 8611SOL    HW137466   4.003   2.222   3.194  2.2154  1.2788 -0.1716
 8611SOL    HW237467   3.964   2.345   3.118  1.0221  0.6058  0.0494
 8612SOL     OW37468   2.856   0.138   2.518 -0.5223 -0.3007 -0.7726
 8612SOL    HW137469   2.828   0.085   2.593 -0.1435 -3.2465 -2.7116
 8612SOL    HW237470   2.780   0.130   2.461 -0.4582  0.3100 -0.9423
 8613SOL     OW37471   2.807   1.957   0.956  0.2242  0.3077 -0.2572
 8613SOL    HW137472   2.873   2.021   0.933 -0.4616  1.0862 -0.0645
 8613SOL    HW237473   2.778   1.924   0.871 -0.5544 -1.5023  0.6945
 8614SOL     OW37474   0.125   0.468   5.746  0.0814  0.8479 -0.2521
 8614SOL    HW137475   0.112   0.505   5.833  4.8451 -0.1931  0.9087
 8614SOL    HW237476   0.215   0.437   5.749 -0.8169 -1.4194  2.7262
 8615SOL     OW37477   0.659   4.539   5.058 -0.2426  0.1245  0.1595
 8615SOL    HW137478   0.640   4.449   5.086 -0.2249 -0.1717 -0.7870
 8615SOL    HW237479   0.754   4.538   5.046 -0.2466 -1.5384  0.2989
 8616SOL     OW37480   1.014   3.488   9.655 -0.1764 -0.3448 -0.1388
 8616SOL    HW137481   0.955   3.526   9.720 -0.3534  0.2081 -0.6270
 8616SOL    HW237482   0.987   3.397   9.641 -0.4223 -0.3169  0.1651
 8617SOL     OW37483   0.630   2.023   9.588  0.3894  0.4251  0.5777
 8617SOL    HW137484   0.640   1.995   9.498 -0.0626  0.2246  0.5933
 8617SOL    HW237485   0.563   1.959   9.611  0.3262  1.0925  2.3126
 8618SOL     OW37486   1.781   1.426   7.482  0.8509  0.5544 -0.0977
 8618SOL    HW137487   1.808   1.471   7.402 -2.6210  1.1901 -0.8812
 8618SOL    HW237488   1.828   1.343   7.470  0.9559  0.7745 -1.1894
 8619SOL     OW37489   0.779   0.093  15.223  0.0783  0.0881 -0.2104
 8619SOL    HW137490   0.810   0.085  15.313  0.6061  3.2773 -0.1012
 8619SOL    HW237491   0.685   0.078  15.235  0.2069 -0.2791  0.3387
 8620SOL     OW37492   2.235   4.485   0.811 -0.4860 -0.3077 -0.1624
 8620SOL    HW137493   2.142   4.478   0.834 -1.0774  1.8216 -1.8042
 8620SOL    HW237494   2.268   4.570   0.840 -1.1601 -0.4243  0.9128
 8621SOL     OW37495   3.377   1.445  10.890  0.1407  0.0769 -0.3161
 8621SOL    HW137496   3.451   1.443  10.951  0.1494  4.2816 -0.2144
 8621SOL    HW237497   3.307   1.444  10.956 -1.2706  1.7062 -1.7749
 8622SOL     OW37498   1.793   4.452   9.366  0.2494 -0.5580  0.5460
 8622SOL    HW137499   1.759   4.416   9.284 -0.7268 -1.1056  1.1902
 8622SOL    HW237500   1.722   4.423   9.422 -0.2016  0.0635  0.2978
 8623SOL     OW37501   3.129   2.395   5.688  0.0982  0.0750  0.4195
 8623SOL    HW137502   3.185   2.376   5.763 -1.3752 -2.2214  0.9155
 8623SOL    HW237503   3.079   2.463   5.732 -0.0233 -0.2364  0.7590
 8624SOL     OW37504   0.502   2.627   7.360  0.3507 -0.0699 -0.2266
 8624SOL    HW137505   0.597   2.637   7.367  0.2762  0.3142  0.2902
 8624SOL    HW237506   0.492   2.558   7.295  2.7714  1.4709 -2.2592
 8625SOL     OW37507   0.844   2.718  16.115 -0.1559 -0.2105  0.0683
 8625SOL    HW137508   0.786   2.662  16.166 -0.7167 -0.4524 -0.8300
 8625SOL    HW237509   0.865   2.654  16.046  1.4159 -0.3281  0.6362
 8626SOL     OW37510   1.311   0.768   4.929 -0.1525  0.3157 -0.3504
 8626SOL    HW137511   1.350   0.809   5.006 -1.1807 -0.3619  0.5343
 8626SOL    HW237512   1.220   0.796   4.938 -0.6052 -1.2954  0.1768
 8627SOL     OW37513   3.003   0.708  17.452 -0.3228 -0.2102  0.1989
 8627SOL    HW137514   2.959   0.698  17.368 -0.0873 -1.9298  0.2687
 8627SOL    HW237515   2.960   0.642  17.507 -0.1770 -0.3513  0.1421
 8628SOL     OW37516   2.710   1.539   2.876 -0.6991  0.2621  0.7666
 8628SOL    HW137517   2.683   1.482   2.947  1.7039 -0.9996  0.6542
 8628SOL    HW237518   2.635   1.524   2.817  0.9801 -0.1896 -1.2435
 8629SOL     OW37519   4.238   1.381   7.999 -0.4844  0.0702 -0.4309
 8629SOL    HW137520   4.227   1.300   8.050 -2.1929  0.8497  0.4362
 8629SOL    HW237521   4.273   1.446   8.060 -1.0275  0.5524 -0.6408
 8630SOL     OW37522   3.291   4.080   7.697  0.0419  0.4404 -0.2415
 8630SOL    HW137523   3.291   4.024   7.620  1.5939  1.6038 -1.0824
 8630SOL    HW237524   3.319   4.160   7.653  1.9105 -0.8851 -1.4765
 8631SOL     OW37525   2.020   3.802   1.188 -0.1942 -0.2564 -0.4979
 8631SOL    HW137526   1.926   3.802   1.170 -0.3500 -1.2586  0.3223
 8631SOL    HW237527   2.044   3.714   1.159  0.0233 -0.4317  0.2326
 8632SOL     OW37528   1.048   0.521   2.765 -0.4437  0.0297  0.0666
 8632SOL    HW137529   1.016   0.582   2.698 -3.7472  0.8530  2.3810
 8632SOL    HW237530   1.013   0.436   2.739 -1.1583  1.2779 -2.9773
 8633SOL     OW37531   1.331   2.062   6.932 -0.0464  0.1827  0.4651
 8633SOL    HW137532   1.267   2.097   6.870  0.0927 -1.9502 -0.9071
 8633SOL    HW237533   1.406   2.068   6.873  1.1616 -0.0848  1.9779
 8634SOL     OW37534   3.661   3.719  12.956 -0.0663 -0.2676  0.5959
 8634SOL    HW137535   3.663   3.659  12.881 -0.2319 -0.1133  0.4689
 8634SOL    HW237536   3.586   3.772  12.931 -0.3760 -1.4817 -1.0380
 8635SOL     OW37537   1.498   4.104   0.106 -0.7275  0.3495  0.1223
 8635SOL    HW137538   1.412   4.087   0.069 -0.6337 -1.6209  0.8002
 8635SOL    HW237539   1.555   4.032   0.077 -0.1432  1.9656 -2.7959
 8636SOL     OW37540   0.853   4.220   6.146 -0.3677  0.4133 -0.2389
 8636SOL    HW137541   0.929   4.233   6.203  0.3313 -1.2721 -0.8069
 8636SOL    HW237542   0.787   4.195   6.211  2.3922 -1.4052  1.8636
 8637SOL     OW37543   4.611   2.131   6.074 -0.3008  0.3248 -0.4209
 8637SOL    HW137544   4.531   2.114   6.024 -0.8437  2.4647 -0.2932
 8637SOL    HW237545   4.562   2.149   6.154  0.4639 -2.9173  0.7794
 8638SOL     OW37546   0.442   3.974   8.581 -0.3187  0.2592 -0.3017
 8638SOL    HW137547   0.436   3.924   8.500  0.4755  0.1360 -0.2914
 8638SOL    HW237548   0.531   3.942   8.602 -0.3756  1.0021  1.1114
 8639SOL     OW37549   4.380   4.337   3.889 -0.0098 -0.1157  0.5767
 8639SOL    HW137550   4.354   4.396   3.819  0.1131  0.3326  0.9105
 8639SOL    HW237551   4.310   4.272   3.889  0.0801 -0.2156  1.2021
 8640SOL     OW37552   3.345   0.301  17.194 -0.1053 -0.3388  0.0011
 8640SOL    HW137553   3.309   0.255  17.269  2.8467 -1.0516  0.9744
 8640SOL    HW237554   3.273   0.362  17.183 -0.8066 -0.9065  1.4713
 8641SOL     OW37555   0.416   1.217   3.045  0.2340  0.5855 -0.4515
 8641SOL    HW137556   0.429   1.274   3.121 -0.9116 -0.6146  0.6363
 8641SOL    HW237557   0.320   1.222   3.043  0.2424 -0.1420 -2.4307
 8642SOL     OW37558   3.187   2.012   7.825 -0.0887 -0.4509 -0.4673
 8642SOL    HW137559   3.228   2.003   7.739 -1.4567 -0.9540 -1.0695
 8642SOL    HW237560   3.109   1.958   7.817 -0.2242 -0.4737  1.0682
 8643SOL     OW37561   1.766   4.666   2.930 -0.7544  0.6190 -0.2938
 8643SOL    HW137562   1.690   4.621   2.894  0.3594 -0.1200 -1.7748
 8643SOL    HW237563   1.780   4.632   3.018 -1.0059 -0.9715 -0.8664
 8644SOL     OW37564   4.673   0.776   6.109 -0.1269 -0.0284 -0.4020
 8644SOL    HW137565   4.711   0.797   6.194 -1.6566 -1.9571  0.7669
 8644SOL    HW237566   4.597   0.832   6.096  1.3813  1.8033 -1.2213
 8645SOL     OW37567   2.766   2.130   5.631  0.1114  0.1685 -0.1000
 8645SOL    HW137568   2.862   2.135   5.633  0.2098 -2.1267 -0.0616
 8645SOL    HW237569   2.744   2.144   5.723  0.7563  2.6991 -0.3009
 8646SOL     OW37570   1.433   3.286   7.547 -0.2013 -0.2291 -0.1224
 8646SOL    HW137571   1.393   3.231   7.480  0.4107  0.7392 -1.2990
 8646SOL    HW237572   1.387   3.254   7.624  0.9988 -0.2546  0.5862
 8647SOL     OW37573   1.365   3.978   8.545  0.4779  0.1680 -0.1622
 8647SOL    HW137574   1.429   3.969   8.474  1.3829  1.2563  0.5144
 8647SOL    HW237575   1.424   4.013   8.611  0.3393  0.7419 -0.3416
 8648SOL     OW37576   0.928   0.217   3.815  0.1587 -0.3590  0.0813
 8648SOL    HW137577   0.955   0.179   3.731  0.8804  1.1096 -0.3593
 8648SOL    HW237578   0.891   0.139   3.856  0.3019  0.6807  2.1879
 8649SOL     OW37579   0.199   0.160   3.942  0.2256  0.5738 -0.2898
 8649SOL    HW137580   0.118   0.128   3.983  0.7685 -1.6991 -0.9983
 8649SOL    HW237581   0.215   0.238   3.995 -0.5354  1.2607 -1.0698
 8650SOL     OW37582   1.869   3.349  13.860  0.2187 -0.4377  0.1111
 8650SOL    HW137583   1.955   3.377  13.829 -0.2635  1.4591  0.4903
 8650SOL    HW237584   1.810   3.379  13.791  0.8923  1.2976  0.2866
 8651SOL     OW37585   0.409   4.248   4.195 -0.7254 -0.2743 -0.1923
 8651SOL    HW137586   0.470   4.246   4.122  0.5156 -3.0625  0.9206
 8651SOL    HW237587   0.421   4.338   4.227 -0.8880 -0.8126  1.3873
 8652SOL     OW37588   0.474   4.067   8.879  0.4211  0.4532  0.0402
 8652SOL    HW137589   0.397   4.013   8.897  0.9889 -0.8187 -1.3121
 8652SOL    HW237590   0.475   4.059   8.784  0.6457 -0.2734  0.1033
 8653SOL     OW37591   3.951   2.770   9.896  0.1199  0.0171  0.0274
 8653SOL    HW137592   3.961   2.816   9.979 -0.9282  1.9036 -0.8874
 8653SOL    HW237593   4.038   2.781   9.858 -0.3857  2.9503 -0.3014
 8654SOL     OW37594   1.741   3.448   4.617 -0.2713  0.3327  0.5726
 8654SOL    HW137595   1.816   3.394   4.639  0.0124 -0.2599 -1.9057
 8654SOL    HW237596   1.671   3.385   4.638 -1.2485  1.1081 -0.3178
 8655SOL     OW37597   0.006   2.063   3.443 -0.0983  0.5668 -0.1360
 8655SOL    HW137598   0.061   2.142   3.443  1.1956 -0.3324 -0.2946
 8655SOL    HW237599   0.033   2.030   3.528 -1.2613 -0.2523 -0.0910
 8656SOL     OW37600   4.627   3.481   3.218  0.7650  0.1417  0.6072
 8656SOL    HW137601   4.665   3.565   3.243  1.9037 -1.1739  3.3431
 8656SOL    HW237602   4.538   3.514   3.230  0.5433 -0.6674  1.1557
 8657SOL     OW37603   0.606   2.269   7.108 -0.0039 -0.1202  0.2636
 8657SOL    HW137604   0.651   2.353   7.097  3.3922 -1.6820  2.2625
 8657SOL    HW237605   0.668   2.227   7.168  2.9484 -0.1935 -2.8224
 8658SOL     OW37606   2.920   4.241  11.031  0.0198 -0.3664  0.4441
 8658SOL    HW137607   2.947   4.149  11.033  0.5238 -0.2473 -1.2010
 8658SOL    HW237608   2.938   4.265  11.122 -2.6300  0.8216  0.6478
 8659SOL     OW37609   4.179   3.763   8.308 -0.3191 -0.0265 -0.0428
 8659SOL    HW137610   4.219   3.739   8.225  1.1948  1.2269  0.3280
 8659SOL    HW237611   4.236   3.836   8.331  0.3559 -0.4206 -0.4800
 8660SOL     OW37612   3.914   1.638  12.880 -0.6297  0.5520 -0.2353
 8660SOL    HW137613   3.977   1.708  12.863 -2.3936  2.2108 -0.0877
 8660SOL    HW237614   3.840   1.684  12.921 -0.6615  0.2900 -0.0009
 8661SOL     OW37615   2.421   1.441   3.894  0.0202  0.2773  0.1209
 8661SOL    HW137616   2.386   1.526   3.866  1.9711  0.6659 -1.1361
 8661SOL    HW237617   2.386   1.429   3.982 -1.0778  1.5234 -0.1428
 8662SOL     OW37618   0.029   3.035  11.079 -1.0317 -0.1264 -0.1777
 8662SOL    HW137619   0.067   3.109  11.126  2.3397 -0.3105 -2.5847
 8662SOL    HW237620   0.113   3.000  11.050 -1.1545 -0.3021 -0.3227
 8663SOL     OW37621   3.626   4.251  15.983  0.1533 -0.0141 -0.5243
 8663SOL    HW137622   3.577   4.175  15.951 -0.0395 -0.5919  1.1456
 8663SOL    HW237623   3.551   4.310  15.992  1.3874  1.3143  1.0608
 8664SOL     OW37624   1.817   0.555   9.270  0.8195  0.6445 -0.3146
 8664SOL    HW137625   1.807   0.465   9.302 -2.0170  0.8437 -0.6521
 8664SOL    HW237626   1.854   0.600   9.345 -0.9119 -0.7517  1.3638
 8665SOL     OW37627   1.972   2.132   7.277 -0.3981  0.1439 -0.6172
 8665SOL    HW137628   1.949   2.174   7.360  0.3278 -0.9082  0.1161
 8665SOL    HW237629   1.890   2.110   7.233  0.2380 -0.9522 -1.2475
 8666SOL     OW37630   2.901   3.740  15.359 -0.3915  0.1619 -0.1465
 8666SOL    HW137631   2.983   3.783  15.335 -0.3965  0.6994  0.7763
 8666SOL    HW237632   2.927   3.667  15.415 -1.1732 -0.5671 -0.7472
 8667SOL     OW37633   1.879   1.370  13.073  0.0570  0.2903  0.2117
 8667SOL    HW137634   1.877   1.346  13.166  1.0077  0.5528  0.2968
 8667SOL    HW237635   1.908   1.461  13.084 -2.4290  1.1212 -0.2270
 8668SOL     OW37636   3.740   1.413   2.312 -0.1157 -0.3439 -0.0419
 8668SOL    HW137637   3.815   1.355   2.299  0.7313  1.0323 -1.3184
 8668SOL    HW237638   3.755   1.464   2.392 -0.3191  0.2229 -0.3656
 8669SOL     OW37639   4.328   2.160   7.403  0.1850  0.0596  0.0801
 8669SOL    HW137640   4.245   2.207   7.414  0.8103  0.8938  1.1810
 8669SOL    HW237641   4.367   2.178   7.488 -0.4984 -2.5844  0.9573
 8670SOL     OW37642   4.616   2.481   3.043  0.0421  0.0907 -0.0335
 8670SOL    HW137643   4.553   2.530   2.990  0.5069 -2.7823 -3.2969
 8670SOL    HW237644   4.555   2.449   3.110 -2.0936  1.9438 -1.0968
 8671SOL     OW37645   0.956   4.729   4.464  0.3532 -0.5367  0.0901
 8671SOL    HW137646   0.926   0.087   4.454  0.3966 -0.6029 -0.6624
 8671SOL    HW237647   0.896   4.696   4.530  0.4024 -0.6776  0.0628
 8672SOL     OW37648   3.762   3.615   5.617  0.6117  0.0813  0.3255
 8672SOL    HW137649   3.677   3.579   5.642  1.1415 -2.3983 -1.4145
 8672SOL    HW237650   3.814   3.560   5.675  0.0821 -1.3464 -0.5522
 8673SOL     OW37651   4.451   0.156   6.485  0.1554 -0.1523  0.4623
 8673SOL    HW137652   4.406   0.188   6.563  0.2337  1.4972 -0.1751
 8673SOL    HW237653   4.467   0.235   6.434  1.0629  1.7392  3.6913
 8674SOL     OW37654   2.410   2.440   7.101 -0.5964 -0.7839  0.6736
 8674SOL    HW137655   2.480   2.495   7.066  0.2330 -2.6922 -0.6825
 8674SOL    HW237656   2.441   2.353   7.077  1.8064  0.7509 -1.8248
 8675SOL     OW37657   4.698   2.547   8.184 -0.2396 -0.4575  0.1372
 8675SOL    HW137658   4.619   2.598   8.202  0.4531 -0.0487  2.0045
 8675SOL    HW237659   0.038   2.587   8.233  0.0406 -1.3416  0.4323
 8676SOL     OW37660   0.123   3.664   1.767 -0.2744  0.2001  0.7707
 8676SOL    HW137661   0.035   3.645   1.734  0.0956  0.0157 -0.0929
 8676SOL    HW237662   0.136   3.753   1.736  0.3115 -0.5302 -1.0960
 8677SOL     OW37663   2.450   3.942  12.494  0.5204  0.1064 -0.4133
 8677SOL    HW137664   2.533   3.989  12.498  1.3677 -1.2100 -2.4018
 8677SOL    HW237665   2.467   3.870  12.432  1.5543  0.2919 -0.3546
 8678SOL     OW37666   0.321   4.710   6.954 -0.1680 -0.0189 -0.2818
 8678SOL    HW137667   0.349   4.640   6.894 -1.4567  0.7005 -1.7317
 8678SOL    HW237668   0.243   4.669   6.991  0.3122  0.0737  0.8349
 8679SOL     OW37669   2.544   3.298   0.442 -0.0329 -0.7748 -0.7196
 8679SOL    HW137670   2.526   3.222   0.497 -1.2956  0.3965  0.4732
 8679SOL    HW237671   2.542   3.260   0.354 -2.0828 -0.2763 -0.8960
 8680SOL     OW37672   2.572   3.644  10.491  0.5043  0.4537 -0.3912
 8680SOL    HW137673   2.657   3.685  10.473  0.5512  0.7912  0.6230
 8680SOL    HW237674   2.564   3.653  10.586  0.3369  0.2548 -0.3854
 8681SOL     OW37675   2.560   2.317   6.793  0.6638  0.4088 -0.0487
 8681SOL    HW137676   2.485   2.332   6.736 -2.3186  2.5664  4.4342
 8681SOL    HW237677   2.583   2.226   6.776  1.9903  1.3803 -3.3112
 8682SOL     OW37678   1.621   4.539  14.620  0.0821 -0.4718  0.2598
 8682SOL    HW137679   1.651   4.528  14.529 -2.6255  0.1074 -0.6927
 8682SOL    HW237680   1.539   4.588  14.616 -0.4090 -1.2120  1.2871
 8683SOL     OW37681   3.385   1.058   9.453  0.1764 -0.2279 -0.9390
 8683SOL    HW137682   3.292   1.039   9.457 -0.1039  1.1048 -1.1648
 8683SOL    HW237683   3.414   1.032   9.541  1.5774 -3.3117 -2.3107
 8684SOL     OW37684   0.189   0.511  16.706 -0.2294 -0.0230  0.0004
 8684SOL    HW137685   0.228   0.433  16.747 -0.0236  0.3276  0.4658
 8684SOL    HW237686   0.163   0.571  16.776 -0.5023 -2.3285  1.8741
 8685SOL     OW37687   4.184   4.110   2.971 -0.4826  0.0885 -0.0583
 8685SOL    HW137688   4.265   4.151   2.940 -2.0396  2.1818 -1.4016
 8685SOL    HW237689   4.200   4.083   3.061  0.3305 -1.2355 -0.6090
 8686SOL     OW37690   3.760   1.704   6.729 -0.1210 -0.3767 -0.2644
 8686SOL    HW137691   3.851   1.733   6.719 -0.2606 -0.2736 -1.3019
 8686SOL    HW237692   3.768   1.624   6.678  1.0258  0.1594 -0.9315
 8687SOL     OW37693   1.527   4.339   9.485  0.0937  0.3586 -0.3497
 8687SOL    HW137694   1.447   4.291   9.506  0.0563  1.1123  1.1956
 8687SOL    HW237695   1.489   4.413   9.438  0.9694  0.6600 -0.5893
 8688SOL     OW37696   3.147   0.337  16.237 -0.0540 -0.0507 -0.8933
 8688SOL    HW137697   3.168   0.424  16.270 -0.7677  0.0042 -0.5832
 8688SOL    HW237698   3.054   0.332  16.216 -0.7605  1.8177  1.7878
 8689SOL     OW37699   2.201   2.559   8.949 -0.1681  0.1958  0.2901
 8689SOL    HW137700   2.200   2.559   9.045  0.6534 -1.7561  0.2942
 8689SOL    HW237701   2.109   2.550   8.927 -0.3034  2.5960 -0.1543
 8690SOL     OW37702   1.426   0.690   6.312  0.6505  0.2197 -0.7601
 8690SOL    HW137703   1.358   0.691   6.379  1.9068 -0.6378  0.5318
 8690SOL    HW237704   1.419   0.600   6.282  0.8254  0.5548 -1.8163
 8691SOL     OW37705   2.142   1.003   3.893  0.1501  0.1409  0.9903
 8691SOL    HW137706   2.067   1.027   3.839 -0.0328  0.3535  1.3440
 8691SOL    HW237707   2.119   1.039   3.979  0.0913 -0.8510  1.3942
 8692SOL     OW37708   3.238   2.203   4.365 -0.1842  0.1325 -0.6191
 8692SOL    HW137709   3.242   2.131   4.428  0.8535 -0.1879 -1.0566
 8692SOL    HW237710   3.308   2.177   4.306  0.2463 -0.3107  0.0877
 8693SOL     OW37711   3.217   2.404   5.192 -0.4025 -0.1848 -0.1217
 8693SOL    HW137712   3.158   2.391   5.118  1.7340  1.0157 -2.0365
 8693SOL    HW237713   3.299   2.408   5.142  1.0697 -1.0122  2.2259
 8694SOL     OW37714   1.509   0.954   6.276 -0.0337  0.3258  0.5332
 8694SOL    HW137715   1.463   0.871   6.276 -1.0965  0.9225  2.1476
 8694SOL    HW237716   1.440   1.010   6.312 -1.4762 -1.0155 -0.1736
 8695SOL     OW37717   4.520   1.488   9.918  0.0816  0.2257  0.1321
 8695SOL    HW137718   4.434   1.459   9.888  0.3723  0.0498 -0.5340
 8695SOL    HW237719   4.508   1.510  10.010 -0.1169 -0.3092  0.2322
 8696SOL     OW37720   0.467   1.727   4.469  0.0932 -0.1838  0.2005
 8696SOL    HW137721   0.431   1.702   4.554 -2.3003  1.5805 -0.2879
 8696SOL    HW237722   0.557   1.697   4.480  0.2615  0.6216  0.9981
 8697SOL     OW37723   0.453   2.606   6.853 -0.0564 -0.2325  0.0858
 8697SOL    HW137724   0.395   2.578   6.782 -0.6949 -2.1639  1.3788
 8697SOL    HW237725   0.424   2.695   6.872  0.4209 -0.2011  0.6765
 8698SOL     OW37726   3.346   4.603   7.459 -0.1878  0.1398 -0.7955
 8698SOL    HW137727   3.369   4.655   7.382  1.6593  1.2764  0.5087
 8698SOL    HW237728   3.293   4.667   7.508 -0.6384 -0.9709  0.1593
 8699SOL     OW37729   1.451   2.065   7.653  0.5439  0.3871  0.1489
 8699SOL    HW137730   1.421   2.031   7.738  1.3848 -0.9688 -0.1067
 8699SOL    HW237731   1.371   2.054   7.601  0.4005  0.8033  0.2719
 8700SOL     OW37732   1.135   1.667   5.706 -0.3683 -0.1759 -0.0225
 8700SOL    HW137733   1.197   1.595   5.721  0.4789 -0.1604 -3.2932
 8700SOL    HW237734   1.187   1.744   5.729 -0.1745 -0.3335  0.0710
 8701SOL     OW37735   4.577   1.374   8.460  0.5225  0.1433 -0.0230
 8701SOL    HW137736   4.645   1.382   8.392  1.0751 -1.5284  0.3395
 8701SOL    HW237737   4.636   1.392   8.533  0.5026 -1.9102  0.4980
 8702SOL     OW37738   0.418   3.599   0.587 -0.1000 -0.0370 -0.7919
 8702SOL    HW137739   0.377   3.544   0.653 -0.2688  1.8765  0.6914
 8702SOL    HW237740   0.480   3.541   0.542 -1.5749 -0.3826 -2.3480
 8703SOL     OW37741   3.833   3.461   8.512 -0.4922  0.7178  0.2597
 8703SOL    HW137742   3.864   3.485   8.599 -2.3168  0.1946  1.0597
 8703SOL    HW237743   3.796   3.546   8.486  0.8505  0.8275 -1.2878
 8704SOL     OW37744   3.175   4.491   8.337 -0.3135  0.5647 -0.2573
 8704SOL    HW137745   3.235   4.551   8.382  0.0942  0.9181 -1.2715
 8704SOL    HW237746   3.240   4.458   8.275  0.3939  3.4041 -1.0475
 8705SOL     OW37747   2.102   1.608   5.078 -0.0776  0.2773 -0.3039
 8705SOL    HW137748   2.023   1.559   5.104 -0.8422 -0.5111 -4.1042
 8705SOL    HW237749   2.067   1.696   5.090  1.7347  0.7799  1.1933
 8706SOL     OW37750   3.041   2.424  11.816 -0.1833  0.6839 -0.1506
 8706SOL    HW137751   3.134   2.431  11.838 -0.0657 -0.8937 -0.1398
 8706SOL    HW237752   3.015   2.366  11.887 -0.7881 -0.4023 -1.2689
 8707SOL     OW37753   0.536   3.714  14.230 -0.5897 -0.0427 -0.0731
 8707SOL    HW137754   0.602   3.655  14.268 -1.4395  0.3094  1.9556
 8707SOL    HW237755   0.570   3.728  14.141  1.0207 -1.5130  0.3056
 8708SOL     OW37756   4.028   1.104   2.697  0.9529 -0.2924 -0.1437
 8708SOL    HW137757   4.043   1.019   2.738 -2.0488 -0.7791 -0.0880
 8708SOL    HW237758   3.963   1.083   2.630  1.0397 -1.5408  0.1604
 8709SOL     OW37759   1.551   4.441   3.238 -0.0950  0.0695 -0.8774
 8709SOL    HW137760   1.625   4.454   3.179 -0.4652  1.0048 -1.1344
 8709SOL    HW237761   1.585   4.369   3.292  0.6199  0.4438 -0.8213
 8710SOL     OW37762   3.823   0.766   3.948 -0.0944  0.5454  0.6098
 8710SOL    HW137763   3.830   0.683   3.902  2.1297  0.3078  1.3781
 8710SOL    HW237764   3.734   0.765   3.983 -0.7151 -0.3209 -0.9746
 8711SOL     OW37765   4.232   4.509   4.111 -0.3875 -0.0591 -0.1234
 8711SOL    HW137766   4.189   4.425   4.098  0.2575 -0.6915  1.8510
 8711SOL    HW237767   4.296   4.511   4.039 -0.9460 -0.0057 -0.6162
 8712SOL     OW37768   3.279   0.207   5.098 -0.3271 -0.0068 -0.4684
 8712SOL    HW137769   3.233   0.273   5.046 -1.7743 -0.5102  0.1744
 8712SOL    HW237770   3.230   0.131   5.067 -1.9636  1.2328 -0.9048
 8713SOL     OW37771   2.572   0.401   3.125  0.2071  0.1963 -0.3416
 8713SOL    HW137772   2.504   0.356   3.174  0.6485 -0.0446  0.0472
 8713SOL    HW237773   2.520   0.459   3.069 -1.3206 -1.1313 -0.2796
 8714SOL     OW37774   2.504   4.288   4.113  0.3603  0.0848 -0.2106
 8714SOL    HW137775   2.586   4.241   4.124 -0.4435 -1.2030  0.2686
 8714SOL    HW237776   2.525   4.358   4.051  1.4964  0.1153  0.2093
 8715SOL     OW37777   3.547   3.786   1.982  0.3814  0.0937 -0.0183
 8715SOL    HW137778   3.596   3.725   1.927  0.8703  0.9628 -0.5446
 8715SOL    HW237779   3.466   3.800   1.933  0.0048  0.2364  0.6475
 8716SOL     OW37780   3.585   4.328   5.594 -0.2932 -0.1374  0.2100
 8716SOL    HW137781   3.608   4.236   5.610  1.0453  0.4782  1.8816
 8716SOL    HW237782   3.561   4.357   5.682 -0.8781  1.7210 -0.5656
 8717SOL     OW37783   1.894   4.144   8.812  0.0508  0.0047  0.2869
 8717SOL    HW137784   1.921   4.069   8.760  2.0262  1.2440 -0.4656
 8717SOL    HW237785   1.978   4.167   8.852  0.8602  2.0490 -2.5648
 8718SOL     OW37786   3.876   1.712   8.910  0.0211  0.5905  0.1215
 8718SOL    HW137787   3.783   1.698   8.929  0.4986 -0.7374  1.4731
 8718SOL    HW237788   3.885   1.799   8.950 -1.1521  0.9280 -0.3645
 8719SOL     OW37789   3.669   2.411   4.306 -0.3966  0.0210 -0.2698
 8719SOL    HW137790   3.759   2.444   4.312 -0.3234 -0.0856 -0.7728
 8719SOL    HW237791   3.674   2.355   4.384  2.2476 -1.9211 -1.8210
 8720SOL     OW37792   2.957   1.635   2.919 -0.0915 -0.1707  0.1335
 8720SOL    HW137793   2.876   1.585   2.912 -1.5914  2.1234  1.4270
 8720SOL    HW237794   2.920   1.723   2.917 -1.9059 -0.9717 -1.3231
 8721SOL     OW37795   0.871   1.358  10.787  0.8792 -0.2851  0.0598
 8721SOL    HW137796   0.965   1.364  10.771  0.8565 -2.5737 -0.9656
 8721SOL    HW237797   0.844   1.391  10.701 -0.6545 -0.4355  0.4834
 8722SOL     OW37798   2.615   2.936   2.472  0.2057 -0.4942 -0.1435
 8722SOL    HW137799   2.568   2.885   2.537 -1.4118 -0.0572 -0.9691
 8722SOL    HW237800   2.582   2.895   2.392  3.3751  0.5331 -1.9694
 8723SOL     OW37801   1.310   2.044   3.127  0.2910  0.2121  0.5363
 8723SOL    HW137802   1.249   2.116   3.114  0.4445  0.3042  0.3214
 8723SOL    HW237803   1.339   2.029   3.037  1.4403  0.4557  0.8598
 8724SOL     OW37804   4.215   0.253  15.084  0.3103  0.1009 -0.3858
 8724SOL    HW137805   4.162   0.271  15.161 -0.0681  1.5315 -0.9958
 8724SOL    HW237806   4.231   0.336  15.039  0.9509  0.4482  0.4902
 8725SOL     OW37807   1.035   2.970  14.945  0.5963 -0.2369 -0.4137
 8725SOL    HW137808   1.039   2.965  14.849 -2.0856  0.9485 -0.5886
 8725SOL    HW237809   1.063   3.061  14.945 -0.5413  0.1158  1.8631
 8726SOL     OW37810   0.762   1.584  12.868  0.0917 -0.1243 -0.0281
 8726SOL    HW137811   0.757   1.680  12.876  2.1181 -0.1782  1.6447
 8726SOL    HW237812   0.795   1.560  12.954  1.0346 -0.4117 -0.4700
 8727SOL     OW37813   1.599   3.368   8.088 -0.0653  0.4311  0.1416
 8727SOL    HW137814   1.635   3.453   8.111  2.0395 -0.0386 -1.5233
 8727SOL    HW237815   1.588   3.372   7.993  1.8120  0.5284 -0.0549
 8728SOL     OW37816   4.212   2.578   9.687 -0.1105 -0.0639 -0.7651
 8728SOL    HW137817   4.187   2.656   9.638  0.1980  1.3568  1.3440
 8728SOL    HW237818   4.254   2.615   9.764 -2.1429  0.3382  0.1517
 8729SOL     OW37819   2.161   1.137   6.917  0.4765 -0.5759  0.7143
 8729SOL    HW137820   2.165   1.059   6.973 -2.2634 -0.1679  1.4866
 8729SOL    HW237821   2.194   1.102   6.834  1.2050 -0.3625  0.9192
 8730SOL     OW37822   0.153   0.651  14.498 -0.3005  0.6052 -0.4947
 8730SOL    HW137823   0.199   0.727  14.462  2.9144  0.8579  4.1569
 8730SOL    HW237824   0.081   0.688  14.550  0.4853  1.2582  0.1301
 8731SOL     OW37825   4.142   0.204   7.964 -0.4796 -0.2730 -0.0642
 8731SOL    HW137826   4.198   0.140   8.007  0.1140 -0.9583 -1.8525
 8731SOL    HW237827   4.165   0.197   7.871  1.3492 -1.2425  0.4564
 8732SOL     OW37828   3.495   2.736  11.266 -0.5119  0.0274  0.3041
 8732SOL    HW137829   3.506   2.675  11.338  0.3906 -0.0690  0.0780
 8732SOL    HW237830   3.471   2.808  11.324 -2.2722  0.0275 -0.4212
 8733SOL     OW37831   2.247   3.375   3.112  0.0115 -0.3604 -0.3899
 8733SOL    HW137832   2.217   3.372   3.021 -1.4767 -0.2712  0.1032
 8733SOL    HW237833   2.168   3.417   3.147  0.2515  1.6517 -2.2462
 8734SOL     OW37834   3.260   3.686   5.392 -0.1629  0.3256 -0.3491
 8734SOL    HW137835   3.251   3.725   5.305  0.0609  0.1799 -0.4392
 8734SOL    HW237836   3.346   3.644   5.387 -0.4375 -0.5964  2.2848
 8735SOL     OW37837   4.373   4.046   8.826  0.1548 -0.2518  0.0233
 8735SOL    HW137838   4.332   4.131   8.810 -1.2159 -1.0334 -0.7049
 8735SOL    HW237839   4.305   3.985   8.796  0.2936 -0.5662  0.3530
 8736SOL     OW37840   3.799   4.611   3.721 -0.4333  0.3022  0.9367
 8736SOL    HW137841   3.815   4.517   3.724  1.8772  0.6597 -0.7135
 8736SOL    HW237842   3.808   4.629   3.814 -2.1664  2.2567  0.7380
 8737SOL     OW37843   0.520   0.554   2.700 -0.1710  0.0764  0.0069
 8737SOL    HW137844   0.485   0.622   2.757  0.1500 -0.5299  0.9145
 8737SOL    HW237845   0.475   0.475   2.727 -0.4661  0.6998  1.3461
 8738SOL     OW37846   1.967   2.839   3.998 -0.3324  0.7910  0.0164
 8738SOL    HW137847   2.038   2.895   3.967  0.5789  0.5958  1.7589
 8738SOL    HW237848   1.896   2.871   3.942 -0.9133  0.9301  0.8290
 8739SOL     OW37849   2.560   2.512  13.606  0.0720 -0.0162 -0.6593
 8739SOL    HW137850   2.548   2.523  13.701 -0.3505 -0.6410 -0.6358
 8739SOL    HW237851   2.652   2.533  13.596  0.6933 -2.0268  0.9020
 8740SOL     OW37852   2.210   3.611   4.573  0.0961 -0.7169  0.1316
 8740SOL    HW137853   2.227   3.678   4.507 -0.8006 -1.2909 -0.6880
 8740SOL    HW237854   2.300   3.594   4.603 -0.0195 -0.2626  0.7237
 8741SOL     OW37855   4.428   4.317   6.366  0.4763 -0.3329  0.4375
 8741SOL    HW137856   4.406   4.407   6.389 -0.0243 -0.2403 -0.4178
 8741SOL    HW237857   4.356   4.303   6.306  0.9321 -0.7517 -0.0077
 8742SOL     OW37858   0.372   3.942   4.539 -0.3130 -0.1674  0.2003
 8742SOL    HW137859   0.303   3.963   4.602 -1.6125 -0.6716 -1.0575
 8742SOL    HW237860   0.451   3.945   4.593 -1.1967  0.6180  1.4474
 8743SOL     OW37861   3.700   1.289   1.831  0.1270 -0.1349 -0.3534
 8743SOL    HW137862   3.729   1.200   1.814 -1.8047 -1.0612  1.2275
 8743SOL    HW237863   3.667   1.288   1.921 -0.5371 -0.1409 -0.5966
 8744SOL     OW37864   0.186   2.860   5.620 -0.2556 -0.2970 -0.3430
 8744SOL    HW137865   0.256   2.906   5.665 -0.5451  0.1014 -0.3016
 8744SOL    HW237866   0.184   2.897   5.532 -0.6203 -1.4585 -0.8274
 8745SOL     OW37867   4.195   1.366   2.091 -0.6264 -0.4804  0.1218
 8745SOL    HW137868   4.250   1.350   2.014 -1.8282  1.6641 -1.1718
 8745SOL    HW237869   4.206   1.460   2.103  0.9690 -0.6951  0.3238
 8746SOL     OW37870   1.170   3.755   6.954 -0.1656 -0.5127  0.2463
 8746SOL    HW137871   1.076   3.736   6.957 -0.0418 -0.6210  3.9174
 8746SOL    HW237872   1.209   3.700   6.887 -2.0228 -0.1748 -1.1111
 8747SOL     OW37873   0.164   2.560   3.522  0.3297 -0.3661  0.2307
 8747SOL    HW137874   0.123   2.486   3.477 -0.3792  1.0728 -1.5352
 8747SOL    HW237875   0.164   2.624   3.450  0.5767  0.9952  1.4312
 8748SOL     OW37876   3.446   3.281   5.896  0.9696  0.4186 -0.0107
 8748SOL    HW137877   3.425   3.359   5.948 -0.5487  0.9312 -1.4015
 8748SOL    HW237878   3.539   3.280   5.916  0.2914 -0.5210  3.0770
 8749SOL     OW37879   4.246   2.762   4.048 -0.1138  0.1599 -0.2645
 8749SOL    HW137880   4.261   2.676   4.009  1.3941  0.3725 -0.1714
 8749SOL    HW237881   4.300   2.816   3.989  1.7248 -1.3115  0.0786
 8750SOL     OW37882   3.351   3.771   0.792  0.4114  0.0489 -0.4577
 8750SOL    HW137883   3.275   3.742   0.742  0.1982 -0.8485  0.3819
 8750SOL    HW237884   3.297   3.810   0.861  2.5900 -0.8414  1.7446
 8751SOL     OW37885   1.366   3.822   2.311 -0.2873  0.2039  0.7364
 8751SOL    HW137886   1.368   3.749   2.249  1.1004  0.0271  0.9886
 8751SOL    HW237887   1.460   3.837   2.318 -0.1577  1.5424 -3.5808
 8752SOL     OW37888   4.094   2.206   0.710 -0.1463  0.2463  0.1839
 8752SOL    HW137889   4.071   2.247   0.627 -1.9307 -0.3046  0.4197
 8752SOL    HW237890   4.126   2.285   0.754  1.5164 -0.1845 -0.2501
 8753SOL     OW37891   2.081   3.419   4.956  0.4114 -0.0486  0.0803
 8753SOL    HW137892   2.056   3.498   4.909 -1.3390  0.0740  1.2197
 8753SOL    HW237893   2.067   3.356   4.886 -0.5477 -2.0350  2.0619
 8754SOL     OW37894   4.118   3.293   5.767  0.0124  0.5783 -0.3147
 8754SOL    HW137895   4.158   3.207   5.777 -1.5718 -0.2062 -0.6881
 8754SOL    HW237896   4.182   3.325   5.704  1.2621 -0.1065  0.5928
 8755SOL     OW37897   0.219   3.141   0.022  0.5237 -0.1226  0.3772
 8755SOL    HW137898   0.177   3.066   0.064 -1.5181 -0.5983 -2.5070
 8755SOL    HW237899   0.306   3.100   0.025  0.9815  1.0850  3.7483
 8756SOL     OW37900   0.555   0.373   8.170  0.0903 -0.0300 -0.0376
 8756SOL    HW137901   0.606   0.433   8.115  1.3856 -0.6476  0.4930
 8756SOL    HW237902   0.623   0.336   8.225  1.5592 -0.4532 -2.1240
 8757SOL     OW37903   0.700   3.576  10.931 -0.0144 -0.0769  0.1178
 8757SOL    HW137904   0.728   3.512  10.866 -1.7576 -0.9668  0.2520
 8757SOL    HW237905   0.615   3.609  10.902 -0.5638 -1.2439  0.3874
 8758SOL     OW37906   2.036   3.341   4.050 -0.0751 -0.4477 -0.3059
 8758SOL    HW137907   2.016   3.434   4.036  1.6600 -0.0388 -0.1118
 8758SOL    HW237908   2.000   3.311   3.966 -1.2332 -1.9593  0.7490
 8759SOL     OW37909   3.161   3.258   8.167 -0.2586  0.2977 -0.2660
 8759SOL    HW137910   3.096   3.212   8.114 -0.3922  1.0383 -0.7520
 8759SOL    HW237911   3.112   3.301   8.237 -2.3079  1.5821 -2.4992
 8760SOL     OW37912   2.259   3.329  11.829 -0.2668  0.1007  0.0097
 8760SOL    HW137913   2.212   3.391  11.885 -1.0764  1.7342 -2.4763
 8760SOL    HW237914   2.242   3.252  11.883  0.9169  0.2103  0.5435
 8761SOL     OW37915   4.486   0.542   5.617 -0.3770 -0.0341  0.1240
 8761SOL    HW137916   4.496   0.454   5.581 -2.1428 -1.2298  2.5933
 8761SOL    HW237917   4.559   0.591   5.579 -2.5923  2.4416 -0.9358
 8762SOL     OW37918   2.250   2.134  13.953 -0.1188  0.1509  0.3006
 8762SOL    HW137919   2.313   2.159  13.886 -0.1466 -0.3227  0.1010
 8762SOL    HW237920   2.209   2.218  13.974 -2.7019 -0.8749 -0.7567
 8763SOL     OW37921   3.245   2.247   4.717 -0.2884 -0.7886 -0.0946
 8763SOL    HW137922   3.172   2.241   4.778 -0.0885 -1.5186  0.0742
 8763SOL    HW237923   3.227   2.329   4.671 -0.1031 -0.4957  0.3581
 8764SOL     OW37924   2.720   0.885   5.246  0.0879  0.3713 -0.4687
 8764SOL    HW137925   2.804   0.842   5.262 -0.5704 -0.4730  0.7271
 8764SOL    HW237926   2.671   0.863   5.325 -0.1463  0.8708 -0.4744
 8765SOL     OW37927   1.287   1.518   4.965 -0.6223 -0.4757  0.3655
 8765SOL    HW137928   1.300   1.511   5.059 -1.0018 -2.2017  0.2948
 8765SOL    HW237929   1.229   1.444   4.946  0.8352 -1.4563 -0.2571
 8766SOL     OW37930   3.405   2.614   3.653 -0.2477 -0.1111  0.0912
 8766SOL    HW137931   3.484   2.567   3.624  0.2833  0.1331  1.1386
 8766SOL    HW237932   3.363   2.542   3.700  2.4131 -2.0386 -0.4790
 8767SOL     OW37933   4.279   0.580   9.026  0.3783 -0.1173  0.5593
 8767SOL    HW137934   4.255   0.585   9.119 -0.4590  2.6795  0.2116
 8767SOL    HW237935   4.241   0.658   8.985  0.8853  0.2835  0.8560
 8768SOL     OW37936   2.433   0.181   7.329 -0.4692 -0.0020 -0.5493
 8768SOL    HW137937   2.348   0.224   7.342 -0.1937  0.2504  0.4321
 8768SOL    HW237938   2.449   0.148   7.417  1.1015 -1.2211 -1.2776
 8769SOL     OW37939   4.384   0.451   9.604  0.3558 -0.0959  0.6595
 8769SOL    HW137940   4.474   0.432   9.632  0.0579  0.7774  2.2363
 8769SOL    HW237941   4.336   0.435   9.685 -0.9452  3.3111  0.5455
 8770SOL     OW37942   3.532   0.408   7.408  0.2634 -0.0435  0.3050
 8770SOL    HW137943   3.482   0.327   7.422 -0.1739 -0.1041 -1.6341
 8770SOL    HW237944   3.616   0.376   7.442  1.6273  2.5510 -0.6558
 8771SOL     OW37945   0.444   3.959  14.305 -0.7339  0.0973  0.4177
 8771SOL    HW137946   0.483   3.871  14.303  0.4236  0.6191  0.2586
 8771SOL    HW237947   0.366   3.952  14.361 -0.3755  0.6178  0.9808
 8772SOL     OW37948   3.730   4.714   2.052  0.4713  0.3634 -0.1400
 8772SOL    HW137949   3.823   0.005   2.051  0.1959  1.5089  1.2010
 8772SOL    HW237950   3.733   4.637   2.108 -0.4417 -0.9186 -1.8713
 8773SOL     OW37951   1.211   3.813   3.033 -0.4343  0.6328 -0.5154
 8773SOL    HW137952   1.129   3.817   2.984 -0.7300  1.0755  0.0227
 8773SOL    HW237953   1.267   3.846   2.963 -0.6846  1.9990 -0.0688
 8774SOL     OW37954   3.694   2.428  13.833  0.0255  0.0150  0.0893
 8774SOL    HW137955   3.730   2.403  13.918  0.8388 -2.1897 -0.9106
 8774SOL    HW237956   3.754   2.502  13.817  0.0929  0.2473  1.3686
 8775SOL     OW37957   4.459   3.199   8.836 -0.2806  0.3722 -0.1450
 8775SOL    HW137958   4.464   3.135   8.907  0.7301  0.9097  0.2744
 8775SOL    HW237959   4.377   3.239   8.864 -0.5172  1.4250 -2.2787
 8776SOL     OW37960   0.309   0.518  10.454  0.3543 -0.3644  0.8740
 8776SOL    HW137961   0.345   0.470  10.528 -0.7494  1.1703  2.3774
 8776SOL    HW237962   0.364   0.493  10.379 -0.2165 -0.8230  0.6103
 8777SOL     OW37963   3.517   3.105   4.933 -0.5453 -0.4061  0.0636
 8777SOL    HW137964   3.429   3.142   4.944 -0.2795  0.9216 -2.1711
 8777SOL    HW237965   3.554   3.132   5.017 -0.2689 -1.5282  0.2884
 8778SOL     OW37966   4.475   3.368  14.933  0.3315  0.3019  0.8146
 8778SOL    HW137967   4.452   3.407  14.848 -3.6778  0.2875  1.8807
 8778SOL    HW237968   4.398   3.381  14.988  0.7721  0.1810  1.4467
 8779SOL     OW37969   1.722   2.108  10.411  0.4421  0.2888  0.0285
 8779SOL    HW137970   1.738   2.016  10.435 -1.6921 -0.3151 -0.9098
 8779SOL    HW237971   1.627   2.104  10.408  0.3818 -0.0947  2.2580
 8780SOL     OW37972   2.174   1.542   5.772 -0.1379  0.4023  0.0695
 8780SOL    HW137973   2.171   1.589   5.689  1.6297 -0.6851 -0.6220
 8780SOL    HW237974   2.132   1.462   5.740  1.5440  0.2359 -1.7733
 8781SOL     OW37975   4.626   2.541   4.561 -0.6103 -0.0974  0.0726
 8781SOL    HW137976   4.635   2.510   4.470  2.5121  1.4064 -0.1403
 8781SOL    HW237977   4.695   2.483   4.595 -0.2317  0.4071  0.1674
 8782SOL     OW37978   3.435   4.690  13.187 -0.7150  0.1490 -0.1370
 8782SOL    HW137979   3.452   4.597  13.204  0.0816  0.2453 -0.3823
 8782SOL    HW237980   3.341   4.696  13.173 -0.8013  2.4986  1.4392
 8783SOL     OW37981   1.548   3.459  17.241 -0.4044  0.3215 -0.1224
 8783SOL    HW137982   1.528   3.379  17.194 -1.9373  0.0823  0.9401
 8783SOL    HW237983   1.638   3.444  17.271 -1.1660 -0.8468  1.5441
 8784SOL     OW37984   4.582   0.800   5.216  0.0475 -0.6991 -0.0674
 8784SOL    HW137985   4.494   0.792   5.180 -0.4226  0.6347  0.7694
 8784SOL    HW237986   4.598   0.890   5.187  0.7514 -0.6501  0.4757
 8785SOL     OW37987   1.890   3.886   1.604  0.2367 -0.2928  0.1105
 8785SOL    HW137988   1.811   3.833   1.589  0.0816  0.1496 -0.6464
 8785SOL    HW237989   1.866   3.974   1.575  0.1467 -0.8184 -1.4562
 8786SOL     OW37990   0.902   3.898  12.822  0.5953 -0.0943 -0.2789
 8786SOL    HW137991   0.956   3.933  12.893 -1.3722 -0.4039  1.3475
 8786SOL    HW237992   0.844   3.840  12.870  0.1538  0.6768  0.1101
 8787SOL     OW37993   0.411   2.351   2.792  0.1781 -0.5077  0.1281
 8787SOL    HW137994   0.380   2.419   2.853  1.1278 -0.6840  0.8087
 8787SOL    HW237995   0.412   2.393   2.706 -2.7206 -1.3545 -0.3429
 8788SOL     OW37996   0.989   0.334   4.098  0.2071 -0.0469  0.3233
 8788SOL    HW137997   0.936   0.353   4.020  0.2744  0.5524  0.4227
 8788SOL    HW237998   1.073   0.376   4.084 -0.1091  0.1948 -0.8309
 8789SOL     OW37999   2.428   2.788   7.251  0.1746  0.0709  0.0743
 8789SOL    HW138000   2.494   2.759   7.314  1.1113 -0.9529 -1.3852
 8789SOL    HW238001   2.492   2.807   7.182 -0.3914 -0.7326 -0.6727
 8790SOL     OW38002   1.356   1.899   2.686  0.3807 -0.5698  0.1430
 8790SOL    HW138003   1.288   1.943   2.737  1.2083  1.8830 -0.8560
 8790SOL    HW238004   1.291   1.863   2.625  1.3381 -0.6378 -0.8395
 8791SOL     OW38005   0.608   2.968   1.576 -0.0377 -0.2920 -0.3029
 8791SOL    HW138006   0.653   2.884   1.565  0.8716  0.2266 -0.5694
 8791SOL    HW238007   0.540   2.963   1.509 -1.4398 -0.8491  1.1724
 8792SOL     OW38008   3.436   3.498   7.027  0.1114 -0.3995 -0.2469
 8792SOL    HW138009   3.415   3.590   7.010 -1.4097 -1.3072 -3.2829
 8792SOL    HW238010   3.499   3.507   7.098 -1.9666  2.1676  1.3131
 8793SOL     OW38011   3.489   1.664   8.647  0.0900 -0.0280  0.7030
 8793SOL    HW138012   3.511   1.748   8.607 -1.5375 -2.2543 -4.8318
 8793SOL    HW238013   3.410   1.650   8.595  0.0596 -0.1268  0.7759
 8794SOL     OW38014   4.054   2.718   4.768 -0.1456 -0.0823 -0.1907
 8794SOL    HW138015   3.987   2.654   4.743  0.2706 -0.8935  0.7710
 8794SOL    HW238016   4.130   2.661   4.754 -0.4366 -1.4486  3.6681
 8795SOL     OW38017   2.836   2.119   2.728 -0.0477 -0.2308 -1.1866
 8795SOL    HW138018   2.924   2.155   2.739 -0.3457  0.2850 -0.5237
 8795SOL    HW238019   2.860   2.027   2.717  0.6625 -0.3842  1.8565
 8796SOL     OW38020   1.516   3.407   7.847  0.0106  0.2933 -0.5357
 8796SOL    HW138021   1.421   3.416   7.840  0.1230 -0.6103 -3.2926
 8796SOL    HW238022   1.545   3.492   7.814 -1.2944  0.4412 -1.3094
 8797SOL     OW38023   0.201   4.584   2.681 -0.3158 -0.4118 -0.0294
 8797SOL    HW138024   0.168   4.652   2.623  0.8568  0.4993  0.3908
 8797SOL    HW238025   0.276   4.632   2.715  0.7172 -1.2689 -1.0601
 8798SOL     OW38026   3.698   2.432   3.303  0.5049 -0.7155  0.3262
 8798SOL    HW138027   3.792   2.431   3.285  0.4861  2.0617  0.1278
 8798SOL    HW238028   3.685   2.451   3.396 -1.2249  2.5334 -0.5951
 8799SOL     OW38029   4.428   2.724   2.967 -0.4216  0.1703  0.0833
 8799SOL    HW138030   4.499   2.787   2.950 -0.8143  0.7559  0.6072
 8799SOL    HW238031   4.396   2.769   3.045 -1.4359  0.7421 -0.6559
 8800SOL     OW38032   1.212   4.307  10.149 -0.0179 -0.2333 -0.6056
 8800SOL    HW138033   1.146   4.309  10.218 -1.1254  3.1325 -1.7607
 8800SOL    HW238034   1.213   4.214  10.127  0.4428 -0.4532  0.3658
 8801SOL     OW38035   4.151   0.234   5.958  0.0386  0.1139  0.5208
 8801SOL    HW138036   4.170   0.220   5.866 -0.1765  1.7317  0.2233
 8801SOL    HW238037   4.191   0.321   5.970  1.0452 -0.4270  1.0762
 8802SOL     OW38038   4.640   2.657   5.948 -0.0624  0.0911 -0.3138
 8802SOL    HW138039   4.587   2.654   6.027 -1.7566 -0.1315 -1.4469
 8802SOL    HW238040   4.690   2.738   5.941  0.2751 -0.0918 -0.0039
 8803SOL     OW38041   1.145   3.722   5.463  0.3231  0.1087 -0.6702
 8803SOL    HW138042   1.166   3.634   5.431  0.6457 -0.8429  2.1237
 8803SOL    HW238043   1.163   3.708   5.556  0.7080 -0.7429 -0.8667
 8804SOL     OW38044   1.264   0.796  14.832  0.4663 -0.0924  0.2621
 8804SOL    HW138045   1.303   0.743  14.763 -0.7657  3.1780 -2.9180
 8804SOL    HW238046   1.329   0.776  14.900  2.1908 -0.6200 -1.5599
 8805SOL     OW38047   4.013   1.432   5.676 -0.4505 -0.2081  0.3296
 8805SOL    HW138048   4.107   1.420   5.685 -0.3840  0.9043  1.0766
 8805SOL    HW238049   3.979   1.355   5.629 -0.9411 -0.5329  1.2295
 8806SOL     OW38050   0.108   2.725   3.790 -0.1183  0.1967 -0.2642
 8806SOL    HW138051   0.062   2.790   3.738 -2.0697  0.0105  1.2296
 8806SOL    HW238052   0.118   2.662   3.718 -2.3831  0.1855 -0.5643
 8807SOL     OW38053   2.016   0.005   8.736 -0.0883 -0.1391  0.8535
 8807SOL    HW138054   2.005   0.098   8.715 -1.2377 -0.6573 -0.8152
 8807SOL    HW238055   2.031   4.700   8.649  0.9071  0.1766  0.8988
 8808SOL     OW38056   1.224   4.632   4.935 -0.3340 -0.6183 -0.6807
 8808SOL    HW138057   1.252   4.584   4.857  2.1133  0.8255 -0.7041
 8808SOL    HW238058   1.255   4.577   5.007 -3.8778 -2.2682 -0.4316
 8809SOL     OW38059   4.101   0.819  12.694  0.2292  0.4469 -0.7271
 8809SOL    HW138060   4.179   0.806  12.748 -0.5081 -1.6520 -0.1631
 8809SOL    HW238061   4.145   0.823  12.610  0.9214 -1.5515 -0.4568
 8810SOL     OW38062   3.430   3.843   4.696  0.6129 -0.0688  0.0245
 8810SOL    HW138063   3.424   3.752   4.666  1.7013 -0.5800  1.3599
 8810SOL    HW238064   3.524   3.845   4.714  0.7354 -0.3147 -0.5934
 8811SOL     OW38065   4.441   3.531   0.712  1.1614  0.7035  0.2977
 8811SOL    HW138066   4.359   3.579   0.714  0.8031  0.1337 -1.3991
 8811SOL    HW238067   4.488   3.571   0.639  1.6570 -2.7859 -1.3087
 8812SOL     OW38068   3.579   0.766  13.215  0.2280 -0.3459  0.4663
 8812SOL    HW138069   3.581   0.684  13.166 -0.1429 -0.0180 -0.0920
 8812SOL    HW238070   3.653   0.754  13.274 -0.4947 -0.4677  1.3543
 8813SOL     OW38071   1.675   4.407   1.093  0.2255 -0.6719  0.1672
 8813SOL    HW138072   1.744   4.402   1.160 -0.2374  3.6575  0.9425
 8813SOL    HW238073   1.690   4.493   1.054 -0.0563 -1.8839 -2.6436
 8814SOL     OW38074   4.556   0.469   9.918  0.3607 -0.3579  0.0610
 8814SOL    HW138075   4.464   0.451   9.900  0.6744 -1.5290 -0.3685
 8814SOL    HW238076   4.591   0.380   9.920 -0.1069 -0.5516 -0.3010
 8815SOL     OW38077   2.581   0.189  11.980 -0.3593  0.3873 -0.4831
 8815SOL    HW138078   2.553   0.220  11.894 -2.0058  0.7566  0.1905
 8815SOL    HW238079   2.644   0.120  11.960  0.5393  0.4495  2.1098
 8816SOL     OW38080   0.283   2.313   2.316 -0.2373  0.0824  0.5367
 8816SOL    HW138081   0.194   2.280   2.328 -0.8334  1.0431 -1.2686
 8816SOL    HW238082   0.260   2.382   2.254 -2.9750  0.0602  1.5189
 8817SOL     OW38083   2.187   0.392  12.457  0.0585  0.5233  0.2655
 8817SOL    HW138084   2.150   0.334  12.523  0.7115  0.5409  0.6452
 8817SOL    HW238085   2.141   0.472  12.480 -0.8977  0.3886 -1.1828
 8818SOL     OW38086   1.550   0.970   6.971  0.2552  0.4505  0.3542
 8818SOL    HW138087   1.592   0.977   6.885  2.1375 -1.4653  1.1080
 8818SOL    HW238088   1.483   1.036   6.956 -2.8103 -2.3271  1.7069
 8819SOL     OW38089   3.778   1.973  11.599  0.1477 -0.5047  0.0688
 8819SOL    HW138090   3.786   2.062  11.633 -0.2360  0.1655 -1.5587
 8819SOL    HW238091   3.803   1.994  11.509 -2.2961 -0.0660 -0.5034
 8820SOL     OW38092   1.741   3.181   3.903  0.1721 -0.1036  0.2494
 8820SOL    HW138093   1.751   3.096   3.860  1.4333  0.2046 -0.0675
 8820SOL    HW238094   1.707   3.162   3.990  0.6561  1.5196  0.7852
 8821SOL     OW38095   1.706   4.124   3.154 -0.3751 -0.6397  0.6248
 8821SOL    HW138096   1.708   4.174   3.235  0.3547  1.0961 -0.4474
 8821SOL    HW238097   1.793   4.084   3.155  0.5881  1.4702  1.6712
 8822SOL     OW38098   2.254   3.922  16.340 -0.0428 -0.1130 -0.1187
 8822SOL    HW138099   2.295   3.996  16.295  0.5498  1.1695  2.5613
 8822SOL    HW238100   2.259   3.953  16.430 -1.2315  0.2393 -0.1712
 8823SOL     OW38101   3.373   0.097   4.074  0.0333  0.4540  0.4653
 8823SOL    HW138102   3.293   0.098   4.127  1.6230 -0.1598  2.8866
 8823SOL    HW238103   3.356   0.171   4.015  2.0277  2.0086  1.8664
 8824SOL     OW38104   4.097   2.031   7.730 -0.2604  0.3052 -0.1293
 8824SOL    HW138105   4.115   1.957   7.671 -0.4010  0.6192 -0.5699
 8824SOL    HW238106   4.002   2.036   7.727 -0.2796  0.5000  0.9625
 8825SOL     OW38107   3.758   2.153  13.809  0.3390 -0.1494  1.3446
 8825SOL    HW138108   3.748   2.248  13.814  2.1663  0.1516 -0.4747
 8825SOL    HW238109   3.742   2.130  13.717  1.4416 -0.0274  1.1153
 8826SOL     OW38110   1.252   0.208  15.299  0.0181  0.3719 -0.6287
 8826SOL    HW138111   1.270   0.114  15.299  2.1162  0.7815  0.7943
 8826SOL    HW238112   1.225   0.234  15.387 -0.8812 -1.3703 -0.3958
 8827SOL     OW38113   2.976   0.995  14.661 -0.1639 -0.0751  0.5312
 8827SOL    HW138114   3.039   0.923  14.661 -0.1591 -0.0861 -1.1967
 8827SOL    HW238115   3.026   1.072  14.635  0.4498  0.1863  2.5355
 8828SOL     OW38116   2.563   1.187   7.888 -0.2147 -0.4766 -0.2733
 8828SOL    HW138117   2.561   1.201   7.982 -0.7055  1.9569 -0.6491
 8828SOL    HW238118   2.483   1.230   7.860  0.1212 -0.2176 -0.8483
 8829SOL     OW38119   3.465   2.959  14.527  0.0506  0.4558  0.0166
 8829SOL    HW138120   3.420   2.883  14.564  0.1695 -0.2391 -1.2887
 8829SOL    HW238121   3.463   3.014  14.606 -1.5934  0.1648  0.1828
 8830SOL     OW38122   4.231   2.311   2.974 -0.2580  0.0953 -0.3626
 8830SOL    HW138123   4.281   2.391   2.991  1.1488 -0.6775 -0.8931
 8830SOL    HW238124   4.147   2.347   2.947 -1.0018 -0.4581  1.2239
 8831SOL     OW38125   0.834   2.759   6.004  0.2570 -0.3302  0.1504
 8831SOL    HW138126   0.818   2.669   6.031  2.2218 -0.9132 -0.6581
 8831SOL    HW238127   0.921   2.773   6.042  0.0660 -0.8469  0.7739
 8832SOL     OW38128   3.749   2.149  10.767 -0.2184  0.1493  0.3848
 8832SOL    HW138129   3.739   2.145  10.672 -0.2724  0.0205  0.3958
 8832SOL    HW238130   3.774   2.241  10.781  1.6740 -0.1908 -0.8479
 8833SOL     OW38131   1.838   3.724   3.628  0.0879  0.6414  0.4893
 8833SOL    HW138132   1.832   3.738   3.723  1.7489 -1.6086  0.9442
 8833SOL    HW238133   1.856   3.815   3.606  0.9901  0.0115 -1.3197
 8834SOL     OW38134   1.240   3.805   8.735  0.4505  0.8327  0.3270
 8834SOL    HW138135   1.268   3.852   8.657 -0.7560 -0.8253 -1.1156
 8834SOL    HW238136   1.325   3.768   8.762  0.8841  2.6888  1.4979
 8835SOL     OW38137   4.527   0.251   9.169 -0.0189  0.4440 -0.4225
 8835SOL    HW138138   4.455   0.289   9.221 -0.5632  0.3671 -1.1233
 8835SOL    HW238139   4.489   0.238   9.082  0.3960  1.6784 -0.7896
 8836SOL     OW38140   2.938   4.602   4.882  0.2382 -0.2593 -0.0806
 8836SOL    HW138141   2.914   4.647   4.801  1.4066 -0.4722 -0.5299
 8836SOL    HW238142   2.973   4.517   4.856  0.3598  0.0286 -0.8808
 8837SOL     OW38143   0.473   1.500   6.713 -0.1634 -0.0590  0.3554
 8837SOL    HW138144   0.568   1.510   6.715 -0.1608 -0.2001  0.9736
 8837SOL    HW238145   0.454   1.529   6.802  0.5056 -0.2000  0.5383
 8838SOL     OW38146   3.139   2.952   4.581  0.7237 -0.2082 -0.4534
 8838SOL    HW138147   3.228   2.918   4.578  1.0731  0.6625 -0.0464
 8838SOL    HW238148   3.097   2.878   4.537  1.6553 -1.1864  0.2993
 8839SOL     OW38149   1.830   3.486   9.102  0.5866 -0.0975 -0.0159
 8839SOL    HW138150   1.772   3.511   9.174  0.5821 -0.5019  0.1216
 8839SOL    HW238151   1.861   3.573   9.079  1.0178 -0.0294  0.8372
 8840SOL     OW38152   3.851   4.498  14.001 -0.1233  0.5421  0.3638
 8840SOL    HW138153   3.818   4.580  14.037  0.2028 -0.4116  2.8515
 8840SOL    HW238154   3.944   4.518  13.995  0.1181  0.2072  3.2555
 8841SOL     OW38155   0.959   1.634   4.625 -0.4596  0.2496  0.1636
 8841SOL    HW138156   1.052   1.611   4.625  0.2989  3.3463  2.4165
 8841SOL    HW238157   0.960   1.726   4.652 -0.1187  0.0868  0.7107
 8842SOL     OW38158   3.837   2.869  15.448  0.2439  0.0998 -0.2339
 8842SOL    HW138159   3.818   2.961  15.430 -0.6999 -0.5313 -2.4257
 8842SOL    HW238160   3.918   2.882  15.497  0.4466 -0.4152 -0.4300
 8843SOL     OW38161   1.386   1.377   8.459 -0.1348 -0.7692  0.0613
 8843SOL    HW138162   1.434   1.416   8.386  0.0064 -1.5847 -0.2799
 8843SOL    HW238163   1.456   1.387   8.523 -0.0679  1.0135 -0.2808
 8844SOL     OW38164   0.217   3.740  13.476 -0.0946  0.1749 -0.1126
 8844SOL    HW138165   0.179   3.701  13.554 -1.2163  1.1867 -0.1471
 8844SOL    HW238166   0.293   3.684  13.462  0.2664  0.8763 -1.0316
 8845SOL     OW38167   2.353   3.174   8.008  0.1722  0.0347 -0.3941
 8845SOL    HW138168   2.377   3.247   8.065  0.4364 -1.2424  1.1428
 8845SOL    HW238169   2.429   3.122   8.035  0.7114  1.0516  0.0236
 8846SOL     OW38170   2.550   2.684   5.626  0.2833  0.0340 -0.1397
 8846SOL    HW138171   2.494   2.673   5.703  1.3998  0.8994  0.8173
 8846SOL    HW238172   2.558   2.776   5.600 -4.4404  1.0114  1.8004
 8847SOL     OW38173   0.937   2.557   8.767  0.4941  0.2273 -0.4164
 8847SOL    HW138174   0.950   2.652   8.766  0.2384  0.2315 -2.3727
 8847SOL    HW238175   1.025   2.528   8.740  2.0823  4.2715  0.3705
 8848SOL     OW38176   3.232   4.605   0.338 -0.1899 -0.0749  0.0041
 8848SOL    HW138177   3.326   4.609   0.318 -0.4836  1.3078 -1.0540
 8848SOL    HW238178   3.218   4.520   0.296 -3.1381 -0.4297  1.6601
 8849SOL     OW38179   0.337   0.705   3.287  0.1154  0.1303 -0.0346
 8849SOL    HW138180   0.288   0.769   3.338  0.6656  0.5806 -0.0617
 8849SOL    HW238181   0.411   0.682   3.344  0.4467 -0.2396 -0.6070
 8850SOL     OW38182   1.506   4.150  17.504 -0.1719  0.2111  0.0959
 8850SOL    HW138183   1.429   4.142  17.560 -0.8239 -0.9133 -0.9653
 8850SOL    HW238184   1.496   4.070  17.452  0.4451  0.7146 -0.7877
 8851SOL     OW38185   2.178   2.100   3.219 -0.0556  0.2954 -0.7521
 8851SOL    HW138186   2.094   2.055   3.204  1.1991 -2.4525  0.4758
 8851SOL    HW238187   2.158   2.179   3.168 -0.8184  1.3251  1.1440
 8852SOL     OW38188   3.828   0.228   4.091  0.0427 -0.8152 -0.6524
 8852SOL    HW138189   3.779   0.198   4.168 -1.8970 -2.2206 -2.4356
 8852SOL    HW238190   3.862   0.311   4.124 -2.2017  0.1345 -0.6921
 8853SOL     OW38191   3.911   3.119   5.904 -0.1535 -0.1226  0.1591
 8853SOL    HW138192   3.950   3.107   5.818  0.3791 -2.0133  0.6731
 8853SOL    HW238193   3.837   3.174   5.878  0.9024  0.8278 -0.8806
 8854SOL     OW38194   0.630   0.584  11.847  0.3856  0.0917  0.0121
 8854SOL    HW138195   0.652   0.610  11.937  0.4531 -2.3921  0.7145
 8854SOL    HW238196   0.586   0.500  11.863  1.2131 -0.4449 -0.5438
 8855SOL     OW38197   1.007   0.302   8.510 -0.1029 -0.9999  0.1157
 8855SOL    HW138198   1.102   0.308   8.502 -0.1564  1.0342  1.0755
 8855SOL    HW238199   0.996   0.226   8.567 -0.0624 -0.7845  0.4136
 8856SOL     OW38200   0.866   4.501  12.406  0.1764 -0.3611  0.6898
 8856SOL    HW138201   0.770   4.504  12.407  0.1444 -1.3129 -0.3757
 8856SOL    HW238202   0.897   4.591  12.415  1.3636 -0.6162 -0.9160
 8857SOL     OW38203   0.480   3.579  13.440 -0.3744  0.1878 -0.2088
 8857SOL    HW138204   0.502   3.529  13.519  1.9960 -0.7395 -1.4503
 8857SOL    HW238205   0.557   3.636  13.438 -1.2542  1.4614  1.7314
 8858SOL     OW38206   0.890   1.500   8.613 -0.3622 -0.4648 -0.4849
 8858SOL    HW138207   0.982   1.479   8.629 -0.3025 -0.6779 -1.0818
 8858SOL    HW238208   0.883   1.595   8.621  2.5960 -0.3139  0.2760
 8859SOL     OW38209   1.227   0.079   3.554 -0.1300  0.0948  0.4401
 8859SOL    HW138210   1.209   0.163   3.511 -0.8495 -0.8980 -1.2181
 8859SOL    HW238211   1.280   0.037   3.486 -1.3104 -2.2311  0.9668
 8860SOL     OW38212   0.837   2.917  15.901 -0.2913 -0.0645  0.8715
 8860SOL    HW138213   0.871   2.856  15.967 -0.2164 -0.2739  0.6416
 8860SOL    HW238214   0.756   2.956  15.934 -1.0228  0.5046 -1.6305
 8861SOL     OW38215   1.345   0.515   4.868 -0.5065  0.0597 -0.1002
 8861SOL    HW138216   1.339   0.609   4.880  0.7542  0.0019  0.9420
 8861SOL    HW238217   1.283   0.488   4.936  2.7148 -1.2775  2.2766
 8862SOL     OW38218   1.561   3.221   5.433  0.0075 -0.1928 -0.1047
 8862SOL    HW138219   1.593   3.200   5.521 -1.1649 -2.3442 -0.1949
 8862SOL    HW238220   1.485   3.165   5.422  0.3902 -0.7605  0.1198
 8863SOL     OW38221   4.379   1.463  12.477 -0.1140 -0.2214 -0.0074
 8863SOL    HW138222   4.453   1.521  12.500 -1.8390  2.3373 -0.8720
 8863SOL    HW238223   4.300   1.515  12.490 -0.0149 -0.1139  0.1629
 8864SOL     OW38224   3.589   1.453   7.034  0.3392  0.0388 -0.1834
 8864SOL    HW138225   3.580   1.368   6.990 -0.1869  0.0455 -0.0812
 8864SOL    HW238226   3.600   1.429   7.126  0.4212  1.5789  0.2027
 8865SOL     OW38227   2.798   4.610   5.525 -0.1720  0.2868 -0.3339
 8865SOL    HW138228   2.763   4.685   5.573  0.6029  1.4270 -1.5791
 8865SOL    HW238229   2.888   4.630   5.497 -0.8903  0.2310 -2.6673
 8866SOL     OW38230   3.270   2.222   5.911 -0.0261 -0.5453 -0.2505
 8866SOL    HW138231   3.293   2.148   5.856 -2.1744  0.7160 -2.8057
 8866SOL    HW238232   3.254   2.187   5.999 -1.8135 -1.6951 -1.0322
 8867SOL     OW38233   1.616   1.782   6.329 -0.7360  0.2555 -0.5675
 8867SOL    HW138234   1.554   1.780   6.256  1.8374  0.2243 -2.7485
 8867SOL    HW238235   1.680   1.845   6.296  1.4839 -1.3234  0.7168
 8868SOL     OW38236   0.873   3.264   7.822  0.1332 -0.7582  0.2110
 8868SOL    HW138237   0.879   3.195   7.888  2.4415 -0.3357  0.4595
 8868SOL    HW238238   0.782   3.289   7.835 -0.0305 -2.6115  2.6052
 8869SOL     OW38239   1.231   3.628   9.817  0.7765  0.1571 -0.1409
 8869SOL    HW138240   1.307   3.584   9.778 -0.5354 -1.7047 -0.6272
 8869SOL    HW238241   1.159   3.583   9.773  1.8885 -0.0811 -1.7136
 8870SOL     OW38242   1.438   4.159   4.460 -0.4807 -0.7978  0.4635
 8870SOL    HW138243   1.481   4.161   4.374  0.6898  0.4338  1.0855
 8870SOL    HW238244   1.458   4.249   4.486 -0.0363 -0.5716 -0.6624
 8871SOL     OW38245   3.388   0.097  11.669  0.9037  0.6179  0.1270
 8871SOL    HW138246   3.477   0.120  11.696  1.0268  1.2314 -0.8189
 8871SOL    HW238247   3.389   0.052  11.585 -2.0854  0.7166  0.0372
 8872SOL     OW38248   0.548   2.985   2.016 -0.1692  0.3651  0.0791
 8872SOL    HW138249   0.534   3.066   2.065  0.1612  0.6651 -0.3237
 8872SOL    HW238250   0.634   2.999   1.976 -1.0483  3.4128 -0.7354
 8873SOL     OW38251   3.853   3.328   4.446 -0.0165  0.3521  0.1250
 8873SOL    HW138252   3.900   3.296   4.523 -1.1691 -0.7848  0.3568
 8873SOL    HW238253   3.889   3.265   4.383 -1.0751 -0.5174  0.3829
 8874SOL     OW38254   4.513   4.560   4.921 -0.3144  0.0086 -0.7945
 8874SOL    HW138255   4.481   4.650   4.917 -0.4759 -0.0055  0.2810
 8874SOL    HW238256   4.545   4.557   4.831  3.1499 -1.0099  0.4690
 8875SOL     OW38257   3.611   2.185   3.568 -0.2349  0.2343  0.0517
 8875SOL    HW138258   3.517   2.165   3.560 -0.2135 -0.5373  1.8774
 8875SOL    HW238259   3.651   2.122   3.508  0.5328 -0.4147  1.2677
 8876SOL     OW38260   4.624   1.001   2.402 -0.5443 -0.3911 -0.1378
 8876SOL    HW138261   4.677   1.080   2.409 -2.8636  1.0786  1.0820
 8876SOL    HW238262   4.541   1.033   2.438 -1.3178 -1.2337 -1.1718
 8877SOL     OW38263   4.266   1.456  13.660  0.3345  0.0408  0.8305
 8877SOL    HW138264   4.198   1.472  13.725 -1.2443  1.8202 -1.2262
 8877SOL    HW238265   4.348   1.464  13.708  0.9771 -0.0773 -0.2456
 8878SOL     OW38266   0.080   2.748   8.972  0.5261  0.4517 -0.4258
 8878SOL    HW138267   0.114   2.716   8.888  0.8633 -1.2034  0.3280
 8878SOL    HW238268   0.004   2.691   8.988 -0.5797  1.7511 -1.0401
 8879SOL     OW38269   4.147   0.913   6.701  0.1738 -0.3658 -0.1978
 8879SOL    HW138270   4.173   0.990   6.750 -0.1393 -0.2190 -0.2623
 8879SOL    HW238271   4.061   0.944   6.671  1.4060  3.2996  0.0859
 8880SOL     OW38272   4.040   1.242   7.726 -0.4094 -0.3010 -0.1749
 8880SOL    HW138273   3.966   1.226   7.667 -0.7291 -2.3472  0.7956
 8880SOL    HW238274   4.064   1.153   7.752  2.6799  0.2462 -1.1254
 8881SOL     OW38275   3.871   1.093   4.264  0.1301  0.2164 -0.9184
 8881SOL    HW138276   3.822   1.136   4.335  0.2807  0.6838 -1.0971
 8881SOL    HW238277   3.902   1.024   4.323 -0.6270  1.6233  1.1298
 8882SOL     OW38278   1.370   2.539  14.961 -0.5313 -0.2085  0.6347
 8882SOL    HW138279   1.404   2.450  14.963  0.4091  0.0222 -3.4505
 8882SOL    HW238280   1.288   2.523  14.915  0.6522  0.4762 -1.7224
 8883SOL     OW38281   1.936   1.829   5.132  0.0062  0.4645  0.5762
 8883SOL    HW138282   1.984   1.902   5.171  0.5750  1.2463 -1.6226
 8883SOL    HW238283   1.847   1.864   5.128  0.0301  0.5482  0.7763
 8884SOL     OW38284   1.099   0.736   4.260 -0.1196 -0.8345  0.5076
 8884SOL    HW138285   1.164   0.669   4.237 -1.5450 -1.2625 -2.2884
 8884SOL    HW238286   1.027   0.677   4.280  0.7398 -2.5270 -1.3893
 8885SOL     OW38287   4.140   0.635   5.018  0.1952 -0.0924  0.4601
 8885SOL    HW138288   4.070   0.664   5.076  0.4621  1.7161 -0.1173
 8885SOL    HW238289   4.107   0.676   4.938  1.6128  0.8952  0.3669
 8886SOL     OW38290   0.504   4.252  16.571 -0.0702 -0.4386  0.2488
 8886SOL    HW138291   0.562   4.255  16.494  1.5512  0.7122  1.5200
 8886SOL    HW238292   0.421   4.232  16.528  0.7575 -0.9575 -1.1237
 8887SOL     OW38293   1.536   2.517   7.356 -0.1147  0.0959  0.3787
 8887SOL    HW138294   1.455   2.500   7.405 -0.6790 -1.0532 -0.9571
 8887SOL    HW238295   1.529   2.467   7.274 -0.3764 -1.0681  1.0976
 8888SOL     OW38296   2.545   0.063   3.551  0.1780 -0.2461 -0.1558
 8888SOL    HW138297   2.511   4.707   3.565  0.7007 -0.1619  1.6151
 8888SOL    HW238298   2.602   0.071   3.627  0.3498 -0.1495 -0.2945
 8889SOL     OW38299   1.070   0.219   7.849  0.1899 -0.4133 -0.4568
 8889SOL    HW138300   1.063   0.273   7.770 -0.7865  1.7492  1.1152
 8889SOL    HW238301   1.160   0.239   7.875  0.5442 -0.1845 -1.8846
 8890SOL     OW38302   2.292   0.181   0.067  0.1083  0.0543 -0.4683
 8890SOL    HW138303   2.381   0.156   0.092  1.2826  3.1792 -1.4784
 8890SOL    HW238304   2.241   0.167   0.147  0.0858  1.3434 -0.2583
 8891SOL     OW38305   2.791   1.424  15.486 -0.5736 -0.4550  0.2416
 8891SOL    HW138306   2.800   1.457  15.397 -1.1413 -1.2915 -0.1289
 8891SOL    HW238307   2.696   1.431  15.495 -0.1940  1.6139  2.5161
 8892SOL     OW38308   3.642   4.666   4.550 -0.0750 -0.8210 -0.0647
 8892SOL    HW138309   3.604   0.021   4.544  0.4535 -0.4193  2.3496
 8892SOL    HW238310   3.600   4.635   4.630  1.9832 -1.4877  0.7606
 8893SOL     OW38311   4.157   1.285   3.338 -0.1026  0.0632 -0.3786
 8893SOL    HW138312   4.075   1.314   3.297  0.0610  0.3396 -0.5044
 8893SOL    HW238313   4.181   1.358   3.394  1.8934 -1.0126  0.1656
 8894SOL     OW38314   3.068   3.665   8.772 -0.2906 -0.0961  0.2507
 8894SOL    HW138315   3.145   3.623   8.733 -0.4639 -0.3234  0.1570
 8894SOL    HW238316   2.999   3.658   8.706  0.4471  0.2176 -0.5638
 8895SOL     OW38317   1.545   1.306  13.648  0.0713 -0.4325  0.4641
 8895SOL    HW138318   1.491   1.378  13.615  1.7479  0.0162 -1.2449
 8895SOL    HW238319   1.628   1.338  13.614  0.3538 -0.2843  1.2881
 8896SOL     OW38320   2.195   3.487   9.559 -0.2215 -0.2863 -0.4305
 8896SOL    HW138321   2.248   3.418   9.598 -0.8065 -0.2264  0.4764
 8896SOL    HW238322   2.180   3.453   9.471  1.2207 -0.2592 -0.6775
 8897SOL     OW38323   2.193   1.108  10.631 -0.0760 -0.1335 -0.2362
 8897SOL    HW138324   2.187   1.183  10.690 -2.7608 -0.4373 -0.1014
 8897SOL    HW238325   2.184   1.033  10.691 -0.6961 -1.0508 -1.4665
 8898SOL     OW38326   0.259   2.012   6.693  0.5016  0.2398 -0.5767
 8898SOL    HW138327   0.176   1.969   6.716 -0.1058  0.9532 -1.4678
 8898SOL    HW238328   0.312   1.934   6.677 -0.3271  0.0937 -2.6741
 8899SOL     OW38329   0.590   3.351   7.257  0.2660  0.0410 -0.0437
 8899SOL    HW138330   0.513   3.304   7.226  0.3019 -0.5653  0.7997
 8899SOL    HW238331   0.555   3.418   7.316  0.9157  1.9657 -1.8188
 8900SOL     OW38332   4.148   2.438  13.779  0.3430  0.0168  0.1764
 8900SOL    HW138333   4.154   2.356  13.729 -0.9943 -1.6120  2.6774
 8900SOL    HW238334   4.191   2.500  13.721  0.5105  0.6726  1.0077
 8901SOL     OW38335   3.450   1.317   9.433 -0.5269  0.3254 -0.2673
 8901SOL    HW138336   3.535   1.316   9.478 -0.9604 -0.0516  0.5457
 8901SOL    HW238337   3.440   1.222   9.426  0.8287  0.3021 -2.0407
 8902SOL     OW38338   3.811   0.701   7.030  0.1209  0.7340  0.3553
 8902SOL    HW138339   3.751   0.740   7.094 -1.1802 -2.3190  0.9923
 8902SOL    HW238340   3.771   0.616   7.012  1.7467  0.2826 -1.1136
 8903SOL     OW38341   1.302   3.958   5.494 -0.0290 -0.0656  0.4106
 8903SOL    HW138342   1.240   3.892   5.463 -1.5990  1.7342 -0.2997
 8903SOL    HW238343   1.344   3.925   5.573  0.1965 -0.9456 -0.0718
 8904SOL     OW38344   1.433   4.619   8.843  0.2648  0.4175 -0.2740
 8904SOL    HW138345   1.520   4.582   8.851  0.7552  1.4812 -0.6777
 8904SOL    HW238346   1.380   4.593   8.919 -1.4710 -0.4852 -1.7944
 8905SOL     OW38347   4.574   3.490   3.997 -0.1357  0.0187 -0.0113
 8905SOL    HW138348   4.567   3.520   4.087  0.0175  1.7416 -0.5719
 8905SOL    HW238349   4.624   3.409   4.003  1.6402  1.0772 -0.6304
 8906SOL     OW38350   4.253   4.088   8.504  0.0388 -0.0126 -0.3502
 8906SOL    HW138351   4.305   4.081   8.424 -1.6464  3.2408 -1.7348
 8906SOL    HW238352   4.249   4.181   8.527 -0.0106 -0.0005 -0.4063
 8907SOL     OW38353   4.136   1.828   9.162  0.1452 -0.1220  0.6838
 8907SOL    HW138354   4.058   1.775   9.174  0.7814 -1.7964 -2.5726
 8907SOL    HW238355   4.101   1.916   9.176 -0.6209 -0.3737  0.3167
 8908SOL     OW38356   0.844   3.045   2.251  0.0126  0.2950  0.6178
 8908SOL    HW138357   0.844   3.060   2.156 -1.1088  2.1963  0.9300
 8908SOL    HW238358   0.791   3.120   2.276 -1.9852 -0.0620 -2.5158
 8909SOL     OW38359   3.499   2.016   3.284  0.0295 -0.4115 -0.1566
 8909SOL    HW138360   3.538   2.081   3.225 -0.7100  1.1235  1.0362
 8909SOL    HW238361   3.447   2.074   3.339  0.4117 -0.4885  0.2864
 8910SOL     OW38362   3.708   1.294  15.311  0.3931 -0.5411  0.1070
 8910SOL    HW138363   3.733   1.377  15.271 -0.7684  0.9222  2.4013
 8910SOL    HW238364   3.707   1.314  15.405  0.1476 -2.4332  0.5003
 8911SOL     OW38365   3.307   2.647   8.860  0.3272 -0.0818  0.2377
 8911SOL    HW138366   3.393   2.675   8.829  0.8816 -1.2890  0.6940
 8911SOL    HW238367   3.253   2.699   8.800  0.1667 -0.4850  0.0369
 8912SOL     OW38368   4.034   1.848   0.405  0.1522  0.2642 -0.2173
 8912SOL    HW138369   4.031   1.874   0.313  1.7976 -1.6209 -0.8199
 8912SOL    HW238370   4.118   1.887   0.431 -1.6032  3.2312  0.9956
 8913SOL     OW38371   2.176   4.403   6.686 -0.5394 -0.2666  0.7876
 8913SOL    HW138372   2.193   4.424   6.595  1.5970  0.6361  1.3784
 8913SOL    HW238373   2.256   4.437   6.727 -1.1559  0.7330  1.1701
 8914SOL     OW38374   0.045   4.365   3.156 -0.1820 -0.0847 -0.2452
 8914SOL    HW138375   0.081   4.280   3.130 -0.8628 -0.6802  0.7686
 8914SOL    HW238376   0.102   4.404   3.222  0.4811 -1.3052 -0.0883
 8915SOL     OW38377   3.267   0.470   6.339  0.9903  0.0031  0.2877
 8915SOL    HW138378   3.328   0.412   6.294 -1.0975 -1.4856 -0.5958
 8915SOL    HW238379   3.205   0.411   6.381 -1.4509  2.0476 -0.4193
 8916SOL     OW38380   2.452   0.422   1.157 -0.2968 -0.3914 -0.0423
 8916SOL    HW138381   2.508   0.471   1.217  0.0972 -0.7323 -0.1375
 8916SOL    HW238382   2.506   0.431   1.079 -0.7312  0.9390 -0.1913
 8917SOL     OW38383   0.805   1.984   7.120 -0.7648 -0.3919  0.3736
 8917SOL    HW138384   0.858   2.040   7.064 -0.7187 -1.4505 -0.6551
 8917SOL    HW238385   0.751   1.951   7.048  1.4388 -0.0694 -1.4376
 8918SOL     OW38386   2.387   0.895   1.012 -0.6466 -0.5437 -0.3356
 8918SOL    HW138387   2.328   0.849   0.953 -0.1130 -0.8184 -0.6581
 8918SOL    HW238388   2.340   0.975   1.036 -0.3160 -0.5154  0.2227
 8919SOL     OW38389   4.027   4.203   1.288 -0.3403 -0.9580 -0.4430
 8919SOL    HW138390   4.001   4.290   1.321 -1.5556 -1.4957  0.0372
 8919SOL    HW238391   3.964   4.190   1.218 -0.3709 -1.0926 -0.3912
 8920SOL     OW38392   2.553   0.933   8.832  0.2124  0.1626 -0.9159
 8920SOL    HW138393   2.507   0.938   8.916 -0.4613  2.0647 -1.4099
 8920SOL    HW238394   2.601   1.015   8.823  0.1166 -0.0446 -3.3623
 8921SOL     OW38395   2.125   1.654   0.478 -0.0213 -0.2623 -0.0994
 8921SOL    HW138396   2.128   1.742   0.515  1.1083 -0.7409  0.9728
 8921SOL    HW238397   2.123   1.667   0.384  0.1310 -1.3835 -0.2583
 8922SOL     OW38398   2.094   1.215   2.406 -0.1136 -0.1901  0.0223
 8922SOL    HW138399   2.158   1.253   2.466 -0.0875 -1.8131  1.0221
 8922SOL    HW238400   2.079   1.289   2.348 -1.5237  0.9692  1.8898
 8923SOL     OW38401   1.850   0.660   8.628 -0.2043  0.1166  0.6340
 8923SOL    HW138402   1.889   0.745   8.652  1.4636 -0.9251  1.5929
 8923SOL    HW238403   1.867   0.608   8.706  2.8908  0.4284  0.1390
 8924SOL     OW38404   0.145   0.044   3.005 -0.3385 -0.4124  0.6620
 8924SOL    HW138405   0.222   0.045   3.063  1.8541  0.9146 -2.3026
 8924SOL    HW238406   0.149   0.131   2.967 -0.6963  0.4946  2.6763
 8925SOL     OW38407   2.341   1.240   8.880 -0.0908  0.3972  0.2776
 8925SOL    HW138408   2.419   1.204   8.837 -0.7999 -1.7508  0.7995
 8925SOL    HW238409   2.383   1.321   8.911 -0.3999  0.7121 -0.1248
 8926SOL     OW38410   2.955   2.678   7.222 -0.5464 -0.0582  0.4275
 8926SOL    HW138411   3.033   2.667   7.276  1.6176  0.9974 -2.4710
 8926SOL    HW238412   2.937   2.770   7.244 -1.7943  0.0897 -1.1985
 8927SOL     OW38413   4.438   0.146  17.452  0.1793  0.0297 -0.0963
 8927SOL    HW138414   4.369   0.210  17.470  0.7287  0.1739  1.4680
 8927SOL    HW238415   4.439   0.166  17.358 -0.1453  0.9009  0.0864
 8928SOL     OW38416   3.650   1.154   9.097 -0.2496  0.7633 -0.1851
 8928SOL    HW138417   3.736   1.180   9.131 -0.4571  0.9327  0.2187
 8928SOL    HW238418   3.619   1.086   9.158 -0.4533  0.6437 -0.4248
 8929SOL     OW38419   1.896   0.508   8.848  0.2882  0.2157  0.5663
 8929SOL    HW138420   1.888   0.553   8.932 -0.8019 -0.1665  0.6568
 8929SOL    HW238421   1.915   0.421   8.884 -1.7852 -0.9945 -1.2655
 8930SOL     OW38422   2.222   1.069  13.164  0.0586  0.1477  0.0481
 8930SOL    HW138423   2.266   1.008  13.223  0.9824  0.3388 -0.4439
 8930SOL    HW238424   2.222   1.023  13.079  1.2498 -1.0169  0.6797
 8931SOL     OW38425   0.016   3.106   3.267 -0.1738 -0.3231 -0.0968
 8931SOL    HW138426   0.072   3.047   3.216  1.0096  1.1499 -0.5154
 8931SOL    HW238427   0.040   3.080   3.356 -0.2682 -2.2778 -0.6312
 8932SOL     OW38428   2.159   4.244   8.953 -0.0418 -0.9028  0.5238
 8932SOL    HW138429   2.162   4.333   8.987 -0.4397 -1.0131  0.8556
 8932SOL    HW238430   2.245   4.204   8.966  0.0164 -0.8095  0.4291
 8933SOL     OW38431   1.307   0.033  15.680 -0.2871  0.2661  0.1699
 8933SOL    HW138432   1.281   4.690  15.733  1.9725 -1.6665 -1.4458
 8933SOL    HW238433   1.397   0.046  15.710 -0.1449 -0.4701  0.0652
 8934SOL     OW38434   2.856   1.815   5.997 -0.3998 -0.3792  0.4957
 8934SOL    HW138435   2.951   1.803   5.985 -0.7521 -1.3711 -1.1833
 8934SOL    HW238436   2.847   1.870   6.075 -0.8452  0.9861 -0.5230
 8935SOL     OW38437   1.933   1.692   3.043 -0.5243  0.2268  0.0529
 8935SOL    HW138438   2.015   1.739   3.028 -0.0987 -0.1762  1.1203
 8935SOL    HW238439   1.946   1.609   2.997 -1.5184 -0.1078  0.3772
 8936SOL     OW38440   2.122   2.662  15.919 -0.2746 -0.0459  0.2031
 8936SOL    HW138441   2.191   2.682  15.983  1.1267 -0.5674 -1.1441
 8936SOL    HW238442   2.101   2.573  15.950  0.5754  0.4500  2.2063
 8937SOL     OW38443   3.910   2.069   4.711 -0.2102 -0.3586  0.1986
 8937SOL    HW138444   3.880   1.990   4.756  1.4922 -0.7266  0.6933
 8937SOL    HW238445   3.935   2.026   4.629  0.1879 -1.6385  0.9829
 8938SOL     OW38446   2.680   1.031  10.287 -0.3028  0.2364  0.0983
 8938SOL    HW138447   2.682   1.080  10.205  2.0011 -0.8223 -0.4815
 8938SOL    HW238448   2.586   1.041  10.304 -0.2269  0.0869  0.6039
 8939SOL     OW38449   0.004   0.817   8.069 -0.8477 -0.6978 -0.4289
 8939SOL    HW138450   0.041   0.777   8.148  2.4881  1.1437 -1.0601
 8939SOL    HW238451   0.030   0.760   7.996 -0.0852  0.5581 -1.1380
 8940SOL     OW38452   3.396   0.942   4.447  0.4348 -0.3995 -0.9274
 8940SOL    HW138453   3.353   0.857   4.448 -1.7983  0.7619  0.0118
 8940SOL    HW238454   3.435   0.937   4.359 -0.7657  1.1820 -1.5442
 8941SOL     OW38455   2.192   1.979  16.665  0.2950  0.1368 -0.5434
 8941SOL    HW138456   2.211   1.958  16.757 -0.9445  0.8551 -0.1225
 8941SOL    HW238457   2.247   1.907  16.633  1.6856  0.5853  0.7948
 8942SOL     OW38458   1.128   0.806   8.890 -0.1603  0.1364  0.1056
 8942SOL    HW138459   1.203   0.787   8.947  1.2186 -2.3820 -2.5591
 8942SOL    HW238460   1.135   0.744   8.817  0.9186 -0.9803  1.1505
 8943SOL     OW38461   1.548   3.782   5.907  0.7486  0.4192 -0.1104
 8943SOL    HW138462   1.572   3.756   5.996  1.1504 -1.0001 -0.6347
 8943SOL    HW238463   1.619   3.844   5.887  0.8715  0.9360  1.9795
 8944SOL     OW38464   0.727   4.493   6.418  0.1236 -0.2271  0.5119
 8944SOL    HW138465   0.633   4.494   6.435  0.2634  0.5336  1.2481
 8944SOL    HW238466   0.769   4.521   6.499 -0.0427  0.1581  0.4660
 8945SOL     OW38467   3.022   4.517   9.902 -0.8093 -0.1640  0.4618
 8945SOL    HW138468   3.010   4.423   9.916 -3.1543  0.1758  0.7929
 8945SOL    HW238469   3.025   4.540   9.995 -2.0346 -0.3927  0.5613
 8946SOL     OW38470   4.049   0.465  10.521 -0.2798 -0.8039  0.1630
 8946SOL    HW138471   3.968   0.503  10.554  0.1474 -0.2230  0.5446
 8946SOL    HW238472   4.102   0.545  10.527  0.8873 -1.6133  0.6928
 8947SOL     OW38473   0.487   4.393   0.801 -0.3557  0.9476 -0.4705
 8947SOL    HW138474   0.442   4.429   0.725 -1.1027 -2.5100 -1.6230
 8947SOL    HW238475   0.495   4.298   0.791 -0.7280  0.7403  1.1519
 8948SOL     OW38476   2.140   3.277   0.121 -0.0355  0.2419 -0.1826
 8948SOL    HW138477   2.076   3.235   0.063  1.5463 -1.9015 -0.3858
 8948SOL    HW238478   2.105   3.257   0.208 -1.4152  0.0196 -0.7795
 8949SOL     OW38479   3.563   4.085  17.308 -0.0911  0.5096 -0.1135
 8949SOL    HW138480   3.601   4.172  17.322  1.0534  0.3111 -2.0653
 8949SOL    HW238481   3.641   4.034  17.287 -0.5653 -1.0780  1.9381
 8950SOL     OW38482   2.777   3.053   3.939 -0.3241  0.4957  0.3272
 8950SOL    HW138483   2.746   3.060   4.029 -0.6255  1.1904  0.1738
 8950SOL    HW238484   2.834   2.977   3.949  0.5697  0.8803 -1.8270
 8951SOL     OW38485   0.791   1.243  15.507 -0.2221 -0.2132 -0.3197
 8951SOL    HW138486   0.758   1.223  15.594 -0.1683  1.5866  0.1152
 8951SOL    HW238487   0.711   1.232  15.455 -0.4713  0.1622 -0.0092
 8952SOL     OW38488   0.132   4.044   4.048 -0.3386  0.1894  0.1752
 8952SOL    HW138489   0.132   4.100   3.970  0.3399 -1.0037 -0.6791
 8952SOL    HW238490   0.088   4.102   4.110 -1.8781  0.7658 -1.4565
 8953SOL     OW38491   3.755   0.696   4.416  0.7527  0.1594  0.3447
 8953SOL    HW138492   3.711   0.724   4.496  0.5722  1.0342 -0.0552
 8953SOL    HW238493   3.716   0.611   4.400 -0.5677  0.8965 -0.3332
 8954SOL     OW38494   2.446   0.219  12.847 -0.2695  0.0137  0.4824
 8954SOL    HW138495   2.483   0.140  12.885 -0.2896 -0.7039 -0.9933
 8954SOL    HW238496   2.502   0.286  12.886  0.0712 -1.5484  2.6914
 8955SOL     OW38497   1.439   0.454   3.796 -0.0609 -0.3283 -0.0111
 8955SOL    HW138498   1.446   0.433   3.703 -0.9903  0.5817 -0.2862
 8955SOL    HW238499   1.352   0.494   3.799  0.1669 -0.0209  3.0608
 8956SOL     OW38500   3.416   2.013  15.527 -0.4373  0.0958 -0.3163
 8956SOL    HW138501   3.415   2.068  15.448 -0.6025  1.6735  0.7854
 8956SOL    HW238502   3.395   2.079  15.593 -0.4678  0.7216 -0.9473
 8957SOL     OW38503   4.531   1.437   2.370 -0.3401  0.2386 -0.3123
 8957SOL    HW138504   4.621   1.418   2.393 -0.9724 -0.4517  1.5578
 8957SOL    HW238505   4.477   1.391   2.435 -0.7881  1.5049  0.2070
 8958SOL     OW38506   2.387   4.531   3.317  0.3788 -0.3087  0.0197
 8958SOL    HW138507   2.307   4.578   3.294 -0.0929 -1.1106  0.0352
 8958SOL    HW238508   2.377   4.539   3.412 -1.4340 -2.3202  0.0037
 8959SOL     OW38509   2.010   3.028   2.478  0.1922  0.8528 -0.2478
 8959SOL    HW138510   1.941   3.082   2.440  0.0010 -0.5584 -1.9087
 8959SOL    HW238511   2.021   3.065   2.566 -3.6646 -0.7190  0.8716
 8960SOL     OW38512   4.074   0.271   7.165 -0.7167  0.1003  0.3592
 8960SOL    HW138513   4.054   0.364   7.156  0.1325  0.4167  1.7765
 8960SOL    HW238514   4.053   0.261   7.258 -0.8049  1.3911  0.4815
 8961SOL     OW38515   3.867   0.398   2.689 -0.6492  0.2925 -0.8457
 8961SOL    HW138516   3.937   0.338   2.663 -2.1919  0.2448 -4.9745
 8961SOL    HW238517   3.904   0.483   2.666 -3.2362  1.6910  0.1881
 8962SOL     OW38518   0.806   3.229  11.084  0.0619 -0.2226  0.5388
 8962SOL    HW138519   0.870   3.160  11.100 -2.4583 -1.8014  3.9039
 8962SOL    HW238520   0.810   3.241  10.989  0.2441 -0.4484  0.5187
 8963SOL     OW38521   4.095   0.857   2.803 -0.0535 -0.2236 -0.5006
 8963SOL    HW138522   4.163   0.810   2.851 -0.1873 -1.1384 -1.2201
 8963SOL    HW238523   4.046   0.888   2.880  0.5101 -0.3576 -0.0857
 8964SOL     OW38524   3.496   0.721  11.515  0.5538 -0.3772  0.1908
 8964SOL    HW138525   3.577   0.689  11.553  0.2713 -0.2061  0.9368
 8964SOL    HW238526   3.523   0.799  11.467 -0.6046  0.9163  1.6447
 8965SOL     OW38527   4.619   2.890   4.069 -0.1021 -0.0890  0.1926
 8965SOL    HW138528   4.679   2.815   4.066 -0.7734 -0.6227  0.1531
 8965SOL    HW238529   4.569   2.868   3.990  2.9568 -0.5986 -1.6434
 8966SOL     OW38530   2.357   4.107   8.169  0.6009  0.0903 -0.3268
 8966SOL    HW138531   2.437   4.065   8.203  0.9765  0.1481 -1.1468
 8966SOL    HW238532   2.325   4.165   8.238 -1.8110  1.0497 -2.3042
 8967SOL     OW38533   2.882   0.411   6.241  0.4106 -0.2825 -0.0670
 8967SOL    HW138534   2.833   0.331   6.221  0.7998  0.0035 -2.1027
 8967SOL    HW238535   2.956   0.377   6.291  0.0390  0.5684  1.0777
 8968SOL     OW38536   4.558   0.565   9.405  0.2488  0.0237 -0.1820
 8968SOL    HW138537   4.485   0.521   9.361  0.8596  0.9281 -2.0971
 8968SOL    HW238538   4.532   0.549   9.495 -3.1313  3.4256 -0.5805
 8969SOL     OW38539   2.785   4.520  15.028  0.6149  0.3941 -0.7135
 8969SOL    HW138540   2.827   4.446  15.073  0.1935  1.3233  1.2117
 8969SOL    HW238541   2.761   4.480  14.944 -0.8022 -1.5808  0.6280
 8970SOL     OW38542   0.251   4.117  12.478 -0.6202  0.4067 -0.0267
 8970SOL    HW138543   0.328   4.154  12.434 -0.6455 -1.6673 -1.8403
 8970SOL    HW238544   0.174   4.140  12.426 -0.7614  2.1746  0.9583
 8971SOL     OW38545   1.195   0.616   2.445 -0.0900 -0.5476  0.4118
 8971SOL    HW138546   1.161   0.605   2.356  2.1595 -1.6542 -0.3005
 8971SOL    HW238547   1.113   0.641   2.490 -0.0375  0.8796 -0.2756
 8972SOL     OW38548   4.197   4.030   6.564 -0.1193  0.1170  0.1256
 8972SOL    HW138549   4.183   3.959   6.627  2.2071 -0.3622  0.0863
 8972SOL    HW238550   4.289   4.013   6.542 -0.6045 -1.0641 -1.0007
 8973SOL     OW38551   2.660   1.822  13.588  0.2773 -0.1981  0.9463
 8973SOL    HW138552   2.715   1.885  13.542 -1.0550  0.0220 -0.3372
 8973SOL    HW238553   2.611   1.882  13.643  2.1598 -0.3595  2.8234
 8974SOL     OW38554   3.167   1.553   0.967 -0.4306  0.2627  0.2793
 8974SOL    HW138555   3.099   1.515   0.912 -0.5884 -1.2147  1.5094
 8974SOL    HW238556   3.242   1.498   0.946 -0.2534  1.2795 -1.8440
 8975SOL     OW38557   3.458   0.581   2.381 -0.2282  0.1101  0.2775
 8975SOL    HW138558   3.541   0.550   2.417 -0.8756 -0.6116  1.1496
 8975SOL    HW238559   3.394   0.523   2.423 -1.8431 -0.3255 -2.8232
 8976SOL     OW38560   1.692   1.398   5.115 -0.4802 -0.4901  0.3598
 8976SOL    HW138561   1.723   1.477   5.069  0.2752 -0.4482  0.9379
 8976SOL    HW238562   1.656   1.344   5.045 -1.9779  0.2848  0.5230
 8977SOL     OW38563   1.407   0.964   5.097  0.1121 -0.1401  0.2408
 8977SOL    HW138564   1.498   0.995   5.097 -0.0785  0.3994  2.4409
 8977SOL    HW238565   1.356   1.034   5.056 -1.5047 -0.2191  2.1155
 8978SOL     OW38566   2.829   4.318  14.647 -0.4420  0.5010  0.7587
 8978SOL    HW138567   2.765   4.379  14.685 -1.3432  0.6308 -0.9982
 8978SOL    HW238568   2.869   4.392  14.600  1.0931 -0.0376  1.2101
 8979SOL     OW38569   0.098   1.345  12.929  0.0569 -0.3689  0.2298
 8979SOL    HW138570   0.120   1.319  12.840  0.1827  0.0149  0.1467
 8979SOL    HW238571   0.003   1.350  12.921  0.0288  2.1038  1.8736
 8980SOL     OW38572   0.591   2.413  11.883  0.3216  0.3087  0.2001
 8980SOL    HW138573   0.595   2.388  11.790  1.2897  2.0871 -0.2382
 8980SOL    HW238574   0.496   2.415  11.894  0.0875  0.8007 -1.8722
 8981SOL     OW38575   3.787   3.912  12.252  0.3141 -0.2502  0.4553
 8981SOL    HW138576   3.751   3.835  12.209 -0.9222 -1.0003  2.7879
 8981SOL    HW238577   3.778   3.881  12.342 -0.1653  0.2211  0.5742
 8982SOL     OW38578   1.018   2.295   2.556  0.3660  0.6111 -0.0837
 8982SOL    HW138579   0.924   2.288   2.575  0.7754 -1.3838  1.2718
 8982SOL    HW238580   1.039   2.201   2.555 -2.2264 -0.0127  2.1867
 8983SOL     OW38581   2.880   4.560   8.416  0.1605 -0.2905  0.1523
 8983SOL    HW138582   2.957   4.592   8.369  0.6171  0.0467  1.1541
 8983SOL    HW238583   2.923   4.488   8.463 -1.5800 -1.1407  0.4557
 8984SOL     OW38584   3.944   2.314   8.716  0.0819  0.1912  0.5234
 8984SOL    HW138585   3.903   2.395   8.684 -1.2935 -0.5331  0.4809
 8984SOL    HW238586   3.877   2.246   8.716 -1.1829  1.4292 -2.8645
 8985SOL     OW38587   3.763   2.582   2.979  1.0199  0.1522 -0.1558
 8985SOL    HW138588   3.817   2.639   2.925 -0.1927 -1.1088 -2.6835
 8985SOL    HW238589   3.737   2.647   3.044 -3.9642 -2.1635  0.2476
 8986SOL     OW38590   4.622   3.928  12.207  0.4840  0.1579  0.7067
 8986SOL    HW138591   4.644   4.009  12.160  3.1099 -1.8698 -1.5660
 8986SOL    HW238592   4.684   3.944  12.278  1.0376 -1.2009  0.5233
 8987SOL     OW38593   2.383   4.101   5.178  0.1606  0.1019  0.1282
 8987SOL    HW138594   2.375   4.186   5.135 -1.2401  0.1552  0.4748
 8987SOL    HW238595   2.465   4.065   5.145 -0.4048 -0.6621 -0.4688
 8988SOL     OW38596   3.298   3.964   4.482  0.4095 -0.6174  0.6487
 8988SOL    HW138597   3.323   4.055   4.464 -1.7825 -0.1032  0.1338
 8988SOL    HW238598   3.358   3.938   4.551  0.8535 -0.9981  0.1199
 8989SOL     OW38599   2.555   3.861   4.981  0.2119 -0.2612  0.0203
 8989SOL    HW138600   2.491   3.838   5.048 -0.4885 -3.0171 -1.5814
 8989SOL    HW238601   2.602   3.939   5.010  0.7037 -0.4695 -0.2098
 8990SOL     OW38602   4.451   3.890   3.047 -0.4981 -0.2993 -0.1175
 8990SOL    HW138603   4.438   3.798   3.026  2.5624 -0.9912  1.0901
 8990SOL    HW238604   4.543   3.891   3.022 -0.1113  1.5704  1.3853
 8991SOL     OW38605   1.481   4.707   4.322 -0.3977  0.4699  0.7880
 8991SOL    HW138606   1.520   4.712   4.235 -0.3702 -0.8118  0.7208
 8991SOL    HW238607   1.458   4.614   4.320  1.5029  0.0047  0.6624
 8992SOL     OW38608   0.001   4.480  14.553  0.2549  0.0280  0.4554
 8992SOL    HW138609   4.675   4.457  14.481 -0.5606 -4.0784  2.4452
 8992SOL    HW238610   0.010   4.397  14.599  0.0486  0.1470  0.7114
 8993SOL     OW38611   0.091   2.864   5.941  0.4512  0.5412 -0.1545
 8993SOL    HW138612   0.146   2.863   5.863 -1.3424 -1.6315 -1.3745
 8993SOL    HW238613   0.162   2.863   6.005  0.7570  2.6857 -0.4570
 8994SOL     OW38614   4.437   0.443  11.276  0.0025  0.0825 -0.2468
 8994SOL    HW138615   4.381   0.463  11.201 -0.2851  1.9575  0.4796
 8994SOL    HW238616   4.490   0.380  11.227 -0.5328 -0.7514  0.2520
 8995SOL     OW38617   2.751   0.540  17.160 -0.1176 -0.3676 -0.3178
 8995SOL    HW138618   2.816   0.509  17.224 -0.8852  1.1992  1.2157
 8995SOL    HW238619   2.759   0.459  17.109  0.0215 -0.7232  0.2636
 8996SOL     OW38620   4.247   0.401  12.953  0.2219  0.2533  0.2760
 8996SOL    HW138621   4.186   0.338  12.915  1.1073 -0.3653 -0.1320
 8996SOL    HW238622   4.298   0.339  13.005  0.5145  0.6783  0.4945
 8997SOL     OW38623   1.386   4.041   1.009  0.0943  0.3447 -0.5645
 8997SOL    HW138624   1.323   4.018   1.077  1.5044 -0.9854  0.2881
 8997SOL    HW238625   1.414   4.129   1.035  0.6057  0.1723 -0.5354
 8998SOL     OW38626   2.811   2.653   8.776 -0.3304 -0.0212 -0.0953
 8998SOL    HW138627   2.772   2.728   8.732 -0.5533 -0.7503 -1.1529
 8998SOL    HW238628   2.906   2.670   8.776 -0.6445  1.6948  0.7054
 8999SOL     OW38629   1.451   1.144   7.409  0.0075  0.0551 -0.2460
 8999SOL    HW138630   1.453   1.228   7.363  0.8750 -0.7863 -1.7162
 8999SOL    HW238631   1.400   1.145   7.490 -1.3484 -1.5130 -1.0865
 9000SOL     OW38632   3.839   0.345   8.417 -0.6403 -0.5163 -0.4415
 9000SOL    HW138633   3.882   0.388   8.343  1.4111 -1.8953 -0.0593
 9000SOL    HW238634   3.908   0.351   8.483 -0.3793  0.3745 -0.8002
 9001SOL     OW38635   3.354   2.022   8.507 -0.1308  0.0143 -0.1187
 9001SOL    HW138636   3.432   2.007   8.560  1.2706 -0.1095 -2.2311
 9001SOL    HW238637   3.389   2.049   8.422 -1.6797  1.2256 -0.3820
 9002SOL     OW38638   4.234   0.392   5.677 -0.1359 -0.2885  0.3308
 9002SOL    HW138639   4.267   0.446   5.606 -0.4052 -2.2101 -1.2769
 9002SOL    HW238640   4.186   0.322   5.632 -2.3441  1.7384 -0.4721
 9003SOL     OW38641   1.024   0.483   0.877  0.2114  0.4013  0.4186
 9003SOL    HW138642   1.002   0.436   0.957  0.5593  1.7537  1.3048
 9003SOL    HW238643   1.025   0.575   0.903  0.4429  0.7331 -0.7359
 9004SOL     OW38644   0.870   3.611   4.067 -0.2555 -0.2877  0.0674
 9004SOL    HW138645   0.792   3.570   4.029 -0.4920 -0.4777  0.7690
 9004SOL    HW238646   0.943   3.561   4.031  0.3769  0.2411  0.6190
 9005SOL     OW38647   4.254   1.883   6.048  0.6542 -0.1150  0.6802
 9005SOL    HW138648   4.327   1.928   6.006 -0.1352 -0.3485 -0.9362
 9005SOL    HW238649   4.305   1.839   6.116 -1.3886 -1.2938  1.4498
 9006SOL     OW38650   0.232   3.944  11.888 -0.3153  0.4093 -0.3873
 9006SOL    HW138651   0.302   3.889  11.853  1.3890  0.8412  2.3704
 9006SOL    HW238652   0.175   3.945  11.810  2.0964  1.0754 -2.1601
 9007SOL     OW38653   2.051   3.778  11.926 -0.5245  0.1153 -0.7204
 9007SOL    HW138654   2.132   3.802  11.971 -0.7696 -0.6054  0.1028
 9007SOL    HW238655   2.040   3.868  11.895  1.7798  1.3082  1.9276
 9008SOL     OW38656   2.451   1.572   5.914  0.1157  0.0635  0.4262
 9008SOL    HW138657   2.472   1.643   5.854  1.4065 -1.7641 -1.2606
 9008SOL    HW238658   2.370   1.542   5.874  1.0822  0.8009 -2.1000
 9009SOL     OW38659   3.571   3.912   7.652 -0.0436 -0.2107  0.0800
 9009SOL    HW138660   3.614   3.960   7.723  0.4355 -1.1538  0.4221
 9009SOL    HW238661   3.608   3.824   7.659 -0.7297 -0.4438  0.8379
 9010SOL     OW38662   0.008   4.079   3.375  0.2300 -0.0795 -0.0478
 9010SOL    HW138663   4.691   4.098   3.454 -0.9805  1.8154 -1.2658
 9010SOL    HW238664   0.035   3.987   3.383  1.5474  0.2365 -0.8514
 9011SOL     OW38665   4.620   2.856   7.812  0.0369  0.3294 -0.3338
 9011SOL    HW138666   4.538   2.807   7.821  1.2949 -1.6607  0.3385
 9011SOL    HW238667   4.610   2.923   7.744 -0.6881  0.5322 -0.0195
 9012SOL     OW38668   2.781   0.419  12.722  0.0475 -0.8885 -0.4600
 9012SOL    HW138669   2.761   0.347  12.664  2.1934 -0.5888 -1.5475
 9012SOL    HW238670   2.874   0.401  12.738 -0.1510 -2.4902 -1.1610
 9013SOL     OW38671   1.678   1.977   6.948 -0.0643 -0.2914 -0.4274
 9013SOL    HW138672   1.654   1.889   6.978  0.6786  0.2913  1.8511
 9013SOL    HW238673   1.734   1.959   6.873 -0.8058 -1.1480 -0.7817
 9014SOL     OW38674   3.064   4.281  15.512  0.7106  0.1870  0.5460
 9014SOL    HW138675   3.148   4.315  15.480  1.1942 -1.9927 -0.5304
 9014SOL    HW238676   3.036   4.355  15.566 -1.9571  0.2898 -1.0073
 9015SOL     OW38677   0.650   3.212   4.089 -0.0081  0.9175 -0.1491
 9015SOL    HW138678   0.585   3.150   4.124 -0.6065 -0.4891 -3.7030
 9015SOL    HW238679   0.590   3.271   4.044 -0.5979 -0.8602 -1.6870
 9016SOL     OW38680   1.083   4.317   2.743  0.0476  0.5347  0.5289
 9016SOL    HW138681   1.139   4.280   2.812 -0.1554  0.0542  0.4325
 9016SOL    HW238682   1.086   4.244   2.682  1.2707  0.0244  1.1844
 9017SOL     OW38683   0.813   2.247   3.751  0.2973 -0.3434  0.5539
 9017SOL    HW138684   0.905   2.268   3.765  0.2930 -0.2607  0.4557
 9017SOL    HW238685   0.811   2.162   3.795 -1.4948 -0.5146  0.1268
 9018SOL     OW38686   4.373   0.092   9.863  0.6899  0.8623  0.2932
 9018SOL    HW138687   4.441   0.160   9.861  1.9952 -0.3970  1.7398
 9018SOL    HW238688   4.402   0.044   9.786  0.9850  0.3761  0.7024
 9019SOL     OW38689   0.610   2.092   0.506 -0.3342 -0.9216  0.5747
 9019SOL    HW138690   0.531   2.048   0.538  0.5798 -0.7607  3.0338
 9019SOL    HW238691   0.576   2.132   0.426  0.1133 -1.1935  0.2449
 9020SOL     OW38692   0.390   2.931   5.768  0.5976  0.8848  0.5145
 9020SOL    HW138693   0.447   2.855   5.762 -0.4391  0.0905  0.8901
 9020SOL    HW238694   0.366   2.919   5.860 -1.3742 -2.7664 -0.5234
 9021SOL     OW38695   4.723   4.216   1.047  0.2886 -0.1411  0.0513
 9021SOL    HW138696   0.079   4.252   1.045  0.7085 -1.1191  0.9590
 9021SOL    HW238697   0.026   4.130   1.068 -2.2989 -1.1543  0.3111
 9022SOL     OW38698   4.684   1.486   1.975 -0.2117  0.1117 -0.0275
 9022SOL    HW138699   0.023   1.448   2.027 -0.7778  1.7173  1.9497
 9022SOL    HW238700   4.696   1.451   1.887  1.7499  1.9235 -0.4764
 9023SOL     OW38701   3.175   4.385   6.117 -0.5247  0.5322 -0.5724
 9023SOL    HW138702   3.180   4.318   6.048 -0.1203 -0.7008  0.6397
 9023SOL    HW238703   3.117   4.349   6.183  0.5800  0.3522  0.2994
 9024SOL     OW38704   4.332   2.226   2.688 -0.0201 -0.4475 -0.4042
 9024SOL    HW138705   4.273   2.230   2.764  0.2220 -0.2099 -0.2263
 9024SOL    HW238706   4.353   2.133   2.681 -0.0424 -0.5379  0.6191
 9025SOL     OW38707   0.974   0.441   0.118  0.1011 -0.3653 -0.1360
 9025SOL    HW138708   0.887   0.441   0.159  0.3424  2.1139  0.3547
 9025SOL    HW238709   0.965   0.377   0.048 -2.1198  0.6347 -0.7637
 9026SOL     OW38710   4.538   4.126   3.640  0.1749  0.7068 -0.3457
 9026SOL    HW138711   4.578   4.116   3.726 -1.5785  1.2356  0.5207
 9026SOL    HW238712   4.557   4.217   3.619  1.1394  0.9491  1.5374
 9027SOL     OW38713   4.108   0.167   2.294  0.0125 -0.4451  0.4174
 9027SOL    HW138714   4.133   0.194   2.383  0.3414 -0.0508  0.2109
 9027SOL    HW238715   4.174   0.217   2.245  1.8387 -1.5535  1.7303
 9028SOL     OW38716   2.865   3.951  17.687 -0.6131 -0.4221  0.2308
 9028SOL    HW138717   2.877   3.975  17.595 -1.0378 -0.5306  0.1459
 9028SOL    HW238718   2.773   3.974  17.696 -0.5751 -0.3334  0.3895
 9029SOL     OW38719   0.042   0.026   3.404 -0.1841 -0.1991  0.4601
 9029SOL    HW138720   0.029   4.664   3.414 -3.1407  0.3800  2.0831
 9029SOL    HW238721   0.054   0.053   3.495  0.2063 -0.1005  0.3799
 9030SOL     OW38722   3.892   0.111  13.875  0.0094  0.3395  0.1612
 9030SOL    HW138723   3.834   0.141  13.805  0.6826  0.8717 -0.1688
 9030SOL    HW238724   3.936   0.034  13.842 -0.2061 -0.0029  0.6652
 9031SOL     OW38725   1.054   1.397   2.400 -0.0476  0.4262  0.6104
 9031SOL    HW138726   1.004   1.462   2.449 -2.1490  0.3859 -1.4904
 9031SOL    HW238727   0.981   1.339   2.383 -0.6896  1.0880  1.1036
 9032SOL     OW38728   0.303   0.314   6.065 -0.2833  0.0155  0.3439
 9032SOL    HW138729   0.319   0.355   5.980 -0.5856  1.5528  1.0142
 9032SOL    HW238730   0.273   0.229   6.034  0.0227 -0.5049  1.4382
 9033SOL     OW38731   0.041   0.887   6.376  0.0954  0.4592 -0.1294
 9033SOL    HW138732   0.001   0.837   6.448  1.8062 -0.4756  0.1681
 9033SOL    HW238733   4.730   0.972   6.377  3.1377  1.9683 -0.5188
 9034SOL     OW38734   3.857   1.484  12.640 -0.3630  0.0787  0.1090
 9034SOL    HW138735   3.862   1.524  12.727 -1.3558  1.4502 -0.4574
 9034SOL    HW238736   3.915   1.408  12.647  1.3263  1.3660  0.2113
 9035SOL     OW38737   0.816   4.240  14.093  0.5019 -0.2676  0.2302
 9035SOL    HW138738   0.762   4.163  14.076  1.3885 -0.7209 -0.5209
 9035SOL    HW238739   0.833   4.226  14.186 -2.0230 -1.4451  0.4918
 9036SOL     OW38740   2.297   0.683   2.595 -0.8120  0.0007 -0.1362
 9036SOL    HW138741   2.325   0.595   2.570 -0.4369 -0.4484  1.8439
 9036SOL    HW238742   2.383   0.711   2.626 -1.7451  2.0558  0.5874
 9037SOL     OW38743   0.367   4.522   6.759 -0.3921 -0.3734 -0.5047
 9037SOL    HW138744   0.432   4.452   6.760  0.5686  0.5144 -0.6722
 9037SOL    HW238745   0.393   4.560   6.674  1.5215 -0.4313  0.0459
 9038SOL     OW38746   3.004   4.007  16.149 -0.0891 -0.0707 -0.2482
 9038SOL    HW138747   3.054   4.080  16.114  0.5117 -0.2867  0.1588
 9038SOL    HW238748   2.978   4.040  16.235  2.2138  0.9226  0.0583
 9039SOL     OW38749   1.837   4.024   8.470 -0.0831 -0.1383 -0.2895
 9039SOL    HW138750   1.861   4.004   8.561 -1.4530  1.7531  0.4855
 9039SOL    HW238751   1.900   4.094   8.451  0.7762 -0.7693  0.2171
 9040SOL     OW38752   1.458   1.468   7.817 -0.1371  0.3371  0.0737
 9040SOL    HW138753   1.523   1.405   7.847 -1.1125 -0.1608  1.1593
 9040SOL    HW238754   1.500   1.508   7.741  2.4781  0.6930  1.6990
 9041SOL     OW38755   3.123   4.078   2.496  0.3775 -0.5020 -0.5882
 9041SOL    HW138756   3.150   4.042   2.580 -0.1558 -0.4718 -0.4001
 9041SOL    HW238757   3.035   4.107   2.523  1.0951  1.9840 -0.9240
 9042SOL     OW38758   0.179   3.616   8.157  0.3994 -0.0351  0.5240
 9042SOL    HW138759   0.213   3.529   8.139 -3.2609 -1.1176 -1.1799
 9042SOL    HW238760   0.158   3.648   8.069 -0.3389 -0.0296  0.7010
 9043SOL     OW38761   3.434   2.595   9.695 -0.1729  0.2285 -0.2086
 9043SOL    HW138762   3.412   2.566   9.607 -2.5694  0.7888  0.2078
 9043SOL    HW238763   3.452   2.513   9.741 -1.5317  0.4346  0.6883
 9044SOL     OW38764   3.480   1.053   2.304 -0.3052  0.2426  0.1500
 9044SOL    HW138765   3.466   1.102   2.385 -0.6597  1.8117 -0.8523
 9044SOL    HW238766   3.424   0.979   2.325  3.5847 -2.4437  0.9841
 9045SOL     OW38767   4.527   1.533   7.710 -0.0028  0.0370  0.0671
 9045SOL    HW138768   4.455   1.488   7.753 -1.0541  1.6174 -0.0543
 9045SOL    HW238769   4.473   1.577   7.645  0.1013 -1.8427 -1.2777
 9046SOL     OW38770   2.227   1.354   8.240  0.1965 -0.3284  0.8509
 9046SOL    HW138771   2.256   1.363   8.330  0.2561 -1.2912  0.9300
 9046SOL    HW238772   2.309   1.322   8.202 -0.3533 -0.9356  0.1750
 9047SOL     OW38773   4.366   3.056   7.335  0.4166 -0.2905  0.5473
 9047SOL    HW138774   4.310   2.988   7.298  0.7586  0.2540 -0.9714
 9047SOL    HW238775   4.424   3.069   7.260 -0.1109  0.9581  0.3565
 9048SOL     OW38776   3.794   1.478   4.088  0.4224 -0.1180 -0.7390
 9048SOL    HW138777   3.868   1.427   4.057  1.7481  1.3491  0.0554
 9048SOL    HW238778   3.724   1.431   4.043  1.3729 -1.0438 -1.2255
 9049SOL     OW38779   2.295   4.293   0.579 -0.7646  0.0667 -0.2141
 9049SOL    HW138780   2.375   4.329   0.542 -1.4348  0.5065 -1.2217
 9049SOL    HW238781   2.290   4.357   0.651  2.6001  0.9443 -0.7592
 9050SOL     OW38782   1.287   4.702   4.005  0.1644  0.6567 -0.0966
 9050SOL    HW138783   1.235   0.020   4.068  0.4859  1.2275 -0.2875
 9050SOL    HW238784   1.283   0.027   3.929 -1.6420  1.0000  0.2476
 9051SOL     OW38785   1.156   0.892  11.822 -0.2662 -0.1563  0.0948
 9051SOL    HW138786   1.132   0.809  11.781 -1.6697  0.8257 -1.0786
 9051SOL    HW238787   1.160   0.858  11.911 -0.0187 -0.6009 -0.0833
 9052SOL     OW38788   0.809   4.707   6.882 -0.1146  0.0628 -0.4438
 9052SOL    HW138789   0.761   0.030   6.944 -1.1493  0.4031 -1.5524
 9052SOL    HW238790   0.896   4.696   6.920 -0.9406  0.3432  1.5559
 9053SOL     OW38791   3.464   2.813   6.900  0.0196  0.1333 -0.1809
 9053SOL    HW138792   3.385   2.820   6.953 -0.4873 -2.6955 -0.5481
 9053SOL    HW238793   3.443   2.847   6.813  1.4124  3.6464  0.8686
 9054SOL     OW38794   2.654   4.387  11.065  0.7100 -0.1293 -0.3294
 9054SOL    HW138795   2.571   4.393  11.018  0.1473  1.7494  0.8734
 9054SOL    HW238796   2.702   4.310  11.035 -0.2401 -1.2561  1.0335
 9055SOL     OW38797   4.081   1.843   3.717  0.4001  0.8453 -0.1867
 9055SOL    HW138798   4.101   1.844   3.623  3.6756  0.6811  0.5004
 9055SOL    HW238799   4.159   1.795   3.745 -0.2988  0.6833  1.4876
 9056SOL     OW38800   3.904   2.522   0.874  0.0527  0.5056 -0.0110
 9056SOL    HW138801   3.865   2.498   0.958  0.2151  2.4695  0.6393
 9056SOL    HW238802   3.979   2.464   0.863  0.2125  0.7067  0.0172
 9057SOL     OW38803   2.967   2.071   6.610  0.1807 -0.1694  0.0482
 9057SOL    HW138804   2.959   2.004   6.542  1.9370  1.3953 -1.6688
 9057SOL    HW238805   3.036   2.031   6.663 -0.2944  0.9205  1.4972
 9058SOL     OW38806   2.764   3.797   2.328  0.4101  0.9911  0.5829
 9058SOL    HW138807   2.747   3.727   2.265  1.1163  0.4495  0.9894
 9058SOL    HW238808   2.810   3.859   2.271 -0.6992  2.0821  0.8773
 9059SOL     OW38809   3.202   4.617   1.965  0.4154 -0.7945 -0.2211
 9059SOL    HW138810   3.217   4.524   1.977  1.9117 -0.8015 -2.0791
 9059SOL    HW238811   3.288   4.648   1.996 -0.1593 -0.3679  0.9475
 9060SOL     OW38812   3.908   4.309   3.749  0.0453  0.2341 -0.3195
 9060SOL    HW138813   3.979   4.280   3.806 -1.2883  0.4835  1.4650
 9060SOL    HW238814   3.832   4.290   3.804  1.0172  1.4207  1.4449
 9061SOL     OW38815   1.712   1.317  14.468  0.9508 -0.3141 -0.3051
 9061SOL    HW138816   1.789   1.275  14.507  2.0200  3.0022  1.1461
 9061SOL    HW238817   1.722   1.282  14.380 -0.3385  0.6845 -0.8490
 9062SOL     OW38818   4.636   4.069   7.456  0.1330  0.2861  0.2658
 9062SOL    HW138819   4.624   3.975   7.470  1.8845  0.0273  0.0196
 9062SOL    HW238820   4.549   4.105   7.473 -0.1035 -0.0305 -0.3000
 9063SOL     OW38821   0.501   2.804   8.685 -0.8614  0.9478 -0.1921
 9063SOL    HW138822   0.505   2.900   8.680 -0.6689  0.9698  0.3810
 9063SOL    HW238823   0.558   2.787   8.760  0.0976 -0.8822 -1.3353
 9064SOL     OW38824   3.376   1.559   6.771 -0.3922 -0.4776 -0.1471
 9064SOL    HW138825   3.295   1.519   6.740 -0.8889 -0.3743  1.0026
 9064SOL    HW238826   3.402   1.488   6.830  1.5786  0.1624 -0.2436
 9065SOL     OW38827   3.380   1.203   5.288 -0.4646  0.3845 -0.0544
 9065SOL    HW138828   3.393   1.295   5.311  2.2613 -1.1855  4.6852
 9065SOL    HW238829   3.400   1.163   5.372  0.7420 -1.1560 -1.0785
 9066SOL     OW38830   1.033   2.708   3.271 -0.5217  0.0394  0.1895
 9066SOL    HW138831   1.101   2.694   3.205 -0.9080 -2.7678  0.3944
 9066SOL    HW238832   0.982   2.776   3.226  1.1921  0.3633 -1.2363
 9067SOL     OW38833   0.953   0.585   5.749 -0.0639  0.0310  0.4644
 9067SOL    HW138834   0.984   0.499   5.779 -0.8363 -0.2368  0.4906
 9067SOL    HW238835   1.026   0.620   5.698  0.3341  1.0705  1.7450
 9068SOL     OW38836   2.741   0.198   8.188  0.4813  0.7213  0.2970
 9068SOL    HW138837   2.711   0.186   8.278  1.6151  0.1305  0.5815
 9068SOL    HW238838   2.761   0.111   8.156  2.4403  0.5773  1.9380
 9069SOL     OW38839   3.251   0.243   7.262 -0.2297 -0.1598 -0.3184
 9069SOL    HW138840   3.314   0.171   7.269  1.1476  1.2604  1.8746
 9069SOL    HW238841   3.206   0.249   7.346  0.9738  0.8732  0.2605
 9070SOL     OW38842   1.370   0.309   2.867 -0.2287 -0.6422  0.5326
 9070SOL    HW138843   1.354   0.370   2.795  2.0655  1.4901  1.8361
 9070SOL    HW238844   1.359   0.230   2.814  1.2342  0.7473 -1.8142
 9071SOL     OW38845   2.546   2.148   7.914  0.5784  0.1744  0.2475
 9071SOL    HW138846   2.483   2.102   7.859 -1.3580  0.2529  2.3933
 9071SOL    HW238847   2.613   2.178   7.852  1.4714 -3.0703 -0.3564
 9072SOL     OW38848   0.507   3.798   1.227  0.1581 -0.5799  0.3748
 9072SOL    HW138849   0.445   3.855   1.273  1.0455  0.6356  0.0366
 9072SOL    HW238850   0.497   3.712   1.269  0.3503 -1.4582 -1.4083
 9073SOL     OW38851   1.661   2.679  11.154  0.1539  0.0635  0.4878
 9073SOL    HW138852   1.581   2.715  11.116  0.1094  0.3179  0.8229
 9073SOL    HW238853   1.631   2.611  11.214  1.2456 -1.0939 -0.2705
 9074SOL     OW38854   2.944   2.740  10.692  0.7463  0.1611 -0.0366
 9074SOL    HW138855   2.884   2.814  10.691 -0.1849 -0.6224 -2.4516
 9074SOL    HW238856   2.882   2.670  10.672  1.4749 -0.4684 -0.0952
 9075SOL     OW38857   0.434   4.714  11.019 -0.0225  0.8837  0.5929
 9075SOL    HW138858   0.417   4.621  11.035  1.1395  0.6856  0.6378
 9075SOL    HW238859   0.468   0.004  11.106  0.3042  1.5250  0.3044
 9076SOL     OW38860   3.202   2.106  11.902 -0.1839  0.0346  0.1603
 9076SOL    HW138861   3.153   2.074  11.826 -0.6272 -0.4625  0.6564
 9076SOL    HW238862   3.132   2.111  11.967 -0.1203 -1.8435  0.3701
 9077SOL     OW38863   2.734   0.794   9.750 -0.4313  0.0100 -0.3842
 9077SOL    HW138864   2.707   0.796   9.842 -1.2396 -2.4782 -0.5798
 9077SOL    HW238865   2.650   0.815   9.709 -0.0236  1.2002 -0.6194
 9078SOL     OW38866   0.852   0.825   8.625 -0.4251 -0.1063  0.0344
 9078SOL    HW138867   0.777   0.843   8.682 -1.5746 -2.7941 -0.6589
 9078SOL    HW238868   0.865   0.731   8.638 -2.4049 -0.8062 -3.1526
 9079SOL     OW38869   4.042   0.089  10.521 -0.0586  0.2810  0.2043
 9079SOL    HW138870   4.046   0.036  10.442  0.2568  1.9551 -0.8930
 9079SOL    HW238871   4.132   0.112  10.544 -0.0704  1.0413 -0.5079
 9080SOL     OW38872   3.787   2.143   9.382  0.3042 -0.2181 -0.0724
 9080SOL    HW138873   3.746   2.065   9.420 -2.0119  0.6515 -0.7731
 9080SOL    HW238874   3.715   2.206   9.387  0.3740 -0.1006 -0.5467
 9081SOL     OW38875   1.807   4.538   1.365 -0.6640 -0.8331  0.0493
 9081SOL    HW138876   1.799   4.502   1.453 -2.4918  2.3840  1.1750
 9081SOL    HW238877   1.792   4.630   1.384 -1.0944 -1.5339  3.0932
 9082SOL     OW38878   4.467   1.011   9.225  0.6168  0.0307 -0.5018
 9082SOL    HW138879   4.558   0.983   9.229 -0.1045 -2.5222 -2.0363
 9082SOL    HW238880   4.438   0.961   9.301 -0.0178 -0.5896 -1.1506
 9083SOL     OW38881   2.537   3.380   1.044  0.3906  0.4299 -0.3910
 9083SOL    HW138882   2.556   3.336   0.961 -0.6173  0.7597 -0.8034
 9083SOL    HW238883   2.545   3.474   1.025 -0.9189  0.7038  0.4009
 9084SOL     OW38884   2.362   1.408   6.107 -0.4103 -0.2555 -0.3987
 9084SOL    HW138885   2.407   1.491   6.093  2.4472 -1.5044  1.4553
 9084SOL    HW238886   2.352   1.368   6.021 -0.7413 -0.1160 -0.4263
 9085SOL     OW38887   0.214   3.085  12.673 -0.9421  0.2987 -0.0723
 9085SOL    HW138888   0.169   3.001  12.659 -0.4092  0.1291 -0.7382
 9085SOL    HW238889   0.239   3.103  12.583 -0.6295 -0.6134 -0.1754
 9086SOL     OW38890   2.778   4.369   6.418 -0.5839 -0.4194 -0.0714
 9086SOL    HW138891   2.735   4.395   6.500 -0.4246  0.3324 -0.2270
 9086SOL    HW238892   2.754   4.277   6.411 -1.7531 -0.1715  0.6500
 9087SOL     OW38893   1.860   2.939   6.718 -0.0359  0.4325  0.1868
 9087SOL    HW138894   1.946   2.897   6.710 -0.6824 -0.9574  0.6513
 9087SOL    HW238895   1.800   2.869   6.744 -0.8167  1.4884  1.2055
 9088SOL     OW38896   3.480   2.142   9.211  0.2973 -0.1443  0.0288
 9088SOL    HW138897   3.392   2.113   9.234 -0.5446  0.5549 -2.3286
 9088SOL    HW238898   3.467   2.225   9.165  1.4356 -1.2850 -2.3573
 9089SOL     OW38899   1.577   4.182   2.535 -0.3512 -0.5068  0.7069
 9089SOL    HW138900   1.521   4.106   2.522  1.0400 -1.7399  1.9666
 9089SOL    HW238901   1.510   4.247   2.558  1.1015  0.9606  0.7897
 9090SOL     OW38902   2.356   3.473   4.816  0.2785 -0.0113 -0.4079
 9090SOL    HW138903   2.269   3.461   4.854  0.3000 -0.4351 -0.4944
 9090SOL    HW238904   2.344   3.565   4.790 -0.6403 -0.3850 -1.2960
 9091SOL     OW38905   2.820   3.690   2.589 -0.4942  0.4045 -0.4200
 9091SOL    HW138906   2.802   3.725   2.501  0.3148  0.7210 -0.4500
 9091SOL    HW238907   2.764   3.612   2.581  0.3279  0.0405 -2.7252
 9092SOL     OW38908   3.063   0.032   3.856  0.4858  0.2346 -0.4026
 9092SOL    HW138909   3.150   0.058   3.825  0.2666  1.9757  0.4324
 9092SOL    HW238910   3.082   4.672   3.867 -0.7447  0.2330  1.7606
 9093SOL     OW38911   2.455   2.837   6.105  0.4297  0.0624 -0.6013
 9093SOL    HW138912   2.470   2.931   6.100  0.4789  0.0132 -1.4920
 9093SOL    HW238913   2.366   2.832   6.139  0.4317  3.9979 -0.0840
 9094SOL     OW38914   0.727   2.235   2.586 -0.0242  0.4376  0.7560
 9094SOL    HW138915   0.633   2.229   2.567  0.1628  1.4903 -0.5600
 9094SOL    HW238916   0.746   2.155   2.634 -2.4700  0.5108  1.8502
 9095SOL     OW38917   4.065   3.861   6.738  0.4174  0.0190 -0.4653
 9095SOL    HW138918   3.978   3.879   6.702  0.0314 -0.8591  0.0342
 9095SOL    HW238919   4.062   3.916   6.817  2.5012  0.2628 -0.5554
 9096SOL     OW38920   1.027   1.300   7.708 -0.0968 -0.6980 -0.1791
 9096SOL    HW138921   1.079   1.316   7.629 -1.0126  1.8170 -0.2907
 9096SOL    HW238922   1.046   1.362   7.779 -1.2018 -0.8821  0.2758
 9097SOL     OW38923   0.236   1.968  13.698 -0.4777 -0.3137 -0.0906
 9097SOL    HW138924   0.322   1.926  13.692  0.0238  0.8023 -0.6814
 9097SOL    HW238925   0.264   2.059  13.686 -1.6046  0.2418  1.4673
 9098SOL     OW38926   2.300   1.122   7.997  0.4224 -0.5387  0.0177
 9098SOL    HW138927   2.322   1.211   7.971 -1.2845  0.6154  2.5681
 9098SOL    HW238928   2.206   1.136   7.990  0.6503  0.4873 -0.8562
 9099SOL     OW38929   3.016   1.056  11.406  0.2192  0.4926  0.0366
 9099SOL    HW138930   3.012   1.152  11.415 -0.7878  0.3135  1.4238
 9099SOL    HW238931   3.098   1.052  11.357 -0.4747  2.3701 -1.3095
 9100SOL     OW38932   3.764   4.493  14.740 -0.2864  0.3889  0.2212
 9100SOL    HW138933   3.681   4.537  14.722 -1.3364 -0.8817  1.9095
 9100SOL    HW238934   3.731   4.408  14.771 -1.1124 -0.1047 -2.0222
 9101SOL     OW38935   1.556   4.701   7.752 -0.6130  0.0306  0.3503
 9101SOL    HW138936   1.615   0.008   7.815  1.1472 -1.2526 -0.4884
 9101SOL    HW238937   1.541   4.613   7.786 -2.2490  0.3571  0.4848
 9102SOL     OW38938   4.700   3.752   3.734  0.1696 -0.4819  0.2386
 9102SOL    HW138939   4.620   3.791   3.698 -1.0937 -0.6197  2.9421
 9102SOL    HW238940   4.674   3.760   3.826  0.8788  1.8392  0.2210
 9103SOL     OW38941   3.551   2.366   7.447 -0.4231  0.6634 -0.0699
 9103SOL    HW138942   3.623   2.400   7.394  0.8574 -1.0127  0.6099
 9103SOL    HW238943   3.589   2.304   7.510  1.3580  0.0721 -1.7321
 9104SOL     OW38944   4.144   4.213   5.276 -0.7703 -0.5961  0.3656
 9104SOL    HW138945   4.106   4.147   5.335 -2.6989 -0.4462 -0.7211
 9104SOL    HW238946   4.072   4.262   5.237  0.3010 -0.0826 -0.9446
 9105SOL     OW38947   0.067   4.468   5.715 -0.3222  0.3790 -0.0570
 9105SOL    HW138948   0.088   4.561   5.711 -0.6528  0.4691  0.2848
 9105SOL    HW238949   0.096   4.434   5.800  0.2782  0.0841 -0.3812
 9106SOL     OW38950   1.539   0.855   4.378  0.0223 -0.2037  0.9917
 9106SOL    HW138951   1.615   0.797   4.372 -1.3128 -1.9287  1.0239
 9106SOL    HW238952   1.581   0.926   4.428  0.8865  0.3578 -0.5278
 9107SOL     OW38953   4.085   2.341   1.216  0.0142  0.2985 -0.4925
 9107SOL    HW138954   4.063   2.288   1.293 -1.4962  3.1025  0.9646
 9107SOL    HW238955   4.151   2.285   1.174 -0.7211 -0.7010 -0.3331
 9108SOL     OW38956   0.382   0.704   5.493  0.7551  0.0784 -0.4290
 9108SOL    HW138957   0.342   0.786   5.464  1.0305 -0.2010 -1.5821
 9108SOL    HW238958   0.475   0.728   5.487  0.8551 -0.0983  0.4856
 9109SOL     OW38959   0.649   1.020   4.051 -0.3159  0.4312 -0.0238
 9109SOL    HW138960   0.596   1.063   4.118 -0.0547 -0.6534  0.8726
 9109SOL    HW238961   0.736   1.038   4.087 -0.6998 -1.2422  1.7679
 9110SOL     OW38962   2.587   4.357   6.602 -0.0168  0.2824  0.5229
 9110SOL    HW138963   2.523   4.392   6.663 -0.3133 -0.5252  0.6750
 9110SOL    HW238964   2.531   4.285   6.573 -0.3919  1.2666 -1.1832
 9111SOL     OW38965   1.597   2.531   9.562 -0.2795  0.4404  0.1147
 9111SOL    HW138966   1.674   2.501   9.611 -0.1191  0.3132 -0.2084
 9111SOL    HW238967   1.527   2.508   9.623 -0.9581  1.7054 -0.1927
 9112SOL     OW38968   0.154   1.240   6.105  0.7748 -0.7532  0.1222
 9112SOL    HW138969   0.072   1.192   6.120 -0.1691  1.1411  1.0127
 9112SOL    HW238970   0.163   1.215   6.013 -1.2570  2.8807 -1.0572
 9113SOL     OW38971   0.883   1.280   7.116  0.2206 -0.0041 -0.3206
 9113SOL    HW138972   0.905   1.317   7.031 -2.3109  2.0617 -0.0658
 9113SOL    HW238973   0.796   1.311   7.140  0.6405  0.6657  0.3263
 9114SOL     OW38974   1.095   1.752   8.064  0.2215  0.2403 -0.0971
 9114SOL    HW138975   1.138   1.666   8.062 -0.3655 -0.0459 -0.4928
 9114SOL    HW238976   1.056   1.745   8.151 -0.6693  3.2652 -0.2670
 9115SOL     OW38977   0.433   1.181  12.815  0.0799  0.4593  0.3239
 9115SOL    HW138978   0.423   1.106  12.757  1.2192  1.8524 -1.6629
 9115SOL    HW238979   0.380   1.242  12.765 -0.5301  1.9113  2.7190
 9116SOL     OW38980   0.246   2.916   4.176 -0.4198  0.2064 -0.3035
 9116SOL    HW138981   0.221   2.958   4.093  0.2329  1.3505  0.0786
 9116SOL    HW238982   0.203   2.974   4.238  1.4937  1.4815 -0.1445
 9117SOL     OW38983   4.457   4.555   5.818 -0.2363 -0.1395 -0.2629
 9117SOL    HW138984   4.473   4.550   5.912 -2.4459 -1.0056  0.0674
 9117SOL    HW238985   4.468   4.461   5.802  0.2645 -0.4045  1.6937
 9118SOL     OW38986   3.125   3.637  10.434 -0.4857 -0.7575 -0.3246
 9118SOL    HW138987   3.170   3.553  10.423 -0.6851 -0.8390 -0.5163
 9118SOL    HW238988   3.060   3.636  10.364  0.7906  0.2580 -1.5083
 9119SOL     OW38989   1.137   0.418  14.506  0.0525 -0.2688 -0.1673
 9119SOL    HW138990   1.044   0.411  14.483  0.3391 -2.1529 -0.7251
 9119SOL    HW238991   1.164   0.442  14.417 -0.2698  1.6331  0.2486
 9120SOL     OW38992   3.807   1.297   8.225  0.2521 -0.4070  0.0762
 9120SOL    HW138993   3.893   1.309   8.265  0.3323 -1.9482  0.3509
 9120SOL    HW238994   3.776   1.387   8.214 -0.3685 -0.5992  0.2093
 9121SOL     OW38995   0.792   1.020   2.159  0.1289  0.0722 -0.4196
 9121SOL    HW138996   0.797   0.992   2.250  1.4336  0.1130 -0.4798
 9121SOL    HW238997   0.852   0.958   2.116  1.1745  0.4933  0.4298
 9122SOL     OW38998   0.504   1.211   5.926  0.0703 -0.3576  0.3090
 9122SOL    HW138999   0.519   1.202   5.832 -3.1159 -0.8067 -0.1456
 9122SOL    HW239000   0.491   1.119   5.948  4.4094 -1.1527 -0.4893
 9123SOL     OW39001   4.034   4.126   7.840  0.5954 -0.4663  0.3262
 9123SOL    HW139002   3.980   4.201   7.866  0.7660 -0.3944  0.4728
 9123SOL    HW239003   3.972   4.054   7.853  0.6283 -0.4800  0.4062
 9124SOL     OW39004   1.926   2.361   8.844  0.3237 -0.1000  0.2945
 9124SOL    HW139005   1.880   2.444   8.858 -0.4472 -0.5779  0.5795
 9124SOL    HW239006   1.872   2.333   8.771 -0.3096 -2.0026  1.5043
 9125SOL     OW39007   4.568   1.172  10.160 -0.0764 -0.2722 -0.2769
 9125SOL    HW139008   4.604   1.172  10.072  1.6158  1.8087  0.4139
 9125SOL    HW239009   4.507   1.246  10.158  0.3954  0.2066  2.7610
 9126SOL     OW39010   0.478   4.691   5.804  0.0455 -0.3574  0.7837
 9126SOL    HW139011   0.421   0.033   5.782  0.4198 -0.9242 -2.0135
 9126SOL    HW239012   0.507   4.711   5.893 -1.0353 -0.6621  1.2024
 9127SOL     OW39013   2.071   0.765   1.502  0.0626  0.3996  0.5564
 9127SOL    HW139014   2.144   0.806   1.548  1.8435 -1.4511 -0.6545
 9127SOL    HW239015   2.027   0.700   1.557  0.3170 -0.2514 -0.0136
 9128SOL     OW39016   1.686   0.701  12.018 -0.0267 -0.7103  0.0240
 9128SOL    HW139017   1.709   0.677  12.108 -2.7633  1.2404  1.2545
 9128SOL    HW239018   1.618   0.640  11.990 -0.4237 -0.6237  0.7926
 9129SOL     OW39019   2.461   3.711   4.722 -0.0652 -0.5946 -0.3638
 9129SOL    HW139020   2.466   3.806   4.734  1.0882 -0.5635 -1.0536
 9129SOL    HW239021   2.539   3.701   4.666 -0.4930  0.7577 -1.1981
 9130SOL     OW39022   3.798   0.621   6.676 -0.1477 -0.6939 -0.4171
 9130SOL    HW139023   3.864   0.591   6.738 -1.2922  2.2482  2.2484
 9130SOL    HW239024   3.832   0.583   6.596  3.8064 -0.3347  1.1107
 9131SOL     OW39025   1.723   0.862  16.038 -0.1678 -0.1405  0.7177
 9131SOL    HW139026   1.666   0.838  15.965 -1.2609 -1.7814  2.1043
 9131SOL    HW239027   1.710   0.957  16.042 -2.0665 -0.3655 -0.1624
 9132SOL     OW39028   2.587   2.547   6.622 -0.2077 -0.9731 -0.2858
 9132SOL    HW139029   2.602   2.498   6.703 -1.7386 -0.2479  0.4538
 9132SOL    HW239030   2.506   2.516   6.583 -0.6787  0.6353 -0.6186
 9133SOL     OW39031   2.668   1.887   8.673 -0.7476 -0.2128 -0.3841
 9133SOL    HW139032   2.626   1.932   8.599 -0.6794 -0.3468 -0.5046
 9133SOL    HW239033   2.725   1.959   8.700  0.3934 -0.3207 -2.5075
 9134SOL     OW39034   1.602   1.569   3.706 -0.2982  0.3154 -0.0106
 9134SOL    HW139035   1.684   1.611   3.732 -0.3781  0.3505  0.1866
 9134SOL    HW239036   1.537   1.637   3.722 -2.0500 -1.7630  1.7323
 9135SOL     OW39037   2.945   2.412   0.649 -0.0955 -0.2821  0.4364
 9135SOL    HW139038   2.912   2.324   0.664 -0.2141  0.2979  3.4917
 9135SOL    HW239039   2.925   2.451   0.734  2.6983  2.2256 -0.0688
 9136SOL     OW39040   3.643   0.905  11.379 -0.6123 -0.0794 -0.2894
 9136SOL    HW139041   3.678   0.956  11.306 -0.2776  0.3249  0.1583
 9136SOL    HW239042   3.704   0.917  11.452  0.1635 -2.0114 -0.6093
 9137SOL     OW39043   3.513   1.955  10.225 -0.1163  1.1801 -0.0307
 9137SOL    HW139044   3.467   2.039  10.225 -2.4933 -0.1333  0.3322
 9137SOL    HW239045   3.600   1.981  10.194 -0.7778  0.4397 -2.4638
 9138SOL     OW39046   3.242   4.421  15.364 -0.1502  0.2557 -0.5529
 9138SOL    HW139047   3.175   4.447  15.301 -1.1939 -1.9169 -0.3611
 9138SOL    HW239048   3.302   4.494  15.349  1.4139 -1.2525 -1.6045
 9139SOL     OW39049   2.395   0.976   2.197  0.1139  0.2609 -0.1414
 9139SOL    HW139050   2.331   0.918   2.239 -0.4592  1.8420  1.1581
 9139SOL    HW239051   2.385   1.054   2.251 -0.9111 -0.7311  1.1240
 9140SOL     OW39052   3.670   0.872   6.334 -0.1908  0.2947  0.1506
 9140SOL    HW139053   3.690   0.848   6.425 -3.0986  0.0628  0.7291
 9140SOL    HW239054   3.740   0.933   6.313  0.2377 -0.9299 -2.0438
 9141SOL     OW39055   2.859   0.133   6.563  0.0719  0.0441 -0.2823
 9141SOL    HW139056   2.829   0.190   6.634 -1.3378  1.2272 -1.8007
 9141SOL    HW239057   2.782   0.076   6.569 -0.1308  0.1323 -2.0789
 9142SOL     OW39058   2.591   0.115   7.100  0.6046 -0.0410 -0.5147
 9142SOL    HW139059   2.591   0.119   7.196  0.3349  1.8093 -0.5937
 9142SOL    HW239060   2.619   0.027   7.075  0.6114 -0.7825  2.0633
 9143SOL     OW39061   0.811   3.389   0.704 -0.2120  0.0397 -0.3179
 9143SOL    HW139062   0.801   3.302   0.664 -1.2549 -0.5807  1.2748
 9143SOL    HW239063   0.848   3.433   0.628  3.3521 -1.3832  0.6240
 9144SOL     OW39064   4.591   4.663   2.046  0.1200  0.6402 -0.3140
 9144SOL    HW139065   4.518   4.675   2.107 -0.1322 -0.2565 -0.4408
 9144SOL    HW239066   4.670   4.701   2.082  0.4771 -1.4940  1.1822
 9145SOL     OW39067   4.327   3.503   8.426  0.2266 -0.3596 -0.2848
 9145SOL    HW139068   4.313   3.503   8.331 -0.6606 -1.3604 -0.1443
 9145SOL    HW239069   4.421   3.483   8.428 -0.0339 -1.5494  0.3064
 9146SOL     OW39070   3.144   2.261   8.356  0.1646 -0.6508 -0.5117
 9146SOL    HW139071   3.159   2.290   8.446 -0.6242 -0.9517 -0.2887
 9146SOL    HW239072   3.210   2.310   8.307  0.3831  0.0084  0.4322
 9147SOL     OW39073   1.593   3.928   5.470  0.0349 -0.3154 -0.0562
 9147SOL    HW139074   1.503   3.959   5.463 -0.4169 -1.6951 -0.3678
 9147SOL    HW239075   1.628   4.004   5.518 -1.1598 -0.8973  1.7363
 9148SOL     OW39076   1.546   4.223   5.436 -0.1800  0.2948  0.1047
 9148SOL    HW139077   1.483   4.292   5.456 -0.4146 -0.1802  0.9734
 9148SOL    HW239078   1.498   4.181   5.365 -0.0342  0.6336 -0.1974
 9149SOL     OW39079   0.120   1.591  13.749  0.8242  0.4898 -0.2215
 9149SOL    HW139080   0.211   1.561  13.747  0.2932 -1.1875  0.3670
 9149SOL    HW239081   0.092   1.556  13.834  0.3673 -0.9356 -0.9641
 9150SOL     OW39082   1.259   1.388   6.320 -0.1748 -0.5822 -0.1575
 9150SOL    HW139083   1.307   1.307   6.304 -0.5627 -0.9936  0.7302
 9150SOL    HW239084   1.300   1.440   6.251 -1.7191  3.3515  1.8600
 9151SOL     OW39085   3.341   0.899   6.476 -0.6494  0.0217  0.1320
 9151SOL    HW139086   3.328   0.832   6.409  2.4580 -1.3778  0.9442
 9151SOL    HW239087   3.280   0.869   6.543  2.3845  0.8649  3.3004
 9152SOL     OW39088   3.466   4.250  15.333 -0.2896 -0.5252 -0.1684
 9152SOL    HW139089   3.377   4.281  15.345  0.6851  1.9950  0.6258
 9152SOL    HW239090   3.472   4.278  15.242 -0.7729  0.3297  0.0710
 9153SOL     OW39091   1.732   2.573   8.881 -0.3081  0.5807  0.3259
 9153SOL    HW139092   1.737   2.551   8.974 -0.2671  0.2309  0.2394
 9153SOL    HW239093   1.707   2.666   8.886 -2.8718 -0.0863  0.1635
 9154SOL     OW39094   0.285   0.479   2.537  0.0269 -0.1622  0.4160
 9154SOL    HW139095   0.213   0.507   2.594  0.6013 -0.1506  1.1341
 9154SOL    HW239096   0.361   0.523   2.575  0.7748 -1.2410  0.1667
 9155SOL     OW39097   1.348   0.605   4.250 -0.1520  0.0932  0.2417
 9155SOL    HW139098   1.386   0.664   4.185 -1.1147  0.4105 -0.0355
 9155SOL    HW239099   1.412   0.604   4.321  0.4359 -2.9714 -0.3454
 9156SOL     OW39100   1.179   1.047   6.578 -0.6197 -0.4049 -0.4483
 9156SOL    HW139101   1.186   1.094   6.661  1.8004  1.3120 -1.6497
 9156SOL    HW239102   1.195   0.962   6.619  0.9719 -0.0624 -0.3867
 9157SOL     OW39103   2.869   0.208   7.699 -0.4966 -0.0413 -0.0465
 9157SOL    HW139104   2.891   0.241   7.786  1.6453 -0.2216 -0.5271
 9157SOL    HW239105   2.820   0.284   7.668 -0.5942 -0.2138 -0.3106
 9158SOL     OW39106   1.006   0.363   7.612 -0.4778  0.8342 -0.5398
 9158SOL    HW139107   1.088   0.335   7.572  0.0871  2.2546 -0.3705
 9158SOL    HW239108   1.037   0.443   7.654 -0.3708 -0.1461  1.2216
 9159SOL     OW39109   3.875   1.549   5.417  1.0909  0.9627 -0.0553
 9159SOL    HW139110   3.917   1.467   5.390  0.4909 -0.0812  2.1864
 9159SOL    HW239111   3.868   1.539   5.512 -0.1288 -0.6191 -0.3173
 9160SOL     OW39112   4.343   2.813  14.422  0.2272 -0.2429  0.0869
 9160SOL    HW139113   4.379   2.848  14.340  1.3414  1.4387  1.2822
 9160SOL    HW239114   4.423   2.769  14.452  0.7466  2.1219  2.0980
 9161SOL     OW39115   0.140   3.704   7.898 -0.1566 -0.2350  0.7423
 9161SOL    HW139116   0.058   3.748   7.876 -0.0480 -0.8685 -0.9412
 9161SOL    HW239117   0.171   3.658   7.820 -1.5175 -1.9671  1.2231
 9162SOL     OW39118   1.137   0.567   2.187  0.4337 -0.1167  0.5300
 9162SOL    HW139119   1.125   0.640   2.127  0.6862 -0.3104  0.2440
 9162SOL    HW239120   1.041   0.560   2.195  0.2034  1.9004 -0.4712
 9163SOL     OW39121   2.786   2.598   3.082 -0.0010 -0.1343 -0.2763
 9163SOL    HW139122   2.771   2.529   3.145 -0.0597  0.0711 -0.0665
 9163SOL    HW239123   2.704   2.646   3.090 -0.1884 -0.0523 -2.5837
 9164SOL     OW39124   0.588   4.455   5.492 -0.0329 -0.5251  0.0151
 9164SOL    HW139125   0.508   4.421   5.452  0.7409 -0.1676 -1.8329
 9164SOL    HW239126   0.622   4.503   5.417  1.6055  1.2565  1.8738
 9165SOL     OW39127   0.756   1.405  14.429 -0.1244 -0.5264 -0.2990
 9165SOL    HW139128   0.729   1.340  14.494 -1.6580  0.5144  0.1149
 9165SOL    HW239129   0.700   1.477  14.459  0.8594 -0.1745  0.6580
 9166SOL     OW39130   3.118   2.454   8.022  0.1675  0.4292 -0.9205
 9166SOL    HW139131   3.104   2.366   7.987  4.2514 -1.3844  1.9443
 9166SOL    HW239132   3.162   2.493   7.947  0.0442  0.7671 -0.8186
 9167SOL     OW39133   1.372   0.297   3.142  0.3175 -0.1685 -0.3719
 9167SOL    HW139134   1.387   0.326   3.052 -0.5139 -0.1828 -0.5117
 9167SOL    HW239135   1.313   0.223   3.130 -0.8942  0.6349  0.7081
 9168SOL     OW39136   1.633   1.544   8.801 -0.9418 -0.2034 -1.3890
 9168SOL    HW139137   1.583   1.465   8.782 -1.6773 -0.1249  0.1747
 9168SOL    HW239138   1.687   1.527   8.878 -1.6625  1.0289 -0.6022
 9169SOL     OW39139   0.018   4.256   5.472  0.1519  0.1403  0.4205
 9169SOL    HW139140   4.717   4.237   5.384  0.0905  0.7424  0.3142
 9169SOL    HW239141   0.051   4.345   5.460 -0.9894  0.2357 -2.0671
 9170SOL     OW39142   4.151   2.132   6.111  0.1940 -0.1702 -0.1844
 9170SOL    HW139143   4.186   2.044   6.093 -1.4557 -1.0589  1.0444
 9170SOL    HW239144   4.171   2.152   6.202  2.2792 -2.7792 -0.0607
 9171SOL     OW39145   3.433   4.018  12.201 -0.0737 -0.0064  0.2813
 9171SOL    HW139146   3.517   4.001  12.160  0.7674  0.9072  1.6238
 9171SOL    HW239147   3.420   4.101  12.155  1.7834 -0.0261 -0.2818
 9172SOL     OW39148   4.154   2.897   8.500 -0.2696  0.2640  0.4215
 9172SOL    HW139149   4.204   2.930   8.426 -1.3319 -0.4563 -0.5993
 9172SOL    HW239150   4.069   2.881   8.460 -0.5412 -2.3024  2.0695
 9173SOL     OW39151   3.740   0.080   8.367 -1.0859  0.0632  0.1855
 9173SOL    HW139152   3.748   0.175   8.357 -0.7923  0.1828  1.5958
 9173SOL    HW239153   3.721   0.069   8.460 -2.0355  0.2916  0.0207
 9174SOL     OW39154   0.550   0.894  12.881  0.1953  0.1197  0.1588
 9174SOL    HW139155   0.505   0.822  12.836 -1.3496  1.5351 -0.5610
 9174SOL    HW239156   0.480   0.931  12.934  0.3347 -0.3259  0.6566
 9175SOL     OW39157   1.585   3.428   8.966 -0.3704  0.0869 -0.2544
 9175SOL    HW139158   1.661   3.443   9.022 -0.2393  1.8256 -0.8864
 9175SOL    HW239159   1.623   3.459   8.884  1.1803 -1.4375 -0.1082
 9176SOL     OW39160   3.067   3.085   4.291  0.1980  0.4070  0.2783
 9176SOL    HW139161   3.144   3.138   4.271 -0.0513 -0.0520 -1.8417
 9176SOL    HW239162   2.997   3.150   4.296 -1.0194 -0.7780 -1.5571
 9177SOL     OW39163   3.979   1.959   0.183  0.5356 -0.5791 -0.1702
 9177SOL    HW139164   3.991   1.910   0.102  0.4586  0.1809 -0.6373
 9177SOL    HW239165   3.883   1.961   0.184  0.6324  1.6010  2.2798
 9178SOL     OW39166   4.605   1.170  11.927  0.5661 -0.5940 -0.6828
 9178SOL    HW139167   4.607   1.222  11.846  2.9943 -1.9969 -1.5163
 9178SOL    HW239168   4.671   1.105  11.901 -0.8531 -1.2481 -2.6254
 9179SOL     OW39169   2.869   4.138   7.695  0.2238 -1.2301  0.0760
 9179SOL    HW139170   2.915   4.187   7.627 -0.7361 -1.1862 -0.5355
 9179SOL    HW239171   2.778   4.127   7.666  0.8762  1.0771 -2.8366
 9180SOL     OW39172   2.433   1.571   3.108  0.1426  0.0685 -0.9187
 9180SOL    HW139173   2.483   1.509   3.161  0.8384  0.2219 -1.3834
 9180SOL    HW239174   2.498   1.641   3.096  1.3706 -0.7676  0.8672
 9181SOL     OW39175   0.593   3.161  13.721 -0.2984  0.2068 -0.1593
 9181SOL    HW139176   0.684   3.186  13.737 -0.5595 -0.1657  2.0277
 9181SOL    HW239177   0.594   3.084  13.665  1.2419 -1.8391  2.6634
 9182SOL     OW39178   4.337   3.781  11.066  0.1089 -0.6248  0.4525
 9182SOL    HW139179   4.356   3.790  11.160 -2.4308 -0.5277  0.9855
 9182SOL    HW239180   4.333   3.872  11.037 -1.5383 -0.3058  1.6525
 9183SOL     OW39181   3.666   4.406   2.734 -0.3105  0.4637  0.1664
 9183SOL    HW139182   3.596   4.347   2.705  0.8067 -0.8996  0.2214
 9183SOL    HW239183   3.644   4.390   2.826 -0.9163  1.0785  0.1336
 9184SOL     OW39184   3.495   1.754   7.459 -0.4526 -0.1864  0.0197
 9184SOL    HW139185   3.490   1.826   7.396 -0.4817 -1.1726 -1.1150
 9184SOL    HW239186   3.493   1.799   7.543  3.8402  0.0293  0.0119
 9185SOL     OW39187   2.484   0.923   3.224 -0.0463  0.0513 -0.0092
 9185SOL    HW139188   2.395   0.942   3.253 -1.2834 -4.1636 -1.0184
 9185SOL    HW239189   2.495   0.838   3.267  3.2246 -0.4878 -1.8967
 9186SOL     OW39190   0.478   0.855  12.259  0.0654  0.2173  0.3125
 9186SOL    HW139191   0.409   0.919  12.277 -0.8107 -1.0454  1.3996
 9186SOL    HW239192   0.555   0.906  12.284  0.4608  0.3574 -1.2056
 9187SOL     OW39193   2.186   1.817   2.966  0.1675  0.4703 -0.1746
 9187SOL    HW139194   2.256   1.857   3.019 -1.7818  0.7109  2.2332
 9187SOL    HW239195   2.231   1.738   2.936 -0.1418  0.0185  0.5502
 9188SOL     OW39196   1.059   0.415  17.236 -0.1622 -0.1625 -1.0767
 9188SOL    HW139197   1.109   0.490  17.265  0.2691 -1.3372  1.1776
 9188SOL    HW239198   1.132   0.359  17.210  1.5881  1.8289 -0.4468
 9189SOL     OW39199   0.040   0.374  16.979  0.3254 -0.1469  0.3659
 9189SOL    HW139200   0.127   0.337  16.967 -0.2227 -0.8662 -1.4630
 9189SOL    HW239201   0.050   0.466  16.959  0.4440 -0.0409  0.8936
 9190SOL     OW39202   4.292   0.985  13.024  0.4552  0.0362 -0.0778
 9190SOL    HW139203   4.227   1.055  13.020 -1.1333 -1.2975  2.9772
 9190SOL    HW239204   4.379   1.026  13.028  0.1041  0.7065  0.6690
 9191SOL     OW39205   2.654   0.763  10.009 -0.7274 -0.2410  0.4047
 9191SOL    HW139206   2.701   0.777  10.091 -0.3717 -0.8248  0.3075
 9191SOL    HW239207   2.580   0.822  10.020 -0.0034  0.1874  2.9458
 9192SOL     OW39208   0.754   2.705   3.667  0.1602 -0.4287  0.2667
 9192SOL    HW139209   0.708   2.718   3.584  0.6787 -1.0694 -0.1192
 9192SOL    HW239210   0.844   2.709   3.635 -0.2886 -0.0413 -0.9446
 9193SOL     OW39211   2.859   2.550  11.339 -0.7117 -0.1828  0.0995
 9193SOL    HW139212   2.806   2.610  11.286 -2.5550 -1.4017  0.5521
 9193SOL    HW239213   2.817   2.464  11.329  0.0971 -0.7528  1.5288
 9194SOL     OW39214   3.451   1.425   5.448 -0.4016 -0.7739  0.2938
 9194SOL    HW139215   3.509   1.438   5.523 -0.8485  1.2105  0.2827
 9194SOL    HW239216   3.462   1.511   5.409 -1.9113  0.0104  1.5663
 9195SOL     OW39217   0.566   3.150   9.313  0.0698  0.0156 -0.0643
 9195SOL    HW139218   0.605   3.219   9.259  2.3482 -1.3392 -0.1505
 9195SOL    HW239219   0.490   3.128   9.259 -0.6367  1.3864  0.3721
 9196SOL     OW39220   0.145   1.153   5.833  0.3023  0.1524 -0.1302
 9196SOL    HW139221   0.197   1.073   5.833  0.3945  0.2128  0.0079
 9196SOL    HW239222   0.067   1.111   5.798 -1.6040  1.3394  2.7058
 9197SOL     OW39223   4.175   4.402   7.572 -0.3621  0.9213  0.0905
 9197SOL    HW139224   4.120   4.406   7.494  1.0017 -0.7935 -0.9572
 9197SOL    HW239225   4.141   4.465   7.636  0.2828  0.2103  1.1282
 9198SOL     OW39226   2.106   0.024  16.895 -0.1844 -0.5981 -0.5697
 9198SOL    HW139227   2.151   0.104  16.924 -0.0691 -0.7965 -0.2054
 9198SOL    HW239228   2.055   0.057  16.821 -0.5921 -2.4970 -1.1315
 9199SOL     OW39229   0.553   0.150  17.064 -0.3693 -0.3513  0.7643
 9199SOL    HW139230   0.566   0.057  17.045  1.3604 -0.1829  1.0802
 9199SOL    HW239231   0.633   0.171  17.112 -1.2685 -0.8228  2.4664
 9200SOL     OW39232   0.955   1.766   7.839 -0.3555 -0.1754  0.5731
 9200SOL    HW139233   0.991   1.684   7.806  0.7321 -0.0375  1.4571
 9200SOL    HW239234   0.995   1.764   7.926  0.0146  0.1702  0.4108
 9201SOL     OW39235   1.676   3.143  13.325  0.0414 -0.2774  0.3087
 9201SOL    HW139236   1.707   3.187  13.405  0.0511 -3.2080  1.8994
 9201SOL    HW239237   1.590   3.184  13.324  0.5911  0.9286  1.1363
 9202SOL     OW39238   0.388   3.222   1.499  0.5012 -0.8487  0.5021
 9202SOL    HW139239   0.325   3.149   1.494 -0.5602  0.2775 -2.3649
 9202SOL    HW239240   0.339   3.263   1.570 -1.5643  1.1119 -2.0503
 9203SOL     OW39241   4.382   1.241   4.509  0.3904  0.4606 -0.2111
 9203SOL    HW139242   4.371   1.255   4.603  1.4492 -0.4857  0.0562
 9203SOL    HW239243   4.404   1.148   4.500 -0.8074  0.2710 -1.2851
 9204SOL     OW39244   4.361   4.299   4.568  0.0842 -0.1012 -0.6357
 9204SOL    HW139245   4.353   4.227   4.630 -0.6245 -0.6773 -1.3977
 9204SOL    HW239246   4.331   4.374   4.619 -0.0976 -1.1534  0.8025
 9205SOL     OW39247   0.994   2.250  13.491  0.4670  0.2095  0.3748
 9205SOL    HW139248   0.941   2.195  13.549 -1.0291 -1.3478 -2.4669
 9205SOL    HW239249   1.086   2.234  13.509  0.1518  1.7180  3.3906
 9206SOL     OW39250   1.312   4.483   4.730  0.1893  0.5617  0.6017
 9206SOL    HW139251   1.294   4.531   4.649 -2.0942 -2.3936 -0.6489
 9206SOL    HW239252   1.381   4.425   4.699 -0.5421 -1.3377  2.5580
 9207SOL     OW39253   0.204   2.322   1.258  0.0033  0.3416  0.8569
 9207SOL    HW139254   0.161   2.295   1.177 -1.7809 -0.0517  1.9064
 9207SOL    HW239255   0.148   2.389   1.296 -1.4944 -0.1504 -0.4819
 9208SOL     OW39256   0.726   0.925  10.904  0.1022 -0.4190 -0.3793
 9208SOL    HW139257   0.734   1.004  10.956 -1.1062  1.3561 -2.8954
 9208SOL    HW239258   0.689   0.962  10.824 -1.7200 -1.7957 -0.1807
 9209SOL     OW39259   1.384   3.763  10.080  0.6138  0.3125  0.2930
 9209SOL    HW139260   1.369   3.842  10.029  2.5622 -0.2849 -1.1846
 9209SOL    HW239261   1.339   3.703  10.021 -1.5244  1.3431  0.8583
 9210SOL     OW39262   1.831   2.165   5.328  0.8228 -0.3070  0.0664
 9210SOL    HW139263   1.791   2.231   5.384  2.1479  1.2293 -0.8053
 9210SOL    HW239264   1.756   2.157   5.270  1.7376 -0.4164 -1.1140
 9211SOL     OW39265   1.785   4.176   9.647 -0.3430  0.9424  0.2397
 9211SOL    HW139266   1.735   4.219   9.716  1.6781  0.1467  2.2061
 9211SOL    HW239267   1.710   4.161   9.590 -0.3727  2.6909 -0.1741
 9212SOL     OW39268   1.958   3.439  11.524  0.4349 -0.4162  0.1330
 9212SOL    HW139269   1.977   3.362  11.578  2.7799  0.9432  1.2602
 9212SOL    HW239270   1.996   3.508  11.578  1.0588 -1.9212  1.6005
 9213SOL     OW39271   2.612   3.578   8.373  0.0888 -1.1296  0.5087
 9213SOL    HW139272   2.629   3.571   8.279 -1.2662  0.9925  0.1069
 9213SOL    HW239273   2.524   3.616   8.374  0.2761 -0.6992  0.8333
 9214SOL     OW39274   0.588   4.361  10.919  0.7649  0.6832  0.1574
 9214SOL    HW139275   0.661   4.300  10.911  1.3496  1.5011 -0.7172
 9214SOL    HW239276   0.613   4.448  10.886  0.6727  1.1370  1.3044
 9215SOL     OW39277   0.201   0.488   4.522  0.0802  0.1467  0.1396
 9215SOL    HW139278   0.127   0.476   4.583 -0.0054  2.4303  0.4962
 9215SOL    HW239279   0.245   0.405   4.537 -0.4800 -0.1869 -0.0444
 9216SOL     OW39280   4.103   3.909   5.002 -0.5807  0.2933  0.0698
 9216SOL    HW139281   4.061   3.902   4.917 -0.4986  0.6697 -0.0045
 9216SOL    HW239282   4.026   3.882   5.052  0.3596 -4.4975 -1.1367
 9217SOL     OW39283   1.741   0.461   3.705  0.0434 -0.2928 -0.1410
 9217SOL    HW139284   1.657   0.496   3.676  0.9291  1.5900 -0.4575
 9217SOL    HW239285   1.752   0.529   3.771 -3.6779  1.8516 -1.7239
 9218SOL     OW39286   2.708   2.910   8.006  0.1298 -0.2164  0.2754
 9218SOL    HW139287   2.781   2.971   8.003 -0.3260  0.2379 -1.5303
 9218SOL    HW239288   2.646   2.944   8.070 -0.4975 -0.0707 -0.3992
 9219SOL     OW39289   0.775   3.461   6.238  0.0245 -0.1426  0.7572
 9219SOL    HW139290   0.774   3.470   6.333 -0.5903 -0.0121  0.7355
 9219SOL    HW239291   0.804   3.369   6.236 -1.9216 -0.7963  2.7663
 9220SOL     OW39292   4.015   4.719   8.885 -0.6376 -0.1130 -0.1662
 9220SOL    HW139293   3.934   0.009   8.930  0.0743  0.0749  1.0502
 9220SOL    HW239294   4.065   0.053   8.933 -0.2743 -0.2483 -0.3531
 9221SOL     OW39295   0.908   3.746  11.057  0.2922 -0.1304  0.4538
 9221SOL    HW139296   0.849   3.688  11.010 -0.5932  0.5224  0.7689
 9221SOL    HW239297   0.999   3.717  11.049  0.0394 -0.9025  0.4498
 9222SOL     OW39298   0.436   0.689  11.717 -0.2159  0.1550 -0.5663
 9222SOL    HW139299   0.517   0.653  11.754  0.7209  2.0337 -0.8185
 9222SOL    HW239300   0.403   0.738  11.792 -0.5706 -0.5432 -0.2606
 9223SOL     OW39301   0.879   2.540   3.870  0.0913  0.1461  0.5291
 9223SOL    HW139302   0.838   2.585   3.796 -2.7621  0.2924  2.1505
 9223SOL    HW239303   0.875   2.446   3.851 -0.8840  0.3675 -0.3744
 9224SOL     OW39304   3.165   1.468   6.615 -0.2316 -0.1652  0.2564
 9224SOL    HW139305   3.174   1.550   6.567  0.3781 -0.5896 -0.3642
 9224SOL    HW239306   3.085   1.430   6.578 -0.4983  1.3384 -0.6901
 9225SOL     OW39307   0.007   1.982   8.888 -0.5177 -0.6137  0.4115
 9225SOL    HW139308   4.689   2.061   8.911  1.4248 -0.2553  3.4149
 9225SOL    HW239309   0.094   2.021   8.880 -1.0322  0.8452  1.8794
 9226SOL     OW39310   2.008   2.375   7.810  0.2660 -0.4748  0.3233
 9226SOL    HW139311   1.967   2.398   7.727  1.6589  1.3099  0.1109
 9226SOL    HW239312   2.100   2.391   7.786  0.3358  0.0803  0.9635
 9227SOL     OW39313   3.216   2.673  17.154  0.3090  0.8510  0.3219
 9227SOL    HW139314   3.174   2.758  17.168 -0.9718  0.4634 -1.2080
 9227SOL    HW239315   3.248   2.691  17.066  0.3198  1.2839  0.4156
 9228SOL     OW39316   3.641   3.158  13.198  0.1544 -0.0974 -0.1832
 9228SOL    HW139317   3.640   3.234  13.257  1.4791 -0.1555 -0.0876
 9228SOL    HW239318   3.731   3.125  13.198 -0.2250 -1.1035 -0.1971
 9229SOL     OW39319   3.042   0.391   8.536  0.1577 -0.2310 -0.1488
 9229SOL    HW139320   3.041   0.359   8.445 -0.4364 -1.5195  0.3117
 9229SOL    HW239321   3.136   0.404   8.546  0.0757  0.5588 -0.4183
 9230SOL     OW39322   0.232   0.413   3.545  0.0511  0.1680  0.6681
 9230SOL    HW139323   0.181   0.334   3.558  1.5135 -0.7777  0.5946
 9230SOL    HW239324   0.236   0.414   3.449 -2.7369 -0.2535  0.5438
 9231SOL     OW39325   0.037   0.003   5.611  0.2095 -0.3808  0.0876
 9231SOL    HW139326   4.692   0.060   5.607 -0.2255 -0.8888  1.4599
 9231SOL    HW239327   0.041   4.694   5.524  0.5383 -1.3952  0.5893
 9232SOL     OW39328   1.456   2.050  15.111  0.0149 -0.5408 -0.8958
 9232SOL    HW139329   1.539   2.030  15.068  0.1589 -1.4099 -0.1974
 9232SOL    HW239330   1.435   2.137  15.077 -1.9507 -0.3587  0.7879
 9233SOL     OW39331   4.110   1.396   6.757  0.0876 -0.7551  0.3728
 9233SOL    HW139332   4.171   1.400   6.830 -0.5366  0.9936  0.8023
 9233SOL    HW239333   4.022   1.402   6.795 -1.2582  0.6247 -2.9023
 9234SOL     OW39334   0.277   1.034  16.877 -0.3050  0.1979 -0.0362
 9234SOL    HW139335   0.319   1.119  16.890 -0.8350  0.4312  0.1584
 9234SOL    HW239336   0.340   0.993  16.817 -0.1715  0.5493 -0.1384
 9235SOL     OW39337   3.169   3.846   5.641  0.0757  0.1503  0.5009
 9235SOL    HW139338   3.197   3.766   5.596  1.5521  0.7709  0.3309
 9235SOL    HW239339   3.189   3.814   5.728 -0.6795 -2.1932 -0.1875
 9236SOL     OW39340   0.560   2.858  16.298  0.9930  0.0280 -0.3381
 9236SOL    HW139341   0.600   2.777  16.267  0.0984 -0.4656 -0.2068
 9236SOL    HW239342   0.549   2.835  16.390  0.1697 -0.4357 -0.5444
 9237SOL     OW39343   1.988   4.057   4.242  0.1987  0.1301  0.3342
 9237SOL    HW139344   1.994   3.995   4.314 -1.3975 -0.3989  0.0101
 9237SOL    HW239345   2.041   4.011   4.177  2.5541  0.7120  1.8526
 9238SOL     OW39346   3.427   0.362   9.034  0.0982 -0.4705 -0.5466
 9238SOL    HW139347   3.387   0.336   8.951  0.5462  0.5130 -1.0661
 9238SOL    HW239348   3.518   0.353   9.003  0.6781 -1.1817  1.3420
 9239SOL     OW39349   0.087   0.221  15.979 -0.6579 -0.1865 -0.1047
 9239SOL    HW139350   0.089   0.263  16.065  1.2360  0.6193 -0.5488
 9239SOL    HW239351   0.005   0.171  15.976  0.1149 -1.4821  0.7615
 9240SOL     OW39352   4.125   4.563   0.571 -0.2127  0.3980  0.0894
 9240SOL    HW139353   4.140   4.651   0.604  0.9329  0.3436 -0.2996
 9240SOL    HW239354   4.134   4.511   0.651  1.3726 -0.2109 -0.4986
 9241SOL     OW39355   4.663   4.465   6.798  0.4385  0.3250  0.0467
 9241SOL    HW139356   0.009   4.411   6.801 -0.0355 -0.3416  0.5520
 9241SOL    HW239357   4.596   4.402   6.770  0.7718 -0.6145  1.3775
 9242SOL     OW39358   1.104   0.949   4.922 -0.0045  0.0850 -0.5021
 9242SOL    HW139359   1.166   0.999   4.871  0.5949  0.6836  0.8087
 9242SOL    HW239360   1.047   1.019   4.955 -0.0024 -0.6564  1.0779
 9243SOL     OW39361   2.300   0.057   6.053  0.1980  0.4240 -0.1445
 9243SOL    HW139362   2.394   0.055   6.035  0.1022 -1.6245 -0.4505
 9243SOL    HW239363   2.260   0.057   5.966 -0.0474  1.4617 -0.0309
 9244SOL     OW39364   4.183   4.673   6.028 -0.1589  0.1405  0.1173
 9244SOL    HW139365   4.151   0.030   6.013 -0.1110  0.1980  0.3628
 9244SOL    HW239366   4.218   4.689   6.116 -1.0764 -0.7801  0.6491
 9245SOL     OW39367   4.079   2.469   3.390 -0.0144 -0.1684 -0.1208
 9245SOL    HW139368   4.034   2.396   3.348 -1.2046 -0.1553  1.1504
 9245SOL    HW239369   4.014   2.538   3.403  1.1854  0.8376  0.6080
 9246SOL     OW39370   2.969   0.347   8.267  0.9023  0.5232  1.0381
 9246SOL    HW139371   3.022   0.364   8.189 -1.6568  0.7637 -0.6537
 9246SOL    HW239372   2.913   0.276   8.237 -1.3153  2.4403  0.6041
 9247SOL     OW39373   4.330   4.631  12.962  0.2835  0.0924  0.1401
 9247SOL    HW139374   4.356   4.544  12.992  1.0334  0.7434  1.3830
 9247SOL    HW239375   4.383   4.632  12.883  0.4798 -0.7700  0.2534
 9248SOL     OW39376   3.855   0.381   4.869 -0.7226 -0.3982 -0.2359
 9248SOL    HW139377   3.882   0.472   4.882  0.4268 -0.9224  1.1723
 9248SOL    HW239378   3.940   0.344   4.847 -0.0151  1.8726 -1.3602
 9249SOL     OW39379   0.668   2.377   1.798  0.1699 -0.2612  0.3695
 9249SOL    HW139380   0.634   2.366   1.886 -0.5717  2.6688  0.4664
 9249SOL    HW239381   0.708   2.464   1.811  1.7111 -1.1159  1.3241
 9250SOL     OW39382   1.332   4.643   2.165  0.5852  0.2366  0.2005
 9250SOL    HW139383   1.420   4.674   2.146 -0.9052  4.1448 -0.2463
 9250SOL    HW239384   1.345   4.617   2.256  0.4450  2.9308  0.9679
 9251SOL     OW39385   2.239   4.089  10.171 -0.1613  0.1730 -0.2394
 9251SOL    HW139386   2.241   3.998  10.200 -0.7463  0.6857  1.3647
 9251SOL    HW239387   2.270   4.134  10.249 -2.5824 -0.2139  0.9477
 9252SOL     OW39388   0.010   3.196   6.922  0.7407 -0.2579 -0.8595
 9252SOL    HW139389   4.664   3.241   6.955  1.2910 -0.7730  1.1998
 9252SOL    HW239390   0.002   3.110   6.963  0.5616 -0.1158 -0.5915
 9253SOL     OW39391   0.290   1.997   3.088  0.1411  0.0903  0.1908
 9253SOL    HW139392   0.215   1.940   3.108 -1.2466  1.9799  0.4097
 9253SOL    HW239393   0.257   2.065   3.029  0.6622 -0.9732 -1.3457
 9254SOL     OW39394   3.800   4.073   6.386 -0.1931  0.2690 -0.2073
 9254SOL    HW139395   3.723   4.062   6.330 -0.8506  0.1171  0.7128
 9254SOL    HW239396   3.859   4.114   6.322 -0.1125  0.2305 -0.1577
 9255SOL     OW39397   1.753   0.245   6.567  0.1147  0.1514 -0.3330
 9255SOL    HW139398   1.681   0.184   6.585 -0.3461  0.2392 -1.8639
 9255SOL    HW239399   1.702   0.320   6.536  0.2587  0.1718 -0.5247
 9256SOL     OW39400   0.846   3.868  14.529 -0.3860  0.4353  0.4274
 9256SOL    HW139401   0.906   3.828  14.466 -0.9163  1.5929 -0.8236
 9256SOL    HW239402   0.847   3.950  14.479  0.5342  0.6998  0.8752
 9257SOL     OW39403   3.578   2.231   7.926  0.7896 -0.1129  0.1832
 9257SOL    HW139404   3.626   2.262   8.003  0.6800  3.0412 -0.9910
 9257SOL    HW239405   3.506   2.188   7.971  2.2612 -1.8820  0.8195
 9258SOL     OW39406   4.518   2.507  14.415  0.3767 -0.0098  0.4052
 9258SOL    HW139407   4.580   2.465  14.356 -0.4520 -1.8696  0.8511
 9258SOL    HW239408   4.579   2.576  14.442 -0.7636  0.5219  1.6344
 9259SOL     OW39409   2.997   3.357   8.997 -0.2728 -0.0832  0.1173
 9259SOL    HW139410   2.968   3.444   8.968 -1.2171 -0.2934  0.4415
 9259SOL    HW239411   2.936   3.334   9.066  2.6258 -1.8031  2.0951
 9260SOL     OW39412   1.905   3.914   5.232  0.3754  0.6374  0.2220
 9260SOL    HW139413   1.877   3.848   5.295 -2.3675  2.4541  0.9380
 9260SOL    HW239414   1.952   3.870   5.160 -0.4077 -3.3572  2.1732
 9261SOL     OW39415   3.006   2.391   3.378 -0.2395 -0.5225 -0.1175
 9261SOL    HW139416   3.091   2.371   3.418  1.0270  3.3070 -0.8432
 9261SOL    HW239417   2.993   2.301   3.349 -0.6089 -0.1667 -1.0411
 9262SOL     OW39418   1.508   1.239   6.423 -0.3390 -0.2824  0.7164
 9262SOL    HW139419   1.556   1.321   6.412 -1.8046  0.1145 -2.6313
 9262SOL    HW239420   1.563   1.185   6.366 -1.4537  0.2219 -0.8280
 9263SOL     OW39421   4.608   0.049  11.447 -0.6160  0.4580  0.4378
 9263SOL    HW139422   4.552   4.713  11.409 -1.0968  0.9707  0.2300
 9263SOL    HW239423   4.684   4.731  11.477  1.2231  2.8624 -0.1330
 9264SOL     OW39424   2.241   1.117   1.084 -0.6016  0.3287 -0.1330
 9264SOL    HW139425   2.165   1.110   1.141 -2.0492  0.5123 -2.0338
 9264SOL    HW239426   2.240   1.211   1.066 -1.8612  0.2958 -0.2817
 9265SOL     OW39427   3.402   0.656   4.903 -0.1299 -0.1060 -0.4598
 9265SOL    HW139428   3.485   0.654   4.951  0.6130 -2.2633 -1.8241
 9265SOL    HW239429   3.410   0.573   4.857 -0.6468  0.8478 -2.2852
 9266SOL     OW39430   2.723   4.147   3.895 -0.0735 -0.1086  0.0577
 9266SOL    HW139431   2.771   4.161   3.814 -0.5517  1.9639  0.1210
 9266SOL    HW239432   2.795   4.113   3.948  0.4345  2.4277  1.0028
 9267SOL     OW39433   4.717   4.037   2.932  0.0790 -0.3584  0.5321
 9267SOL    HW139434   0.032   4.118   2.913 -0.6071 -0.3675 -1.1539
 9267SOL    HW239435   4.668   4.031   2.850  0.4686 -0.8771  0.3332
 9268SOL     OW39436   2.233   2.113   2.222  0.1550  0.1562 -0.5841
 9268SOL    HW139437   2.286   2.186   2.253  1.1794 -0.4711 -0.8710
 9268SOL    HW239438   2.256   2.055   2.294  1.9932  0.4544 -0.9268
 9269SOL     OW39439   1.428   3.044   8.992 -0.3804  0.2861 -0.1294
 9269SOL    HW139440   1.443   3.094   8.912 -1.8572  0.9050 -0.0292
 9269SOL    HW239441   1.350   2.993   8.970  0.4032  0.3947 -3.1745
 9270SOL     OW39442   1.505   3.332  13.109 -0.5764 -0.6661 -0.3101
 9270SOL    HW139443   1.557   3.387  13.052 -2.5351  1.3113 -0.1681
 9270SOL    HW239444   1.460   3.404  13.153 -1.2239 -0.0792 -1.9619
 9271SOL     OW39445   4.679   3.032   7.116  0.2097  0.0196  0.1301
 9271SOL    HW139446   4.675   2.945   7.154 -1.2404  0.3532  0.7389
 9271SOL    HW239447   4.590   3.031   7.079 -0.0086  0.8719  0.6154
 9272SOL     OW39448   4.483   2.273   7.882  0.3300 -0.5891 -0.1769
 9272SOL    HW139449   4.461   2.205   7.946 -0.4785  1.4414  1.7234
 9272SOL    HW239450   4.394   2.284   7.849  0.3821 -2.5560 -0.9854
 9273SOL     OW39451   2.529   0.077   1.019 -0.4349  0.4335 -0.1687
 9273SOL    HW139452   2.604   0.120   1.060 -0.0899 -0.0254 -0.3087
 9273SOL    HW239453   2.576   0.006   0.974 -1.4814  0.0552 -0.6617
 9274SOL     OW39454   2.143   2.695  15.647  0.3895 -0.1010  0.3236
 9274SOL    HW139455   2.148   2.664  15.737  1.4180  1.7187  0.8971
 9274SOL    HW239456   2.232   2.729  15.635  0.2530  0.7802  1.8549
 9275SOL     OW39457   3.127   4.307   7.957 -0.1250  0.0519  0.2958
 9275SOL    HW139458   3.197   4.252   7.993 -1.2922 -0.7064  1.4222
 9275SOL    HW239459   3.048   4.291   8.009  0.5067 -2.0584  0.6123
 9276SOL     OW39460   3.071   4.443   0.831  0.1733 -0.2657 -0.1434
 9276SOL    HW139461   3.115   4.490   0.761  0.6801 -1.4204 -0.6114
 9276SOL    HW239462   3.116   4.488   0.902 -0.9759  1.9204 -0.8088
 9277SOL     OW39463   1.203   4.062   4.405  0.4729  0.3614 -0.4984
 9277SOL    HW139464   1.247   4.020   4.331 -0.4981 -2.7326  0.6830
 9277SOL    HW239465   1.281   4.099   4.448 -0.4376  0.9804  0.6129
 9278SOL     OW39466   2.900   0.667   7.707  0.1416 -0.5375 -0.0284
 9278SOL    HW139467   2.988   0.642   7.735  0.5653  2.5567  1.4492
 9278SOL    HW239468   2.917   0.755   7.675  2.2837 -0.4164  1.4349
 9279SOL     OW39469   0.374   1.012   4.760  0.0881  0.2030 -0.1703
 9279SOL    HW139470   0.423   0.951   4.705 -0.6269  0.4746 -1.1182
 9279SOL    HW239471   0.403   0.985   4.847  4.8703  0.3990 -1.7419
 9280SOL     OW39472   0.125   1.169   8.337  0.5582 -0.0373  0.3799
 9280SOL    HW139473   0.117   1.195   8.428  1.2812 -0.0236  0.4361
 9280SOL    HW239474   0.137   1.074   8.348  0.5005 -0.1288 -0.3056
 9281SOL     OW39475   4.007   0.235  14.345  0.1562 -0.1487 -0.5189
 9281SOL    HW139476   3.950   0.247  14.421  0.2567 -1.0866 -0.2923
 9281SOL    HW239477   3.951   0.236  14.267 -1.8253 -1.3897  0.8708
 9282SOL     OW39478   3.145   0.157   9.340  0.3146 -0.2069  0.5192
 9282SOL    HW139479   3.215   0.178   9.279 -0.9436 -1.8332 -1.4769
 9282SOL    HW239480   3.074   0.199   9.292  2.5410  0.8052 -1.8448
 9283SOL     OW39481   3.555   1.855   5.003 -0.0667  0.1775 -0.6191
 9283SOL    HW139482   3.571   1.907   5.082  2.2605  0.6292 -1.3952
 9283SOL    HW239483   3.509   1.780   5.041 -0.6370 -0.2492 -2.1818
 9284SOL     OW39484   2.616   1.925   2.224  0.2208  0.2674  0.3470
 9284SOL    HW139485   2.620   1.933   2.129  1.6023  2.9879  0.6201
 9284SOL    HW239486   2.690   1.978   2.252 -0.1645  0.8798  0.2158
 9285SOL     OW39487   0.529   3.906   2.021  0.2580  0.2133  0.1290
 9285SOL    HW139488   0.487   3.973   1.966 -0.4031 -0.2221  0.1095
 9285SOL    HW239489   0.533   3.831   1.963  1.2662 -1.0967  1.9164
 9286SOL     OW39490   3.928   4.482   6.406 -0.2149 -0.2340  0.3610
 9286SOL    HW139491   3.948   4.401   6.361  1.6099  0.2599  0.2659
 9286SOL    HW239492   4.011   4.505   6.448  0.7724  0.3277 -1.8866
 9287SOL     OW39493   1.733   0.584  15.001 -0.3343 -0.0512 -0.4080
 9287SOL    HW139494   1.809   0.637  15.023 -0.1920 -0.5120  0.2054
 9287SOL    HW239495   1.742   0.509  15.060  1.0932 -1.7403 -2.7491
 9288SOL     OW39496   1.727   3.812   1.207 -0.0102  0.4132 -0.4560
 9288SOL    HW139497   1.656   3.751   1.184 -0.0567  0.1322  0.4349
 9288SOL    HW239498   1.728   3.792   1.301 -0.8083  1.6778 -0.1653
 9289SOL     OW39499   4.583   2.731  15.683  0.8817 -0.2260 -0.1821
 9289SOL    HW139500   4.506   2.708  15.734 -0.0973  1.1665 -1.0234
 9289SOL    HW239501   4.646   2.767  15.746  0.1955 -0.0252  0.3944
 9290SOL     OW39502   0.098   2.043  13.024  0.5068  0.6991 -0.1806
 9290SOL    HW139503   0.053   2.127  13.034  1.2403  1.2082 -1.1839
 9290SOL    HW239504   0.082   2.033  12.930  0.5154 -1.3783  0.0474
 9291SOL     OW39505   2.626   0.133   8.479 -0.6025  0.1378 -0.3726
 9291SOL    HW139506   2.680   0.073   8.529 -1.6417 -0.5654 -0.1035
 9291SOL    HW239507   2.593   0.191   8.548  1.0298  0.7987 -0.1411
 9292SOL     OW39508   0.744   3.629  13.872  0.3168  0.2821 -0.5630
 9292SOL    HW139509   0.755   3.554  13.930 -1.6685  0.9098  0.6192
 9292SOL    HW239510   0.793   3.698  13.916 -0.3867 -0.5824  1.5541
 9293SOL     OW39511   0.650   2.995   4.516 -0.1524  0.3436  0.0941
 9293SOL    HW139512   0.728   3.039   4.483 -0.5643 -1.2649 -3.0544
 9293SOL    HW239513   0.686   2.921   4.565 -0.4989 -0.9872 -1.6318
 9294SOL     OW39514   3.661   1.350   0.631 -0.4954  0.3745  0.0642
 9294SOL    HW139515   3.657   1.376   0.539 -0.4616 -2.8294 -0.8733
 9294SOL    HW239516   3.699   1.428   0.670  0.1720 -1.6981  3.5795
 9295SOL     OW39517   0.828   0.125   1.070  0.0691  0.0711  0.2564
 9295SOL    HW139518   0.799   0.136   1.161 -0.2290 -2.3605  0.4696
 9295SOL    HW239519   0.891   0.196   1.060  0.5641 -0.6659 -1.8226
 9296SOL     OW39520   3.227   0.068   6.081 -0.1283  0.2334 -0.4673
 9296SOL    HW139521   3.221   0.153   6.037 -3.2977  1.7355  2.9117
 9296SOL    HW239522   3.313   0.044   6.047 -0.3031 -1.9647  0.6521
 9297SOL     OW39523   1.758   1.292   6.832 -0.2584 -0.4378 -0.3092
 9297SOL    HW139524   1.701   1.266   6.905  1.2813  2.6727  2.0377
 9297SOL    HW239525   1.704   1.280   6.754 -2.0540  0.0274  0.8608
 9298SOL     OW39526   0.319   1.588   2.332  0.6095  0.2143  0.1720
 9298SOL    HW139527   0.376   1.654   2.369  1.3942 -0.3475 -0.0314
 9298SOL    HW239528   0.384   1.518   2.340  0.2891  0.0272  1.0804
 9299SOL     OW39529   2.167   3.617   3.976 -0.6565  0.6557  0.2100
 9299SOL    HW139530   2.253   3.612   3.934 -1.9206 -2.1297 -2.1012
 9299SOL    HW239531   2.198   3.625   4.066  0.4490  0.7415 -0.1860
 9300SOL     OW39532   4.595   0.563   7.247 -0.3843 -0.2477  0.1292
 9300SOL    HW139533   4.573   0.604   7.330  1.9270  1.5507 -0.1332
 9300SOL    HW239534   4.657   0.625   7.208 -0.7113 -0.6904 -1.1129
 9301SOL     OW39535   3.727   0.473   3.337 -0.4497  0.0382  0.0468
 9301SOL    HW139536   3.673   0.527   3.279  0.4946  0.7560 -0.1595
 9301SOL    HW239537   3.795   0.532   3.369  0.2330  0.7628 -2.7916
 9302SOL     OW39538   2.560   0.890   8.194  0.4322  0.6472 -0.0219
 9302SOL    HW139539   2.510   0.895   8.112 -1.1031  1.2696  0.9540
 9302SOL    HW239540   2.639   0.937   8.169 -0.3634  2.1094  0.1976
 9303SOL     OW39541   1.294   0.718   7.125 -0.4661 -0.2286 -0.0005
 9303SOL    HW139542   1.334   0.679   7.048 -0.3092 -0.7736  0.3507
 9303SOL    HW239543   1.300   0.659   7.201 -3.7157  0.0236  0.4694
 9304SOL     OW39544   4.478   0.155   6.046  0.6353  0.3370 -0.1934
 9304SOL    HW139545   4.398   0.194   6.081 -1.6354 -2.5056 -2.3133
 9304SOL    HW239546   4.488   0.211   5.969  1.4350  1.2670  0.5850
 9305SOL     OW39547   1.847   0.256  16.434  0.3459 -0.2511 -0.1936
 9305SOL    HW139548   1.844   0.296  16.347  1.4256  0.6399  0.1862
 9305SOL    HW239549   1.941   0.261  16.452  0.6184 -1.0913 -1.3854
 9306SOL     OW39550   4.690   1.021   7.729  0.5401  0.4350 -0.1801
 9306SOL    HW139551   0.038   1.014   7.781 -1.6075 -3.5860  2.6534
 9306SOL    HW239552   4.648   1.101   7.760 -0.2445  1.0779 -2.8465
 9307SOL     OW39553   1.414   1.651   4.043 -0.3774  0.5337  0.8695
 9307SOL    HW139554   1.482   1.683   3.984 -1.1960 -2.2242 -1.5751
 9307SOL    HW239555   1.447   1.696   4.120 -1.6267  2.1317  0.4644
 9308SOL     OW39556   2.832   2.062   0.172  0.1005  0.0769  0.0660
 9308SOL    HW139557   2.851   1.975   0.135  2.1152  0.5847 -0.0808
 9308SOL    HW239558   2.862   2.113   0.098  1.2845 -0.4713  0.1734
 9309SOL     OW39559   0.781   1.928   7.683 -0.3013 -0.3040 -0.1809
 9309SOL    HW139560   0.828   1.874   7.746 -0.5399  0.7014  0.8649
 9309SOL    HW239561   0.703   1.875   7.664 -0.7879  0.0303  0.8870
 9310SOL     OW39562   1.938   2.389   7.509  0.1977  0.0866  0.0097
 9310SOL    HW139563   1.872   2.452   7.539 -0.8375 -1.3769  0.8192
 9310SOL    HW239564   1.955   2.428   7.423 -1.4517  0.1683 -0.2886
 9311SOL     OW39565   2.832   0.206   6.930  0.1132 -0.3507 -0.2621
 9311SOL    HW139566   2.866   0.135   6.875 -1.0754 -0.3167 -1.0400
 9311SOL    HW239567   2.761   0.166   6.981 -0.9797  0.1488 -1.4115
 9312SOL     OW39568   0.991   0.727   2.580 -0.5139 -0.2918  0.1365
 9312SOL    HW139569   0.965   0.809   2.622 -0.3586  0.2067 -0.7285
 9312SOL    HW239570   0.909   0.678   2.571 -0.8206  0.1418  0.5566
 9313SOL     OW39571   4.284   2.632   1.914  0.5175  0.0378  0.2080
 9313SOL    HW139572   4.270   2.702   1.850  2.2602  1.1441  1.0258
 9313SOL    HW239573   4.380   2.632   1.918  0.5053 -3.2445 -0.0661
 9314SOL     OW39574   2.604   1.350  12.542  0.0507 -0.0914  0.0086
 9314SOL    HW139575   2.532   1.293  12.570  0.6460  0.3795  2.5448
 9314SOL    HW239576   2.564   1.430  12.507  0.9622  1.1565  1.7519
 9315SOL     OW39577   3.608   1.790   2.924  0.1479 -0.1246 -0.0050
 9315SOL    HW139578   3.676   1.739   2.968 -0.2332  1.9325  2.9580
 9315SOL    HW239579   3.532   1.795   2.982  0.6655  0.7779  0.6110
 9316SOL     OW39580   1.613   2.990   4.721  0.4271 -0.5752 -0.1043
 9316SOL    HW139581   1.605   2.918   4.658  1.3506 -0.3528 -0.4766
 9316SOL    HW239582   1.602   3.062   4.658 -1.5051 -1.1457 -0.4125
 9317SOL     OW39583   0.461   0.580   4.544  0.2618  0.4240  0.0792
 9317SOL    HW139584   0.459   0.530   4.626  2.3063 -1.7159 -1.1513
 9317SOL    HW239585   0.369   0.568   4.523  0.6545 -2.9190  0.1329
 9318SOL     OW39586   4.436   2.016   5.890  0.0239  0.0522 -0.2998
 9318SOL    HW139587   4.420   2.050   5.802 -2.4638  0.5893  0.3748
 9318SOL    HW239588   4.524   1.982   5.872 -1.6110 -3.5713 -1.6284
 9319SOL     OW39589   3.019   4.723  14.937  0.2101  0.2610 -0.8093
 9319SOL    HW139590   2.962   4.698  15.009  2.0392  1.9348  1.2249
 9319SOL    HW239591   3.094   0.024  14.986  0.1945 -0.4560 -0.2929
 9320SOL     OW39592   3.870   3.022   3.725 -0.1478 -0.0665 -0.0118
 9320SOL    HW139593   3.899   2.953   3.786  1.6218 -0.1613 -0.9814
 9320SOL    HW239594   3.924   3.089   3.767  1.7472 -0.6869 -1.4932
 9321SOL     OW39595   1.138   2.965  11.215 -0.2732  0.4103  0.3028
 9321SOL    HW139596   1.146   3.038  11.154 -0.5839 -0.3478 -0.6547
 9321SOL    HW239597   1.044   2.957  11.198 -0.4376 -0.1958  1.5135
 9322SOL     OW39598   4.237   0.096   9.511  0.0663 -0.1177 -0.8825
 9322SOL    HW139599   4.284   0.024   9.552  1.7486  1.9940  0.9123
 9322SOL    HW239600   4.311   0.155   9.495 -0.2110 -0.1130 -2.1271
 9323SOL     OW39601   1.429   0.597  13.079  0.2664  0.1473 -0.0366
 9323SOL    HW139602   1.482   0.659  13.130  1.8097 -0.0600 -1.3753
 9323SOL    HW239603   1.350   0.591  13.132  1.1744  1.0838  1.4370
 9324SOL     OW39604   3.826   0.215  14.123 -0.5216  0.4312 -0.2106
 9324SOL    HW139605   3.785   0.298  14.100  0.4438  0.8504 -0.4077
 9324SOL    HW239606   3.840   0.190  14.032 -0.2539  0.7925 -0.2717
 9325SOL     OW39607   2.291   0.888   5.416  0.0926 -0.2178  0.4856
 9325SOL    HW139608   2.197   0.890   5.435  0.3255  1.2210  1.4744
 9325SOL    HW239609   2.310   0.975   5.382 -1.7824  1.1590  2.9352
 9326SOL     OW39610   3.580   2.516   4.696  0.4097  0.6210 -0.1627
 9326SOL    HW139611   3.572   2.422   4.679 -1.8860  0.7255  0.3213
 9326SOL    HW239612   3.490   2.540   4.718 -0.5617 -1.8253 -1.4970
 9327SOL     OW39613   4.521   0.318   5.100 -0.0952  0.3430 -0.0728
 9327SOL    HW139614   4.552   0.377   5.168 -2.7066  2.0437 -0.3562
 9327SOL    HW239615   4.605   0.277   5.080 -0.0006  0.2253  0.5585
 9328SOL     OW39616   2.643   3.934   9.902 -0.3113  0.2542 -0.5511
 9328SOL    HW139617   2.609   3.976   9.981 -2.3244  2.1185 -2.3940
 9328SOL    HW239618   2.584   3.972   9.836  0.1783  0.5997 -0.7886
 9329SOL     OW39619   1.086   4.289   7.044  0.7998  0.1925  0.1966
 9329SOL    HW139620   1.051   4.201   7.028  0.0117  0.5094  0.2172
 9329SOL    HW239621   1.052   4.301   7.133  1.9961  2.5969  0.3107
 9330SOL     OW39622   1.827   3.889  17.252 -0.1626 -0.0733 -0.4176
 9330SOL    HW139623   1.792   3.801  17.239 -0.5664  0.1147 -0.6182
 9330SOL    HW239624   1.917   3.864  17.272  0.1088  2.0889  1.0600
 9331SOL     OW39625   1.648   4.671   1.033  0.5399 -0.1580  0.2405
 9331SOL    HW139626   1.573   4.660   1.092 -0.8405  0.8142 -1.3156
 9331SOL    HW239627   1.700   4.732   1.086  1.1354  1.9863 -2.8018
 9332SOL     OW39628   0.305   3.596   2.672  0.5855  0.0685  0.6133
 9332SOL    HW139629   0.358   3.516   2.671 -0.4055 -0.6092  1.7040
 9332SOL    HW239630   0.312   3.619   2.580  0.4679  0.5235  0.7174
 9333SOL     OW39631   0.767   3.756   8.237 -0.6784  0.0762  0.1055
 9333SOL    HW139632   0.824   3.773   8.312  0.0057  2.1079 -0.8837
 9333SOL    HW239633   0.784   3.820   8.168 -1.5871  0.3374  0.1186
 9334SOL     OW39634   2.635   1.315   4.125  0.4028  0.0594  0.6432
 9334SOL    HW139635   2.634   1.392   4.069  1.1934 -0.0938  0.4158
 9334SOL    HW239636   2.548   1.277   4.112 -0.0631  1.3955 -0.1401
 9335SOL     OW39637   2.557   4.282   6.125  0.3243  0.0008  0.7340
 9335SOL    HW139638   2.498   4.241   6.188 -1.3512  2.8342  1.0270
 9335SOL    HW239639   2.513   4.364   6.104 -0.2213 -1.5043 -4.0026
 9336SOL     OW39640   1.349   3.292  10.549 -0.3158 -0.2879 -0.1077
 9336SOL    HW139641   1.382   3.220  10.495 -0.1228 -0.1841 -0.1274
 9336SOL    HW239642   1.420   3.355  10.538 -1.0127  0.6002  0.5493
 9337SOL     OW39643   1.002   1.473  16.784  0.1819 -0.0143  0.1751
 9337SOL    HW139644   0.929   1.506  16.836  0.8507  2.8696 -0.6961
 9337SOL    HW239645   1.065   1.482  16.856  1.4271  1.6133 -1.1129
 9338SOL     OW39646   1.622   3.949   8.698 -0.0740  0.1326 -0.2490
 9338SOL    HW139647   1.691   4.015   8.702 -0.5277  0.6014 -0.2287
 9338SOL    HW239648   1.566   3.993   8.761 -1.0875  2.2075 -2.6242
 9339SOL     OW39649   0.686   3.675  13.214 -0.4946 -0.0352  0.0228
 9339SOL    HW139650   0.699   3.735  13.141  0.1543 -0.1853  0.0102
 9339SOL    HW239651   0.706   3.726  13.293  1.6938  0.0828 -0.5969
 9340SOL     OW39652   3.104   2.665  11.395  0.0090 -0.1529 -0.0778
 9340SOL    HW139653   3.018   2.626  11.376  0.9896 -1.9787 -0.7491
 9340SOL    HW239654   3.113   2.715  11.314  0.6448  0.9229  0.6695
 9341SOL     OW39655   0.042   3.162   2.485  0.0140  0.1940  0.8662
 9341SOL    HW139656   4.685   3.127   2.490 -0.2290  0.5857 -0.5155
 9341SOL    HW239657   0.071   3.153   2.575 -1.1937 -1.6645  1.0637
 9342SOL     OW39658   2.444   1.928   6.331 -0.4606  0.2496 -0.0691
 9342SOL    HW139659   2.530   1.970   6.334 -0.3869  0.0772  0.2885
 9342SOL    HW239660   2.468   1.851   6.279  0.0916  1.0589 -1.0246
 9343SOL     OW39661   2.152   1.630   6.243 -0.6200 -0.1217  0.5532
 9343SOL    HW139662   2.063   1.656   6.268 -0.2228  0.4093  1.4331
 9343SOL    HW239663   2.137   1.589   6.158  0.1921 -0.7205  0.6956
 9344SOL     OW39664   4.678   0.082   8.556 -0.7007  0.0037 -0.0008
 9344SOL    HW139665   0.009   0.095   8.627 -1.2912  1.5165  0.2658
 9344SOL    HW239666   4.674   4.719   8.549  1.3790 -0.1789  1.1630
 9345SOL     OW39667   0.469   0.127  10.300  0.1107 -0.2340  0.2246
 9345SOL    HW139668   0.472   0.222  10.287  2.2901 -0.3142  0.0650
 9345SOL    HW239669   0.405   0.119  10.371  0.1828  3.8192  0.8038
 9346SOL     OW39670   0.052   1.367   6.307 -0.4087  0.0705 -0.4233
 9346SOL    HW139671   0.137   1.390   6.344 -1.1122  2.8786 -0.5100
 9346SOL    HW239672   0.064   1.339   6.216 -1.7721  2.1623 -1.2479
 9347SOL     OW39673   2.683   3.908   6.049  0.2436 -0.2942  0.2851
 9347SOL    HW139674   2.589   3.912   6.063  0.3539  1.2083  0.5922
 9347SOL    HW239675   2.697   3.819   6.018 -0.7098 -0.6290  0.8156
 9348SOL     OW39676   3.682   2.173   5.555  0.4217  0.5460  0.2398
 9348SOL    HW139677   3.745   2.143   5.489  0.4553 -0.3163  0.6647
 9348SOL    HW239678   3.703   2.113   5.627  1.0094  1.2035  0.6130
 9349SOL     OW39679   3.929   2.815   8.423  0.6552  0.4782 -0.0755
 9349SOL    HW139680   3.905   2.837   8.333  1.5816  1.8112 -0.0005
 9349SOL    HW239681   3.857   2.864   8.465  0.9318 -0.9809  2.1155
 9350SOL     OW39682   3.575   4.491   5.864 -0.4401 -0.1633  0.7661
 9350SOL    HW139683   3.592   4.555   5.795  1.6907 -1.6175 -0.0608
 9350SOL    HW239684   3.662   4.453   5.873  0.3508  1.0467 -1.6681
 9351SOL     OW39685   4.004   1.805   5.910  0.4712 -0.2211  0.1616
 9351SOL    HW139686   4.084   1.807   5.963  1.7576 -1.2639 -1.7401
 9351SOL    HW239687   4.050   1.797   5.827  0.6850  1.1960  0.1581
 9352SOL     OW39688   4.487   0.258   4.085  0.2136 -0.0000  0.2939
 9352SOL    HW139689   4.401   0.299   4.097  0.3780  0.8976 -1.6048
 9352SOL    HW239690   4.529   0.336   4.049  0.4675 -0.6214 -0.7530
 9353SOL     OW39691   0.630   0.326   8.808 -0.2195 -0.0096  0.4584
 9353SOL    HW139692   0.700   0.383   8.776  0.7983 -0.1538  2.4068
 9353SOL    HW239693   0.684   0.249   8.826 -0.4918 -0.2363  0.3038
 9354SOL     OW39694   1.668   3.512   8.718 -0.2861 -0.5278 -0.0189
 9354SOL    HW139695   1.671   3.449   8.645 -0.3688  0.2162 -0.6671
 9354SOL    HW239696   1.669   3.591   8.665  1.2378 -0.4494  0.1136
 9355SOL     OW39697   2.332   4.398   0.061 -0.1300 -0.4458 -0.0801
 9355SOL    HW139698   2.269   4.376  17.721 -0.3195 -1.5623  0.4490
 9355SOL    HW239699   2.275   4.452   0.116 -0.4393 -0.8243 -0.0198
 9356SOL     OW39700   4.584   3.926  13.316 -0.5397  0.0161  0.3457
 9356SOL    HW139701   4.595   3.898  13.225  0.3279  0.1307  0.4080
 9356SOL    HW239702   4.490   3.926  13.329 -0.6943 -1.0245 -0.8411
 9357SOL     OW39703   1.700   2.715   4.862  0.0845  0.2306 -0.2531
 9357SOL    HW139704   1.738   2.799   4.887  0.0559 -0.1246  0.9787
 9357SOL    HW239705   1.681   2.735   4.771  3.7363  1.6462 -0.7043
 9358SOL     OW39706   4.402   0.066   8.303 -0.1858 -0.0615  0.5103
 9358SOL    HW139707   4.459   0.128   8.349 -0.0996 -0.3154  0.7465
 9358SOL    HW239708   4.391   0.129   8.232 -0.1004  1.3065  1.7194
 9359SOL     OW39709   4.131   4.335  14.714  0.3340  0.0437 -0.2671
 9359SOL    HW139710   4.108   4.419  14.755 -1.0067  0.8543 -2.6664
 9359SOL    HW239711   4.088   4.343  14.629 -1.2128  0.2274  0.5349
 9360SOL     OW39712   3.339   0.941   8.885 -0.2106  0.0842 -0.2154
 9360SOL    HW139713   3.377   0.854   8.883 -1.4835 -0.4861  0.3125
 9360SOL    HW239714   3.245   0.923   8.877 -0.1272 -0.7685  0.7358
 9361SOL     OW39715   1.075   4.562   1.868  0.1878 -0.4058  0.0175
 9361SOL    HW139716   1.149   4.612   1.903  1.4935 -2.3688  0.0546
 9361SOL    HW239717   1.003   4.569   1.930  1.0735  0.6022  0.9404
 9362SOL     OW39718   3.382   0.969  10.550  0.6716 -0.4761 -0.3060
 9362SOL    HW139719   3.320   0.941  10.482  1.1803  1.5638 -1.5916
 9362SOL    HW239720   3.382   1.064  10.539 -0.9425 -0.2146  1.8578
 9363SOL     OW39721   1.187   4.529  17.447  0.1780  0.3110  0.3576
 9363SOL    HW139722   1.211   4.481  17.367 -2.3202 -1.1950  0.5082
 9363SOL    HW239723   1.149   4.614  17.424  1.5924  1.4691  2.4156
 9364SOL     OW39724   4.134   1.404  17.192 -0.3323  0.1667 -0.1604
 9364SOL    HW139725   4.134   1.499  17.203  0.1904  0.1775 -0.2467
 9364SOL    HW239726   4.046   1.400  17.154 -0.1372 -0.4397 -0.5542
 9365SOL     OW39727   1.942   2.394   5.605  0.0062 -0.0429  0.3189
 9365SOL    HW139728   1.973   2.406   5.695 -0.9020 -1.3952  0.8153
 9365SOL    HW239729   1.884   2.469   5.594  0.7466  0.3621 -0.8107
 9366SOL     OW39730   0.956   1.258   5.856  0.2070 -0.6141  0.3307
 9366SOL    HW139731   0.953   1.324   5.925 -1.4863 -0.9239  0.5544
 9366SOL    HW239732   1.048   1.266   5.830  0.2686  2.5799  1.6322
 9367SOL     OW39733   3.308   1.509   1.540 -0.0935 -0.2412 -0.5199
 9367SOL    HW139734   3.360   1.473   1.612 -0.0436  2.7096  0.8990
 9367SOL    HW239735   3.271   1.427   1.507  0.6253 -2.2779  3.7276
 9368SOL     OW39736   1.728   3.325   7.655 -0.2387  0.0465  0.2665
 9368SOL    HW139737   1.669   3.300   7.726 -1.3904 -0.7290 -0.9420
 9368SOL    HW239738   1.685   3.266   7.592  0.5875 -2.5756  2.1558
 9369SOL     OW39739   0.076   2.503   1.444 -1.2139  0.0473 -0.2188
 9369SOL    HW139740   0.084   2.578   1.503  1.4793 -0.0587 -0.4578
 9369SOL    HW239741   0.023   2.444   1.498 -0.9162  0.2867  0.3397
 9370SOL     OW39742   1.405   4.306   1.076  0.1210  0.2971  0.9697
 9370SOL    HW139743   1.499   4.316   1.066  0.2228  0.8692  2.5830
 9370SOL    HW239744   1.379   4.327   1.166  0.9787 -2.0854  1.7752
 9371SOL     OW39745   4.413   0.083  15.067  0.5026 -0.2974 -0.2322
 9371SOL    HW139746   4.334   0.136  15.074 -0.0118 -0.8295 -1.8858
 9371SOL    HW239747   4.465   0.106  15.144 -0.2179  0.0358  0.1515
 9372SOL     OW39748   3.052   0.793   2.838 -0.3277 -1.2303 -0.4808
 9372SOL    HW139749   3.034   0.829   2.925  3.2111  0.8738 -0.6106
 9372SOL    HW239750   3.146   0.776   2.834  0.1397  1.1757  0.1468
 9373SOL     OW39751   2.818   0.940  10.649 -0.3514  0.2580  0.2943
 9373SOL    HW139752   2.771   0.859  10.666 -1.3264  1.5748  3.8500
 9373SOL    HW239753   2.850   0.920  10.561  0.1694  2.2313  0.0319
 9374SOL     OW39754   4.128   1.755  15.352 -0.3294 -0.1704  0.0840
 9374SOL    HW139755   4.034   1.741  15.356 -0.5290  2.0617  3.0631
 9374SOL    HW239756   4.141   1.803  15.433 -0.6056 -2.6285  1.5877
 9375SOL     OW39757   2.770   3.640   7.102 -0.4469  0.4213 -0.0470
 9375SOL    HW139758   2.780   3.586   7.181  0.9963 -0.9323 -1.1574
 9375SOL    HW239759   2.792   3.728   7.133 -0.8604  0.1241  1.1092
 9376SOL     OW39760   3.702   1.994   0.125 -0.3323 -0.1060 -0.3737
 9376SOL    HW139761   3.700   1.966   0.034  0.7543 -0.2976 -0.3423
 9376SOL    HW239762   3.617   2.035   0.137 -1.2436 -2.3329  0.6006
 9377SOL     OW39763   2.488   1.736   4.916 -0.5956  0.5989 -0.5477
 9377SOL    HW139764   2.424   1.733   4.845  0.9939  0.6357 -2.0022
 9377SOL    HW239765   2.458   1.816   4.958 -0.4580  0.0889  0.5376
 9378SOL     OW39766   2.137   3.611   9.214 -0.4017  0.6666  0.5703
 9378SOL    HW139767   2.075   3.552   9.255  1.9992 -1.8018  0.6545
 9378SOL    HW239768   2.225   3.576   9.229 -1.6386 -2.2104  0.9084
 9379SOL     OW39769   4.541   0.157  10.276 -0.2358 -0.3680  0.2696
 9379SOL    HW139770   4.565   0.224  10.212 -0.4582  0.2072  0.7901
 9379SOL    HW239771   4.499   0.210  10.343  0.9919 -0.2832  0.9846
 9380SOL     OW39772   4.604   0.910  10.298 -1.1484 -0.5396  0.2449
 9380SOL    HW139773   4.570   0.998  10.282 -0.8471 -0.1370  1.8688
 9380SOL    HW239774   4.698   0.925  10.308 -0.9618 -1.7405  0.2693
 9381SOL     OW39775   2.393   1.268   6.524 -0.4969  0.3143  0.2025
 9381SOL    HW139776   2.431   1.355   6.536  0.6345 -0.3361  1.4382
 9381SOL    HW239777   2.308   1.266   6.568  0.1651  0.4188  1.4943
 9382SOL     OW39778   2.872   2.167   3.171 -0.3667 -0.6414  0.1505
 9382SOL    HW139779   2.793   2.152   3.119  0.7815 -1.3681 -1.3778
 9382SOL    HW239780   2.930   2.216   3.112 -0.5649  0.6497  1.0399
 9383SOL     OW39781   0.468   2.678   5.869  0.0805  0.3743 -0.1740
 9383SOL    HW139782   0.556   2.645   5.849 -0.5831 -1.2288 -0.4186
 9383SOL    HW239783   0.449   2.642   5.956  0.9304 -0.1190 -0.1917
 9384SOL     OW39784   0.226   2.857   2.937  0.1803 -0.2514 -0.4729
 9384SOL    HW139785   0.217   2.934   2.882 -1.1380  0.5742  0.8959
 9384SOL    HW239786   0.201   2.781   2.884 -1.0496  0.3512 -0.7488
 9385SOL     OW39787   4.066   2.366   2.319  0.1476  0.0115  0.4780
 9385SOL    HW139788   4.100   2.402   2.401  0.8253  0.5850 -0.0531
 9385SOL    HW239789   4.000   2.430   2.292 -0.6079 -0.2556  1.6786
 9386SOL     OW39790   1.458   1.747  15.069  0.3047  0.4516 -0.2789
 9386SOL    HW139791   1.482   1.839  15.074  1.4593  0.1820 -0.8118
 9386SOL    HW239792   1.439   1.727  15.161 -2.6750  0.0600 -0.9855
 9387SOL     OW39793   1.747   0.054   1.463  0.3940  0.4504 -0.4359
 9387SOL    HW139794   1.670   0.108   1.477 -0.0598 -0.0369 -1.0419
 9387SOL    HW239795   1.779   0.045   1.553  0.7617  1.7415 -0.4382
 9388SOL     OW39796   3.666   0.569  10.441 -0.2712 -0.3024 -0.3133
 9388SOL    HW139797   3.717   0.536  10.515 -2.7682  0.8074  1.9116
 9388SOL    HW239798   3.576   0.545  10.463  0.2458 -1.1500  0.8585
 9389SOL     OW39799   3.055   0.362   3.174 -0.0322  0.3247 -0.1608
 9389SOL    HW139800   3.052   0.393   3.084  0.4496  0.4935 -0.1200
 9389SOL    HW239801   3.036   0.268   3.172  0.1038  0.3056 -0.5364
 9390SOL     OW39802   2.757   3.956  10.310  0.0191 -0.4572  0.0639
 9390SOL    HW139803   2.757   4.049  10.289 -1.7860 -0.3310  0.6266
 9390SOL    HW239804   2.687   3.934  10.248 -1.8470  0.4553  1.8526
 9391SOL     OW39805   2.240   1.418   4.132 -0.3610  0.0080  0.2151
 9391SOL    HW139806   2.249   1.466   4.215 -1.3678  0.9047 -0.1867
 9391SOL    HW239807   2.196   1.486   4.080 -1.4056 -0.6944  0.1822
 9392SOL     OW39808   1.662   2.489   5.019 -0.0615  0.0189 -0.4046
 9392SOL    HW139809   1.654   2.570   4.968 -0.7686  0.2592  0.0701
 9392SOL    HW239810   1.616   2.503   5.102 -2.9935 -0.9705 -1.8710
 9393SOL     OW39811   3.673   3.615  12.726 -0.0343 -0.1795  0.5005
 9393SOL    HW139812   3.718   3.560  12.661 -1.4347 -0.1499 -0.4916
 9393SOL    HW239813   3.579   3.601  12.717 -0.3638  3.0958 -1.1125
 9394SOL     OW39814   3.900   3.397   3.685  0.5316 -0.4065 -0.2600
 9394SOL    HW139815   3.805   3.391   3.690  0.6448 -0.8040  1.4102
 9394SOL    HW239816   3.910   3.482   3.729  0.5736 -0.2946 -0.4858
 9395SOL     OW39817   3.138   1.749  14.086  0.2278 -0.2948 -0.1873
 9395SOL    HW139818   3.170   1.680  14.144 -0.1292  0.8714  1.3948
 9395SOL    HW239819   3.044   1.731  14.088  0.2118  0.1837  2.7845
 9396SOL     OW39820   0.207   1.402   4.852 -0.4872  0.0489  0.2637
 9396SOL    HW139821   0.117   1.420   4.879 -0.5558  0.8484 -0.4929
 9396SOL    HW239822   0.245   1.384   4.938 -0.3749 -0.8720  0.0201
 9397SOL     OW39823   1.363   3.913   6.159  0.5959 -0.3567 -0.1548
 9397SOL    HW139824   1.411   3.994   6.172 -0.9433  0.5401 -0.0926
 9397SOL    HW239825   1.430   3.844   6.163  1.2174  0.3577  1.5937
 9398SOL     OW39826   1.706   0.269   8.589 -0.0265 -0.1732 -0.2933
 9398SOL    HW139827   1.794   0.288   8.623  0.7569  1.0577 -2.9742
 9398SOL    HW239828   1.668   0.357   8.585 -0.9993 -0.5666  0.3882
 9399SOL     OW39829   1.670   2.669   0.865 -0.3371 -0.0748 -0.0303
 9399SOL    HW139830   1.586   2.694   0.904 -0.1054  1.2214 -0.3378
 9399SOL    HW239831   1.740   2.722   0.904  0.0586 -0.3921 -0.3110
 9400SOL     OW39832   3.314   2.994   6.585  0.6034  0.4873  0.1194
 9400SOL    HW139833   3.382   2.931   6.607  0.3509  0.9259  2.1460
 9400SOL    HW239834   3.246   2.939   6.547  1.4146 -1.6837  1.7928
 9401SOL     OW39835   2.387   1.218   4.221 -0.2455 -0.1718 -0.2768
 9401SOL    HW139836   2.328   1.284   4.187 -0.1187  1.3266  2.3983
 9401SOL    HW239837   2.344   1.203   4.305 -0.1140  1.6123  0.1039
 9402SOL     OW39838   1.772   3.969   3.554 -0.6462  0.5068  0.4907
 9402SOL    HW139839   1.698   3.958   3.494  2.9328  0.4844 -3.9740
 9402SOL    HW239840   1.798   4.058   3.533  3.3967 -0.9306 -0.5472
 9403SOL     OW39841   3.638   2.674   0.055 -0.4115 -0.0962 -0.2896
 9403SOL    HW139842   3.582   2.598   0.068 -0.1304  0.3429  3.4760
 9403SOL    HW239843   3.728   2.650   0.078 -0.8952  0.8807  2.6525
 9404SOL     OW39844   1.339   4.431   5.353  0.0181 -0.3173  0.2984
 9404SOL    HW139845   1.292   4.367   5.407 -0.6595  0.4278  0.5998
 9404SOL    HW239846   1.359   4.488   5.427 -0.7670 -0.8939  0.9608
 9405SOL     OW39847   0.614   3.419  11.151 -0.8397  0.1754  0.7659
 9405SOL    HW139848   0.628   3.462  11.067  0.3358 -0.9136  0.4070
 9405SOL    HW239849   0.676   3.347  11.141 -1.1095  0.1942 -1.1201
 9406SOL     OW39850   4.072   1.479  15.203  0.1610 -0.4057 -0.4298
 9406SOL    HW139851   4.111   1.565  15.215 -0.8234  0.1308 -1.0579
 9406SOL    HW239852   3.982   1.503  15.182 -0.8898 -3.0645  1.0261
 9407SOL     OW39853   1.092   1.882   6.873 -0.4859 -0.0634 -0.2186
 9407SOL    HW139854   1.120   1.881   6.781  1.2145  3.1290  0.2847
 9407SOL    HW239855   1.101   1.976   6.888 -2.0814  0.2006 -0.9153
 9408SOL     OW39856   0.820   4.417  13.882 -0.0571 -0.0620  0.6786
 9408SOL    HW139857   0.821   4.343  13.943  0.1339 -1.3637 -0.9042
 9408SOL    HW239858   0.910   4.406  13.852 -0.2312 -0.1028  0.1798
 9409SOL     OW39859   0.756   1.346   3.295 -0.0195 -0.2171 -0.2761
 9409SOL    HW139860   0.660   1.352   3.296 -0.0065 -0.1797  1.1507
 9409SOL    HW239861   0.767   1.282   3.366 -0.5404 -0.3212 -0.2869
 9410SOL     OW39862   1.282   0.605  14.640  0.8041  0.0617  0.3627
 9410SOL    HW139863   1.225   0.539  14.601  0.7779 -0.2372  0.9069
 9410SOL    HW239864   1.370   0.570  14.622  0.4747  0.0565 -1.2385
 9411SOL     OW39865   2.859   2.692   6.958  0.1080  0.1760 -0.1336
 9411SOL    HW139866   2.896   2.704   7.045  2.3912  1.8943 -1.3230
 9411SOL    HW239867   2.896   2.769   6.913 -0.8334  1.0342  0.5661
 9412SOL     OW39868   3.477   1.678   3.559  0.0283 -0.1687  0.3715
 9412SOL    HW139869   3.383   1.690   3.568  0.1553  0.2603  1.1482
 9412SOL    HW239870   3.496   1.584   3.560 -2.0190 -0.5843 -0.5789
 9413SOL     OW39871   1.623   3.558   0.361 -0.4723 -0.0309  0.2369
 9413SOL    HW139872   1.686   3.511   0.416  1.0968 -0.8657 -2.2616
 9413SOL    HW239873   1.612   3.486   0.298 -0.2392 -1.4992  1.8658
 9414SOL     OW39874   0.297   1.949   2.211  0.1799  0.1453  0.1965
 9414SOL    HW139875   0.329   2.001   2.137  1.8890 -1.0669  0.0744
 9414SOL    HW239876   0.229   1.888   2.181 -0.2161  0.8860 -0.3991
 9415SOL     OW39877   1.867   3.102   0.461  0.9207 -0.3568  0.6749
 9415SOL    HW139878   1.829   3.109   0.549 -1.1405  1.9159 -0.4008
 9415SOL    HW239879   1.844   3.182   0.415 -1.5603 -0.7923  1.1923
 9416SOL     OW39880   0.608   0.111   0.016  0.0312  0.3739  0.1803
 9416SOL    HW139881   0.559   0.048  17.692  0.1178 -0.5032  1.1289
 9416SOL    HW239882   0.693   0.111  17.702  0.3827  0.6589  0.8809
 9417SOL     OW39883   0.171   4.316   2.297 -0.4536  0.3952  0.1025
 9417SOL    HW139884   0.100   4.261   2.264 -0.0701 -0.6209  0.9902
 9417SOL    HW239885   0.167   4.312   2.392 -1.0306 -0.3968  0.0469
 9418SOL     OW39886   3.952   2.495   7.080  0.4505  0.5668 -0.1673
 9418SOL    HW139887   3.925   2.574   7.033 -3.2153 -0.4770  0.1963
 9418SOL    HW239888   3.874   2.440   7.070 -0.0694  1.1081  0.9627
 9419SOL     OW39889   1.095   2.322   4.159 -0.3163  0.6047 -0.3504
 9419SOL    HW139890   1.148   2.281   4.227 -2.1792  1.4670  1.6123
 9419SOL    HW239891   1.046   2.251   4.118 -1.2704  1.4723 -0.6976
 9420SOL     OW39892   0.826   2.948   6.493  0.1741 -0.0998 -0.2606
 9420SOL    HW139893   0.791   2.880   6.434 -0.1167  1.2380 -1.6455
 9420SOL    HW239894   0.914   2.951   6.455 -1.0873 -1.8446 -3.3528
 9421SOL     OW39895   3.727   2.732   9.401 -0.2242 -0.3341 -0.5753
 9421SOL    HW139896   3.719   2.679   9.481  2.3934 -1.0814 -0.8066
 9421SOL    HW239897   3.811   2.704   9.364 -1.1739 -3.5606 -0.2585
 9422SOL     OW39898   3.816   3.491   2.584  0.4198 -0.4258 -0.0132
 9422SOL    HW139899   3.813   3.562   2.520  1.4085  0.5577  1.0414
 9422SOL    HW239900   3.845   3.535   2.664  0.7706  0.5344 -0.6642
 9423SOL     OW39901   4.346   1.751   2.039  0.3074 -0.7842 -0.2381
 9423SOL    HW139902   4.384   1.673   2.078 -0.4289  0.0107  2.0846
 9423SOL    HW239903   4.425   1.778   1.992  1.5919 -0.4559  2.1320
 9424SOL     OW39904   0.033   1.892   6.762  0.9546 -0.1120 -0.9011
 9424SOL    HW139905   4.688   1.840   6.741  1.4182 -1.1763  0.0875
 9424SOL    HW239906   0.090   1.840   6.819 -0.8030  0.9669  1.8326
 9425SOL     OW39907   2.162   0.146   0.298 -0.4034  0.2587  0.2562
 9425SOL    HW139908   2.221   0.188   0.361 -0.0799  0.1048  0.0551
 9425SOL    HW239909   2.093   0.110   0.354  2.9263 -1.3843  3.2885
 9426SOL     OW39910   3.153   4.222   7.187 -0.0394  0.0706  0.2760
 9426SOL    HW139911   3.205   4.300   7.168 -0.2016  0.2368  0.5152
 9426SOL    HW239912   3.175   4.169   7.110  2.5000  1.5035  0.0180
 9427SOL     OW39913   0.434   3.801   9.146 -0.4034 -0.1136 -0.1376
 9427SOL    HW139914   0.341   3.803   9.171 -0.3064  0.1275  0.1942
 9427SOL    HW239915   0.421   3.839   9.058 -0.9908  0.3374  0.1367
 9428SOL     OW39916   2.055   1.360   8.489 -0.5671 -0.2262 -0.3179
 9428SOL    HW139917   2.016   1.358   8.401 -1.0893  1.0995 -0.1282
 9428SOL    HW239918   2.020   1.437   8.534 -0.9817  0.3143 -1.5553
 9429SOL     OW39919   4.598   0.095   9.400 -0.1330 -0.4445 -0.0980
 9429SOL    HW139920   4.647   0.170   9.433  2.2844 -1.5163 -1.3113
 9429SOL    HW239921   4.562   0.127   9.317 -0.1880  0.2401  0.1884
 9430SOL     OW39922   4.663   0.496   9.659 -0.1237  0.3764 -0.1687
 9430SOL    HW139923   4.659   0.515   9.753 -0.5741  1.4036 -0.3902
 9430SOL    HW239924   4.719   0.567   9.627  0.1822  0.4971  0.6224
 9431SOL     OW39925   1.004   2.629   5.394 -0.6550 -0.3199  0.1163
 9431SOL    HW139926   1.014   2.707   5.449  1.0285 -1.2021  1.0355
 9431SOL    HW239927   1.094   2.598   5.386 -1.0853 -1.4647 -0.1598
 9432SOL     OW39928   1.316   2.969   7.962 -0.1754  0.0091  0.1410
 9432SOL    HW139929   1.243   2.941   8.017 -0.9559 -0.4539 -1.1150
 9432SOL    HW239930   1.306   2.900   7.896  0.2925 -1.2373  1.3708
 9433SOL     OW39931   1.378   3.249   6.077 -0.2240  0.2440  0.5376
 9433SOL    HW139932   1.427   3.265   6.158 -0.7482  0.3969  0.8234
 9433SOL    HW239933   1.443   3.272   6.011 -0.6223 -0.0939  0.0306
 9434SOL     OW39934   3.667   4.172   3.241 -0.2235 -0.3050 -0.0121
 9434SOL    HW139935   3.680   4.150   3.333  0.3657 -1.7272 -0.4288
 9434SOL    HW239936   3.670   4.084   3.202 -2.1724 -0.1160 -0.5959
 9435SOL     OW39937   4.437   3.373   4.935  0.2602 -0.3805  0.0325
 9435SOL    HW139938   4.436   3.308   4.865  2.4767 -0.0820 -0.2869
 9435SOL    HW239939   4.409   3.323   5.011 -0.0768 -1.2432 -0.6650
 9436SOL     OW39940   3.293   3.124   6.113 -0.4394  0.1204  0.1976
 9436SOL    HW139941   3.339   3.155   6.035  3.4123 -5.3532  0.3029
 9436SOL    HW239942   3.336   3.185   6.173 -0.8464  0.2937  0.3116
 9437SOL     OW39943   4.501   1.706  13.520 -0.3223  0.0817  0.1469
 9437SOL    HW139944   4.540   1.619  13.522  3.1347  1.5855 -2.0015
 9437SOL    HW239945   4.479   1.720  13.612  0.0779 -0.4191  0.3144
 9438SOL     OW39946   2.115   4.473   5.777  0.2956  0.4987 -0.3356
 9438SOL    HW139947   2.125   4.565   5.753  2.8208 -0.0412 -1.3974
 9438SOL    HW239948   2.122   4.435   5.689  0.7171 -3.0908  1.2822
 9439SOL     OW39949   0.894   0.961   3.762  0.2520  0.0299  0.1592
 9439SOL    HW139950   0.906   0.894   3.695 -0.7721  0.4995 -0.5016
 9439SOL    HW239951   0.975   1.010   3.749  1.4590 -2.3070 -1.1332
 9440SOL     OW39952   1.256   1.069   2.204 -0.3743 -0.5442  0.0463
 9440SOL    HW139953   1.186   1.047   2.265  1.8498 -0.2359  2.7343
 9440SOL    HW239954   1.316   0.997   2.226  0.1571  0.1146  0.7721
 9441SOL     OW39955   4.134   4.600   2.773  0.5555 -0.0193  0.2628
 9441SOL    HW139956   4.107   4.521   2.819  0.4204  0.4818  1.0300
 9441SOL    HW239957   4.220   4.615   2.812  0.9549  1.9856 -1.3946
 9442SOL     OW39958   0.947   0.022   1.467  0.2466  0.2691  0.2578
 9442SOL    HW139959   0.930   0.108   1.428 -0.4783  0.9327  2.0393
 9442SOL    HW239960   0.902   0.026   1.552 -1.6500 -2.4042 -0.6136
 9443SOL     OW39961   0.864   3.227   7.195 -0.0752 -0.0886  0.0172
 9443SOL    HW139962   0.890   3.160   7.258  0.4397  1.2849  1.2734
 9443SOL    HW239963   0.770   3.233   7.216 -0.0315 -0.2484  0.2612
 9444SOL     OW39964   3.207   2.382  12.918 -0.0561 -0.2022 -0.6664
 9444SOL    HW139965   3.197   2.436  12.839  1.5183 -0.1943 -0.8513
 9444SOL    HW239966   3.288   2.424  12.947 -0.6059  1.2817 -1.2686
 9445SOL     OW39967   0.987   2.763   3.533  0.5714 -0.3197 -0.1096
 9445SOL    HW139968   1.007   2.739   3.443 -0.1063  2.2736 -0.9648
 9445SOL    HW239969   1.078   2.776   3.561  0.4336 -2.0274  1.0959
 9446SOL     OW39970   2.313   2.620   9.993 -0.4064  0.4676  0.4946
 9446SOL    HW139971   2.308   2.532  10.030  0.1874  0.6903  1.0981
 9446SOL    HW239972   2.374   2.663  10.052  1.3692 -0.9982 -0.2704
 9447SOL     OW39973   4.073   3.399   9.422 -0.6449 -0.3523 -0.0382
 9447SOL    HW139974   4.081   3.357   9.507  0.8100  1.1623  0.5834
 9447SOL    HW239975   3.990   3.358   9.399 -1.3881  1.8590 -1.3061
 9448SOL     OW39976   4.391   3.538   3.340  0.6717 -0.2823  0.0568
 9448SOL    HW139977   4.315   3.588   3.309  1.1486 -0.8052 -2.0043
 9448SOL    HW239978   4.347   3.483   3.405  0.4232 -0.5822 -0.3571
 9449SOL     OW39979   1.965   3.814  14.826  0.3076 -0.5147 -0.1284
 9449SOL    HW139980   2.058   3.792  14.833  0.8668  0.8144 -3.6972
 9449SOL    HW239981   1.929   3.739  14.779 -1.4306 -0.3971  0.9802
 9450SOL     OW39982   2.740   4.164   5.964  0.0942  0.5919 -0.2812
 9450SOL    HW139983   2.692   4.225   6.021  3.5323  1.8033  1.3021
 9450SOL    HW239984   2.705   4.079   5.990  1.2583  0.4916  0.9906
 9451SOL     OW39985   0.201   3.646   4.680 -0.4845  0.7402 -0.0746
 9451SOL    HW139986   0.161   3.690   4.755 -2.8813 -1.0911 -0.2836
 9451SOL    HW239987   0.279   3.607   4.719 -0.5019  1.2201  0.4284
 9452SOL     OW39988   1.898   4.154   7.169  0.2763 -0.2694  0.2157
 9452SOL    HW139989   1.948   4.198   7.100 -0.5198  0.7308  0.2689
 9452SOL    HW239990   1.965   4.121   7.228  1.7227  1.9755 -0.1749
 9453SOL     OW39991   4.186   2.830  12.675 -0.6934 -0.8417 -0.2370
 9453SOL    HW139992   4.256   2.838  12.610 -0.7198  1.5968  0.0207
 9453SOL    HW239993   4.123   2.772  12.633 -0.0256 -1.1142 -0.8705
 9454SOL     OW39994   3.188   4.011   2.253  0.1648 -0.3696 -0.1787
 9454SOL    HW139995   3.159   3.922   2.238 -0.3540  0.1848 -2.3956
 9454SOL    HW239996   3.158   4.022   2.344  0.3239  0.2569 -0.1976
 9455SOL     OW39997   3.086   2.496  14.699 -0.8409  0.0848  0.2732
 9455SOL    HW139998   3.001   2.539  14.682 -1.6993 -1.6965  0.0767
 9455SOL    HW239999   3.107   2.458  14.613  0.1934  0.2007  0.4794
 9456SOL     OW40000   2.326   2.970   9.655 -0.3089  0.8406  0.0634
 9456SOL    HW140001   2.335   2.980   9.749  0.7056 -0.4577  0.0991
 9456SOL    HW240002   2.345   2.877   9.639 -0.1882  0.8323  0.2573
 9457SOL     OW40003   2.795   2.227   7.437 -0.0151  0.1806  0.0879
 9457SOL    HW140004   2.843   2.277   7.370 -0.2157 -1.6689 -1.4484
 9457SOL    HW240005   2.765   2.149   7.390  2.6197 -0.4579 -0.5627
 9458SOL     OW40006   4.127   2.635  13.155 -0.4369 -0.1105  0.0840
 9458SOL    HW140007   4.068   2.692  13.203 -1.0901 -0.3594 -0.4274
 9458SOL    HW240008   4.210   2.682  13.145 -1.3734  1.6689  0.7422
 9459SOL     OW40009   1.576   2.984   7.817  0.2400 -0.0889 -0.7333
 9459SOL    HW140010   1.489   3.011   7.845  0.6616 -1.2568  1.6353
 9459SOL    HW240011   1.624   3.005   7.897  0.3123 -2.3603 -0.1806
 9460SOL     OW40012   4.498   1.521  14.699  0.0006  0.4106  0.1041
 9460SOL    HW140013   4.554   1.596  14.721  1.8853 -0.4855 -1.6575
 9460SOL    HW240014   4.482   1.483  14.785  1.2084 -1.2366 -0.4107
 9461SOL     OW40015   2.632   3.243   5.300  0.4538 -0.2932  0.3644
 9461SOL    HW140016   2.641   3.274   5.210  0.2552 -2.2470 -0.3354
 9461SOL    HW240017   2.612   3.149   5.299 -2.0482  0.2136  0.9167
 9462SOL     OW40018   3.431   3.488  12.599  0.1002  0.1765  0.1947
 9462SOL    HW140019   3.404   3.398  12.615 -0.4923  0.0905 -1.2802
 9462SOL    HW240020   3.346   3.519  12.568  0.2115 -1.4373 -1.6911
 9463SOL     OW40021   0.316   3.227   9.810  0.3851 -0.2232  0.1533
 9463SOL    HW140022   0.321   3.260   9.720 -0.7613 -1.5829 -0.4096
 9463SOL    HW240023   0.365   3.145   9.810 -1.1904 -1.1749 -0.3836
 9464SOL     OW40024   4.477   2.410   1.148  0.2687  0.1732  0.2493
 9464SOL    HW140025   4.475   2.394   1.054 -0.7924 -0.8591  0.4508
 9464SOL    HW240026   4.400   2.465   1.159  0.1984  0.0805  0.2193
 9465SOL     OW40027   4.089   0.981   6.411  0.0840 -0.5849 -0.1933
 9465SOL    HW140028   4.168   1.021   6.376  0.3609 -1.9420 -1.1396
 9465SOL    HW240029   4.051   1.053   6.461  1.0862 -0.8529  0.9595
 9466SOL     OW40030   0.878   3.921   5.768  0.3019 -0.0676  0.2235
 9466SOL    HW140031   0.916   3.978   5.835  1.0573 -0.2730 -0.0337
 9466SOL    HW240032   0.792   3.964   5.767 -0.4178 -1.5095  0.1982
 9467SOL     OW40033   2.016   0.411   7.713  0.2189 -0.1125  0.2591
 9467SOL    HW140034   1.932   0.448   7.686 -1.0328 -2.7905  0.4538
 9467SOL    HW240035   1.987   0.346   7.777  0.2576 -1.3608 -1.0055
 9468SOL     OW40036   3.878   3.870   5.624 -0.3060  0.7671  0.0352
 9468SOL    HW140037   3.802   3.927   5.616  0.0298  1.0889 -1.0164
 9468SOL    HW240038   3.839   3.783   5.616 -3.4835  2.3579 -1.6529
 9469SOL     OW40039   1.749   4.390  17.168  0.0137 -0.5332 -0.9046
 9469SOL    HW140040   1.805   4.404  17.092  1.3782 -0.7099  0.0426
 9469SOL    HW240041   1.779   4.305  17.200 -0.3353 -0.1300  0.4913
 9470SOL     OW40042   2.230   0.702   0.520 -0.0029  0.2389 -0.5786
 9470SOL    HW140043   2.209   0.665   0.434  0.3191 -0.2244 -0.4594
 9470SOL    HW240044   2.291   0.631   0.541 -1.4183 -0.2833  1.8214
 9471SOL     OW40045   0.667   1.712  15.991  0.6589 -0.5182 -0.0672
 9471SOL    HW140046   0.591   1.656  15.977  0.1722 -0.1449  1.0745
 9471SOL    HW240047   0.620   1.796  15.993  1.8633  0.1789 -0.8599
 9472SOL     OW40048   2.093   4.417   6.231 -0.6847 -0.3934 -0.2344
 9472SOL    HW140049   2.110   4.479   6.160 -0.7102 -0.0281  0.0796
 9472SOL    HW240050   2.010   4.375   6.207 -0.6880  0.7957 -2.3582
 9473SOL     OW40051   3.628   1.644   1.902 -0.5337  0.5103 -0.0185
 9473SOL    HW140052   3.706   1.616   1.950 -0.9041 -0.1432  0.2097
 9473SOL    HW240053   3.570   1.665   1.976  1.1487 -1.2366  1.8172
 9474SOL     OW40054   1.200   0.200   1.631 -0.0822 -0.6008  0.4326
 9474SOL    HW140055   1.215   0.106   1.646  2.6997 -0.1015  0.8375
 9474SOL    HW240056   1.109   0.205   1.660 -0.7477 -1.4510 -1.4992
 9475SOL     OW40057   2.104   1.022   6.196  0.2333 -0.2725 -0.5407
 9475SOL    HW140058   2.181   1.076   6.216  0.2131  0.6706 -2.9879
 9475SOL    HW240059   2.143   0.939   6.225  3.1471  0.9623 -0.8643
 9476SOL     OW40060   3.933   3.924   4.780  0.3070 -0.4171  0.9929
 9476SOL    HW140061   3.855   3.869   4.792  1.3241 -1.9607  0.4654
 9476SOL    HW240062   3.914   3.974   4.701 -0.4060 -2.2965 -0.0267
 9477SOL     OW40063   0.822   2.925   0.317  0.1889 -0.0863  0.2760
 9477SOL    HW140064   0.733   2.961   0.316  0.4527  0.5349 -0.6285
 9477SOL    HW240065   0.863   3.007   0.346 -0.3726  0.7305 -1.2747
 9478SOL     OW40066   0.197   4.007  12.734  0.1567  0.2303 -0.2261
 9478SOL    HW140067   0.222   4.095  12.762 -0.2452  0.7179 -1.3863
 9478SOL    HW240068   0.221   4.028  12.644  0.9855 -1.1321 -0.3128
 9479SOL     OW40069   0.373   3.624   7.052  0.2609 -0.4652  0.2307
 9479SOL    HW140070   0.353   3.599   7.143 -1.3818 -0.7920 -0.2231
 9479SOL    HW240071   0.448   3.566   7.038 -0.4715 -1.9578  2.3460
 9480SOL     OW40072   4.265   0.491   6.797  0.0032 -0.4951  0.3795
 9480SOL    HW140073   4.334   0.446   6.845  0.0952  0.2480  0.9466
 9480SOL    HW240074   4.296   0.577   6.767 -1.4436  0.4307  1.5463
 9481SOL     OW40075   0.509   0.449  10.272  0.0016  0.2114  0.2838
 9481SOL    HW140076   0.539   0.537  10.297 -0.7107  1.1591 -2.1905
 9481SOL    HW240077   0.590   0.422  10.229 -0.9644  0.7333 -1.8571
 9482SOL     OW40078   3.046   2.172   5.332 -0.5008 -0.2025 -0.1478
 9482SOL    HW140079   2.961   2.211   5.349  1.4378  3.3341  1.5241
 9482SOL    HW240080   3.094   2.238   5.282  0.1243 -0.0107  0.7042
 9483SOL     OW40081   1.692   4.557  16.614 -0.0015  0.5113  0.3010
 9483SOL    HW140082   1.621   4.618  16.633  2.7276  3.3004  1.5301
 9483SOL    HW240083   1.661   4.469  16.637 -2.0428  0.8803 -1.0026
 9484SOL     OW40084   0.569   4.022   9.286 -0.3469 -0.2546  0.1882
 9484SOL    HW140085   0.517   3.957   9.240  0.9334 -1.9025  1.0253
 9484SOL    HW240086   0.637   4.015   9.219  1.2195  0.9654  1.6289
 9485SOL     OW40087   2.641   3.104   3.583 -0.6508 -0.4715  0.0105
 9485SOL    HW140088   2.698   3.167   3.540 -1.0609  0.3006  0.5851
 9485SOL    HW240089   2.668   3.114   3.675  0.8560  5.3603 -1.0495
 9486SOL     OW40090   2.980   2.385   5.051 -0.2266 -0.3276  0.3627
 9486SOL    HW140091   2.917   2.439   5.003 -1.6773 -2.3005  0.0548
 9486SOL    HW240092   2.927   2.305   5.055 -1.8695  0.6851 -1.2047
 9487SOL     OW40093   1.883   1.872   7.477  0.1617 -0.4408 -0.2515
 9487SOL    HW140094   1.899   1.958   7.516 -1.4155 -0.4734  0.4528
 9487SOL    HW240095   1.956   1.854   7.417  1.2549 -0.8140  1.1926
 9488SOL     OW40096   2.836   3.133   0.527  0.3790 -0.2167  0.1693
 9488SOL    HW140097   2.808   3.089   0.607 -0.2937  1.9029  1.1087
 9488SOL    HW240098   2.787   3.078   0.466  2.1440  0.5052 -1.9125
 9489SOL     OW40099   0.835   2.648  13.863 -0.6117 -0.0516 -0.3882
 9489SOL    HW140100   0.922   2.622  13.832 -0.1484 -1.8809  2.3920
 9489SOL    HW240101   0.786   2.592  13.803  1.1502 -0.2626 -1.6447
 9490SOL     OW40102   0.820   1.005  16.371 -0.3860 -0.3502  0.0982
 9490SOL    HW140103   0.822   0.940  16.302  0.1309 -1.4132  1.1159
 9490SOL    HW240104   0.912   1.003  16.398 -0.0282 -0.9679 -1.1883
 9491SOL     OW40105   3.068   2.738   0.685 -0.1702 -0.1226  0.2901
 9491SOL    HW140106   3.047   2.714   0.776  0.5747 -0.2054  0.4376
 9491SOL    HW240107   3.033   2.826   0.695  0.4352  0.1564 -0.0535
 9492SOL     OW40108   3.847   0.838   9.674  0.4486  0.4852  1.0887
 9492SOL    HW140109   3.938   0.856   9.650 -0.1296  0.3074 -1.2496
 9492SOL    HW240110   3.829   0.773   9.606 -0.4862  1.5641  0.3009
 9493SOL     OW40111   1.257   3.030   9.650  0.0088 -0.1791 -0.3083
 9493SOL    HW140112   1.198   3.052   9.579  0.1784 -0.8975 -0.6764
 9493SOL    HW240113   1.341   3.061   9.614  0.0030 -1.8630 -1.7686
 9494SOL     OW40114   4.563   4.164   3.184 -0.3133  0.1308  0.6316
 9494SOL    HW140115   4.617   4.211   3.121 -1.8809  0.2335 -0.6545
 9494SOL    HW240116   4.624   4.109   3.233  1.0090 -0.1091 -1.2912
 9495SOL     OW40117   4.724   1.488   3.131  0.4152 -0.4139  0.1765
 9495SOL    HW140118   0.009   1.580   3.152 -0.3107  0.0513 -1.2919
 9495SOL    HW240119   4.662   1.504   3.060 -0.9966  0.0669  1.4976
 9496SOL     OW40120   3.957   1.212   2.091  0.3816  0.0268 -0.6036
 9496SOL    HW140121   3.866   1.240   2.097 -0.6887 -3.0942 -2.4309
 9496SOL    HW240122   4.013   1.290   2.100 -2.1752  1.6980  0.7280
 9497SOL     OW40123   2.250   3.189   4.448  0.5135 -0.5171  0.5527
 9497SOL    HW140124   2.323   3.238   4.485  0.3837  0.4510 -0.4871
 9497SOL    HW240125   2.233   3.128   4.520  0.2043  0.8914  1.6587
 9498SOL     OW40126   1.233   2.324   2.825 -0.1409 -0.5882 -0.3004
 9498SOL    HW140127   1.172   2.393   2.797  1.2062  0.5828 -0.3402
 9498SOL    HW240128   1.277   2.295   2.745  0.6581  1.8105 -0.7378
 9499SOL     OW40129   3.341   2.112   9.489  0.7657 -0.3791  0.4613
 9499SOL    HW140130   3.287   2.121   9.567  0.0929  2.7867 -0.3560
 9499SOL    HW240131   3.270   2.084   9.431  1.4553  0.2585 -0.6968
 9500SOL     OW40132   0.254   3.808   4.160 -0.0556  0.0063  0.2084
 9500SOL    HW140133   0.318   3.859   4.209  0.8205 -0.3437 -0.5816
 9500SOL    HW240134   0.202   3.882   4.130 -0.4565 -0.9169 -1.3841
 9501SOL     OW40135   1.755   0.712   3.823 -0.8199 -0.5257  0.4983
 9501SOL    HW140136   1.675   0.755   3.792 -0.7010 -2.3510 -2.2941
 9501SOL    HW240137   1.789   0.788   3.870  0.9547 -0.5884 -0.6976
 9502SOL     OW40138   2.580   3.290  13.956  0.2909  0.3832  0.1757
 9502SOL    HW140139   2.563   3.213  13.901 -0.2345  0.1697  0.6374
 9502SOL    HW240140   2.586   3.364  13.896  1.0936  0.0971 -0.1012
 9503SOL     OW40141   1.947   4.104  15.357  0.2817  0.2366  0.4285
 9503SOL    HW140142   1.912   4.032  15.409 -0.4846  0.3318  0.0420
 9503SOL    HW240143   1.886   4.127  15.287  1.7498 -1.2279 -1.3198
 9504SOL     OW40144   2.488   2.285  14.575 -0.2532  0.1030  0.7899
 9504SOL    HW140145   2.509   2.378  14.585  3.0241 -0.6140  0.5848
 9504SOL    HW240146   2.397   2.286  14.543  0.7520 -0.1778 -2.1138
 9505SOL     OW40147   4.650   3.147  13.471 -0.1798  0.1876  0.6819
 9505SOL    HW140148   4.653   3.164  13.565 -0.3146  1.3967  0.4586
 9505SOL    HW240149   4.556   3.146  13.453 -0.3885 -2.7547  1.8281
 9506SOL     OW40150   0.669   2.542  14.055 -0.1462 -0.3841 -0.2293
 9506SOL    HW140151   0.686   2.589  14.136 -1.0409  1.6848 -1.2569
 9506SOL    HW240152   0.724   2.577  13.986 -3.0711  0.3631 -2.1922
 9507SOL     OW40153   3.748   1.013  11.854  0.2502  0.6317 -0.4652
 9507SOL    HW140154   3.773   1.094  11.899  2.6847 -0.0565 -0.5652
 9507SOL    HW240155   3.653   1.019  11.853  0.2669  1.2426  1.6737
 9508SOL     OW40156   3.140   2.003   1.679  0.1212 -0.2018 -0.0893
 9508SOL    HW140157   3.196   1.934   1.643  0.5709 -0.2798  0.7778
 9508SOL    HW240158   3.143   2.072   1.612 -1.5311  2.5219  2.6390
 9509SOL     OW40159   0.310   3.084   2.534 -0.2754 -0.1927 -0.5201
 9509SOL    HW140160   0.244   3.061   2.468  0.1911  1.2251 -1.4902
 9509SOL    HW240161   0.351   2.998   2.545 -0.6300 -0.2823  0.1220
 9510SOL     OW40162   1.612   1.398   5.377 -0.0257  0.0655 -0.2605
 9510SOL    HW140163   1.630   1.486   5.407 -0.0319  0.8426 -2.5165
 9510SOL    HW240164   1.639   1.393   5.285  0.3997  1.4716 -0.2089
 9511SOL     OW40165   4.544   1.668   6.671 -0.0133 -0.1748  0.0620
 9511SOL    HW140166   4.486   1.614   6.617 -0.3561  0.8193 -0.5575
 9511SOL    HW240167   4.632   1.636   6.651 -0.2365 -2.0364  2.1155
 9512SOL     OW40168   0.105   3.156   7.894 -1.0092  0.3400  0.3101
 9512SOL    HW140169   0.152   3.208   7.829  3.1350 -1.7453  1.5615
 9512SOL    HW240170   0.017   3.139   7.863 -1.8577  1.0471  2.2956
 9513SOL     OW40171   2.547   1.553   4.499 -0.3278 -0.0112  0.0318
 9513SOL    HW140172   2.508   1.555   4.587 -1.4779 -0.5690 -0.4688
 9513SOL    HW240173   2.594   1.471   4.494 -0.0938 -0.0524  2.8238
 9514SOL     OW40174   2.267   4.101  12.351  0.2995  0.4373 -0.2902
 9514SOL    HW140175   2.298   4.114  12.261  2.6866  1.8450  0.7327
 9514SOL    HW240176   2.341   4.058  12.394 -1.0531  0.0020  1.6335
 9515SOL     OW40177   0.122   2.314   7.028  0.5105  0.6069 -0.9465
 9515SOL    HW140178   0.027   2.312   7.041  0.6278  0.4860 -0.1156
 9515SOL    HW240179   0.156   2.264   7.102  0.3954 -0.5572 -1.6872
 9516SOL     OW40180   0.716   1.157   3.483 -0.3265 -0.4730 -0.0873
 9516SOL    HW140181   0.643   1.097   3.467 -1.3233  0.6107  0.3946
 9516SOL    HW240182   0.703   1.179   3.575  2.4901 -3.0817  0.9328
 9517SOL     OW40183   3.037   2.745   7.550  0.1074  0.0972  0.3398
 9517SOL    HW140184   3.128   2.750   7.520 -0.1686  1.0054 -0.3599
 9517SOL    HW240185   3.012   2.826   7.504 -0.6726 -0.6019 -0.4587
 9518SOL     OW40186   3.637   3.154   4.673  0.0447 -0.5158  0.0083
 9518SOL    HW140187   3.606   3.089   4.736  0.0215 -0.7981 -0.2950
 9518SOL    HW240188   3.698   3.194   4.735 -0.8054  1.8508 -0.6967
 9519SOL     OW40189   3.157   2.784   5.496 -0.2347  0.0364  0.5043
 9519SOL    HW140190   3.143   2.879   5.500 -0.4184 -0.0490  1.9273
 9519SOL    HW240191   3.192   2.760   5.582 -0.0907 -0.0999  0.4085
 9520SOL     OW40192   0.233   3.168   4.083  0.0611 -0.0528  0.1127
 9520SOL    HW140193   0.251   3.261   4.069  1.9379 -0.7629 -2.0621
 9520SOL    HW240194   0.310   3.128   4.044  0.6506  0.9065  0.2881
 9521SOL     OW40195   1.167   4.063  10.036 -0.5481 -0.5574  0.3594
 9521SOL    HW140196   1.089   4.020  10.070 -0.9983 -0.2627 -0.2921
 9521SOL    HW240197   1.208   3.989   9.992  1.9902  1.0147  0.0651
 9522SOL     OW40198   2.026   3.049   5.555  0.1135  0.0272 -0.1414
 9522SOL    HW140199   2.026   3.143   5.576  1.5438 -0.0843  0.3003
 9522SOL    HW240200   2.119   3.033   5.545 -0.0491  0.6235 -2.4913
 9523SOL     OW40201   3.801   2.334   4.065 -0.3624 -0.2223 -0.5454
 9523SOL    HW140202   3.771   2.296   4.148  0.7321 -0.3125 -0.1970
 9523SOL    HW240203   3.895   2.349   4.069 -0.4347  0.4457 -1.4424
 9524SOL     OW40204   0.385   0.757   2.833 -0.0634 -0.1664 -0.3204
 9524SOL    HW140205   0.318   0.709   2.882  1.2074 -1.2960  0.3130
 9524SOL    HW240206   0.419   0.814   2.901  0.5709  1.9404 -2.3818
 9525SOL     OW40207   0.258   2.531  13.093 -0.0422  0.3394 -0.9639
 9525SOL    HW140208   0.337   2.477  13.103  1.5064  2.4415 -2.0313
 9525SOL    HW240209   0.209   2.466  13.042  1.0905 -0.9786 -0.3785
 9526SOL     OW40210   3.951   1.245   2.387  0.4758  0.6116  0.4452
 9526SOL    HW140211   4.035   1.221   2.348  1.8032  2.4313  2.2030
 9526SOL    HW240212   3.925   1.165   2.432  0.0458  1.2423  1.3113
 9527SOL     OW40213   4.184   1.089   4.196  0.0531 -0.0765 -0.0280
 9527SOL    HW140214   4.095   1.126   4.195 -0.3656 -0.9910  2.2150
 9527SOL    HW240215   4.232   1.167   4.169 -1.2146  1.1385  1.1708
 9528SOL     OW40216   2.248   4.321  11.839 -0.4733 -0.7658  0.2090
 9528SOL    HW140217   2.162   4.294  11.807  0.5015 -1.6667 -1.6141
 9528SOL    HW240218   2.259   4.398  11.784 -0.3658  0.3834  1.8478
 9529SOL     OW40219   1.479   1.648   7.219  0.2088 -0.2777  0.3266
 9529SOL    HW140220   1.410   1.714   7.209  0.0739 -0.0790  2.4342
 9529SOL    HW240221   1.503   1.638   7.127 -0.5767  2.4749 -0.1806
 9530SOL     OW40222   1.067   2.537  13.751  0.3074 -0.1191  0.1405
 9530SOL    HW140223   1.053   2.552  13.658 -1.2451 -2.3372  0.0033
 9530SOL    HW240224   1.037   2.446  13.759  1.0790 -0.3449  0.4113
 9531SOL     OW40225   2.139   1.123   7.358 -0.1461 -0.4358  0.5781
 9531SOL    HW140226   2.185   1.206   7.339 -0.5424 -0.4331 -0.3783
 9531SOL    HW240227   2.047   1.148   7.363  0.2476  1.2919 -0.6282
 9532SOL     OW40228   4.184   4.581   6.600  0.8798 -0.3361 -0.2977
 9532SOL    HW140229   4.213   4.605   6.511 -0.3217 -1.1606 -0.9056
 9532SOL    HW240230   4.259   4.536   6.639  0.0470 -0.1814  1.4575
 9533SOL     OW40231   3.647   4.575   5.319  0.7335  0.1558 -0.3859
 9533SOL    HW140232   3.604   4.551   5.401  0.2893  0.7157 -0.4536
 9533SOL    HW240233   3.591   4.648   5.291 -1.6050 -0.9899  1.2871
 9534SOL     OW40234   3.377   0.598   6.621 -0.2655 -0.6626  0.0707
 9534SOL    HW140235   3.318   0.522   6.621 -0.7766 -0.2733  2.0355
 9534SOL    HW240236   3.314   0.665   6.647  0.1945 -0.0845 -0.3153
 9535SOL     OW40237   0.834   0.572   1.164 -0.1223  0.9034  0.6855
 9535SOL    HW140238   0.806   0.661   1.143 -1.1059  0.2547 -0.7964
 9535SOL    HW240239   0.762   0.529   1.117 -0.1835  0.1085  1.5127
 9536SOL     OW40240   1.830   4.732  17.585 -0.1411 -0.1642 -0.2127
 9536SOL    HW140241   1.770   4.716  17.512  1.1315  2.4204 -1.8111
 9536SOL    HW240242   1.917   4.726  17.545  0.1943 -1.8680  0.7922
 9537SOL     OW40243   0.287   1.985   4.240 -0.3451 -0.2124  0.1019
 9537SOL    HW140244   0.306   1.980   4.334 -0.0170 -0.7017  0.0089
 9537SOL    HW240245   0.258   2.076   4.243 -1.2108 -0.4919  0.3938
 9538SOL     OW40246   2.981   4.292  11.304 -0.1401  0.1435 -0.2125
 9538SOL    HW140247   3.029   4.216  11.335  1.2836  1.4308  0.7609
 9538SOL    HW240248   3.018   4.369  11.348 -0.3750  0.2787 -0.2536
 9539SOL     OW40249   1.188   0.114   2.045  0.0098 -0.2940  0.7917
 9539SOL    HW140250   1.234   0.194   2.069  0.7823  0.2132 -2.3351
 9539SOL    HW240251   1.237   0.050   2.096 -1.2281 -2.4662 -0.7423
 9540SOL     OW40252   0.257   0.854  15.095 -0.0598  0.4771 -0.0737
 9540SOL    HW140253   0.301   0.784  15.048  0.9643  0.4685  0.8923
 9540SOL    HW240254   0.328   0.916  15.116 -0.0839  0.3540  0.3781
 9541SOL     OW40255   2.553   0.645   8.786 -0.7354 -0.0894 -0.5026
 9541SOL    HW140256   2.625   0.583   8.780 -0.4595  0.1820 -0.0206
 9541SOL    HW240257   2.594   0.731   8.788  1.4987 -1.1516 -0.5094
 9542SOL     OW40258   4.623   0.805   5.504  0.2758  0.0194 -0.3432
 9542SOL    HW140259   4.596   0.819   5.413  1.9014 -0.2287 -0.8682
 9542SOL    HW240260   4.691   0.738   5.496  0.9074  0.5605  0.3849
 9543SOL     OW40261   3.315   4.008   5.494 -0.4912 -0.2990  0.5616
 9543SOL    HW140262   3.275   3.941   5.548 -1.0316 -1.5589 -1.4112
 9543SOL    HW240263   3.292   4.091   5.535  0.4539  0.0667  0.3713
 9544SOL     OW40264   1.811   1.297   3.574  0.2722  0.1857 -0.0623
 9544SOL    HW140265   1.735   1.279   3.520  0.3567 -0.9335  0.2011
 9544SOL    HW240266   1.842   1.383   3.545 -1.1745  0.3148 -1.2368
 9545SOL     OW40267   2.418   1.518   9.559  0.1915  0.3016 -0.0808
 9545SOL    HW140268   2.479   1.534   9.487 -1.0353 -1.3342 -1.4837
 9545SOL    HW240269   2.467   1.447   9.601  0.1915 -0.4735 -1.3846
 9546SOL     OW40270   1.611   2.210   5.157  0.0135  0.0922  0.2755
 9546SOL    HW140271   1.660   2.288   5.134  0.1248 -0.0471  0.0440
 9546SOL    HW240272   1.524   2.247   5.173  0.1187 -0.0989  1.2967
 9547SOL     OW40273   4.394   4.128   9.510  0.1506  0.3441  0.0746
 9547SOL    HW140274   4.394   4.034   9.532  2.0839  0.5783  1.0782
 9547SOL    HW240275   4.434   4.162   9.590  2.1905  0.1170 -0.8626
 9548SOL     OW40276   4.576   1.035   8.203  0.0702 -0.7864 -0.0348
 9548SOL    HW140277   4.626   1.096   8.258 -1.0332  1.7384 -1.8505
 9548SOL    HW240278   4.642   0.969   8.183  0.4376 -0.3041 -0.4151
 9549SOL     OW40279   0.630   0.035   6.596 -0.2455 -0.4923 -0.2792
 9549SOL    HW140280   0.558   4.705   6.593 -1.0915  0.3831  2.3549
 9549SOL    HW240281   0.586   0.098   6.652  0.6135 -0.2840  0.1666
 9550SOL     OW40282   2.403   1.912   4.296 -1.2531 -0.3412  0.4295
 9550SOL    HW140283   2.459   1.924   4.220 -0.6690 -2.6036  0.4889
 9550SOL    HW240284   2.318   1.910   4.253 -0.2706  2.0440 -1.5995
 9551SOL     OW40285   4.111   1.862   3.442 -0.1037 -0.2468 -0.6270
 9551SOL    HW140286   4.124   1.839   3.350  0.2015 -2.7750  0.0322
 9551SOL    HW240287   4.017   1.877   3.443 -0.1004 -0.2406 -0.1848
 9552SOL     OW40288   2.394   0.045   3.019  0.4938  0.3141  0.5283
 9552SOL    HW140289   2.461   4.714   2.995 -0.0945  0.1930 -0.7871
 9552SOL    HW240290   2.442   0.098   3.083  0.7182  1.3389 -0.5028
 9553SOL     OW40291   3.356   4.159   3.103 -0.8087  0.0455  0.3870
 9553SOL    HW140292   3.278   4.174   3.051 -2.6446 -2.4473  2.3711
 9553SOL    HW240293   3.351   4.224   3.173  3.8234 -0.3229  1.0892
 9554SOL     OW40294   1.690   1.595  14.167 -0.2700 -0.1247 -0.4122
 9554SOL    HW140295   1.699   1.685  14.196  0.8978 -0.2188 -0.5039
 9554SOL    HW240296   1.734   1.600  14.082  1.2686  0.8966  0.4503
 9555SOL     OW40297   0.398   0.645   7.960  0.3114 -0.1472 -0.3329
 9555SOL    HW140298   0.473   0.586   7.955 -0.2498 -0.9469  0.5740
 9555SOL    HW240299   0.428   0.701   8.032  0.4269 -1.5803  0.7496
 9556SOL     OW40300   0.987   4.375   5.943  0.3915  0.5842 -0.2470
 9556SOL    HW140301   0.918   4.321   5.981  0.5786  0.1660 -0.5014
 9556SOL    HW240302   1.013   4.436   6.012  1.4939  1.6924 -1.6608
 9557SOL     OW40303   2.983   1.839   6.424  0.6474 -0.2850  0.6636
 9557SOL    HW140304   2.923   1.799   6.487 -0.7863  1.8953  0.6816
 9557SOL    HW240305   3.060   1.783   6.439  0.6808 -1.2150 -2.9548
 9558SOL     OW40306   4.200   3.969   8.036  0.8099 -0.0102 -0.1825
 9558SOL    HW140307   4.220   3.901   7.971  0.2022  0.2409 -0.6280
 9558SOL    HW240308   4.148   4.036   7.993 -0.2826 -0.8003 -0.0838
 9559SOL     OW40309   2.489   3.490  11.985 -0.2823  0.4051  0.2389
 9559SOL    HW140310   2.549   3.415  11.984 -0.7511  0.0397 -1.2279
 9559SOL    HW240311   2.428   3.457  11.918 -2.4824 -1.4443  3.1068
 9560SOL     OW40312   1.276   4.489  13.588  0.0741  0.0089  0.0947
 9560SOL    HW140313   1.282   4.492  13.683  0.5366  2.9033 -0.0144
 9560SOL    HW240314   1.195   4.443  13.567  0.4170 -0.2237 -0.7509
 9561SOL     OW40315   4.076   1.673   9.742  0.0995 -0.3316  0.2668
 9561SOL    HW140316   4.088   1.685   9.648  1.3005  2.8006  0.8483
 9561SOL    HW240317   4.149   1.614   9.763 -0.3636 -1.6760 -1.8706
 9562SOL     OW40318   2.376   4.058  10.445  0.0959 -0.4996  0.0274
 9562SOL    HW140319   2.441   3.990  10.461  1.2005  0.5835  0.1156
 9562SOL    HW240320   2.303   4.027  10.498  0.5091  0.1525  0.9668
 9563SOL     OW40321   3.245   3.027   1.760 -0.4680  0.0700  0.0638
 9563SOL    HW140322   3.168   2.977   1.735 -0.5946 -0.5831  1.7207
 9563SOL    HW240323   3.229   3.119   1.742 -1.9643  0.2188  2.1340
 9564SOL     OW40324   2.826   0.748   3.284  1.0251 -0.0756 -0.3986
 9564SOL    HW140325   2.895   0.691   3.317 -0.2541 -2.4750 -1.8659
 9564SOL    HW240326   2.749   0.718   3.333  2.7135 -1.3106  1.4815
 9565SOL     OW40327   2.029   4.669   8.440  0.0824 -0.3068  0.0925
 9565SOL    HW140328   1.940   4.656   8.471  0.2091 -2.3398 -0.4105
 9565SOL    HW240329   2.024   0.009   8.377  0.8704 -1.4448 -1.2611
 9566SOL     OW40330   0.386   0.954   5.054 -0.3709 -0.0451  0.0834
 9566SOL    HW140331   0.431   1.026   5.097 -0.5677  1.2103 -1.8175
 9566SOL    HW240332   0.316   0.946   5.119 -0.3279 -0.1115  0.1216
 9567SOL     OW40333   1.473   2.363  13.582  0.7170 -0.5087  0.0550
 9567SOL    HW140334   1.511   2.446  13.553  2.5345 -1.0198  0.9800
 9567SOL    HW240335   1.447   2.372  13.673 -1.3578  1.6151 -0.7450
 9568SOL     OW40336   3.882   1.135   4.959  0.2670 -0.0124  0.0396
 9568SOL    HW140337   3.802   1.105   4.916  1.0550 -0.4664 -1.1183
 9568SOL    HW240338   3.953   1.086   4.916 -0.0281  0.2626 -0.7703
 9569SOL     OW40339   1.193   4.286  16.550 -0.2248 -0.4976 -0.7038
 9569SOL    HW140340   1.287   4.301  16.554 -0.0373 -1.6102 -1.0917
 9569SOL    HW240341   1.179   4.192  16.556 -2.5578 -0.1277 -0.2578
 9570SOL     OW40342   3.802   2.983   2.367 -0.0401  0.4755  0.3791
 9570SOL    HW140343   3.849   2.945   2.292  0.8309  0.2311  1.0500
 9570SOL    HW240344   3.788   2.905   2.421 -1.7485  0.3203 -0.3038
 9571SOL     OW40345   0.280   1.200   7.025 -0.1289 -0.5852  0.6422
 9571SOL    HW140346   0.356   1.257   7.021 -0.2711 -0.3577  1.0961
 9571SOL    HW240347   0.322   1.117   7.049  0.1911 -0.7192 -0.4080
   4.73235   4.73235  17.72895
