Membrane in water
40347
    1TMC1    C1    1   1.255   0.703  12.023 -0.2528  0.1065 -0.3931
    1TMC1    C2    2   1.259   0.793  12.128  0.5088 -0.5629 -0.0821
    1TMC1    C3    3   1.269   0.929  12.114  0.3859 -0.5923  0.2094
    1TMC1    C4    4   1.260   0.758  11.900 -0.7292  0.4674  0.3420
    1TMC1    C5    5   1.263   0.889  11.876 -0.1765  0.0502 -0.7997
    1TMC1    C6    6   1.273   0.974  11.983  0.2440  0.4371 -0.8868
    1TMC1     C    7   1.251   0.564  12.054  0.0082  0.1099  0.3367
    1TMC1     O    8   1.190   0.539  12.159  0.1561 -0.5369 -0.2126
    1TMC1     H    9   1.257   0.752  12.228  0.3702  0.1123  0.1969
    1TMC1    H1   10   1.233   0.699  11.814 -1.1989  1.1252  0.0328
    1TMC1    H2   11   1.301   1.076  11.960  1.8171 -0.4839 -3.1007
    1TMC1    C7   12   1.263   0.936  11.743  0.3076 -0.1538  0.1402
    1TMC1    C8   13   1.365   0.989  12.205  1.1801 -0.6605  0.8450
    1TMC1    O1   14   1.307   0.880  11.645  0.4322 -0.4788 -0.0243
    1TMC1    O2   15   1.431   0.921  12.282  0.5770  0.0990  0.2307
    1TMC1    O3   16   1.189   1.051  11.737 -0.2969 -0.0904 -0.7709
    1TMC1    H3   17   1.131   1.070  11.814  0.8604 -0.5036  0.1969
    1TMC1    O5   18   1.321   1.118  12.217  0.0391  0.5036 -0.4437
    1TMC1    H5   19   1.257   1.148  12.148  0.1343 -2.4040 -1.7814
    2MPD2     C   20   1.200   0.065  11.917 -0.0021 -0.4679 -0.1667
    2MPD2    C1   21   1.166   0.134  12.033  0.0057  0.2034 -0.1485
    2MPD2    C2   22   1.193   0.272  12.035  0.2555  0.0716 -0.3687
    2MPD2    C3   23   1.256   0.345  11.936  0.2591 -0.0408  0.9505
    2MPD2    C4   24   1.289   0.272  11.822 -0.4941 -0.0334  0.7931
    2MPD2    C5   25   1.261   0.139  11.812 -0.1069  0.2379  0.4774
    2MPD2     H   26   1.162   0.332  12.120 -0.1118 -1.2622  0.4415
    2MPD2    H1   27   1.330   0.327  11.738  0.9100 -0.1909  1.3708
    2MPD2    H2   28   1.176   4.700  11.895  2.9652 -1.3490  0.7466
    2MPD2    H3   29   1.291   0.094  11.718 -2.3979 -1.6120  0.6482
    2MPD2     N   30   1.291   0.480  11.950 -0.1334 -0.1230 -0.2722
    2MPD2    H5   31   1.338   0.519  11.870 -0.0166 -1.4326 -0.8419
    2MPD2    N1   32   1.103   0.073  12.139 -0.2772 -0.3414  0.4182
    2MPD2    H7   33   1.085   0.130  12.220 -1.9517 -0.1995 -0.0586
    3TMC1    C1   34   1.239   1.645  11.232  0.1597  0.3288  0.3069
    3TMC1    C2   35   1.371   1.620  11.240  0.0014 -0.0832 -0.2788
    3TMC1    C3   36   1.445   1.686  11.330  0.9343  0.7828  0.1313
    3TMC1    C4   37   1.176   1.743  11.308 -0.4761  0.3513  0.7925
    3TMC1    C5   38   1.259   1.816  11.395  0.1305 -0.2419 -0.2493
    3TMC1    C6   39   1.396   1.792  11.399  0.5795 -0.4245 -0.2347
    3TMC1     C   40   1.169   1.582  11.119 -0.1964 -0.0540  0.4473
    3TMC1     O   41   1.214   1.476  11.081 -0.0101  0.4377  0.4911
    3TMC1     H   42   1.413   1.533  11.190  0.8421  0.2850 -0.2062
    3TMC1    H1   43   1.073   1.771  11.291  0.0526  1.3614 -0.7257
    3TMC1    H2   44   1.467   1.847  11.460  0.5404 -1.7876  1.0610
    3TMC1    C7   45   1.205   1.928  11.459 -0.0956  1.0128  0.2832
    3TMC1    C8   46   1.588   1.679  11.326 -0.1778 -0.5418 -0.1637
    3TMC1    O1   47   1.088   1.917  11.503 -0.4007  0.4420  0.1074
    3TMC1    O2   48   1.654   1.780  11.335 -0.4253 -0.1041  0.2593
    3TMC1    O3   49   1.303   1.990  11.523  0.1655 -0.4758 -0.4491
    3TMC1    H3   50   1.364   2.037  11.463  1.6855 -0.9580  0.7191
    3TMC1    O5   51   1.610   1.564  11.395 -0.0896  0.3609 -0.1418
    3TMC1    H5   52   1.528   1.516  11.418  0.7305 -0.1775  1.5862
    4MPD2     C   53   0.753   1.572  10.834  0.2309 -0.3315 -0.3592
    4MPD2    C1   54   0.772   1.707  10.858 -0.3334  0.1063 -0.4219
    4MPD2    C2   55   0.888   1.734  10.931  0.6190 -0.4148  0.1627
    4MPD2    C3   56   0.972   1.632  10.981  0.2116 -0.2184  0.0202
    4MPD2    C4   57   0.943   1.504  10.951 -0.5951  0.2429 -0.2191
    4MPD2    C5   58   0.844   1.473  10.870 -0.1917 -0.5179 -0.5363
    4MPD2     H   59   0.915   1.835  10.960 -1.0669 -0.4540  1.9052
    4MPD2    H1   60   0.991   1.414  10.986 -0.9776 -0.0864 -0.5451
    4MPD2    H2   61   0.671   1.534  10.774  0.5637 -1.7706  0.0964
    4MPD2    H3   62   0.829   1.368  10.846 -1.8484 -0.3663 -0.1847
    4MPD2     N   63   1.074   1.667  11.065  0.0215  0.3982  0.0429
    4MPD2    H5   64   1.078   1.764  11.095  1.6679 -0.0217  1.2121
    4MPD2    N1   65   0.682   1.807  10.822 -0.7800  0.3292  0.3585
    4MPD2    H7   66   0.693   1.895  10.871 -0.7047  0.4689  0.0939
    5TCq1    O1   67   1.611   2.959  12.380 -0.2146  0.1839  0.1867
    5TCq1    C1   68   1.571   2.973  12.252  0.9433 -0.3521 -0.5380
    5TCq1    O2   69   1.636   2.974  12.148 -0.0757 -0.0027  0.6344
    5TCq1    C2   70   1.438   3.031  12.250  0.2447 -0.5067  0.3930
    5TCq1    C3   71   1.368   3.059  12.367 -0.2561  0.0130 -0.0263
    5TCq1    C4   72   1.247   3.116  12.346 -0.7638 -0.0143 -0.0155
    5TCq1    C5   73   1.201   3.147  12.223 -0.5414  0.1387 -0.0970
    5TCq1    C6   74   1.273   3.112  12.118 -0.5851 -0.4159  0.1784
    5TCq1    C7   75   1.383   3.043  12.127 -0.2378 -1.2119  0.5855
    5TCq1    C8   76   1.218   3.134  11.985  0.1066  0.1254 -0.3793
    5TCq1    O4   77   1.288   3.099  11.891  0.7546 -0.2252 -0.4272
    5TCq1    C9   78   1.166   3.151  12.453  0.5771  0.2415 -0.1053
    5TCq1    O5   79   1.193   3.114  12.571  0.1572  0.1202  0.2370
    5TCq1    O6   80   1.081   3.239  12.433  0.6064  0.1457 -0.0569
    5TCq1    H1   81   1.545   2.964  12.452 -0.6064 -4.3112  0.1342
    5TCq1    H2   82   1.402   3.045  12.469  0.1482  1.5250  0.0420
    5TCq1    H3   83   1.098   3.180  12.216 -0.5338  0.5499  1.7467
    5TCq1    H4   84   1.431   3.013  12.035  0.9783  1.1521  0.4644
    6MPD2     C   85   0.908   3.306  11.891 -0.0185 -0.6619  0.0226
    6MPD2    C1   86   1.028   3.246  11.868  0.4687  0.2971 -0.2294
    6MPD2    C2   87   1.065   3.213  11.741  0.1823  0.2076  0.1630
    6MPD2    C3   88   0.974   3.241  11.640  0.6098  0.4533 -0.1007
    6MPD2    C4   89   0.850   3.305  11.660 -0.3727  0.7707  0.6011
    6MPD2    C5   90   0.821   3.346  11.793 -0.7362 -0.1783  0.7311
    6MPD2     H   91   1.162   3.170  11.717  0.6567 -0.1408  2.7464
    6MPD2    H1   92   0.779   3.339  11.587 -0.0430 -1.5155 -0.7863
    6MPD2    H2   93   0.875   3.331  11.991  0.7583  1.4818 -0.2481
    6MPD2    H3   94   0.730   3.401  11.811 -0.7010  0.6214 -1.4431
    6MPD2     N   95   1.020   3.211  11.507  0.1093 -0.2398 -0.0137
    6MPD2    H5   96   1.108   3.164  11.491  0.7934  0.7551  0.9066
    6MPD2    N1   97   1.097   3.205  11.985 -0.3487 -0.1933 -0.1795
    6MPD2    H7   98   1.065   3.245  12.073 -0.6769 -0.8312 -0.0069
    7TCq1    O1   99   4.106   2.309  12.527  0.3823 -0.1536 -0.0090
    7TCq1    C1  100   3.973   2.289  12.548  0.4542  0.4617 -0.4501
    7TCq1    O2  101   3.908   2.356  12.625  0.6675 -0.0575  0.3529
    7TCq1    C2  102   3.926   2.170  12.472 -0.1009 -0.6762  0.3212
    7TCq1    C3  103   4.006   2.100  12.385 -0.1182  0.3133 -0.2882
    7TCq1    C4  104   3.953   2.003  12.303 -0.4429  0.4201 -0.2665
    7TCq1    C5  105   3.822   1.986  12.296 -0.6991 -0.4194  0.7268
    7TCq1    C6  106   3.741   2.062  12.373  0.4425 -0.4169  0.3749
    7TCq1    C7  107   3.791   2.161  12.454  0.6848 -0.2020 -0.2565
    7TCq1    C8  108   3.631   1.986  12.431  0.9027 -0.1838 -0.1064
    7TCq1    O4  109   3.644   1.863  12.410 -0.1343  0.0109  0.1805
    7TCq1    C9  110   4.035   1.919  12.222  0.3758 -0.3737 -0.6999
    7TCq1    O5  111   4.155   1.907  12.266  0.1642  0.1826  0.5911
    7TCq1    O6  112   3.994   1.854  12.124  0.2809  0.0441  0.1982
    7TCq1    H1  113   4.131   2.274  12.439 -1.6192 -1.3492 -0.0927
    7TCq1    H2  114   4.114   2.098  12.398  0.0874 -0.8138 -2.1567
    7TCq1    H3  115   3.789   1.900  12.239 -0.6192  0.9367 -1.3555
    7TCq1    H4  116   3.729   2.191  12.538 -0.8767  1.2775 -1.9334
    8MPD2     C  117   3.143   1.976  12.592  0.0395 -0.5111 -0.0266
    8MPD2    C1  118   3.231   1.869  12.575 -0.0147  0.5375  0.6006
    8MPD2    C2  119   3.368   1.896  12.558  0.3354  0.6502 -0.3138
    8MPD2    C3  120   3.409   2.027  12.531 -0.1742  0.3606  0.3411
    8MPD2    C4  121   3.315   2.128  12.532  0.2331  0.8805 -0.2031
    8MPD2    C5  122   3.182   2.104  12.568  0.4162 -0.9172  0.7710
    8MPD2     H  123   3.429   1.806  12.551 -0.0316  0.2786  1.3943
    8MPD2    H1  124   3.334   2.231  12.503 -3.0736  1.0149 -1.9212
    8MPD2    H2  125   3.036   1.967  12.611  0.2147 -0.1588  1.1245
    8MPD2    H3  126   3.116   2.190  12.570  0.3196 -1.0093  1.3909
    8MPD2     N  127   3.530   2.069  12.475  0.3199 -0.4883  0.2689
    8MPD2    H5  128   3.530   2.169  12.458  1.4392 -0.0548  2.9576
    8MPD2    N1  129   3.192   1.739  12.599 -0.1600 -0.2833 -0.9596
    8MPD2    H7  130   3.259   1.664  12.614 -1.5169 -1.3860 -0.4307
    9TMC1    C1  131   0.489   1.087  11.565  0.4955 -0.6754  0.7350
    9TMC1    C2  132   0.560   1.077  11.439  0.2727 -0.1284 -0.1240
    9TMC1    C3  133   0.552   0.958  11.370  0.3137  0.7140 -0.1341
    9TMC1    C4  134   0.410   0.984  11.612 -0.2583 -0.1632 -0.4250
    9TMC1    C5  135   0.398   0.869  11.532  0.0817  0.2856 -0.8067
    9TMC1    C6  136   0.466   0.851  11.412  0.1117  0.7671  0.6832
    9TMC1     C  137   0.536   1.185  11.655 -0.2963  0.2608  0.5603
    9TMC1     O  138   0.552   1.299  11.607 -0.3627 -0.1263 -0.0037
    9TMC1     H  139   0.624   1.161  11.414  1.2573 -1.1749 -1.1001
    9TMC1    H1  140   0.363   0.993  11.710  0.5767 -0.9634  0.0531
    9TMC1    H2  141   0.469   0.770  11.340  0.5675  1.2083  0.1977
    9TMC1    C7  142   0.319   0.761  11.587 -0.0524 -0.0045 -0.1715
    9TMC1    C8  143   0.622   0.941  11.249  0.1396 -0.1657 -0.6835
    9TMC1    O1  144   0.283   0.749  11.704 -0.0521  0.0232 -0.8592
    9TMC1    O2  145   0.561   0.904  11.150 -0.4817 -0.3221 -0.1097
    9TMC1    O3  146   0.323   0.662  11.498 -0.0041  0.3250  0.7630
    9TMC1    H3  147   0.321   0.688  11.403  1.0355 -0.8125  0.4295
    9TMC1    O5  148   0.728   0.868  11.291  0.4606  0.0837  0.2239
    9TMC1    H5  149   0.754   0.911  11.375 -1.2044  0.2463  0.6667
   10MPD2     C  150   0.649   1.347  11.875  0.1272  0.1151  0.2418
   10MPD2    C1  151   0.622   1.213  11.887 -0.0402  0.1308 -0.5800
   10MPD2    C2  152   0.635   1.144  12.004  0.2987 -0.4479  0.1601
   10MPD2    C3  153   0.667   1.206  12.122 -0.1083 -0.2993  0.1024
   10MPD2    C4  154   0.694   1.341  12.111  0.1976 -0.4453 -0.0694
   10MPD2    C5  155   0.697   1.405  11.986  0.6335 -0.0176  0.1776
   10MPD2     H  156   0.611   1.039  12.012  3.2152 -1.0866  0.4892
   10MPD2    H1  157   0.735   1.406  12.187  3.4423 -1.2833 -1.1287
   10MPD2    H2  158   0.645   1.405  11.783  0.6421  2.0041  1.4225
   10MPD2    H3  159   0.734   1.507  11.987  0.9231 -0.1470  1.9330
   10MPD2     N  160   0.690   1.143  12.250  0.0319  0.1550 -0.2583
   10MPD2    H5  161   0.740   1.202  12.316  1.6514 -1.6781  0.1488
   10MPD2    N1  162   0.570   1.137  11.781 -0.3485  0.0181 -0.2481
   10MPD2    H7  163   0.575   1.040  11.810  1.7683  0.4106  0.6809
   11TCq1    O1  164   0.885   0.713  14.576 -0.2860 -0.3536 -0.1655
   11TCq1    C1  165   0.895   0.711  14.438  0.4838  0.0501  1.1720
   11TCq1    O2  166   0.809   0.751  14.359  0.0049  0.5606  0.2671
   11TCq1    C2  167   0.974   0.600  14.414 -0.2944  0.4645  0.7718
   11TCq1    C3  168   1.109   0.603  14.456  0.6932  0.0255  0.1969
   11TCq1    C4  169   1.179   0.485  14.433 -0.0404 -0.6298 -0.2850
   11TCq1    C5  170   1.129   0.381  14.371 -0.1841  1.0391 -0.2118
   11TCq1    C6  171   0.997   0.384  14.340  0.2144  0.3005  0.2685
   11TCq1    C7  172   0.916   0.495  14.351  0.0050  0.2106  0.2806
   11TCq1    C8  173   0.949   0.300  14.229  0.4107  0.5147  0.3369
   11TCq1    O4  174   0.870   0.359  14.150  0.0113 -0.2764  0.2952
   11TCq1    C9  175   1.316   0.485  14.481 -0.3179 -0.1863  0.1043
   11TCq1    O5  176   1.360   0.584  14.552  0.4888  0.2148  0.4395
   11TCq1    O6  177   1.380   0.422  14.392 -1.0281  0.0821 -0.1560
   11TCq1    H1  178   0.949   0.648  14.611  0.9827 -0.3752 -2.5640
   11TCq1    H2  179   1.143   0.683  14.520 -0.7978 -0.3368  1.4399
   11TCq1    H3  180   1.185   0.288  14.363 -0.6969  0.5235  1.9930
   11TCq1    H4  181   0.812   0.473  14.334  0.6638 -0.6248 -2.6699
   12MPD2     C  182   0.891   0.103  14.020 -0.7040  0.1192  0.3710
   12MPD2    C1  183   0.993   0.091  14.115  0.3550 -0.2604 -0.3863
   12MPD2    C2  184   1.074   4.710  14.117 -0.0003  0.3592 -0.0196
   12MPD2    C3  185   1.063   4.616  14.018  0.4475 -0.6084  0.6373
   12MPD2    C4  186   0.960   4.625  13.924  0.1250 -0.0777  0.7422
   12MPD2    C5  187   0.875   4.736  13.926 -0.1556  0.4487 -0.4317
   12MPD2     H  188   1.155   4.701  14.189 -1.3114  1.9779  1.6420
   12MPD2    H1  189   0.947   4.550  13.847  1.0759  3.7421 -3.1528
   12MPD2    H2  190   0.822   0.186  14.013 -0.9766 -0.3233 -1.9970
   12MPD2    H3  191   0.798   0.015  13.851  0.2328 -0.0090 -0.9384
   12MPD2     N  192   1.141   4.495  14.017 -0.2277  0.0837 -0.2286
   12MPD2    H5  193   1.123   4.427  13.944 -0.7844 -1.9862  1.8337
   12MPD2    N1  194   1.017   0.186  14.216 -0.2375  0.3869 -0.3265
   12MPD2    H7  195   1.085   0.163  14.288 -2.4933  0.3772  1.8144
   13TCq1    O1  196   1.099   1.743  12.101 -0.1487 -0.3696 -0.2818
   13TCq1    C1  197   1.122   1.734  11.974  0.2701  0.4680  0.2116
   13TCq1    O2  198   1.166   1.821  11.902  0.4674  0.2625 -0.4353
   13TCq1    C2  199   1.047   1.617  11.927  0.0044  0.3557  0.4261
   13TCq1    C3  200   1.084   1.497  11.985 -0.2562  0.7976 -0.6492
   13TCq1    C4  201   1.058   1.384  11.915 -0.5323 -1.2130  0.2939
   13TCq1    C5  202   0.999   1.390  11.789 -0.1951 -0.1945  0.3496
   13TCq1    C6  203   0.970   1.508  11.733 -0.3247 -0.7560 -0.4791
   13TCq1    C7  204   0.996   1.623  11.798  0.3574 -0.0506 -0.3981
   13TCq1    C8  205   0.935   1.512  11.590 -0.2094  0.1495  0.5213
   13TCq1    O4  206   0.855   1.592  11.546  0.1586 -0.2522 -0.0811
   13TCq1    C9  207   1.075   1.250  11.971  0.4967  0.5897 -0.1761
   13TCq1    O5  208   1.136   1.242  12.079 -0.2781 -0.2021 -0.5914
   13TCq1    O6  209   1.025   1.155  11.914 -0.0940  0.2842 -0.1833
   13TCq1    H1  210   1.051   1.667  12.139 -1.5266  0.6643  0.0555
   13TCq1    H2  211   1.129   1.487  12.083  0.5959  0.9346 -1.0280
   13TCq1    H3  212   0.994   1.296  11.735 -3.8487 -0.0371  0.4670
   13TCq1    H4  213   0.995   1.714  11.739  1.1923  0.5510  0.5022
   14MPD2     C  214   1.042   1.257  11.351 -0.1343 -0.7220  0.6629
   14MPD2    C1  215   0.957   1.347  11.403  0.0178  0.6282  0.3093
   14MPD2    C2  216   0.843   1.384  11.334 -0.3646 -0.5629  0.0599
   14MPD2    C3  217   0.802   1.303  11.231 -0.3466  1.0056  0.0486
   14MPD2    C4  218   0.882   1.207  11.175  0.8760  0.7612 -0.2320
   14MPD2    C5  219   1.008   1.182  11.236 -0.0563 -0.1979 -0.4063
   14MPD2     H  220   0.781   1.466  11.367 -1.4193 -1.4049  0.1522
   14MPD2    H1  221   0.849   1.147  11.092  1.1028  1.2254 -0.6571
   14MPD2    H2  222   1.138   1.236  11.396  0.8924 -0.0253 -1.2431
   14MPD2    H3  223   1.077   1.118  11.183  0.8013  0.2244  0.1930
   14MPD2     N  224   0.674   1.336  11.179 -0.3737 -0.2221  0.5529
   14MPD2    H5  225   0.617   1.407  11.224 -0.6482  0.7693 -1.3479
   14MPD2    N1  226   1.002   1.405  11.524  0.6029 -0.0292 -0.0237
   14MPD2    H7  227   1.079   1.358  11.571 -1.3377 -2.4302  0.7751
   15TCq1    O1  228   2.905   0.507   1.804 -0.4238 -0.3381 -0.2606
   15TCq1    C1  229   2.962   0.632   1.812 -1.0471  0.6172 -0.6929
   15TCq1    O2  230   2.934   0.717   1.899 -0.2607  0.3452 -0.6865
   15TCq1    C2  231   3.090   0.632   1.744 -0.7734 -0.2500  0.5449
   15TCq1    C3  232   3.186   0.726   1.773 -0.3972 -0.2543  0.0597
   15TCq1    C4  233   3.302   0.728   1.706 -0.0842  0.0488 -0.2714
   15TCq1    C5  234   3.324   0.643   1.595  0.2570  0.5240 -0.0806
   15TCq1    C6  235   3.221   0.553   1.565 -0.4040  0.1070  0.5370
   15TCq1    C7  236   3.102   0.550   1.638 -0.8071  0.5590  0.0474
   15TCq1    C8  237   3.250   0.460   1.456 -0.1519 -0.1911 -0.0901
   15TCq1    O4  238   3.335   0.486   1.375 -0.2615 -0.0356  0.3516
   15TCq1    C9  239   3.410   0.817   1.740 -0.4489 -0.4412 -0.5161
   15TCq1    O5  240   3.385   0.904   1.832  0.3461  0.4186  0.0921
   15TCq1    O6  241   3.520   0.785   1.693  0.7200  0.3994  0.3551
   15TCq1    H1  242   2.950   0.444   1.745  0.3840  0.7320 -0.7922
   15TCq1    H2  243   3.164   0.795   1.853  0.5609 -0.1973  0.2725
   15TCq1    H3  244   3.416   0.641   1.539 -0.6545 -0.4979 -1.5279
   15TCq1    H4  245   3.012   0.506   1.597 -0.6392  2.6456 -2.5189
   16MPD2     C  246   3.018   0.200   1.346  0.4538 -0.2035 -0.1291
   16MPD2    C1  247   3.137   0.263   1.356 -0.1377 -0.1298  0.4154
   16MPD2    C2  248   3.242   0.213   1.285 -0.3924  0.4870 -1.1749
   16MPD2    C3  249   3.225   0.109   1.197 -0.6668 -0.3950  0.6174
   16MPD2    C4  250   3.099   0.059   1.176 -0.3785 -0.3264  0.3601
   16MPD2    C5  251   2.997   0.099   1.254  0.0486 -0.2331 -0.2625
   16MPD2     H  252   3.341   0.258   1.290 -0.4854  0.5612  0.0899
   16MPD2    H1  253   3.091   4.704   1.121  0.2639 -0.4831  0.5301
   16MPD2    H2  254   2.932   0.228   1.406  0.4804  1.2537 -0.7898
   16MPD2    H3  255   2.899   0.052   1.258 -0.2055  0.4193  1.4297
   16MPD2     N  256   3.342   0.054   1.133  0.6219 -0.0837  0.2580
   16MPD2    H5  257   3.429   0.095   1.166  1.0767 -0.1238 -0.8730
   16MPD2    N1  258   3.156   0.362   1.456  0.3777 -0.1722  0.2160
   16MPD2    H7  259   3.074   0.364   1.516 -1.4233  0.2161 -2.2748
   17TMC1    C1  260   0.613   0.010  10.681  1.1908  0.0203 -0.4749
   17TMC1    C2  261   0.663   0.060  10.796  0.7043 -0.1553  0.0902
   17TMC1    C3  262   0.581   0.069  10.903 -0.2684 -0.0681  0.8304
   17TMC1    C4  263   0.486   4.696  10.669  0.7478  0.0248  0.2062
   17TMC1    C5  264   0.410   4.696  10.785 -0.3920  0.5039 -0.1349
   17TMC1    C6  265   0.454   0.023  10.898  0.0166 -0.2531  0.0507
   17TMC1     C  266   0.693   4.736  10.557  0.5052 -0.1624  0.3803
   17TMC1     O  267   0.667   4.643  10.483  0.3722 -0.7409  0.0260
   17TMC1     H  268   0.771   0.068  10.806  1.1996 -2.5393 -3.0916
   17TMC1    H1  269   0.453   4.653  10.575 -1.2885 -0.1519  0.9947
   17TMC1    H2  270   0.379   0.044  10.973 -1.5026 -2.4723 -0.8083
   17TMC1    C7  271   0.291   4.618  10.782  0.3008 -0.4330 -0.3832
   17TMC1    C8  272   0.610   0.171  11.000  0.1114 -0.0091  0.5407
   17TMC1    O1  273   0.229   4.598  10.679 -0.3066  0.2029 -0.1805
   17TMC1    O2  274   0.520   0.233  11.057  0.3710  0.7911 -0.3809
   17TMC1    O3  275   0.264   4.584  10.912  0.1914 -0.3048 -0.0335
   17TMC1    H3  276   0.329   4.597  10.984 -1.6578  1.6585  1.2949
   17TMC1    O5  277   0.722   0.123  11.050 -0.2147 -0.0051 -0.9937
   17TMC1    H5  278   0.770   0.065  10.987 -2.3229 -2.0608 -0.6842
   18MPD2     C  279   0.872   0.048  10.330  0.1769  0.0268 -0.5470
   18MPD2    C1  280   0.881   0.111  10.452 -0.1324  0.0903  0.1553
   18MPD2    C2  281   0.972   0.213  10.474 -0.6395  0.4403 -0.2785
   18MPD2    C3  282   1.050   0.262  10.373  0.4028  0.0059  0.0660
   18MPD2    C4  283   1.044   0.198  10.255 -0.6775  0.4483 -0.1812
   18MPD2    C5  284   0.960   0.094  10.234  0.3200 -0.6058 -0.3745
   18MPD2     H  285   0.977   0.267  10.568 -0.6318  1.0661 -0.6380
   18MPD2    H1  286   1.106   0.236  10.174  1.1985  0.9658  1.4873
   18MPD2    H2  287   0.799   4.710  10.303 -0.5448  0.5115  0.0304
   18MPD2    H3  288   0.961   0.067  10.129  0.0765 -0.7567 -0.3398
   18MPD2     N  289   1.151   0.358  10.387  0.6727  0.4016 -0.3772
   18MPD2    H5  290   1.204   0.381  10.304  0.6869  0.7598 -0.2687
   18MPD2    N1  291   0.795   0.087  10.561 -0.0097  0.4627  0.1993
   18MPD2    H7  292   0.796   0.161  10.630  2.0794  0.6323 -0.0091
   19TMC2    C1  293   2.222   0.788  14.244  0.3247  0.1358 -0.4893
   19TMC2    C2  294   2.120   0.876  14.191 -0.4033  0.4981 -0.4532
   19TMC2    C3  295   2.011   0.805  14.138  0.4200 -0.3374  0.3177
   19TMC2    C4  296   2.214   0.650  14.227 -0.4523 -0.7425 -0.1272
   19TMC2    C5  297   2.110   0.597  14.161  0.3774 -0.1950 -0.1343
   19TMC2    C6  298   2.002   0.669  14.122  0.1157  0.3270 -1.1144
   19TMC2     C  299   2.348   0.852  14.260  0.2530  0.1345 -0.2995
   19TMC2     O  300   2.345   0.974  14.265  0.2417 -0.2808 -0.3266
   19TMC2     H  301   2.111   0.979  14.224 -0.5579  0.3530 -0.0435
   19TMC2    H1  302   2.290   0.579  14.257  0.5379  1.4748  2.6173
   19TMC2    H2  303   1.909   0.625  14.088  1.2943 -3.4623  0.4400
   19TMC2    C7  304   2.124   0.455  14.131 -0.1351  0.7859 -0.2813
   19TMC2    C8  305   1.899   0.887  14.098 -0.6643 -0.7085  0.3478
   19TMC2    O1  306   2.235   0.414  14.092  0.7154  0.7108  0.0127
   19TMC2    O2  307   1.786   0.853  14.078 -0.0976 -0.3663  0.3782
   19TMC2    O5  308   1.946   1.013  14.054 -0.2906  0.6448  0.0883
   19TMC2    H5  309   2.044   1.024  14.057  0.0315 -2.3026 -0.3336
   20MPD2     C  310   2.625   0.935  14.350 -0.2395 -0.7765  0.6210
   20MPD2    C1  311   2.587   0.801  14.317 -0.3689 -0.0710  0.7963
   20MPD2    C2  312   2.677   0.698  14.325 -0.4929  0.0240 -0.2295
   20MPD2    C3  313   2.813   0.727  14.359 -0.5367 -0.2056  0.0495
   20MPD2    C4  314   2.848   0.855  14.388  0.0098  0.2052  0.0060
   20MPD2    C5  315   2.758   0.961  14.377 -0.6295  0.2758  0.1333
   20MPD2     H  316   2.642   0.598  14.301  0.8622  0.4349 -3.8965
   20MPD2    H1  317   2.948   0.870  14.427 -0.0298 -0.0260  0.1962
   20MPD2    H2  318   2.552   1.013  14.334 -0.0595 -1.0247 -1.3692
   20MPD2    H3  319   2.792   1.058  14.409  1.8718 -0.7819  0.6521
   20MPD2     N  320   2.917   0.635  14.346  0.8680 -0.3378 -0.0157
   20MPD2    H5  321   3.011   0.660  14.374  0.9219 -1.2655  0.6463
   20MPD2    N1  322   2.455   0.763  14.279  0.3610  0.3675 -0.3529
   20MPD2    H7  323   2.445   0.664  14.260  2.8418  0.5998 -2.9313
   21TMC2    C1  324   0.059   0.945  14.435 -0.4049 -0.2438 -0.0457
   21TMC2    C2  325   0.167   0.860  14.452 -0.0085  0.3942  0.5791
   21TMC2    C3  326   0.169   0.766  14.555  0.4915 -0.1752 -0.2540
   21TMC2    C4  327   4.687   0.933  14.522  0.0115  0.2363  0.6903
   21TMC2    C5  328   4.692   0.839  14.621 -0.2500 -0.5013 -0.4281
   21TMC2    C6  329   0.069   0.761  14.646  0.5401  0.7314  0.5624
   21TMC2     C  330   0.080   1.071  14.368 -0.1045 -0.7665 -0.4808
   21TMC2     O  331   0.078   1.084  14.244 -0.0736  0.1376  0.0648
   21TMC2     H  332   0.255   0.886  14.395 -0.9444  2.1574 -0.0632
   21TMC2    H1  333   4.607   1.007  14.519  0.9932  1.2312 -1.7391
   21TMC2    H2  334   0.072   0.698  14.734  2.7995  1.4988  1.0524
   21TMC2    C7  335   4.603   0.852  14.736  0.3652  0.8003  0.1833
   21TMC2    C8  336   0.301   0.749  14.614 -0.8315 -0.5510  0.0782
   21TMC2    O1  337   4.628   0.794  14.841  0.0730  0.2121  0.7486
   21TMC2    O2  338   0.329   0.816  14.714  1.1979 -0.1261  0.2722
   21TMC2    O5  339   0.390   0.699  14.524 -0.4370  0.3501 -0.1096
   21TMC2    H5  340   0.358   0.667  14.437  0.5588 -0.0898 -0.3144
   22MPD2     C  341   0.111   1.275  14.865 -0.1456 -0.1248  1.2369
   22MPD2    C1  342   0.138   1.145  14.819  0.3855  0.2975  0.1735
   22MPD2    C2  343   0.120   1.107  14.685  0.2542 -0.0432 -0.5285
   22MPD2    C3  344   0.078   1.196  14.598  0.7229 -0.3110 -0.1281
   22MPD2    C4  345   0.036   1.318  14.639 -0.0363 -0.2354  0.2130
   22MPD2    C5  346   0.053   1.356  14.772 -0.7836  0.4119  0.2677
   22MPD2     H  347   0.164   1.012  14.656  2.7995  1.7593 -2.5170
   22MPD2    H1  348   0.002   1.394  14.570 -1.0301 -1.7348 -0.9545
   22MPD2    H2  349   0.128   1.311  14.966  1.2214  3.6376 -0.3405
   22MPD2    H3  350   0.034   1.458  14.803 -3.7808 -0.4482  1.2648
   22MPD2     N  351   0.066   1.180  14.454  0.7291 -0.1837  0.3311
   22MPD2    H5  352   0.042   1.266  14.406 -0.5530 -0.9596 -0.3993
   22MPD2    N1  353   0.206   1.052  14.901 -0.3194  0.0525 -0.2855
   22MPD2    H7  354   0.227   0.964  14.855 -0.4307 -1.1020  1.8538
   23TMC2    C1  355   1.258   1.926  14.058 -0.1663  0.6850 -0.0057
   23TMC2    C2  356   1.207   1.848  13.961  0.0216 -0.5047 -0.1490
   23TMC2    C3  357   1.115   1.901  13.875 -0.0695 -0.2559  0.1433
   23TMC2    C4  358   1.207   2.048  14.094  0.4240 -0.2269 -0.7822
   23TMC2    C5  359   1.095   2.086  14.021 -0.0676 -0.2345  0.7006
   23TMC2    C6  360   1.063   2.019  13.904 -0.5497  0.1207 -0.1733
   23TMC2     C  361   1.336   1.863  14.162  0.0485  0.2521  0.1267
   23TMC2     O  362   1.302   1.878  14.276 -0.1175  0.1004 -0.0459
   23TMC2     H  363   1.254   1.752  13.938  2.9235  0.7213  0.5804
   23TMC2    H1  364   1.247   2.101  14.179 -0.1870  0.6957 -1.0729
   23TMC2    H2  365   0.977   2.054  13.848 -0.4846 -0.3729 -0.5767
   23TMC2    C7  366   1.032   2.214  14.050 -0.6948 -0.0713  0.5802
   23TMC2    C8  367   1.034   1.819  13.785  0.4176 -0.3852 -0.0438
   23TMC2    O1  368   1.097   2.305  14.097  0.3701 -0.1568  0.0615
   23TMC2    O2  369   0.912   1.824  13.783 -0.0852  0.1357 -0.1200
   23TMC2    O5  370   1.114   1.775  13.680 -0.0245  0.1910  0.2486
   23TMC2    H5  371   1.207   1.770  13.713 -0.3561  3.0320  1.6155
   24MPD2     C  372   1.737   1.581  14.305  0.0765 -0.2790  1.0696
   24MPD2    C1  373   1.634   1.625  14.388  1.1704  0.0394  0.5421
   24MPD2    C2  374   1.533   1.696  14.326 -0.4721 -0.3884 -0.5903
   24MPD2    C3  375   1.532   1.704  14.179 -0.2721 -0.0328 -0.9591
   24MPD2    C4  376   1.629   1.644  14.105 -0.0162  0.5032 -0.1020
   24MPD2    C5  377   1.734   1.578  14.168 -0.4936 -0.7788 -0.3703
   24MPD2     H  378   1.452   1.734  14.388 -0.9573 -0.3097 -1.2677
   24MPD2    H1  379   1.627   1.644  13.996 -1.2833 -1.4816 -0.0709
   24MPD2    H2  380   1.826   1.534  14.344  1.2655  0.5106 -0.6845
   24MPD2    H3  381   1.800   1.520  14.105 -1.0605 -0.7925 -0.9491
   24MPD2     N  382   1.437   1.784  14.109  0.0957 -0.5622 -0.0287
   24MPD2    H5  383   1.447   1.784  14.008  3.5004 -0.3215  0.3049
   24MPD2    N1  384   1.625   1.609  14.530  0.3465  0.5532  0.0363
   24MPD2    H7  385   1.547   1.649  14.580 -0.1033 -0.7354  0.3497
   25TMC2    C1  386   4.022   0.050  11.912  0.9937 -0.1268  0.3780
   25TMC2    C2  387   3.961   0.141  11.997  1.0765 -0.0267  0.0778
   25TMC2    C3  388   3.959   0.126  12.135  0.3088  0.5551 -0.1080
   25TMC2    C4  389   4.079   4.679  11.967 -0.5554 -0.5345 -0.0941
   25TMC2    C5  390   4.074   4.673  12.103  0.0426  0.0255 -0.1827
   25TMC2    C6  391   4.027   0.027  12.192  0.1957 -0.3362  0.0057
   25TMC2     C  392   4.048   0.084  11.775 -0.3024  0.2657 -0.6202
   25TMC2     O  393   4.034   0.204  11.751 -0.3313 -0.2599 -0.6419
   25TMC2     H  394   3.932   0.239  11.960  1.5633  0.7547  1.8152
   25TMC2    H1  395   4.151   4.621  11.911  1.8077  0.5805  1.8014
   25TMC2    H2  396   4.026   0.017  12.300  0.9180  1.2877  0.1657
   25TMC2    C7  397   4.139   4.557  12.168  0.2082 -0.3947  0.0919
   25TMC2    C8  398   3.929   0.234  12.230 -0.5275 -0.1257  0.4392
   25TMC2    O1  399   4.230   4.500  12.110 -0.4513  0.3763  0.1887
   25TMC2    O2  400   4.005   0.254  12.327 -0.2807  0.1200 -0.4952
   25TMC2    O5  401   3.840   0.320  12.176  0.1663 -0.3290  0.8174
   25TMC2    H5  402   3.769   0.276  12.125 -0.2895  1.5085 -0.1437
   26MPD2     C  403   4.101   4.736  11.262 -0.5738  0.5263 -0.5713
   26MPD2    C1  404   4.113   4.616  11.336 -0.8045  0.4845 -0.4290
   26MPD2    C2  405   4.102   4.614  11.474  0.3473 -0.2254  0.7461
   26MPD2    C3  406   4.075   4.725  11.545 -0.6857  0.6934  0.9666
   26MPD2    C4  407   4.069   0.108  11.477  0.3485 -0.5548  0.0868
   26MPD2    C5  408   4.088   0.114  11.339 -0.4711  0.4305 -0.1567
   26MPD2     H  409   4.113   4.521  11.529 -1.1437  0.5193  2.2879
   26MPD2    H1  410   4.056   0.205  11.524  1.7889  0.4637 -1.5765
   26MPD2    H2  411   4.096   0.004  11.154 -0.8824  0.6182 -0.5533
   26MPD2    H3  412   4.077   0.213  11.296 -1.2575  0.1236 -0.6812
   26MPD2     N  413   4.069   4.713  11.684  1.2349  0.2077  0.1294
   26MPD2    H5  414   4.074   4.621  11.724  2.7232  0.0618 -0.3535
   26MPD2    N1  415   4.137   4.495  11.261  0.2704 -0.0613  0.5530
   26MPD2    H7  416   4.143   4.510  11.161 -1.5485 -0.6469  0.3515
   27TMC2    C1  417   4.180   1.562  12.068  0.0371 -0.8663 -0.0189
   27TMC2    C2  418   4.168   1.673  11.989 -0.1026 -0.5926 -0.2609
   27TMC2    C3  419   4.281   1.754  11.978  0.0335  0.1276  0.0731
   27TMC2    C4  420   4.295   1.525  12.126  0.1165 -0.7476 -0.6411
   27TMC2    C5  421   4.407   1.602  12.115 -0.7146 -0.0199  0.8352
   27TMC2    C6  422   4.399   1.718  12.042 -0.4707 -0.0479 -0.5839
   27TMC2     C  423   4.062   1.496  12.123  0.3340  0.4238 -0.5691
   27TMC2     O  424   4.087   1.380  12.160  0.5195 -0.4205 -0.3436
   27TMC2     H  425   4.076   1.694  11.936 -0.3015 -0.2390  0.2321
   27TMC2    H1  426   4.297   1.454  12.208  1.0424  2.5244  2.1650
   27TMC2    H2  427   4.473   1.797  12.042  0.5225 -0.9772  0.6270
   27TMC2    C7  428   4.481   1.603  12.232 -0.5665  0.4655  0.2236
   27TMC2    C8  429   4.275   1.885  11.923  0.3491 -0.2017  0.0377
   27TMC2    O1  430   4.495   1.491  12.283  0.0193 -0.2629  0.2884
   27TMC2    O2  431   4.373   1.949  11.877 -0.4791  0.0813  0.1369
   27TMC2    O5  432   4.144   1.933  11.925  0.0328  0.1150  0.1899
   27TMC2    H5  433   4.100   1.877  11.992  0.7121 -0.2441  0.3402
   28MPD2     C  434   3.572   1.471  12.263  0.1807 -0.3402  0.3335
   28MPD2    C1  435   3.598   1.596  12.215  0.4087  0.0827 -0.0131
   28MPD2    C2  436   3.722   1.630  12.167  0.1250  0.7625 -0.3720
   28MPD2    C3  437   3.826   1.536  12.173  0.3575 -0.2516 -0.1503
   28MPD2    C4  438   3.796   1.409  12.220  0.1194 -0.3017 -0.5797
   28MPD2    C5  439   3.668   1.379  12.255  0.3199  0.2890 -0.0542
   28MPD2     H  440   3.742   1.727  12.124  1.4498  1.3537  1.5528
   28MPD2    H1  441   3.877   1.336  12.229  1.1152  0.8860  0.1781
   28MPD2    H2  442   3.476   1.435  12.296  0.7821  0.5715  3.0413
   28MPD2    H3  443   3.649   1.277  12.287 -1.0174  0.5093 -0.1625
   28MPD2     N  444   3.955   1.579  12.133  0.4209 -0.1495 -0.1095
   28MPD2    H5  445   3.975   1.676  12.109 -1.7675  0.5263  0.7470
   28MPD2    N1  446   3.499   1.698  12.203  0.5575 -0.2428  0.1170
   28MPD2    H7  447   3.529   1.773  12.142  0.9695 -0.4098  0.1109
   29TMC2    C1  448   3.737   3.934  14.006  0.1699 -0.8865 -0.0475
   29TMC2    C2  449   3.684   3.923  14.130 -0.0797  0.5315 -0.0855
   29TMC2    C3  450   3.693   4.037  14.204  0.3957 -0.2490  0.3070
   29TMC2    C4  451   3.782   4.053  13.951 -0.2386 -0.0533 -0.4716
   29TMC2    C5  452   3.794   4.160  14.035 -0.0155  0.1862  0.3959
   29TMC2    C6  453   3.746   4.157  14.159  0.0455 -0.2560  0.5668
   29TMC2     C  454   3.679   3.850  13.898  0.2918  0.2294 -0.0825
   29TMC2     O  455   3.637   3.910  13.797 -0.0996  0.8369  0.4812
   29TMC2     H  456   3.632   3.834  14.162  2.5843 -1.7951 -2.1733
   29TMC2    H1  457   3.804   4.055  13.845  1.3967  0.2695 -0.1315
   29TMC2    H2  458   3.730   4.251  14.210  0.4810 -0.2070  0.6105
   29TMC2    C7  459   3.845   4.285  13.977  0.1314 -0.4397 -0.0655
   29TMC2    C8  460   3.626   4.025  14.332  0.0824  0.1079  0.3482
   29TMC2    O1  461   3.865   4.279  13.858 -0.0847 -0.1459 -0.0214
   29TMC2    O2  462   3.600   3.912  14.381 -0.7478  0.2539 -0.7304
   29TMC2    O5  463   3.556   4.138  14.354  0.3925  0.3398  0.0453
   29TMC2    H5  464   3.584   4.218  14.304 -1.7100  1.9958  1.4836
   30MPD2     C  465   3.540   3.408  13.687  0.1277 -0.2662  0.4334
   30MPD2    C1  466   3.623   3.380  13.797 -0.3472 -0.2123 -0.6506
   30MPD2    C2  467   3.672   3.477  13.883 -1.0642 -0.1544 -0.1748
   30MPD2    C3  468   3.639   3.609  13.854 -0.4948  0.2525  0.0596
   30MPD2    C4  469   3.546   3.640  13.750 -0.3065 -0.7955  0.4521
   30MPD2    C5  470   3.504   3.539  13.670  0.4990 -0.1423 -0.0125
   30MPD2     H  471   3.746   3.462  13.960 -1.1047  2.8394  0.4549
   30MPD2    H1  472   3.511   3.738  13.720  0.5668 -0.1730  1.4303
   30MPD2    H2  473   3.513   3.339  13.608  1.1273  1.4072 -1.3781
   30MPD2    H3  474   3.432   3.570  13.595  1.3250  1.0931 -0.3068
   30MPD2     N  475   3.685   3.717  13.934 -0.2847  0.5495  0.2325
   30MPD2    H5  476   3.729   3.695  14.023 -1.0436  0.1372  0.5046
   30MPD2    N1  477   3.678   3.252  13.816 -0.1338  0.1238 -0.1024
   30MPD2    H7  478   3.740   3.237  13.895 -1.9197  2.5783  1.7766
   31TMC2    C1  479   1.163   2.737  15.461  0.0435  0.6876  0.2902
   31TMC2    C2  480   1.034   2.780  15.470 -0.1683 -0.4241 -0.1684
   31TMC2    C3  481   0.946   2.720  15.557 -0.4346 -0.2576  0.0201
   31TMC2    C4  482   1.213   2.641  15.546  0.0646  0.6682  0.3930
   31TMC2    C5  483   1.129   2.595  15.640  0.8713  0.1839  0.0117
   31TMC2    C6  484   0.995   2.635  15.647 -0.1905  0.0290  1.0513
   31TMC2     C  485   1.250   2.807  15.375  0.1104 -0.4379  0.0047
   31TMC2     O  486   1.208   2.907  15.322 -0.3142 -0.2658 -0.1708
   31TMC2     H  487   1.012   2.875  15.423 -0.7503 -0.4530  0.0494
   31TMC2    H1  488   1.317   2.610  15.545 -0.3327 -0.6480 -1.2561
   31TMC2    H2  489   0.925   2.593  15.719 -0.8182 -0.0036  0.4127
   31TMC2    C7  490   1.176   2.488  15.730 -0.0708 -0.9763  0.1434
   31TMC2    C8  491   0.812   2.776  15.577 -0.4623  0.5736  0.6464
   31TMC2    O1  492   1.270   2.424  15.698 -0.2239 -0.1028  0.3208
   31TMC2    O2  493   0.776   2.782  15.694  1.1001  0.0249  0.1418
   31TMC2    O5  494   0.786   2.858  15.477 -0.6381 -0.9728  0.5083
   31TMC2    H5  495   0.811   2.839  15.384  1.8605 -2.7524  1.5519
   32MPD2     C  496   1.666   2.795  15.071 -0.2137  0.6340  0.2717
   32MPD2    C1  497   1.553   2.863  15.048 -0.1452 -0.3463 -0.6645
   32MPD2    C2  498   1.451   2.842  15.142  0.1344  0.0925  0.6955
   32MPD2    C3  499   1.471   2.768  15.265 -0.0329 -0.3744  0.2354
   32MPD2    C4  500   1.596   2.707  15.283  0.1345 -0.0266 -0.2896
   32MPD2    C5  501   1.690   2.727  15.190  0.2302  0.3563 -0.8711
   32MPD2     H  502   1.355   2.886  15.118  1.4909  1.6976 -1.7483
   32MPD2    H1  503   1.619   2.659  15.377 -1.5384 -0.8532 -0.2982
   32MPD2    H2  504   1.749   2.807  15.001 -0.0732 -1.3531  0.1120
   32MPD2    H3  505   1.780   2.676  15.223  2.0194  3.3139 -1.2252
   32MPD2     N  506   1.373   2.752  15.361  0.6520 -0.0395  0.2098
   32MPD2    H5  507   1.387   2.682  15.434 -0.1887  0.3885  0.7731
   32MPD2    N1  508   1.539   2.919  14.920 -0.4356  0.7796  0.0459
   32MPD2    H7  509   1.621   2.904  14.862  0.1695  0.9903  0.8491
   33TMC2    C1  510   1.131   1.424  10.229  0.5513 -0.5845 -1.0409
   33TMC2    C2  511   1.008   1.393  10.186 -0.4514 -0.1464 -0.1644
   33TMC2    C3  512   0.911   1.487  10.160 -0.5098  0.0875  0.1454
   33TMC2    C4  513   1.169   1.559  10.240  0.1476 -0.1810 -0.1238
   33TMC2    C5  514   1.078   1.655  10.200  0.0479 -0.3321 -0.1762
   33TMC2    C6  515   0.952   1.625  10.154 -0.7917 -0.3142 -0.5227
   33TMC2     C  516   1.187   1.315  10.316  0.4878 -0.0254  0.0293
   33TMC2     O  517   1.143   1.201  10.304  0.1373  0.8462 -0.3952
   33TMC2     H  518   0.970   1.291  10.179 -0.7961 -0.2095  2.5885
   33TMC2    H1  519   1.265   1.588  10.283 -0.5552  0.5689  0.9576
   33TMC2    H2  520   0.874   1.694  10.125 -2.2521 -0.8647  2.1816
   33TMC2    C7  521   1.124   1.794  10.224 -0.2309 -0.0432  0.7594
   33TMC2    C8  522   0.796   1.455  10.066  0.8746  0.2600  0.2375
   33TMC2    O1  523   1.239   1.798  10.253  0.2481 -0.1474  0.4351
   33TMC2    O2  524   0.751   1.531   9.981  0.1846 -0.3986 -0.2395
   33TMC2    O5  525   0.741   1.343  10.105  0.0888 -0.5195 -0.0771
   33TMC2    H5  526   0.772   1.317  10.194  2.8629 -3.9232 -2.0415
   34MPD2     C  527   1.573   1.132  10.618  0.4589 -0.3776 -0.2554
   34MPD2    C1  528   1.478   1.068  10.542  0.9209  0.5881 -1.0771
   34MPD2    C2  529   1.376   1.143  10.488 -0.5475  0.2203  0.0292
   34MPD2    C3  530   1.383   1.278  10.475  0.0297  0.2550  0.6950
   34MPD2    C4  531   1.490   1.346  10.533  0.6323 -0.4983 -0.2238
   34MPD2    C5  532   1.582   1.270  10.605 -0.2490  0.2558 -0.5619
   34MPD2     H  533   1.293   1.088  10.445 -0.2347 -0.0608 -0.2103
   34MPD2    H1  534   1.505   1.453  10.537 -0.6435 -0.3693  1.2191
   34MPD2    H2  535   1.660   1.079  10.653 -0.1646  0.6481  2.8634
   34MPD2    H3  536   1.670   1.314  10.651 -0.8496  0.5268  0.3237
   34MPD2     N  537   1.292   1.357  10.395 -0.6438 -0.3212 -0.5312
   34MPD2    H5  538   1.313   1.456  10.394  1.7267 -0.8102 -0.1327
   34MPD2    N1  539   1.480   0.927  10.554 -0.4073 -0.7464 -0.1367
   34MPD2    H7  540   1.560   0.886  10.602 -0.4386 -2.7079 -1.8116
   35TMC2    C1  541   2.031   2.085  11.696 -0.3290 -0.1987  0.0727
   35TMC2    C2  542   1.922   2.138  11.632  0.4617 -0.3611 -0.0284
   35TMC2    C3  543   1.839   2.046  11.575 -0.5597 -0.5480  0.6334
   35TMC2    C4  544   2.041   1.953  11.719 -0.0878  0.4700 -0.0918
   35TMC2    C5  545   1.954   1.860  11.661 -0.3594  0.7555  0.7088
   35TMC2    C6  546   1.848   1.908  11.587  0.6718 -0.0420  0.6159
   35TMC2     C  547   2.143   2.174  11.722  0.1960  0.3878 -0.3789
   35TMC2     O  548   2.107   2.292  11.726  0.2168  0.1715  0.1587
   35TMC2     H  549   1.921   2.239  11.592 -0.5165 -0.7987 -1.0988
   35TMC2    H1  550   2.121   1.913  11.781 -0.7545  0.2066  0.6002
   35TMC2    H2  551   1.789   1.841  11.525  0.2306  1.9411 -1.0789
   35TMC2    C7  552   1.972   1.722  11.689  0.6421 -0.7349 -0.1463
   35TMC2    C8  553   1.745   2.107  11.481 -0.0527  0.2429 -0.0180
   35TMC2    O1  554   2.081   1.689  11.734  0.2555  0.3628 -0.1553
   35TMC2    O2  555   1.763   2.219  11.436 -0.3843 -0.1595 -0.2803
   35TMC2    O5  556   1.634   2.033  11.494  0.0741  0.6696 -0.1040
   35TMC2    H5  557   1.648   1.950  11.545  0.1864 -0.0676 -1.3293
   36MPD2     C  558   2.615   2.282  11.883  0.4219  1.5302 -0.2399
   36MPD2    C1  559   2.622   2.155  11.821  0.2365  0.6093 -0.0617
   36MPD2    C2  560   2.499   2.105  11.767  0.0513 -0.0919  0.4258
   36MPD2    C3  561   2.384   2.179  11.766 -0.2175 -0.3130 -0.2445
   36MPD2    C4  562   2.381   2.308  11.825 -0.6545  1.3508  0.2968
   36MPD2    C5  563   2.493   2.348  11.892 -0.4309 -0.3576 -0.5486
   36MPD2     H  564   2.497   2.003  11.731  0.0654 -1.0569  3.1402
   36MPD2    H1  565   2.289   2.361  11.848 -0.4957  2.4951 -1.7326
   36MPD2    H2  566   2.704   2.322  11.930  0.2397  1.2127  0.3599
   36MPD2    H3  567   2.485   2.434  11.958 -1.6147 -1.4180  0.6928
   36MPD2     N  568   2.270   2.110  11.729  0.1225 -0.1530 -0.2663
   36MPD2    H5  569   2.272   2.021  11.681  0.5432 -0.8157  1.0027
   36MPD2    N1  570   2.742   2.081  11.818  0.6130  0.0860 -0.7364
   36MPD2    H7  571   2.823   2.135  11.845  1.6774  0.0681 -3.9675
   37TMC2    C1  572   0.151   2.232  11.915  0.3236  0.4677  0.2635
   37TMC2    C2  573   0.045   2.173  11.844  0.1382 -0.5046  0.2727
   37TMC2    C3  574   0.053   2.175  11.710  0.1933 -0.3720 -0.0489
   37TMC2    C4  575   0.257   2.290  11.854 -0.5555 -0.5876 -0.1700
   37TMC2    C5  576   0.270   2.263  11.722  0.5724 -0.6414  0.1036
   37TMC2    C6  577   0.169   2.210  11.641 -0.2689 -0.2339 -0.0503
   37TMC2     C  578   0.155   2.215  12.060 -0.1023  0.1322 -0.1058
   37TMC2     O  579   0.045   2.194  12.112  0.6126  0.3563 -0.5323
   37TMC2     H  580   4.712   2.114  11.901 -0.1979 -1.1615 -0.8265
   37TMC2    H1  581   0.337   2.336  11.911 -0.9108  0.0560 -0.1982
   37TMC2    H2  582   0.176   2.232  11.535  0.4044 -0.1172  0.0192
   37TMC2    C7  583   0.394   2.305  11.668 -0.4252  0.2217 -0.5882
   37TMC2    C8  584   4.705   2.095  11.632  0.3104  0.5808  0.3046
   37TMC2    O1  585   0.431   2.414  11.699  0.6820  0.0385 -0.0050
   37TMC2    O2  586   4.733   2.054  11.520  0.1168  0.1469 -0.1491
   37TMC2    O5  587   4.574   2.107  11.673 -0.7594 -0.8126 -0.0442
   37TMC2    H5  588   4.563   2.174  11.744  0.8721 -0.9143  0.3023
   38MPD2     C  589   0.394   2.158  12.513  0.5047 -0.6415 -0.4738
   38MPD2    C1  590   0.484   2.185  12.410  0.7420 -0.2757 -0.1746
   38MPD2    C2  591   0.439   2.209  12.282  0.2630  0.5510 -0.9587
   38MPD2    C3  592   0.309   2.198  12.251 -0.4937  1.0833  0.7101
   38MPD2    C4  593   0.215   2.173  12.354  0.5033 -0.4351 -0.2002
   38MPD2    C5  594   0.261   2.145  12.485  0.1782  0.4917 -0.1170
   38MPD2     H  595   0.505   2.240  12.202  0.9686 -0.0929 -0.6217
   38MPD2    H1  596   0.108   2.182  12.336  0.7774  2.8449 -0.2984
   38MPD2    H2  597   0.421   2.143  12.617 -2.7539 -1.5372  0.2459
   38MPD2    H3  598   0.193   2.115  12.564  1.1460 -4.2784 -1.0746
   38MPD2     N  599   0.282   2.219  12.114  0.1576  0.1759  0.4344
   38MPD2    H5  600   0.364   2.235  12.057  0.9216 -1.2118  1.1377
   38MPD2    N1  601   0.623   2.191  12.432  0.8912 -0.2635 -0.3530
   38MPD2    H7  602   0.678   2.214  12.350  1.3221  1.6437  0.4727
   39TMC2    C1  603   3.796   0.178   1.351  0.1268 -1.1390 -0.3698
   39TMC2    C2  604   3.895   0.183   1.443  0.9118 -0.5599  0.0523
   39TMC2    C3  605   3.957   0.294   1.470  0.0903  0.6428 -0.2580
   39TMC2    C4  606   3.745   0.292   1.300  0.1880  0.0385 -0.3251
   39TMC2    C5  607   3.817   0.404   1.319 -0.5275  0.0164 -0.4957
   39TMC2    C6  608   3.916   0.412   1.407  0.4582  0.3844  0.4943
   39TMC2     C  609   3.723   0.058   1.325  0.3381  0.0919  0.7436
   39TMC2     O  610   3.605   0.067   1.288 -0.2603 -0.6818 -0.4445
   39TMC2     H  611   3.911   0.093   1.500 -1.4652 -2.3092 -2.0378
   39TMC2    H1  612   3.670   0.281   1.223 -0.4874 -1.5237  0.5563
   39TMC2    H2  613   3.977   0.500   1.425 -2.4379  2.8761 -1.8910
   39TMC2    C7  614   3.797   0.512   1.219 -0.3319  0.1755  0.1522
   39TMC2    C8  615   4.070   0.305   1.558 -0.4642 -0.1148  0.1564
   39TMC2    O1  616   3.715   0.480   1.129  0.0606 -0.3877  1.0530
   39TMC2    O2  617   4.112   0.410   1.609  0.5413 -0.2014 -0.1262
   39TMC2    O5  618   4.129   0.190   1.567  0.6856  0.0841 -0.1673
   39TMC2    H5  619   4.088   0.131   1.500 -0.1970 -1.3218  1.6037
   40MPD2     C  620   3.877   4.458   1.310 -0.0246 -0.0294  0.2592
   40MPD2    C1  621   3.775   4.552   1.298 -0.4724 -0.2303  0.0246
   40MPD2    C2  622   3.648   4.504   1.273 -0.0107  0.6342 -0.4499
   40MPD2    C3  623   3.622   4.368   1.251  0.2911  0.4904 -0.0115
   40MPD2    C4  624   3.729   4.285   1.249  0.2611 -0.0416  0.0214
   40MPD2    C5  625   3.853   4.326   1.284 -0.6880  0.3296  0.8633
   40MPD2     H  626   3.564   4.572   1.268  1.1718  1.9399 -2.5237
   40MPD2    H1  627   3.713   4.181   1.225 -2.9075  0.3773  0.4344
   40MPD2    H2  628   3.976   4.486   1.346  1.1314 -0.6464 -2.3816
   40MPD2    H3  629   3.937   4.257   1.286 -0.0580  1.1294  1.7029
   40MPD2     N  630   3.497   4.305   1.223 -0.1046  0.0913  0.4747
   40MPD2    H5  631   3.502   4.206   1.201  2.8509  0.5277 -0.7579
   40MPD2    N1  632   3.809   4.687   1.320  0.4760 -0.9024 -0.1845
   40MPD2    H7  633   3.908   4.704   1.339  0.0909 -0.7917  1.6720
   41TMC2    C1  634   1.661   2.039  14.102 -0.3091 -0.0653 -0.3065
   41TMC2    C2  635   1.610   2.043  13.973  0.2095 -0.7021 -0.0098
   41TMC2    C3  636   1.677   1.969  13.886 -0.2514  0.0510  0.3307
   41TMC2    C4  637   1.785   1.990  14.135  0.0704  0.2502  0.2114
   41TMC2    C5  638   1.856   1.929  14.030  0.0297 -0.6178  0.7356
   41TMC2    C6  639   1.802   1.909  13.905 -0.2563 -0.1196 -0.1769
   41TMC2     C  640   1.590   2.118  14.201 -0.4097  1.1774 -0.5526
   41TMC2     O  641   1.498   2.178  14.150  0.2077  0.2952  0.5005
   41TMC2     H  642   1.510   2.081  13.953  0.2665 -0.8238 -0.5257
   41TMC2    H1  643   1.828   1.995  14.234  1.8060 -0.1357 -0.5228
   41TMC2    H2  644   1.851   1.853  13.827 -1.9669 -0.6844 -0.8395
   41TMC2    C7  645   1.987   1.873  14.057 -0.1031 -0.6705 -0.2297
   41TMC2    C8  646   1.591   1.890  13.802 -0.9097 -0.1065 -0.1378
   41TMC2    O1  647   2.019   1.884  14.173  0.2685  0.0070  0.3394
   41TMC2    O2  648   1.480   1.861  13.846  0.7402 -0.3626 -0.9314
   41TMC2    O5  649   1.660   1.833  13.700  0.0530  0.3328  0.9134
   41TMC2    H5  650   1.729   1.895  13.669 -1.8540  2.7358  1.4617
   42MPD2     C  651   1.489   2.283  14.422 -0.1304 -0.3792 -0.6846
   42MPD2    C1  652   1.612   2.230  14.415  0.7199  0.0832  0.2396
   42MPD2    C2  653   1.704   2.250  14.519  0.0725  0.0987 -0.5781
   42MPD2    C3  654   1.669   2.332  14.623 -0.4035 -0.6196  0.2996
   42MPD2    C4  655   1.541   2.397  14.627  0.7059 -0.2447 -0.0037
   42MPD2    C5  656   1.452   2.367  14.527  0.1338 -0.9166  0.0446
   42MPD2     H  657   1.807   2.217  14.513  0.4257  1.1364 -0.3536
   42MPD2    H1  658   1.519   2.468  14.705 -0.4510 -0.2437 -0.3359
   42MPD2    H2  659   1.414   2.267  14.346 -2.9059  0.0997  1.9480
   42MPD2    H3  660   1.354   2.414  14.529  0.5665 -0.0080  0.0980
   42MPD2     N  661   1.757   2.375  14.724 -0.1912 -0.5743 -0.0130
   42MPD2    H5  662   1.731   2.462  14.770  0.5018 -0.1128 -0.5022
   42MPD2    N1  663   1.659   2.140  14.317  0.1042 -0.0855 -0.1412
   42MPD2    H7  664   1.739   2.080  14.334 -0.5990 -1.0172 -0.1696
   43TMC2    C1  665   3.596   0.629   0.509 -0.0073 -0.1208  0.4313
   43TMC2    C2  666   3.461   0.600   0.512 -0.6595 -0.9790 -0.2933
   43TMC2    C3  667   3.371   0.695   0.555 -0.0726  0.1365  0.2738
   43TMC2    C4  668   3.642   0.759   0.538  0.5635 -0.3590 -0.0346
   43TMC2    C5  669   3.550   0.844   0.581 -0.0852 -0.5336 -0.1998
   43TMC2    C6  670   3.415   0.815   0.601  0.3418 -0.3146 -0.1092
   43TMC2     C  671   3.687   0.547   0.434 -0.3334 -0.1303 -0.4810
   43TMC2     O  672   3.803   0.577   0.449 -0.5684  0.3725 -0.1769
   43TMC2     H  673   3.423   0.499   0.501  0.7004 -1.4075 -0.9827
   43TMC2    H1  674   3.749   0.775   0.533  0.5260  0.2237  1.0932
   43TMC2    H2  675   3.345   0.890   0.638  0.6288  0.0924 -0.3860
   43TMC2    C7  676   3.595   0.966   0.641  0.3175  0.0213 -0.6287
   43TMC2    C8  677   3.246   0.637   0.608  0.3364 -0.5669 -0.0313
   43TMC2    O1  678   3.712   0.994   0.620  0.3009  0.2243 -0.5862
   43TMC2    O2  679   3.210   0.649   0.723 -0.1585  0.4266  0.2147
   43TMC2    O5  680   3.182   0.565   0.513  0.3632  0.4763  0.0868
   43TMC2    H5  681   3.227   0.580   0.427  1.0398 -1.5486  0.0788
   44MPD2     C  682   3.845   0.154   0.156 -0.5372 -1.0374 -0.9587
   44MPD2    C1  683   3.915   0.243   0.228 -0.0467 -0.6766  0.3966
   44MPD2    C2  684   3.849   0.340   0.297  0.3808  0.3468 -0.1279
   44MPD2    C3  685   3.707   0.343   0.298 -0.6992 -0.7133 -0.0096
   44MPD2    C4  686   3.633   0.245   0.228 -1.1444  0.0075  0.0064
   44MPD2    C5  687   3.707   0.164   0.152 -0.2826 -0.0238 -0.6252
   44MPD2     H  688   3.906   0.417   0.349 -0.0893  0.4618  0.2110
   44MPD2    H1  689   3.526   0.238   0.239 -0.7154 -3.0594  2.3030
   44MPD2    H2  690   3.891   0.072   0.103  0.6267 -1.8673  1.3308
   44MPD2    H3  691   3.653   0.091   0.092 -1.0352 -0.2887  0.3868
   44MPD2     N  692   3.627   0.445   0.365 -0.1743 -0.0438 -0.1853
   44MPD2    H5  693   3.526   0.438   0.358 -0.2244 -0.9175  1.3865
   44MPD2    N1  694   4.054   0.244   0.244 -0.6728  0.3706 -0.2964
   44MPD2    H7  695   4.099   0.316   0.299  0.6994  0.9495 -2.1749
   45TMC2    C1  696   4.050   2.941   9.902 -0.5470  0.4353  0.3205
   45TMC2    C2  697   3.923   2.992   9.908 -0.0774 -0.2800 -0.2059
   45TMC2    C3  698   3.903   3.125   9.885 -0.5278  0.2330  0.3645
   45TMC2    C4  699   4.148   3.035   9.892  0.0706  0.2073  0.6030
   45TMC2    C5  700   4.129   3.172   9.878 -0.5241 -0.7398 -0.2637
   45TMC2    C6  701   4.002   3.220   9.877 -0.8136 -0.0832  0.1443
   45TMC2     C  702   4.083   2.799   9.907 -0.0084  0.2024  0.0649
   45TMC2     O  703   4.200   2.768   9.933  0.3541 -0.1761 -0.3756
   45TMC2     H  704   3.834   2.938   9.939 -0.3612 -0.6139 -1.6100
   45TMC2    H1  705   4.249   2.998   9.908  0.4396  1.3949  1.0216
   45TMC2    H2  706   3.969   3.324   9.879  1.1495  0.5687 -0.6945
   45TMC2    C7  707   4.248   3.252   9.893 -0.4590 -0.6847  0.3909
   45TMC2    C8  708   3.772   3.175   9.901 -0.4835  1.1055 -0.1776
   45TMC2    O1  709   4.332   3.218   9.976  0.4820 -0.0180  0.1013
   45TMC2    O2  710   3.738   3.289   9.939  0.2934  0.1985  0.0992
   45TMC2    O5  711   3.687   3.103   9.832  0.2807 -0.4083  0.3234
   45TMC2    H5  712   3.713   3.013   9.801 -1.7983 -0.3598 -1.5085
   46MPD2     C  713   4.070   2.496   9.875 -0.1393  0.4333  0.0375
   46MPD2    C1  714   3.962   2.580   9.886  0.4378 -0.5102  0.0625
   46MPD2    C2  715   3.839   2.519   9.871  0.3444  0.4300 -0.7312
   46MPD2    C3  716   3.821   2.383   9.873 -0.6766  0.3144 -0.1726
   46MPD2    C4  717   3.935   2.309   9.855  0.3462 -0.4613 -0.3664
   46MPD2    C5  718   4.064   2.364   9.855 -0.4242 -0.2366 -0.0529
   46MPD2     H  719   3.756   2.590   9.879  0.1310 -0.0309  1.0679
   46MPD2    H1  720   3.924   2.202   9.838 -0.8962 -0.0723 -2.0736
   46MPD2    H2  721   4.170   2.538   9.867  0.3988 -0.5859  1.2806
   46MPD2    H3  722   4.152   2.303   9.838 -0.5649 -0.1275 -1.1661
   46MPD2     N  723   3.690   2.327   9.870  0.3582  0.2435 -0.0016
   46MPD2    H5  724   3.607   2.384   9.856 -0.6066 -0.8560  1.1935
   46MPD2    N1  725   3.964   2.722   9.895 -0.0635  0.0137  0.1167
   46MPD2    H7  726   3.879   2.778   9.901 -0.5461 -0.4762 -2.5856
   47TMC2    C1  727   1.986   3.704   9.180  0.0741  0.5747 -0.5937
   47TMC2    C2  728   1.953   3.601   9.095 -0.6986  0.7439  0.6896
   47TMC2    C3  729   1.831   3.605   9.039 -0.2064  0.5783 -1.3211
   47TMC2    C4  730   1.902   3.798   9.221  0.2445 -0.2495  0.4166
   47TMC2    C5  731   1.776   3.802   9.154 -0.6179 -0.4004  0.5656
   47TMC2    C6  732   1.740   3.704   9.065 -0.3689 -0.2860  0.0612
   47TMC2     C  733   2.106   3.688   9.258 -0.0003 -0.0767 -0.1808
   47TMC2     O  734   2.161   3.786   9.303 -0.4218  0.1752  0.0953
   47TMC2     H  735   2.019   3.520   9.069  0.7277  2.3769 -0.7757
   47TMC2    H1  736   1.939   3.870   9.294  0.3732 -1.5782  1.6749
   47TMC2    H2  737   1.645   3.709   9.013  0.8262  2.6687 -1.8373
   47TMC2    C7  738   1.671   3.897   9.181  0.3864  0.1082 -0.4104
   47TMC2    C8  739   1.789   3.503   8.945 -0.1168  0.4109 -0.4630
   47TMC2    O1  740   1.584   3.915   9.094  0.0681  0.0022  0.0479
   47TMC2    O2  741   1.691   3.517   8.871 -0.0378  0.0289  0.8501
   47TMC2    O5  742   1.807   3.390   9.017  0.1789 -0.2545  0.4910
   47TMC2    H5  743   1.888   3.378   9.071 -0.1390  0.5506  1.1500
   48MPD2     C  744   2.328   3.592   9.413 -0.0180  0.5456  0.8091
   48MPD2    C1  745   2.252   3.506   9.337  0.2937  0.4237  0.4580
   48MPD2    C2  746   2.257   3.370   9.365 -0.7768 -0.2287  0.0823
   48MPD2    C3  747   2.346   3.316   9.453  0.3003  0.1288 -0.4078
   48MPD2    C4  748   2.426   3.406   9.521  0.7505  0.5091 -0.2346
   48MPD2    C5  749   2.417   3.545   9.497 -0.2425  0.9036 -0.1112
   48MPD2     H  750   2.198   3.298   9.309 -0.4684 -1.0463  0.7885
   48MPD2    H1  751   2.497   3.364   9.592 -0.6525  1.9325  2.0146
   48MPD2    H2  752   2.320   3.700   9.401 -0.2693  0.4705  0.3332
   48MPD2    H3  753   2.488   3.603   9.554  0.4376 -0.4649  0.4423
   48MPD2     N  754   2.350   3.174   9.474 -0.4116 -0.4167 -0.3094
   48MPD2    H5  755   2.277   3.125   9.422  0.5959 -0.8247 -1.3395
   48MPD2    N1  756   2.150   3.556   9.253 -0.4598  0.0982 -0.0227
   48MPD2    H7  757   2.083   3.489   9.216  0.0016 -0.8530  0.8598
   49TMC2    C1  758   0.980   1.046   9.629  0.0463 -0.8142 -0.3651
   49TMC2    C2  759   1.103   1.048   9.569 -0.1268 -0.1824  0.3621
   49TMC2    C3  760   1.104   1.010   9.434 -0.5807 -0.6092  0.3734
   49TMC2    C4  761   0.865   1.042   9.561 -0.6501 -0.4012  0.2549
   49TMC2    C5  762   0.873   1.029   9.425  0.1144  0.2020 -0.4558
   49TMC2    C6  763   0.989   1.002   9.358 -0.2356 -0.3637  0.1909
   49TMC2     C  764   0.982   1.034   9.776  0.6468  0.0436 -0.6766
   49TMC2     O  765   1.087   1.041   9.838 -0.0070  0.3495  0.0802
   49TMC2     H  766   1.195   1.040   9.625  0.3502 -2.9841 -0.8370
   49TMC2    H1  767   0.773   1.068   9.613  0.0467  2.1553  0.1923
   49TMC2    H2  768   0.997   0.961   9.258 -0.5380 -0.1054  0.0612
   49TMC2    C7  769   0.745   1.018   9.363  0.1863 -0.1697 -0.0816
   49TMC2    C8  770   1.234   0.988   9.382  0.3940 -0.0557  0.2115
   49TMC2    O1  771   0.659   0.970   9.435 -0.0851  0.4234 -0.6393
   49TMC2    O2  772   1.328   1.060   9.407 -0.2646 -0.4346 -0.3957
   49TMC2    O5  773   1.214   0.899   9.278  0.0692 -0.3660  0.4273
   49TMC2    H5  774   1.146   0.829   9.292 -2.5663  1.8366 -1.3060
   50MPD2     C  775   0.903   1.034  10.068  0.2266  0.3766 -0.4375
   50MPD2    C1  776   0.816   1.012   9.965 -0.5137 -0.2541 -0.3371
   50MPD2    C2  777   0.685   1.006   9.995  1.1193 -0.0280  0.2547
   50MPD2    C3  778   0.643   0.989  10.124  0.0948  0.9550  0.3707
   50MPD2    C4  779   0.727   1.026  10.223  0.0977 -0.1889 -0.0388
   50MPD2    C5  780   0.856   1.042  10.199  0.6222 -0.6547  0.1241
   50MPD2     H  781   0.609   0.993   9.919  0.3832 -2.2924  1.3711
   50MPD2    H1  782   0.701   1.036  10.327  2.3454  2.6186  0.2805
   50MPD2    H2  783   1.009   1.050  10.052  0.5614 -1.4548  0.0254
   50MPD2    H3  784   0.932   1.051  10.275  0.1376  2.5130  0.2411
   50MPD2     N  785   0.511   0.961  10.155  0.3047  1.0153  0.4431
   50MPD2    H5  786   0.493   0.957  10.254 -0.6649  1.3985  0.2874
   50MPD2    N1  787   0.853   1.011   9.829  0.4435  0.3500 -0.2894
   50MPD2    H7  788   0.775   0.997   9.766 -1.2353  2.5993  1.2734
   51TMC2    C1  789   0.277   4.287   1.359 -0.1458 -0.3795 -0.5054
   51TMC2    C2  790   0.238   4.359   1.466 -0.4466 -0.2954  0.1170
   51TMC2    C3  791   0.241   4.494   1.465  0.8882 -0.9098  0.5552
   51TMC2    C4  792   0.325   4.358   1.248  0.3991  0.7801  0.0812
   51TMC2    C5  793   0.314   4.498   1.247 -0.3113 -0.7501  0.2380
   51TMC2    C6  794   0.259   4.565   1.351 -0.1825  0.4257 -0.0285
   51TMC2     C  795   0.299   4.140   1.344 -0.6241 -0.2770  0.0581
   51TMC2     O  796   0.351   4.084   1.244  0.6089  0.1288  0.0708
   51TMC2     H  797   0.199   4.316   1.557  2.2445  1.2290  1.9964
   51TMC2    H1  798   0.381   4.313   1.167  0.4264  1.8991 -0.5277
   51TMC2    H2  799   0.249   4.673   1.358 -3.7318  0.1309 -0.1689
   51TMC2    C7  800   0.386   4.580   1.148 -0.0082 -0.3398  0.9576
   51TMC2    C8  801   0.156   4.557   1.556  0.2720 -0.0727  0.5593
   51TMC2    O1  802   0.418   4.695   1.192 -0.1682 -0.0481  0.2434
   51TMC2    O2  803   0.066   4.633   1.521 -0.2222 -0.1042 -0.3838
   51TMC2    O5  804   0.199   4.541   1.684 -0.1453 -0.6809  0.0686
   51TMC2    H5  805   0.273   4.478   1.694  0.2338 -0.1432  0.5808
   52MPD2     C  806   0.249   3.688   1.579  0.2033 -0.2888  0.1581
   52MPD2    C1  807   0.328   3.733   1.475  0.7201 -0.6857 -0.8587
   52MPD2    C2  808   0.316   3.864   1.429  0.4183  0.3788 -0.6090
   52MPD2    C3  809   0.225   3.949   1.480 -0.3277 -0.0824  0.4231
   52MPD2    C4  810   0.143   3.902   1.578 -0.8451 -0.0833 -0.1786
   52MPD2    C5  811   0.155   3.775   1.623  0.3810  0.6304 -0.2191
   52MPD2     H  812   0.398   3.894   1.365 -0.7520  1.1275 -1.7642
   52MPD2    H1  813   0.069   3.971   1.619  1.7748  3.1608 -0.9055
   52MPD2    H2  814   0.252   3.589   1.623  0.0658  0.1336  1.1295
   52MPD2    H3  815   0.090   3.740   1.703 -1.0103  1.8120 -0.8238
   52MPD2     N  816   0.213   4.085   1.438  0.8049 -0.1910  0.0497
   52MPD2    H5  817   0.146   4.140   1.489  1.2420  0.7935 -0.4402
   52MPD2    N1  818   0.421   3.653   1.406 -0.0646 -0.1430 -0.1641
   52MPD2    H7  819   0.471   3.695   1.328 -1.7317  0.5173 -0.8834
   53TMC2    C1  820   1.130   2.440  11.767  0.7110 -0.1608  0.3014
   53TMC2    C2  821   1.248   2.377  11.804 -0.0345 -0.6215 -0.1711
   53TMC2    C3  822   1.280   2.368  11.937  0.0996  0.8761 -0.8775
   53TMC2    C4  823   1.059   2.500  11.872  0.1440  0.1638  0.1618
   53TMC2    C5  824   1.097   2.489  12.003 -0.4286 -0.4887 -0.1796
   53TMC2    C6  825   1.211   2.422  12.034  0.0618 -0.3299  0.3409
   53TMC2     C  826   1.054   2.402  11.648 -1.1742 -0.1344  0.0657
   53TMC2     O  827   1.116   2.353  11.553 -0.0611 -0.2728 -0.2086
   53TMC2     H  828   1.308   2.319  11.735  0.9788  0.6059 -0.3165
   53TMC2    H1  829   0.967   2.554  11.854 -1.5736 -2.3888  1.2345
   53TMC2    H2  830   1.252   2.402  12.133  1.3117 -1.4201 -0.3890
   53TMC2    C7  831   0.982   2.502  12.097 -0.3626 -0.4013 -0.0433
   53TMC2    C8  832   1.379   2.276  11.978  0.1791  0.8874 -0.5296
   53TMC2    O1  833   0.871   2.537  12.052  1.0489 -0.0205  0.5078
   53TMC2    O2  834   1.436   2.287  12.087 -0.0336  0.2483  0.5369
   53TMC2    O5  835   1.403   2.173  11.892 -0.1298  0.0925  0.1271
   53TMC2    H5  836   1.328   2.149  11.834  0.4210 -0.7127 -0.2562
   54MPD2     C  837   0.881   2.207  11.528  0.2332  0.8364 -1.0084
   54MPD2    C1  838   0.835   2.299  11.617  0.7975  0.5268  0.0533
   54MPD2    C2  839   0.702   2.296  11.646 -0.5598  0.0897 -0.1500
   54MPD2    C3  840   0.612   2.208  11.586  0.1268  0.2886  0.2222
   54MPD2    C4  841   0.662   2.101  11.514 -0.9087  0.3873 -0.1113
   54MPD2    C5  842   0.795   2.106  11.479  0.3109 -0.6479 -0.0467
   54MPD2     H  843   0.672   2.363  11.727  2.0523 -0.9815  1.6950
   54MPD2    H1  844   0.600   2.023  11.471  0.0793  0.6160 -1.9771
   54MPD2    H2  845   0.987   2.183  11.527 -0.0559 -0.5056  0.3652
   54MPD2    H3  846   0.846   2.035  11.416  1.0886  0.6274 -0.8480
   54MPD2     N  847   0.473   2.205  11.611 -0.1437 -0.1908  0.3075
   54MPD2    H5  848   0.425   2.120  11.582  0.0263  0.2299 -1.1992
   54MPD2    N1  849   0.923   2.383  11.683 -0.7589  0.4909  0.1517
   54MPD2    H7  850   0.893   2.425  11.771  0.0983  2.4725 -0.5098
   55TMC2    C1  851   2.092   0.119  17.433  0.0808  0.2073  0.2019
   55TMC2    C2  852   2.061   0.101  17.303  0.2202  0.5407 -0.0038
   55TMC2    C3  853   2.056   4.715  17.251  0.0989  0.4505 -0.0299
   55TMC2    C4  854   2.115   0.016  17.516  0.3865  0.2961  0.2259
   55TMC2    C5  855   2.115   4.626  17.460 -0.9489  0.9276 -0.0208
   55TMC2    C6  856   2.087   4.604  17.329  0.2804  0.5206  0.2042
   55TMC2     C  857   2.105   0.256  17.480  0.5070  0.0119 -0.1352
   55TMC2     O  858   2.090   0.276  17.603 -0.2611  0.1518 -0.0936
   55TMC2     H  859   2.027   0.184  17.243 -2.7702  1.3380  2.7453
   55TMC2    H1  860   2.159   0.032  17.614  4.8590  0.2101 -1.7637
   55TMC2    H2  861   2.100   4.505  17.285 -3.5936  1.2986 -2.6612
   55TMC2    C7  862   2.117   4.510  17.549  0.0853  0.2800 -0.5989
   55TMC2    C8  863   2.027   4.693  17.107 -0.2761  0.1493  0.4568
   55TMC2    O1  864   2.122   4.401  17.492  0.1058  0.3638 -0.4157
   55TMC2    O2  865   2.005   4.585  17.057 -0.0386  0.2015 -0.2038
   55TMC2    O5  866   2.074   0.063  17.042  0.4654 -0.6323 -0.0577
   55TMC2    H5  867   2.124   0.132  17.090 -2.7317  0.7508  1.2783
   56MPD2     C  868   2.076   0.558  17.268 -0.2430  0.7886 -0.0177
   56MPD2    C1  869   2.079   0.482  17.379 -0.7097  0.5062 -0.6309
   56MPD2    C2  870   2.041   0.543  17.493 -0.1757  0.2079 -0.3590
   56MPD2    C3  871   1.998   0.678  17.497  0.2438  0.0777  0.0867
   56MPD2    C4  872   2.001   0.758  17.376  0.5904  0.1171  0.5731
   56MPD2    C5  873   2.039   0.692  17.264  0.2034  0.4206  0.0576
   56MPD2     H  874   2.024   0.480  17.580  1.0096 -0.9125 -0.9423
   56MPD2    H1  875   1.971   0.861  17.387 -0.0253  0.0840 -0.9639
   56MPD2    H2  876   2.104   0.516  17.172  2.1148  2.7578 -0.2210
   56MPD2    H3  877   2.050   0.753  17.174 -0.4800  0.5429  0.0522
   56MPD2     N  878   1.943   0.728  17.620  0.2798  0.7414  0.7709
   56MPD2    H5  879   1.939   0.662  17.697 -2.0370 -1.2966 -1.1021
   56MPD2    N1  880   2.108   0.344  17.376 -0.1107  0.0896 -0.0602
   56MPD2    H7  881   2.144   0.307  17.288  0.9447  0.2533  0.3102
   57TMC2    C1  882   0.639   0.681  14.064  0.3836  0.6270 -0.4685
   57TMC2    C2  883   0.587   0.558  14.042  0.2514 -0.1356 -0.0299
   57TMC2    C3  884   0.659   0.477  13.956  0.3612 -0.8215  0.3605
   57TMC2    C4  885   0.759   0.722  14.018 -0.3606 -0.0559 -0.0630
   57TMC2    C5  886   0.829   0.644  13.938 -0.3101  0.5139 -0.2353
   57TMC2    C6  887   0.785   0.518  13.909  0.3501 -0.0290  0.3018
   57TMC2     C  888   0.547   0.791  14.108 -0.0443 -0.0861 -0.2868
   57TMC2     O  889   0.431   0.778  14.075 -0.1209  0.5143  0.2960
   57TMC2     H  890   0.487   0.535  14.076 -0.8640  0.0409 -3.2277
   57TMC2    H1  891   0.783   0.827  14.021 -1.9966  0.3713 -1.8944
   57TMC2    H2  892   0.839   0.453  13.841  0.0358  2.3343 -2.2515
   57TMC2    C7  893   0.924   0.714  13.853 -0.7012 -0.0420 -0.3693
   57TMC2    C8  894   0.609   0.349  13.915  1.0798  0.1543 -0.7197
   57TMC2    O1  895   0.910   0.834  13.834  0.3332 -0.1181 -0.1209
   57TMC2    O2  896   0.639   0.317  13.798  0.4054 -0.7956  0.2212
   57TMC2    O5  897   0.508   0.312  13.995 -0.0538  0.1029 -0.4809
   57TMC2    H5  898   0.526   0.328  14.091  0.7970 -0.8686 -0.4685
   58MPD2     C  899   0.486   1.239  14.369  0.4983  0.1469  0.6071
   58MPD2    C1  900   0.417   1.189  14.258  0.2417  0.1891 -0.1238
   58MPD2    C2  901   0.442   1.056  14.215  0.0157 -0.4399 -0.4403
   58MPD2    C3  902   0.565   0.998  14.251 -0.2654  0.1541  0.2637
   58MPD2    C4  903   0.637   1.054  14.352  0.1571 -0.0661  0.8273
   58MPD2    C5  904   0.602   1.169  14.408 -0.1955  0.6516 -0.1565
   58MPD2     H  905   0.388   1.010  14.132 -0.2181 -0.9238 -0.0192
   58MPD2    H1  906   0.727   1.009  14.393 -0.3554 -0.2102  1.7918
   58MPD2    H2  907   0.453   1.324  14.426  0.0097  0.6829 -0.4845
   58MPD2    H3  908   0.663   1.198  14.493  1.8904 -0.7341 -1.1907
   58MPD2     N  909   0.610   0.873  14.204  0.7600  0.0071 -0.6661
   58MPD2    H5  910   0.695   0.833  14.244 -1.7369 -1.9103  2.6821
   58MPD2    N1  911   0.319   1.270  14.191 -0.2403  0.1261 -0.8626
   58MPD2    H7  912   0.278   1.228  14.108  0.7573 -0.2148 -1.1833
   59TMC2    C1  913   3.468   1.381  12.685  0.0949  0.1779  0.9299
   59TMC2    C2  914   3.500   1.271  12.763 -0.3524  0.4932  0.6356
   59TMC2    C3  915   3.452   1.148  12.721  0.1203  0.4825  0.7852
   59TMC2    C4  916   3.390   1.373  12.573 -0.1719 -0.1205 -0.5024
   59TMC2    C5  917   3.336   1.248  12.545  0.2478 -0.2890 -0.9228
   59TMC2    C6  918   3.366   1.131  12.616 -0.3628  0.2803  0.1048
   59TMC2     C  919   3.460   1.515  12.755  0.7155  0.1569 -0.1886
   59TMC2     O  920   3.435   1.603  12.675 -0.2833  0.4703  0.1599
   59TMC2     H  921   3.572   1.273  12.844  0.8607  0.7556 -0.4331
   59TMC2    H1  922   3.353   1.461  12.521  0.6073 -1.0053 -2.5083
   59TMC2    H2  923   3.323   1.032  12.608 -1.8497  0.9260  0.0340
   59TMC2    C7  924   3.236   1.223  12.444  0.3076  0.0873  0.2830
   59TMC2    C8  925   3.435   1.057  12.832  0.5940 -0.5465 -0.9850
   59TMC2    O1  926   3.163   1.126  12.449  0.5253  0.1521 -0.4651
   59TMC2    O2  927   3.448   1.090  12.947  0.4354 -0.4348 -0.0761
   59TMC2    O5  928   3.440   0.936  12.786 -0.3874  0.4803 -0.7661
   59TMC2    H5  929   3.461   0.910  12.693 -0.7488 -1.9960 -0.1470
   60MPD2     C  930   3.422   1.747  12.925  0.0245 -0.0916 -0.0953
   60MPD2    C1  931   3.462   1.623  12.979 -0.6348  0.6725 -0.4748
   60MPD2    C2  932   3.476   1.606  13.115 -0.0198  0.6591 -0.2088
   60MPD2    C3  933   3.470   1.714  13.201 -0.0950 -0.6421  0.0736
   60MPD2    C4  934   3.443   1.840  13.153  0.1194 -0.8019  0.7198
   60MPD2    C5  935   3.427   1.854  13.016 -0.7409 -0.3849 -0.4302
   60MPD2     H  936   3.508   1.510  13.153 -1.1911  0.2321 -0.3271
   60MPD2    H1  937   3.456   1.929  13.214  0.5471 -1.8595  2.1771
   60MPD2    H2  938   3.414   1.770  12.820 -0.6689  0.5824  0.1017
   60MPD2    H3  939   3.413   1.957  12.985 -1.3454 -0.3895 -0.1503
   60MPD2     N  940   3.513   1.710  13.335  0.2349 -0.3427 -0.3169
   60MPD2    H5  941   3.523   1.800  13.381 -1.5689  0.0067 -0.5990
   60MPD2    N1  942   3.464   1.509  12.896  0.1713  0.5858  0.2431
   60MPD2    H7  943   3.465   1.417  12.938 -1.5058 -0.9338 -3.0601
   61TMC2    C1  944   2.743   2.521  15.745 -0.2549  0.1824 -0.4314
   61TMC2    C2  945   2.742   2.483  15.874 -0.1737  0.1755  0.8756
   61TMC2    C3  946   2.730   2.576  15.980  0.0652  0.7173 -0.3418
   61TMC2    C4  947   2.724   2.651  15.716  0.4525 -0.3557  0.0940
   61TMC2    C5  948   2.696   2.745  15.816  0.2664  0.1077  0.3188
   61TMC2    C6  949   2.706   2.708  15.948  0.5138  0.1352 -0.3862
   61TMC2     C  950   2.813   2.433  15.651  1.0092  0.0305 -0.4584
   61TMC2     O  951   2.835   2.321  15.687  0.2896 -0.1741 -0.2566
   61TMC2     H  952   2.759   2.378  15.895 -0.7968 -0.5153 -2.0435
   61TMC2    H1  953   2.724   2.699  15.618 -1.3758  2.9604  1.7180
   61TMC2    H2  954   2.689   2.781  16.027  1.5693  0.4540 -0.4495
   61TMC2    C7  955   2.737   2.881  15.781  0.3791  0.2217  0.5456
   61TMC2    C8  956   2.638   2.539  16.083 -0.1927 -0.0280 -0.4481
   61TMC2    O1  957   2.701   2.931  15.682 -0.1862 -0.0763  0.0468
   61TMC2    O2  958   2.615   2.622  16.170 -0.4936 -0.0423 -0.6154
   61TMC2    O5  959   2.535   2.488  16.012  0.6768  0.5799  0.0508
   61TMC2    H5  960   2.570   2.415  15.956 -0.8095  0.8989 -1.3012
   62MPD2     C  961   2.961   2.317  15.420  0.3037  0.2660 -0.6053
   62MPD2    C1  962   2.892   2.441  15.416 -0.1771 -0.1636  0.0166
   62MPD2    C2  963   2.891   2.514  15.297  0.3332  0.3629  0.3952
   62MPD2    C3  964   2.965   2.477  15.187  0.8089  0.4889  0.2247
   62MPD2    C4  965   3.035   2.359  15.193 -0.2290  0.1902 -0.0180
   62MPD2    C5  966   3.029   2.272  15.302 -1.2807 -0.5513  0.2207
   62MPD2     H  967   2.845   2.612  15.297  0.1806  0.2649  3.4925
   62MPD2    H1  968   3.083   2.328  15.101  0.8497  2.2060 -0.1586
   62MPD2    H2  969   2.955   2.250  15.505 -0.1228  0.0645 -0.7965
   62MPD2    H3  970   3.058   2.170  15.281 -1.9101 -0.2878 -1.9551
   62MPD2     N  971   2.968   2.572  15.079 -0.5995 -0.2686  0.2950
   62MPD2    H5  972   2.893   2.640  15.073  0.5683  1.0837  0.9297
   62MPD2    N1  973   2.817   2.489  15.525 -0.7490 -0.2454  0.0000
   62MPD2    H7  974   2.771   2.578  15.511 -1.5937 -0.8071 -0.8369
   63TMC2    C1  975   2.242   3.077  10.347  0.0653  0.2178  0.2737
   63TMC2    C2  976   2.335   3.033  10.435  0.2916  0.3531  0.6338
   63TMC2    C3  977   2.440   3.112  10.458  0.2579  0.7055 -0.3522
   63TMC2    C4  978   2.269   3.175  10.255  0.9299  0.2150  0.0031
   63TMC2    C5  979   2.393   3.237  10.268 -0.4509  0.7445  0.3497
   63TMC2    C6  980   2.477   3.210  10.378  0.2802  0.9185 -0.2816
   63TMC2     C  981   2.108   3.027  10.353  0.1795 -0.9602 -0.0512
   63TMC2     O  982   2.019   3.076  10.284  0.3120 -0.0442  0.4084
   63TMC2     H  983   2.323   2.943  10.493 -0.2652  0.0221  0.0157
   63TMC2    H1  984   2.208   3.191  10.167  1.0148 -0.8631 -0.2581
   63TMC2    H2  985   2.563   3.272  10.399  0.3407  1.3917 -1.9096
   63TMC2    C7  986   2.416   3.361  10.194  0.7456 -0.3517  0.5601
   63TMC2    C8  987   2.553   3.048  10.522 -0.3145  0.5365 -0.0091
   63TMC2    O1  988   2.312   3.422  10.166 -0.3858  0.6407 -0.0612
   63TMC2    O2  989   2.665   3.057  10.477  0.5224 -1.0102  0.1672
   63TMC2    O5  990   2.515   3.045  10.652  0.1623  0.0995 -0.5239
   63TMC2    H5  991   2.418   3.052  10.664  0.1807 -0.4800 -0.0164
   64MPD2     C  992   1.762   2.676  10.559 -0.4682 -0.7950 -0.5549
   64MPD2    C1  993   1.892   2.658  10.606  0.9042 -0.1589  0.5326
   64MPD2    C2  994   1.993   2.743  10.563 -0.1028  1.1725 -0.4849
   64MPD2    C3  995   1.973   2.849  10.478  0.1415  0.3498 -0.0883
   64MPD2    C4  996   1.851   2.861  10.425  0.3757 -0.2435 -0.6073
   64MPD2    C5  997   1.747   2.779  10.466  0.2122  0.1835  0.1426
   64MPD2     H  998   2.092   2.744  10.608  0.4928  0.2198 -1.7779
   64MPD2    H1  999   1.826   2.946  10.362  1.3800  0.9001  0.5246
   64MPD2    H2 1000   1.669   2.635  10.598 -0.5027 -0.6224 -0.4550
   64MPD2    H3 1001   1.644   2.799  10.440  0.4054  0.8028 -0.1503
   64MPD2     N 1002   2.091   2.920  10.438 -0.1737 -0.2689 -0.0582
   64MPD2    H5 1003   2.175   2.884  10.483  0.3237 -1.1965 -1.7378
   64MPD2    N1 1004   1.912   2.564  10.706  0.2952 -0.9727 -0.9336
   64MPD2    H7 1005   1.833   2.515  10.748 -0.1699 -1.6348 -2.5825
   65TMC2    C1 1006   3.560   2.467  15.634 -0.9068  0.7636  0.5099
   65TMC2    C2 1007   3.510   2.430  15.509  0.8699  0.3701  0.5174
   65TMC2    C3 1008   3.459   2.528  15.433 -0.1011 -0.4781 -0.3340
   65TMC2    C4 1009   3.557   2.593  15.689 -0.5510 -0.0428  0.1389
   65TMC2    C5 1010   3.505   2.683  15.602  0.1051  0.5301  0.2696
   65TMC2    C6 1011   3.452   2.655  15.480  0.0532  0.4673  0.0141
   65TMC2     C 1012   3.574   2.359  15.724 -0.4667  0.1817  0.6455
   65TMC2     O 1013   3.673   2.362  15.798 -0.1851 -0.5814  0.5863
   65TMC2     H 1014   3.529   2.328  15.476  0.9357  1.3914 -2.5977
   65TMC2    H1 1015   3.596   2.626  15.785 -1.1134  1.3206 -0.1037
   65TMC2    H2 1016   3.407   2.727  15.412 -0.4544 -0.6933 -0.8648
   65TMC2    C7 1017   3.496   2.825  15.633 -0.4750 -0.0989  0.3184
   65TMC2    C8 1018   3.365   2.500  15.326  0.2057  0.0240 -0.1264
   65TMC2    O1 1019   3.517   2.893  15.534  0.1106  0.2925 -0.1233
   65TMC2    O2 1020   3.272   2.579  15.300  0.2445 -0.2443 -0.2809
   65TMC2    O5 1021   3.429   2.416  15.240  0.0813  0.4655 -0.4839
   65TMC2    H5 1022   3.508   2.370  15.276  1.3044  2.6793 -0.3923
   66MPD2     C 1023   3.554   2.106  15.873  0.4413  0.2871  0.3880
   66MPD2    C1 1024   3.472   2.142  15.769 -0.2995 -0.5284  0.3369
   66MPD2    C2 1025   3.371   2.061  15.733  0.3473  0.5241 -0.1484
   66MPD2    C3 1026   3.377   1.927  15.767  0.6353  0.0333  0.0854
   66MPD2    C4 1027   3.480   1.876  15.847 -0.1365  0.8480  0.2980
   66MPD2    C5 1028   3.555   1.973  15.903  0.0270  0.8162  0.3630
   66MPD2     H 1029   3.291   2.110  15.679  1.3962  0.8465 -1.3935
   66MPD2    H1 1030   3.501   1.771  15.860 -0.9910  0.5198 -0.9378
   66MPD2    H2 1031   3.637   2.158  15.919 -0.0253  0.3986  1.1120
   66MPD2    H3 1032   3.626   1.935  15.976 -0.9515 -1.4214  0.1755
   66MPD2     N 1033   3.286   1.837  15.710 -0.5975  0.4066  0.5105
   66MPD2    H5 1034   3.298   1.737  15.724 -0.5529  0.3968  0.4051
   66MPD2    N1 1035   3.467   2.274  15.717  0.0575 -1.0603 -0.3176
   66MPD2    H7 1036   3.384   2.295  15.663  0.2609  1.1181  0.2174
   67TMC2    C1 1037   3.354   1.065  14.290  0.0136  0.2002  0.1924
   67TMC2    C2 1038   3.407   1.087  14.164 -0.8104  0.4930  0.3004
   67TMC2    C3 1039   3.535   1.048  14.145  0.2789  0.4995 -0.2075
   67TMC2    C4 1040   3.416   1.004  14.395  0.9833 -0.3347 -0.1439
   67TMC2    C5 1041   3.548   0.968  14.365  0.1634 -0.0132 -0.6605
   67TMC2    C6 1042   3.609   0.987  14.244 -0.1805 -0.5617 -0.0767
   67TMC2     C 1043   3.212   1.100  14.323  0.7565  0.7433  0.1015
   67TMC2     O 1044   3.165   1.071  14.437 -0.0501  0.7277  0.0230
   67TMC2     H 1045   3.356   1.131  14.080 -0.6450 -3.6407 -1.9765
   67TMC2    H1 1046   3.372   0.993  14.493  0.8031  0.6234 -0.1178
   67TMC2    H2 1047   3.713   0.960  14.230  0.0551  0.6156 -0.5913
   67TMC2    C7 1048   3.645   0.971  14.474 -0.8100 -0.0970 -0.1809
   67TMC2    C8 1049   3.600   1.074  14.020  0.3072  0.5515 -0.0052
   67TMC2    O1 1050   3.748   0.924  14.448 -0.7032  0.8548  0.1769
   67TMC2    O2 1051   3.547   1.081  13.912 -0.5141  0.0078  0.5673
   67TMC2    O5 1052   3.730   1.114  14.041 -0.0477  0.0035 -0.4183
   67TMC2    H5 1053   3.746   1.144  14.133 -1.2195 -0.1894 -0.1522
   68MPD2     C 1054   2.962   1.237  14.353 -0.4614 -0.1743 -0.2473
   68MPD2    C1 1055   3.005   1.198  14.225 -0.6555 -0.6291 -1.1187
   68MPD2    C2 1056   2.923   1.212  14.114 -0.3907  0.3606 -0.1470
   68MPD2    C3 1057   2.789   1.252  14.134 -0.1445  0.1171  0.4653
   68MPD2    C4 1058   2.743   1.292  14.256 -0.1057  0.9995 -0.1108
   68MPD2    C5 1059   2.835   1.286  14.362  0.1163  0.2206 -0.4765
   68MPD2     H 1060   2.954   1.176  14.016  0.0370 -1.6441  0.7067
   68MPD2    H1 1061   2.641   1.326  14.271  0.0018  1.3900 -0.2488
   68MPD2    H2 1062   3.012   1.228  14.448 -1.2776  1.2432  0.3156
   68MPD2    H3 1063   2.814   1.323  14.461  3.3937  1.7293 -0.3188
   68MPD2     N 1064   2.690   1.253  14.026  0.4086  0.3291  0.6228
   68MPD2    H5 1065   2.603   1.293  14.057 -0.7139 -1.7907  0.2057
   68MPD2    N1 1066   3.137   1.144  14.212  0.8373 -0.0718 -0.3008
   68MPD2    H7 1067   3.176   1.152  14.119  1.5183 -2.1808 -0.1915
   69TMC2    C1 1068   0.643   3.025  12.447  0.1090  0.1811 -0.4135
   69TMC2    C2 1069   0.612   3.127  12.361 -0.3428 -0.2485 -0.2190
   69TMC2    C3 1070   0.679   3.142  12.245  0.1190 -0.5116  0.3399
   69TMC2    C4 1071   0.750   2.942  12.415 -0.3549 -0.1038 -0.4577
   69TMC2    C5 1072   0.823   2.971  12.298 -0.5757  0.9121 -0.0151
   69TMC2    C6 1073   0.783   3.065  12.210 -0.3584 -0.0044 -0.5255
   69TMC2     C 1074   0.594   3.027  12.581  0.3102 -0.5715  0.2425
   69TMC2     O 1075   0.522   3.122  12.612  0.1745  0.5560  0.0285
   69TMC2     H 1076   0.537   3.201  12.384 -2.0512 -2.8782  2.7062
   69TMC2    H1 1077   0.756   2.840  12.452 -0.7335  0.5323  1.3571
   69TMC2    H2 1078   0.843   3.100  12.127  0.8322 -0.5169  0.1146
   69TMC2    C7 1079   0.928   2.881  12.267 -0.2439 -0.1900 -0.4035
   69TMC2    C8 1080   0.638   3.247  12.161 -0.1812  0.3080  0.3388
   69TMC2    O1 1081   0.971   2.886  12.152 -0.0588 -0.4105  0.1077
   69TMC2    O2 1082   0.560   3.336  12.194 -0.0360 -0.3394 -0.0563
   69TMC2    O5 1083   0.642   3.210  12.030  0.4210 -0.4795 -0.1941
   69TMC2    H5 1084   0.688   3.126  12.013 -0.4209 -0.7013 -1.3835
   70MPD2     C 1085   0.523   2.982  12.855 -0.2976 -0.1191  0.6641
   70MPD2    C1 1086   0.625   2.909  12.795  0.2917  0.1370 -0.1321
   70MPD2    C2 1087   0.672   2.797  12.861  0.3195  0.0800  0.5545
   70MPD2    C3 1088   0.626   2.753  12.983  0.2563 -0.4866 -1.0480
   70MPD2    C4 1089   0.531   2.830  13.049 -0.2450  0.0757  0.2512
   70MPD2    C5 1090   0.490   2.943  12.982  0.2377  0.1300  0.1398
   70MPD2     H 1091   0.724   2.724  12.799 -0.5500 -1.0815  1.1869
   70MPD2    H1 1092   0.489   2.805  13.146 -1.5895 -2.1280 -0.8975
   70MPD2    H2 1093   0.475   3.073  12.820 -0.1109  0.0578  0.8694
   70MPD2    H3 1094   0.419   3.008  13.031 -0.2792 -0.2207 -0.1428
   70MPD2     N 1095   0.666   2.629  13.037  0.2000 -0.4457  0.3047
   70MPD2    H5 1096   0.599   2.591  13.103  0.3590  2.1795  1.9646
   70MPD2    N1 1097   0.661   2.932  12.661 -0.1570 -0.3571 -0.0240
   70MPD2    H7 1098   0.727   2.872  12.612  1.1933  2.1953 -1.3464
   71TMC2    C1 1099   3.934   3.295   1.495  0.4921  0.5535  0.0516
   71TMC2    C2 1100   4.021   3.208   1.558 -0.3217 -0.3387  0.1977
   71TMC2    C3 1101   3.992   3.173   1.683 -0.2789 -0.0702  0.1200
   71TMC2    C4 1102   3.823   3.350   1.562  0.4022 -0.4340 -1.2228
   71TMC2    C5 1103   3.820   3.325   1.696 -0.1977  0.3442 -0.0047
   71TMC2    C6 1104   3.893   3.228   1.756 -0.5427  0.5137 -0.2327
   71TMC2     C 1105   3.947   3.338   1.352  0.3265 -0.4464  0.1312
   71TMC2     O 1106   3.872   3.430   1.313 -0.2707  0.6183  0.7712
   71TMC2     H 1107   4.111   3.176   1.506 -0.3284 -0.9347  0.5451
   71TMC2    H1 1108   3.756   3.427   1.526  0.2166 -0.1178 -0.2109
   71TMC2    H2 1109   3.868   3.204   1.859  1.7587 -0.4193  0.1146
   71TMC2    C7 1110   3.746   3.422   1.776 -0.4318 -0.0411  0.2465
   71TMC2    C8 1111   4.051   3.054   1.746 -0.6099  0.2417  0.3259
   71TMC2    O1 1112   3.797   3.461   1.883 -0.0162 -0.3861  0.1208
   71TMC2    O2 1113   4.033   3.026   1.862 -0.5600  0.4027 -0.2806
   71TMC2    O5 1114   4.047   2.964   1.649  0.2980  0.5113 -0.1602
   71TMC2    H5 1115   4.079   2.997   1.563 -1.8502  0.5994 -0.9202
   72MPD2     C 1116   3.929   3.161   0.877  0.1368  0.2491 -0.7851
   72MPD2    C1 1117   3.905   3.293   0.920 -0.3280 -0.2841  0.1559
   72MPD2    C2 1118   3.940   3.322   1.055 -0.0341 -0.2413  0.2840
   72MPD2    C3 1119   3.995   3.227   1.140  0.3288 -0.5877 -0.0841
   72MPD2    C4 1120   4.029   3.108   1.088 -0.1676  0.2655 -0.1617
   72MPD2    C5 1121   3.985   3.067   0.968 -0.4326 -0.2528 -0.5058
   72MPD2     H 1122   3.914   3.423   1.083  1.5510  0.5906 -1.2075
   72MPD2    H1 1123   4.057   3.028   1.155 -1.8979 -0.4539 -0.2954
   72MPD2    H2 1124   3.909   3.132   0.774 -1.7410 -2.7992  0.4141
   72MPD2    H3 1125   3.996   2.962   0.940  0.2937 -0.1428 -0.6339
   72MPD2     N 1126   4.011   3.239   1.279 -0.0451 -0.2172  0.0662
   72MPD2    H5 1127   4.044   3.160   1.334 -1.8094 -0.2853  1.0184
   72MPD2    N1 1128   3.833   3.388   0.844 -0.1521  0.2482 -0.3300
   72MPD2    H7 1129   3.849   3.481   0.880 -1.8191  0.2882  0.2887
   73TMC2    C1 1130   2.572   0.259  14.058  0.4620 -0.2579  0.3993
   73TMC2    C2 1131   2.541   0.277  14.190  0.1399 -0.6632 -0.3349
   73TMC2    C3 1132   2.604   0.199  14.290 -1.0000  0.0087  0.5174
   73TMC2    C4 1133   2.669   0.162  14.031 -0.9833  0.0823 -0.1056
   73TMC2    C5 1134   2.730   0.092  14.132 -0.5568 -0.7061  0.1566
   73TMC2    C6 1135   2.698   0.109  14.265  0.4287 -0.1998 -0.3889
   73TMC2     C 1136   2.603   0.379  13.990 -0.5187  0.1101 -0.3714
   73TMC2     O 1137   2.717   0.383  13.942  0.4293 -0.2725 -0.2829
   73TMC2     H 1138   2.473   0.359  14.212  0.8173 -0.1229 -0.2338
   73TMC2    H1 1139   2.693   0.147  13.926  0.5613 -1.3945  0.4691
   73TMC2    H2 1140   2.747   0.054  14.345  0.4251 -0.5896 -0.6568
   73TMC2    C7 1141   2.878   0.098  14.114  0.2269  0.3695 -0.8238
   73TMC2    C8 1142   2.546   0.210  14.421  0.2193 -0.3384  0.5480
   73TMC2    O1 1143   2.951   0.056  14.204 -0.3838  0.2431  0.3108
   73TMC2    O2 1144   2.426   0.200  14.438  0.3136 -0.5144  0.3292
   73TMC2    O5 1145   2.617   0.315  14.464 -0.2762  0.1887  0.0146
   73TMC2    H5 1146   2.691   0.329  14.402 -1.6018  2.6628 -0.9912
   74MPD2     C 1147   2.553   0.885  13.896 -1.0695 -0.4851 -0.5507
   74MPD2    C1 1148   2.661   0.806  13.936  0.4617  0.0227  0.4963
   74MPD2    C2 1149   2.649   0.674  13.960  0.0206  0.0740 -0.3703
   74MPD2    C3 1150   2.516   0.615  13.972  0.4443  0.2296  0.2238
   74MPD2    C4 1151   2.409   0.703  13.951  0.2778  0.1871 -0.5555
   74MPD2    C5 1152   2.428   0.832  13.914 -0.3449  0.1837 -0.1935
   74MPD2     H 1153   2.731   0.612  13.995 -0.0141  0.2576  0.0409
   74MPD2    H1 1154   2.308   0.662  13.943  0.5690 -0.0811 -2.7022
   74MPD2    H2 1155   2.555   0.988  13.859  1.8954 -1.0168 -1.8724
   74MPD2    H3 1156   2.347   0.900  13.889 -2.2077 -1.2599  1.9762
   74MPD2     N 1157   2.507   0.476  14.005  0.0797 -0.2989  1.1729
   74MPD2    H5 1158   2.413   0.447  14.028 -1.4103  3.9561  0.4329
   74MPD2    N1 1159   2.787   0.873  13.930 -0.2357  0.5099  0.0622
   74MPD2    H7 1160   2.790   0.968  13.896  4.2448  0.7233  1.0400
   75TMC2    C1 1161   2.604   1.259  13.798  1.0307  0.1985  0.5131
   75TMC2    C2 1162   2.484   1.299  13.848 -0.7987  0.6480  0.2350
   75TMC2    C3 1163   2.374   1.308  13.767 -0.0736  0.4296 -0.1681
   75TMC2    C4 1164   2.614   1.241  13.663 -0.1595 -0.6311 -0.1375
   75TMC2    C5 1165   2.505   1.256  13.577 -1.0813 -0.2247 -0.2178
   75TMC2    C6 1166   2.381   1.291  13.630  0.5685  0.4765 -0.5352
   75TMC2     C 1167   2.711   1.221  13.894  0.6699 -0.5841 -0.0201
   75TMC2     O 1168   2.800   1.156  13.843 -0.7468 -0.0976 -0.1268
   75TMC2     H 1169   2.471   1.298  13.956  2.2724  1.1175  0.6189
   75TMC2    H1 1170   2.712   1.235  13.616  0.1887  3.8821  0.0227
   75TMC2    H2 1171   2.294   1.313  13.569  0.9835  2.5304 -0.3866
   75TMC2    C7 1172   2.514   1.267  13.433 -0.3852 -0.2829 -0.5790
   75TMC2    C8 1173   2.271   1.387  13.821  0.2536 -0.1283  0.3916
   75TMC2    O1 1174   2.417   1.318  13.375 -0.0794  0.5174  0.3470
   75TMC2    O2 1175   2.283   1.454  13.924 -0.2145  0.5621 -0.2688
   75TMC2    O5 1176   2.164   1.313  13.798  0.5835 -0.0076  0.1193
   75TMC2    H5 1177   2.174   1.239  13.735 -1.5612  0.3260 -0.5859
   76TMC2    C1 1178   2.361   2.060  12.222 -0.1377  0.2245 -0.6284
   76TMC2    C2 1179   2.486   2.124  12.242  0.0215 -0.2981 -0.6799
   76TMC2    C3 1180   2.557   2.099  12.358  0.2946  0.2567  0.2822
   76TMC2    C4 1181   2.319   1.974  12.321 -0.3048 -0.3477 -0.7822
   76TMC2    C5 1182   2.389   1.951  12.439  0.5000 -0.4962  0.3315
   76TMC2    C6 1183   2.506   2.016  12.460  0.9025 -0.4961 -0.4249
   76TMC2     C 1184   2.254   2.124  12.165  0.7748 -0.3149 -0.0934
   76TMC2     O 1185   2.262   2.246  12.170  0.4035 -0.3247  0.1155
   76TMC2     H 1186   2.506   2.218  12.192 -3.8825  1.2358  0.6464
   76TMC2    H1 1187   2.216   1.940  12.316 -0.7985  0.9145  0.8970
   76TMC2    H2 1188   2.550   2.013  12.559 -2.4349  1.6190  1.1121
   76TMC2    C7 1189   2.341   1.836  12.520 -0.1209 -0.2818 -0.3051
   76TMC2    C8 1190   2.663   2.193  12.389  0.7571 -0.9684 -0.0262
   76TMC2    O1 1191   2.246   1.776  12.476  0.1427 -0.2926  0.3904
   76TMC2    O2 1192   2.690   2.289  12.318  0.1275 -0.5670  0.6529
   76TMC2    O5 1193   2.751   2.131  12.469 -0.1911  0.3346 -0.2262
   76TMC2    H5 1194   2.730   2.038  12.492 -0.3909 -0.0526 -2.0118
   77MPD2     C 1195   1.786   2.150  11.963 -0.2173  0.1014 -0.2574
   77MPD2    C1 1196   1.876   2.253  11.992 -0.3414 -0.7735  0.7536
   77MPD2    C2 1197   1.994   2.220  12.046 -0.3225  0.2619 -0.1298
   77MPD2    C3 1198   2.031   2.084  12.060 -0.0149  0.5244 -0.2232
   77MPD2    C4 1199   1.942   1.992  12.021 -0.1676 -0.1887  0.1419
   77MPD2    C5 1200   1.813   2.020  11.985 -0.0101 -1.3565  0.1335
   77MPD2     H 1201   2.064   2.301  12.062 -0.4364  0.1167  1.1057
   77MPD2    H1 1202   1.969   1.887  12.034 -0.3036 -0.4243 -1.4669
   77MPD2    H2 1203   1.691   2.177  11.918  1.0580  1.4016 -2.1529
   77MPD2    H3 1204   1.738   1.948  11.957 -1.3954  0.6884 -1.4874
   77MPD2     N 1205   2.158   2.040  12.109  0.4589  0.5863 -0.1260
   77MPD2    H5 1206   2.174   1.941  12.120 -3.1397 -0.0003 -0.2364
   77MPD2    N1 1207   1.846   2.389  11.957  0.2420  0.5723 -0.7307
   77MPD2    H7 1208   1.902   2.458  12.005 -2.4098  3.3756 -1.6609
   78TMC2    C1 1209   4.529   1.534   1.546 -0.3865  0.4336  0.8736
   78TMC2    C2 1210   4.652   1.472   1.515 -0.1726 -1.0450  0.3324
   78TMC2    C3 1211   0.028   1.550   1.504  0.0574  0.1992 -0.0014
   78TMC2    C4 1212   4.523   1.671   1.573  0.4130  0.1901  0.1810
   78TMC2    C5 1213   4.640   1.740   1.564 -0.6672 -0.7033  0.8642
   78TMC2    C6 1214   0.022   1.687   1.522 -0.0252  0.5395 -0.3842
   78TMC2     C 1215   4.414   1.450   1.591  0.4492 -0.4555  0.1283
   78TMC2     O 1216   4.321   1.503   1.645  0.9118  0.6032  0.0353
   78TMC2     H 1217   4.659   1.366   1.490 -0.6113 -1.6756  2.8941
   78TMC2    H1 1218   4.425   1.715   1.588 -0.3087 -1.3497 -0.0373
   78TMC2    H2 1219   0.112   1.745   1.511  1.7129 -2.3149 -1.2907
   78TMC2    C7 1220   4.644   1.860   1.635  0.7761  0.1501  0.0524
   78TMC2    C8 1221   0.147   1.493   1.431 -0.1592  0.2943 -0.0490
   78TMC2    O1 1222   4.732   1.943   1.610  0.3492 -0.3124 -0.5856
   78TMC2    O2 1223   0.158   1.375   1.421 -0.2162 -0.2684  0.4798
   78TMC2    O5 1224   0.239   1.588   1.405  0.2974  0.5968  0.3572
   78TMC2    H5 1225   0.205   1.679   1.388  2.5084  1.1401 -1.2114
   79MPD1     C 1226   4.108   1.043   1.540 -0.1285 -0.4197  0.6946
   79MPD1    C1 1227   4.098   1.153   1.619  0.2371 -0.1891 -0.1826
   79MPD1    C2 1228   4.208   1.240   1.632 -0.2915  0.2641 -0.7873
   79MPD1    C3 1229   4.315   1.225   1.544  0.8106 -0.0375  0.9243
   79MPD1    C4 1230   4.323   1.108   1.467  0.0000  0.3620 -0.0476
   79MPD1    C5 1231   4.218   1.021   1.464  0.0381 -0.9027 -0.3206
   79MPD1     H 1232   4.197   1.314   1.711  0.7444  0.1288 -0.5181
   79MPD1    H1 1233   4.404   1.078   1.401 -0.4662 -2.0516  0.4768
   79MPD1    H2 1234   4.039   0.961   1.554 -0.2823 -0.3871  0.1219
   79MPD1    H3 1235   4.220   0.935   1.398  1.0393 -1.3342  0.2620
   79MPD1     N 1236   4.419   1.323   1.540  0.0973  0.5172  0.6010
   79MPD1    H5 1237   4.501   1.301   1.484 -0.5402  0.8073 -0.4441
   79MPD1    N1 1238   3.984   1.172   1.705  0.1829  0.1637 -0.0572
   79MPD1    H6 1239   3.954   1.269   1.706 -1.2310 -0.2336 -4.6673
   79MPD1    H7 1240   3.901   1.123   1.672  1.4426 -1.9572 -0.0706
   80TMC2    C1 1241   0.354   1.584  11.748 -0.0549 -0.1239 -0.1379
   80TMC2    C2 1242   0.281   1.587  11.634  0.0560  0.2973  0.0941
   80TMC2    C3 1243   0.177   1.500  11.613  0.0245  0.1659  0.3059
   80TMC2    C4 1244   0.339   1.491  11.839  0.0216  0.0675  0.0138
   80TMC2    C5 1245   0.245   1.393  11.813 -0.5892  0.0455  0.1604
   80TMC2    C6 1246   0.177   1.389  11.694  0.1522 -0.1923  0.3872
   80TMC2     C 1247   0.475   1.671  11.741 -0.0315  0.4204 -0.6500
   80TMC2     O 1248   0.500   1.708  11.627  0.3720  0.0689 -0.3112
   80TMC2     H 1249   0.306   1.652  11.550 -1.3615  0.5658 -0.1133
   80TMC2    H1 1250   0.402   1.475  11.925  0.5352  0.7747 -0.2313
   80TMC2    H2 1251   0.104   1.314  11.667  1.6298 -1.1478 -0.8893
   80TMC2    C7 1252   0.254   1.257  11.870  0.4345 -0.1931  0.4920
   80TMC2    C8 1253   0.147   1.475  11.473  0.9679  0.0993 -0.1054
   80TMC2    O1 1254   0.236   1.168  11.783 -0.1236  0.5464  0.1871
   80TMC2    O2 1255   0.147   1.366  11.421 -0.2721  0.0946 -0.1524
   80TMC2    O5 1256   0.070   1.577  11.433  0.1895  0.1244 -0.2466
   80TMC2    H5 1257   0.076   1.662  11.481  2.1392  0.9170 -1.9223
   81MPD2     C 1258   0.714   1.847  11.767  0.3088 -0.4902 -0.0951
   81MPD2    C1 1259   0.640   1.798  11.872 -0.2134  0.3864  0.0292
   81MPD2    C2 1260   0.681   1.835  12.001  0.0201 -0.8322 -0.6065
   81MPD2    C3 1261   0.793   1.911  12.024 -0.0886  0.4237  0.0607
   81MPD2    C4 1262   0.855   1.969  11.910  0.8506 -0.3938 -0.7910
   81MPD2    C5 1263   0.815   1.934  11.784  0.0103 -0.7011  0.1941
   81MPD2     H 1264   0.630   1.803  12.091  0.7490  1.1961  0.5265
   81MPD2    H1 1265   0.936   2.041  11.919 -0.3860  0.8938  0.0783
   81MPD2    H2 1266   0.679   1.832  11.665 -1.3882 -0.3833  0.4616
   81MPD2    H3 1267   0.865   1.974  11.697 -1.3578  1.4514  0.4002
   81MPD2     N 1268   0.839   1.940  12.154  0.2210 -0.3453  0.1906
   81MPD2    H5 1269   0.800   1.884  12.229  2.5312  0.3225  1.9014
   81MPD2    N1 1270   0.528   1.710  11.863 -0.3208 -0.2320 -0.2356
   81MPD2    H7 1271   0.482   1.693  11.952  0.6446  0.9201  0.4909
   82TMC2    C1 1272   3.743   1.117  11.105 -0.2537 -0.4518  0.4000
   82TMC2    C2 1273   3.877   1.136  11.107 -0.3195 -0.3737  0.0373
   82TMC2    C3 1274   3.949   1.029  11.064 -0.2662  0.3741  0.9267
   82TMC2    C4 1275   3.680   1.001  11.087  0.1563 -0.0275 -0.2605
   82TMC2    C5 1276   3.758   0.889  11.053  0.2191  0.6036 -0.3191
   82TMC2    C6 1277   3.894   0.910  11.035  0.3684  0.0629  0.1477
   82TMC2     C 1278   3.649   1.221  11.158 -0.3178  0.0423 -0.0862
   82TMC2     O 1279   3.531   1.199  11.154  0.0508 -0.3214 -0.2650
   82TMC2     H 1280   3.908   1.240  11.101 -0.5229 -0.2431  1.2124
   82TMC2    H1 1281   3.572   0.995  11.080  0.0896  2.6517 -1.3040
   82TMC2    H2 1282   3.964   0.828  11.029  0.5895 -0.1069  4.9780
   82TMC2    C7 1283   3.695   0.762  11.075 -0.1619  0.3541  0.4226
   82TMC2    C8 1284   4.095   1.039  11.040  0.4329 -0.1798 -0.3950
   82TMC2    O1 1285   3.573   0.764  11.079 -0.2720 -0.7228 -0.2014
   82TMC2    O2 1286   4.159   0.947  10.990 -0.4911  0.2561 -0.0471
   82TMC2    O5 1287   4.144   1.139  11.111 -0.4593 -0.3079  0.0768
   82TMC2    H5 1288   4.084   1.198  11.163 -0.2773 -0.3943  0.3848
   83MPD2     C 1289   3.539   1.676  11.340 -0.8065 -0.1893 -0.5406
   83MPD2    C1 1290   3.460   1.592  11.268  0.9536 -0.3107  0.5135
   83MPD2    C2 1291   3.518   1.470  11.228 -0.1221  0.1165 -0.1228
   83MPD2    C3 1292   3.646   1.438  11.258 -0.8545  0.0028  0.9033
   83MPD2    C4 1293   3.716   1.525  11.333 -0.1548  0.2238 -0.0419
   83MPD2    C5 1294   3.665   1.650  11.377 -0.2968 -0.6873  0.1432
   83MPD2     H 1295   3.453   1.422  11.157  2.7191 -0.2168 -2.5094
   83MPD2    H1 1296   3.819   1.500  11.357  0.1466  0.3603 -1.1681
   83MPD2    H2 1297   3.503   1.766  11.387 -0.2135  1.4766 -3.2458
   83MPD2    H3 1298   3.722   1.711  11.446  0.5241 -1.5932  0.2613
   83MPD2     N 1299   3.713   1.320  11.224 -0.1447 -0.3745 -0.6966
   83MPD2    H5 1300   3.811   1.311  11.249 -0.7493 -0.8288  1.4808
   83MPD2    N1 1301   3.320   1.618  11.250  0.2366  0.0967  0.1511
   83MPD2    H7 1302   3.266   1.681  11.309 -1.7141 -1.9652  0.5465
   84TMC2    C1 1303   0.128   0.936  10.301  0.0440  0.6604  0.6275
   84TMC2    C2 1304   0.024   0.970  10.214  0.0151  0.0748 -0.8199
   84TMC2    C3 1305   0.060   0.966  10.082  0.3906 -0.2017  0.5904
   84TMC2    C4 1306   0.252   0.906  10.265 -0.9846  0.0388 -0.1847
   84TMC2    C5 1307   0.280   0.904  10.128  0.1438 -0.2444  0.2793
   84TMC2    C6 1308   0.188   0.940  10.041  0.4153  0.2766 -0.5694
   84TMC2     C 1309   0.098   0.924  10.444  0.1269  0.5042 -0.1534
   84TMC2     O 1310   0.053   1.024  10.487 -0.0858 -0.3018 -0.6318
   84TMC2     H 1311   4.667   1.002  10.257 -1.2126 -3.7600 -0.6968
   84TMC2    H1 1312   0.315   0.857  10.339 -0.7995 -0.2340 -0.5262
   84TMC2    H2 1313   0.208   0.931   9.935  0.5324 -1.2797 -0.4104
   84TMC2    C7 1314   0.413   0.906  10.074 -0.6013 -0.1968  0.0278
   84TMC2    C8 1315   4.703   1.017   9.991 -0.0690 -0.3125 -0.0998
   84TMC2    O1 1316   0.419   0.883   9.957  0.2176 -0.1948 -0.1069
   84TMC2    O2 1317   4.586   0.994  10.002 -0.2259 -0.0371 -0.0996
   84TMC2    O5 1318   0.021   1.115   9.922 -0.2503  0.3409 -0.0283
   84TMC2    H5 1319   0.118   1.110   9.932 -0.1963  3.3531  1.1218
   85TMC2    C1 1320   1.193   3.088  16.102 -0.6240 -0.5392  0.9814
   85TMC2    C2 1321   1.095   3.156  16.034  0.6076  0.0631 -0.1992
   85TMC2    C3 1322   1.135   3.251  15.945 -0.8020 -0.6074 -0.2501
   85TMC2    C4 1323   1.319   3.116  16.095  0.0465  0.1563 -0.3810
   85TMC2    C5 1324   1.355   3.214  16.004  0.4419  0.0965 -0.2075
   85TMC2    C6 1325   1.266   3.267  15.918  0.6012  0.6322  0.4387
   85TMC2     C 1326   1.160   2.969  16.179  0.8040  0.0369 -1.0177
   85TMC2     O 1327   1.244   2.910  16.242  0.2276 -0.3284 -0.2727
   85TMC2     H 1328   0.991   3.134  16.056  0.9903 -0.7068  0.8288
   85TMC2    H1 1329   1.392   3.061  16.153  1.1707  1.4913 -0.5133
   85TMC2    H2 1330   1.295   3.319  15.828  0.8548 -0.1589  0.0625
   85TMC2    C7 1331   1.496   3.243  15.991  0.0401 -1.0292 -0.0485
   85TMC2    C8 1332   1.053   3.368  15.908  0.2295 -0.0913  0.6266
   85TMC2    O1 1333   1.584   3.186  16.054  0.3647  0.3312  0.1403
   85TMC2    O2 1334   1.103   3.468  15.861  0.1516 -0.2542 -0.0045
   85TMC2    O5 1335   0.953   3.376  15.997  0.4382 -0.4862  0.0547
   85TMC2    H5 1336   0.913   3.300  16.045 -0.2789 -1.1919 -1.6363
   86MPD2     C 1337   0.833   2.633  16.389  0.2640  0.4806 -0.0631
   86MPD2    C1 1338   0.771   2.670  16.266 -0.2127 -0.1763  0.2119
   86MPD2    C2 1339   0.839   2.770  16.198 -0.6918 -0.4422  0.6586
   86MPD2    C3 1340   0.966   2.816  16.232 -0.3857  0.6151 -1.2092
   86MPD2    C4 1341   1.019   2.770  16.348 -0.4706  0.0621 -0.1953
   86MPD2    C5 1342   0.958   2.677  16.432  0.4638  0.1565  0.5710
   86MPD2     H 1343   0.792   2.810  16.109 -0.0661 -1.1731 -0.0033
   86MPD2    H1 1344   1.107   2.820  16.388  1.1575 -1.0298 -2.4282
   86MPD2    H2 1345   0.797   2.553  16.453 -2.4269  1.5897 -0.1846
   86MPD2    H3 1346   1.005   2.649  16.526  1.1248  0.9695  0.4823
   86MPD2     N 1347   1.032   2.915  16.154  0.1255 -1.1352 -0.6318
   86MPD2    H5 1348   0.990   2.941  16.066 -0.5038  0.8454  0.2516
   86MPD2    N1 1349   0.646   2.621  16.228 -0.3693 -0.4879 -0.3771
   86MPD2    H7 1350   0.614   2.643  16.134 -0.6118 -0.6381 -0.3300
   87TMC2    C1 1351   3.448   1.674   0.354 -0.3473 -0.2578 -0.1286
   87TMC2    C2 1352   3.504   1.744   0.249  0.9036 -0.5239 -0.5867
   87TMC2    C3 1353   3.509   1.882   0.253  0.8610  0.2766 -0.2573
   87TMC2    C4 1354   3.394   1.741   0.462 -1.1173 -0.1956  0.1258
   87TMC2    C5 1355   3.418   1.877   0.479  0.4226  0.6575 -0.4580
   87TMC2    C6 1356   3.478   1.943   0.375  0.5279  0.0584  0.0767
   87TMC2     C 1357   3.461   1.533   0.342  0.6188 -0.3819 -0.1366
   87TMC2     O 1358   3.534   1.504   0.248  0.7489 -0.2341  0.6414
   87TMC2     H 1359   3.542   1.702   0.157  0.9941 -0.9655 -0.3515
   87TMC2    H1 1360   3.349   1.682   0.541  1.1882 -1.2792  0.6308
   87TMC2    H2 1361   3.499   2.049   0.387 -0.0790  0.0263  1.3839
   87TMC2    C7 1362   3.452   1.917   0.611 -0.8491  0.5118  0.3626
   87TMC2    C8 1363   3.624   1.940   0.182  0.8218  0.4631 -1.0820
   87TMC2    O1 1364   3.557   1.978   0.618  0.2490 -0.4407  1.0481
   87TMC2    O2 1365   3.715   1.870   0.146  0.2730 -0.0932 -0.1862
   87TMC2    O5 1366   3.593   2.069   0.145 -0.6341  0.0062 -0.0834
   87TMC2    H5 1367   3.501   2.100   0.157 -0.8558 -0.3802 -0.7773
   88MPD2     C 1368   3.264   1.858   0.926  0.0050  0.2841 -0.1014
   88MPD2    C1 1369   3.362   1.905   0.843 -0.4107 -0.4133  0.5005
   88MPD2    C2 1370   3.469   1.973   0.897 -0.2600  0.5780  0.0392
   88MPD2    C3 1371   3.469   2.003   1.032  0.1262 -0.0677  0.3197
   88MPD2    C4 1372   3.370   1.947   1.113  0.3216 -0.0885  0.5003
   88MPD2    C5 1373   3.277   1.866   1.059 -0.1054  0.5680 -0.3494
   88MPD2     H 1374   3.555   2.000   0.838 -0.0537  0.1315  0.1344
   88MPD2    H1 1375   3.360   1.968   1.219  1.6521 -1.6573  0.9315
   88MPD2    H2 1376   3.175   1.804   0.895 -0.8720  1.2902  0.6620
   88MPD2    H3 1377   3.203   1.825   1.127 -0.9681 -1.2026 -2.3644
   88MPD2     N 1378   3.568   2.084   1.092 -0.5217 -0.5613  0.4508
   88MPD2    H5 1379   3.547   2.099   1.190 -1.9711 -1.7973  0.3342
   88MPD2    N1 1380   3.356   1.882   0.701 -0.5470 -0.3456 -0.1522
   88MPD2    H7 1381   3.271   1.833   0.675  0.2013 -0.5392 -2.1847
   89TMC2    C1 1382   4.013   1.321   1.301  0.2350  0.0448 -0.2935
   89TMC2    C2 1383   3.959   1.350   1.420 -0.1390 -0.8438 -0.2591
   89TMC2    C3 1384   4.004   1.465   1.488  0.4484  0.0483  0.1507
   89TMC2    C4 1385   4.120   1.396   1.257 -0.1371  0.0088  0.0232
   89TMC2    C5 1386   4.147   1.519   1.317 -0.3087  0.2909  0.0518
   89TMC2    C6 1387   4.095   1.553   1.432 -0.3327 -0.7218  0.1251
   89TMC2     C 1388   3.951   1.216   1.214 -0.5972  0.8690  0.4619
   89TMC2     O 1389   3.958   1.237   1.094 -0.4161  0.2097  0.2417
   89TMC2     H 1390   3.892   1.283   1.473  0.1303 -0.7609  0.1875
   89TMC2    H1 1391   4.164   1.364   1.162  1.8217 -0.2886  1.0221
   89TMC2    H2 1392   4.120   1.653   1.466  0.0883 -0.0471 -2.1833
   89TMC2    C7 1393   4.264   1.603   1.268  0.3939 -0.2072 -0.1771
   89TMC2    C8 1394   3.951   1.502   1.613 -1.3307  0.0646  0.1296
   89TMC2    O1 1395   4.281   1.718   1.308  0.0627  0.0988 -0.5631
   89TMC2    O2 1396   3.864   1.438   1.667  0.2598 -0.8589 -0.1134
   89TMC2    O5 1397   4.063   1.541   1.677 -0.2193  0.5051  0.1904
   89TMC2    H5 1398   4.142   1.541   1.618 -0.0984  3.2904  0.3413
   90MPD2     C 1399   3.748   0.770   1.085  0.6206  0.2337  0.2967
   90MPD2    C1 1400   3.821   0.752   1.200  0.3348 -0.1046 -0.1954
   90MPD2    C2 1401   3.890   0.858   1.254  0.2856  0.3914 -0.2148
   90MPD2    C3 1402   3.865   0.988   1.203 -0.6881  0.0707  0.0008
   90MPD2    C4 1403   3.787   1.003   1.092  0.2781  0.4057 -0.2414
   90MPD2    C5 1404   3.743   0.893   1.030 -0.5095 -0.4104 -0.1969
   90MPD2     H 1405   3.951   0.848   1.343  1.0208 -1.7404 -0.9444
   90MPD2    H1 1406   3.775   1.102   1.049 -0.7619  0.5025  0.2622
   90MPD2    H2 1407   3.696   0.686   1.042  1.2503  0.1368 -0.2577
   90MPD2    H3 1408   3.688   0.890   0.937 -0.9402  1.1267  0.0141
   90MPD2     N 1409   3.917   1.098   1.273 -0.3255  0.1130 -0.8637
   90MPD2    H5 1410   3.935   1.087   1.372 -1.9709 -3.1314 -0.9212
   90MPD2    N1 1411   3.847   0.627   1.263 -0.2323 -0.5286  0.4232
   90MPD2    H7 1412   3.885   0.640   1.356  0.2045 -0.8062  0.2810
   91TMC2    C1 1413   1.172   4.034  16.787 -0.3639 -0.4787  0.2718
   91TMC2    C2 1414   1.208   4.149  16.851  1.0578  0.0777 -0.1616
   91TMC2    C3 1415   1.109   4.206  16.930  0.0478 -0.6118 -0.2487
   91TMC2    C4 1416   1.048   3.981  16.786  0.4319  0.9164  0.1156
   91TMC2    C5 1417   0.960   4.045  16.861  0.2212  0.1279 -0.1291
   91TMC2    C6 1418   0.979   4.157  16.931 -0.0380  0.2138  0.2520
   91TMC2     C 1419   1.280   3.946  16.737 -0.1154  0.5024 -0.8527
   91TMC2     O 1420   1.261   3.825  16.743  0.1550  0.4146 -0.0933
   91TMC2     H 1421   1.307   4.191  16.856  1.4499 -0.8491 -0.0786
   91TMC2    H1 1422   1.020   3.886  16.744  0.9920  0.4421  0.8120
   91TMC2    H2 1423   0.909   4.193  17.005 -1.3274 -2.2229  0.2419
   91TMC2    C7 1424   0.819   3.989  16.861 -0.1790  0.3687 -1.1802
   91TMC2    C8 1425   1.138   4.333  16.993 -0.5933  0.0158 -0.5081
   91TMC2    O1 1426   0.747   3.992  16.964 -0.0698  0.5807 -0.2605
   91TMC2    O2 1427   1.209   4.420  16.951 -0.2795  0.1341 -0.4318
   91TMC2    O5 1428   1.089   4.329  17.115 -0.9355  0.1365  0.3296
   91TMC2    H5 1429   1.082   4.235  17.141 -2.1470 -0.1187 -0.8812
   92MPD2     C 1430   1.499   3.825  16.592  0.0510  0.0886 -0.0824
   92MPD2    C1 1431   1.483   3.962  16.590 -0.0939 -0.4322  0.8140
   92MPD2    C2 1432   1.571   4.037  16.514  0.2070  0.1161 -0.0106
   92MPD2    C3 1433   1.666   3.975  16.433 -0.1180  0.0256 -0.1168
   92MPD2    C4 1434   1.661   3.840  16.417 -0.3377  0.9670 -0.0717
   92MPD2    C5 1435   1.570   3.765  16.489 -0.0641  0.2401  0.3450
   92MPD2     H 1436   1.563   4.144  16.500  1.1023  0.2284  0.2988
   92MPD2    H1 1437   1.731   3.789  16.351  1.7777  3.4349  0.2629
   92MPD2    H2 1438   1.454   3.754  16.660 -0.2007 -0.2932 -0.6431
   92MPD2    H3 1439   1.565   3.658  16.469 -1.0672  0.2017  0.8545
   92MPD2     N 1440   1.765   4.050  16.366  0.0852 -0.3221  0.5639
   92MPD2    H5 1441   1.748   4.149  16.349  1.3946 -0.4971 -1.8034
   92MPD2    N1 1442   1.372   4.017  16.663  0.5719 -0.4078 -0.1616
   92MPD2    H7 1443   1.348   4.115  16.652  2.3072 -0.0548 -1.0252
   93TMC2    C1 1444   3.135   3.901  14.088 -0.4442 -0.2725  0.3544
   93TMC2    C2 1445   3.076   3.951  14.206  0.6324  0.2481  0.0719
   93TMC2    C3 1446   3.101   4.080  14.240  0.0688  0.1105  0.5648
   93TMC2    C4 1447   3.221   3.977  14.007 -0.4672 -0.3270  0.1318
   93TMC2    C5 1448   3.247   4.105  14.054 -0.2652 -0.5860  0.0199
   93TMC2    C6 1449   3.183   4.162  14.164  0.2253  0.1113  0.1753
   93TMC2     C 1450   3.073   3.782  14.026  0.0901  0.1827 -0.4092
   93TMC2     O 1451   3.131   3.720  13.939 -0.0929 -0.0488 -0.0610
   93TMC2     H 1452   3.020   3.894  14.280 -0.5966 -1.3703 -2.0925
   93TMC2    H1 1453   3.247   3.962  13.903 -2.3650  1.4321 -0.6084
   93TMC2    H2 1454   3.216   4.261  14.193 -3.2878  1.8495 -1.7706
   93TMC2    C7 1455   3.348   4.173  13.978 -0.4125  0.2162 -0.1418
   93TMC2    C8 1456   3.083   4.129  14.369 -0.5689 -0.2672  0.9564
   93TMC2    O1 1457   3.423   4.102  13.910  0.1877 -0.0443  0.1407
   93TMC2    O2 1458   3.163   4.212  14.405  0.4857  0.8342 -0.2360
   93TMC2    O5 1459   2.951   4.131  14.382  0.9276 -1.2576  0.1244
   93TMC2    H5 1460   2.901   4.059  14.340  0.4605 -0.0040 -1.4851
   94MPD2     C 1461   2.862   3.606  13.910  0.0352 -1.0631  0.8438
   94MPD2    C1 1462   2.838   3.709  13.994 -0.8090  0.5995  0.1445
   94MPD2    C2 1463   2.712   3.756  14.012  0.0580  0.2836  0.0466
   94MPD2    C3 1464   2.597   3.705  13.946  0.3635 -0.2676 -0.1550
   94MPD2    C4 1465   2.624   3.601  13.847 -0.0268  0.1530 -0.1234
   94MPD2    C5 1466   2.753   3.557  13.839  0.0078  0.5837  0.3627
   94MPD2     H 1467   2.699   3.837  14.082  0.0506  0.6253 -0.3470
   94MPD2    H1 1468   2.552   3.550  13.784  1.0171 -2.5768  0.8737
   94MPD2    H2 1469   2.959   3.572  13.876  0.3041  2.7057 -2.1485
   94MPD2    H3 1470   2.770   3.480  13.764 -3.5140 -0.1664  0.3455
   94MPD2     N 1471   2.467   3.764  13.955 -0.1732  0.1326  0.1101
   94MPD2    H5 1472   2.393   3.733  13.893  0.9630 -1.6597 -0.3393
   94MPD2    N1 1473   2.940   3.775  14.063 -0.1556  0.2378  0.2511
   94MPD2    H7 1474   2.904   3.850  14.121 -0.1817  1.6444 -1.5609
   95TMC2    C1 1475   2.724   0.963  16.117  0.0765 -0.2386 -0.2901
   95TMC2    C2 1476   2.767   0.831  16.128  0.1598  0.0680 -0.7968
   95TMC2    C3 1477   2.776   0.768  16.251  0.1040 -0.3028 -0.2225
   95TMC2    C4 1478   2.682   1.030  16.234 -0.7407 -0.4916  0.2656
   95TMC2    C5 1479   2.689   0.962  16.349 -0.0211 -0.1460 -0.6075
   95TMC2    C6 1480   2.746   0.842  16.363 -0.3000 -0.3069  0.1484
   95TMC2     C 1481   2.768   1.047  16.012 -0.2393 -0.1765 -0.8311
   95TMC2     O 1482   2.750   1.169  16.020 -0.7563 -0.4202  0.7329
   95TMC2     H 1483   2.792   0.771  16.042 -0.1194  1.8701 -2.1389
   95TMC2    H1 1484   2.650   1.132  16.218  1.5376  0.2920  0.6038
   95TMC2    H2 1485   2.779   0.806  16.460 -0.7718 -0.6431  0.1865
   95TMC2    C7 1486   2.647   1.035  16.474 -0.9828 -0.8070 -0.4995
   95TMC2    C8 1487   2.833   0.636  16.267  0.9585 -0.2264  0.0505
   95TMC2    O1 1488   2.627   1.153  16.466  0.2038 -0.4145  0.1876
   95TMC2    O2 1489   2.914   0.578  16.198 -0.2139 -0.1465 -0.0993
   95TMC2    O5 1490   2.787   0.588  16.388  0.1160 -0.1574  0.0862
   95TMC2    H5 1491   2.730   0.639  16.450 -0.1387 -2.2118  1.5535
   96MPD2     C 1492   2.984   1.094  15.556 -0.3367 -0.8480 -0.1859
   96MPD2    C1 1493   2.964   1.188  15.654  0.0085  0.3029  0.5491
   96MPD2    C2 1494   2.914   1.149  15.773 -0.5540  0.0880  0.0451
   96MPD2    C3 1495   2.878   1.019  15.789 -0.4989 -0.2883 -0.0824
   96MPD2    C4 1496   2.905   0.926  15.691 -0.1481 -1.1382  0.3151
   96MPD2    C5 1497   2.950   0.967  15.569 -1.1716 -0.1640  0.5701
   96MPD2     H 1498   2.894   1.223  15.850  1.2488 -0.1297  0.7316
   96MPD2    H1 1499   2.888   0.821  15.708 -2.3700 -0.6452  1.1220
   96MPD2    H2 1500   3.021   1.130  15.461 -0.0130 -1.0170 -0.1238
   96MPD2    H3 1501   2.959   0.902  15.483  2.1756 -0.5750  1.2052
   96MPD2     N 1502   2.812   0.972  15.905  0.2115  0.4822 -0.4604
   96MPD2    H5 1503   2.792   0.873  15.908  1.2519  0.2386 -1.6061
   96MPD2    N1 1504   2.998   1.313  15.615  0.6713 -0.0663 -0.0765
   96MPD2    H7 1505   3.025   1.334  15.519  1.3135 -1.6511 -0.2486
   97TMC2    C1 1506   0.393   3.864   0.202 -0.3327  0.5645  0.1835
   97TMC2    C2 1507   0.370   3.796   0.090  0.1122 -0.0193 -0.1172
   97TMC2    C3 1508   0.411   3.844  17.716  0.6348 -0.0531 -0.1546
   97TMC2    C4 1509   0.445   3.992   0.199 -0.3347 -0.5175  0.3155
   97TMC2    C5 1510   0.458   4.042   0.074 -0.2150 -0.1088 -0.1155
   97TMC2    C6 1511   0.456   3.970  17.707  0.5750  0.5040 -0.3126
   97TMC2     C 1512   0.363   3.803   0.331 -0.0868 -0.8214  0.3226
   97TMC2     O 1513   0.350   3.880   0.426  0.3202  0.4262 -0.8797
   97TMC2     H 1514   0.317   3.703   0.101  0.6131 -0.2292  0.4849
   97TMC2    H1 1515   0.465   4.051   0.287 -1.3875  1.4978 -0.7933
   97TMC2    H2 1516   0.497   4.009  17.615 -0.9619 -0.2627 -1.3335
   97TMC2    C7 1517   0.527   4.170   0.067 -0.8858  0.1809 -0.4806
   97TMC2    C8 1518   0.382   3.782  17.588  0.3472 -0.6277  0.1721
   97TMC2    O1 1519   0.592   4.196   0.166  0.3362  0.3423  0.7004
   97TMC2    O2 1520   0.368   3.842  17.484  0.0536 -0.0335 -0.2884
   97TMC2    O5 1521   0.345   3.657  17.609 -0.3106 -0.4458 -0.3351
   97TMC2    H5 1522   0.367   3.620  17.697  3.1215  0.3001 -0.8687
   98MPD2     C 1523   0.296   3.395   0.633  0.1902  0.3402  0.1622
   98MPD2    C1 1524   0.261   3.525   0.658 -0.5508 -0.8193 -0.1491
   98MPD2    C2 1525   0.286   3.620   0.556  0.1477 -0.2856 -0.1786
   98MPD2    C3 1526   0.346   3.579   0.435  0.1656 -0.5232  0.0903
   98MPD2    C4 1527   0.376   3.443   0.406  0.3478 -0.8396 -0.6160
   98MPD2    C5 1528   0.348   3.352   0.508  0.2698 -0.0705 -0.6142
   98MPD2     H 1529   0.278   3.726   0.578 -0.2725 -0.4548  0.4717
   98MPD2    H1 1530   0.422   3.408   0.314  0.4021 -1.0028 -0.5276
   98MPD2    H2 1531   0.279   3.322   0.711 -2.2835 -0.9001 -1.5605
   98MPD2    H3 1532   0.367   3.246   0.498  0.3047 -0.0517 -0.7455
   98MPD2     N 1533   0.375   3.670   0.331  0.7253  0.1838  0.0065
   98MPD2    H5 1534   0.413   3.630   0.245  0.5322 -1.0985  0.5306
   98MPD2    N1 1535   0.202   3.557   0.787 -0.5734  0.5431 -0.3068
   98MPD2    H7 1536   0.201   3.484   0.857  1.6263 -0.0686 -0.9190
   99TMC2    C1 1537   3.502   1.300   1.415  0.1193 -0.7191 -0.8724
   99TMC2    C2 1538   3.565   1.359   1.524 -0.3319  0.4771  0.4701
   99TMC2    C3 1539   3.516   1.346   1.646 -0.0467 -0.0543  0.1181
   99TMC2    C4 1540   3.379   1.241   1.434 -0.6128 -0.4208  0.3407
   99TMC2    C5 1541   3.328   1.233   1.560  0.5859  0.5624 -0.4168
   99TMC2    C6 1542   3.394   1.288   1.658 -0.0430  0.1799  0.6887
   99TMC2     C 1543   3.560   1.309   1.283 -0.0132 -0.0588  0.3355
   99TMC2     O 1544   3.657   1.384   1.278 -0.1692 -0.1740  0.7912
   99TMC2     H 1545   3.652   1.422   1.505  0.9054 -0.9438  1.3899
   99TMC2    H1 1546   3.324   1.207   1.347  0.0877 -0.3773 -0.1182
   99TMC2    H2 1547   3.349   1.298   1.757  0.3357 -2.1938  1.1001
   99TMC2    C7 1548   3.200   1.171   1.583  0.1433  0.1708  1.2120
   99TMC2    C8 1549   3.564   1.434   1.744  0.0396 -0.5412 -0.2576
   99TMC2    O1 1550   3.146   1.199   1.688  0.6816 -0.3537 -0.2219
   99TMC2    O2 1551   3.594   1.549   1.732 -0.5529  0.3245 -0.0709
   99TMC2    O5 1552   3.567   1.369   1.863 -0.0516  0.3801 -0.0534
   99TMC2    H5 1553   3.537   1.276   1.863  0.7272  0.1501 -2.0682
  100MPD2     C 1554   3.634   1.325   0.999 -0.6696 -0.2120 -0.9116
  100MPD2    C1 1555   3.548   1.227   1.053 -0.3962 -0.0298 -0.1527
  100MPD2    C2 1556   3.515   1.123   0.969 -0.1653  0.3073 -0.3657
  100MPD2    C3 1557   3.543   1.123   0.835 -0.5856 -0.0250 -0.1584
  100MPD2    C4 1558   3.625   1.223   0.777  0.2625  0.5417 -0.7567
  100MPD2    C5 1559   3.668   1.320   0.864  0.0192  0.5227  0.9818
  100MPD2     H 1560   3.463   1.033   1.000 -0.4991  0.7644  0.3779
  100MPD2    H1 1561   3.659   1.218   0.674 -0.3053  0.6511 -0.9522
  100MPD2    H2 1562   3.676   1.402   1.063 -0.0896  0.6442 -2.3143
  100MPD2    H3 1563   3.747   1.385   0.829  0.0642 -0.4454 -0.7491
  100MPD2     N 1564   3.515   1.005   0.750  0.3173  0.4667  0.3455
  100MPD2    H5 1565   3.444   0.941   0.784  0.0029  0.8676  0.4389
  100MPD2    N1 1566   3.503   1.230   1.187  0.4265 -0.0990 -0.0599
  100MPD2    H7 1567   3.443   1.153   1.217 -0.9073  1.4077  1.0916
  101TMC2    C1 1568   4.138   1.920  12.825  0.1623 -0.3717 -0.2771
  101TMC2    C2 1569   4.102   1.831  12.732 -0.1973  0.5673 -0.0862
  101TMC2    C3 1570   4.171   1.832  12.616  0.4936  0.6871 -0.6766
  101TMC2    C4 1571   4.228   2.018  12.807  0.1889  0.0995 -0.2535
  101TMC2    C5 1572   4.277   2.030  12.678 -0.2177 -0.3337 -0.4284
  101TMC2    C6 1573   4.254   1.933  12.582 -0.5364 -0.3573  0.1564
  101TMC2     C 1574   4.101   1.865  12.958 -0.4164 -0.1947 -0.0347
  101TMC2     O 1575   3.998   1.797  12.962  0.2880  0.4133  0.9297
  101TMC2     H 1576   4.034   1.749  12.752  0.0943  0.4754  0.5350
  101TMC2    H1 1577   4.225   2.106  12.870  0.2236 -1.5216  2.0253
  101TMC2    H2 1578   4.307   1.928  12.488 -0.7370  0.5643 -0.0131
  101TMC2    C7 1579   4.394   2.112  12.666 -0.1436  0.4919 -0.2121
  101TMC2    C8 1580   4.193   1.699  12.561 -0.4270  0.3664  0.2591
  101TMC2    O1 1581   4.439   2.151  12.558 -0.8100 -0.0692 -0.1572
  101TMC2    O2 1582   4.195   1.603  12.637 -0.0056 -0.1136  0.3933
  101TMC2    O5 1583   4.171   1.692  12.428  0.5089 -0.1976  0.2344
  101TMC2    H5 1584   4.166   1.777  12.378  3.7144  0.1842  0.5905
  102MPD2     C 1585   4.299   1.882  13.263 -0.7687  0.0460  0.4171
  102MPD2    C1 1586   4.187   1.867  13.188 -0.6177  0.1195  0.5212
  102MPD2    C2 1587   4.074   1.822  13.254  0.5484 -0.1900 -0.1627
  102MPD2    C3 1588   4.083   1.805  13.395  0.1801 -0.2200 -0.0608
  102MPD2    C4 1589   4.194   1.832  13.471 -0.5532  0.1313 -0.6596
  102MPD2    C5 1590   4.302   1.872  13.400  0.5182  0.3457 -0.0817
  102MPD2     H 1591   3.983   1.801  13.200 -0.2098  0.2127  0.9708
  102MPD2    H1 1592   4.203   1.814  13.578  0.1403  1.5627 -0.4684
  102MPD2    H2 1593   4.393   1.896  13.210 -0.2565 -0.5929  1.1642
  102MPD2    H3 1594   4.399   1.883  13.447  0.0468 -2.1513  1.4706
  102MPD2     N 1595   3.972   1.751  13.455 -0.1266  0.7789 -0.5004
  102MPD2    H5 1596   3.892   1.746  13.392 -0.2424  1.0833 -0.3815
  102MPD2    N1 1597   4.203   1.880  13.048  0.3823 -0.9245  0.5024
  102MPD2    H7 1598   4.288   1.930  13.025 -1.6327  1.2085 -2.3591
  103TMC2    C1 1599   2.579   1.596  13.274  0.3788 -0.0137 -1.3376
  103TMC2    C2 1600   2.697   1.550  13.311 -0.2356 -0.4503  0.1226
  103TMC2    C3 1601   2.729   1.555  13.439 -0.7880 -0.3617 -0.0033
  103TMC2    C4 1602   2.489   1.649  13.359  0.3729  0.4036  0.3071
  103TMC2    C5 1603   2.512   1.635  13.492  0.2876  0.7472 -1.5535
  103TMC2    C6 1604   2.636   1.585  13.538 -0.8136  0.4026  0.3532
  103TMC2     C 1605   2.556   1.625  13.135  0.7358  0.2316  0.8620
  103TMC2     O 1606   2.651   1.641  13.059 -0.3990  0.4929  0.3107
  103TMC2     H 1607   2.764   1.521  13.231  2.6647  0.8028  2.0890
  103TMC2    H1 1608   2.390   1.684  13.333  0.7634  0.1755 -1.4682
  103TMC2    H2 1609   2.660   1.561  13.641 -0.4378 -0.0494  0.1562
  103TMC2    C7 1610   2.403   1.670  13.589 -0.1109  0.0048  0.8735
  103TMC2    C8 1611   2.857   1.493  13.472 -0.3059 -0.1616  0.3822
  103TMC2    O1 1612   2.291   1.681  13.543 -0.6994 -0.6957  0.3482
  103TMC2    O2 1613   2.860   1.380  13.524  0.5707 -0.4189  0.4185
  103TMC2    O5 1614   2.922   1.598  13.516  0.3369 -0.0818 -0.4245
  103TMC2    H5 1615   2.897   1.687  13.484  0.6725 -0.3695 -1.4764
  104MPD2     C 1616   2.246   1.561  12.960  0.7901  0.0762  0.6338
  104MPD2    C1 1617   2.370   1.617  12.976  0.2046  0.1065 -0.4768
  104MPD2    C2 1618   2.425   1.697  12.877  0.7956  0.4872 -0.3247
  104MPD2    C3 1619   2.354   1.714  12.748  0.4135  0.4298  0.1190
  104MPD2    C4 1620   2.229   1.659  12.741  0.1385  0.4289 -0.3546
  104MPD2    C5 1621   2.174   1.588  12.845  0.8438 -0.2010  0.0867
  104MPD2     H 1622   2.528   1.731  12.891  0.9655  0.0046 -0.4217
  104MPD2    H1 1623   2.167   1.661  12.652 -1.6621 -1.4850  0.8517
  104MPD2    H2 1624   2.195   1.498  13.033 -0.8898 -0.9019 -1.3680
  104MPD2    H3 1625   2.076   1.546  12.827  1.5156 -1.8771  0.3692
  104MPD2     N 1626   2.400   1.809  12.643  0.0166  0.1844  0.1545
  104MPD2    H5 1627   2.489   1.857  12.653 -0.3499  0.9050  0.0062
  104MPD2    N1 1628   2.424   1.613  13.106  0.1716  0.4687  0.0988
  104MPD2    H7 1629   2.369   1.567  13.178 -0.0124 -1.0667 -1.0216
  105TMC2    C1 1630   3.877   0.773   0.176  0.0030  0.1839 -0.7211
  105TMC2    C2 1631   3.860   0.651   0.110  0.3090 -0.4641 -0.3146
  105TMC2    C3 1632   3.734   0.636   0.058  0.3831 -0.5428  0.3158
  105TMC2    C4 1633   3.787   0.869   0.182  0.2010  0.1456 -0.7151
  105TMC2    C5 1634   3.657   0.840   0.142 -0.4250 -0.3874  0.1877
  105TMC2    C6 1635   3.632   0.727   0.074 -0.7627  0.5441  0.0915
  105TMC2     C 1636   4.019   0.810   0.195  0.4613  0.2152 -0.3263
  105TMC2     O 1637   4.099   0.719   0.210 -0.1648 -0.3567 -0.7220
  105TMC2     H 1638   3.943   0.582   0.114  2.3224  1.9569 -0.1931
  105TMC2    H1 1639   3.802   0.942   0.261  3.7178 -0.7049 -0.6338
  105TMC2    H2 1640   3.532   0.697   0.045 -0.4900  1.3326 -1.6866
  105TMC2    C7 1641   3.546   0.899   0.210  0.3707  0.3474  0.3408
  105TMC2    C8 1642   3.696   0.506  17.741 -0.5089 -0.2589  0.5754
  105TMC2    O1 1643   3.460   0.816   0.216 -0.6363 -0.3430 -0.3151
  105TMC2    O2 1644   3.584   0.473  17.709 -0.4616  0.3194  0.4076
  105TMC2    O5 1645   3.811   0.443  17.703 -0.1412 -0.0209 -0.0695
  105TMC2    H5 1646   3.889   0.494  17.731 -0.3070  0.8890 -1.2668
  106MPD2     C 1647   4.387   1.051  17.679  0.6046 -0.3748 -0.2679
  106MPD2    C1 1648   4.265   1.104  17.648 -0.4056 -0.1100 -0.5484
  106MPD2    C2 1649   4.152   1.063  17.720 -0.1175  0.0913 -0.1113
  106MPD2    C3 1650   4.161   0.965   0.067  1.2377 -0.7972 -0.1406
  106MPD2    C4 1651   4.286   0.906   0.095 -0.4845  0.2851  0.1838
  106MPD2    C5 1652   4.399   0.953   0.029  0.0648  0.1074 -0.0025
  106MPD2     H 1653   4.057   1.112  17.703 -0.5458 -1.0315 -0.9122
  106MPD2    H1 1654   4.297   0.835   0.176  0.1841 -0.1864 -0.3212
  106MPD2    H2 1655   4.476   1.105  17.649  1.7195 -1.2860  1.3967
  106MPD2    H3 1656   4.500   0.938   0.067  1.3947  1.7171 -2.9269
  106MPD2     N 1657   4.039   0.929   0.133  0.1488 -0.3456 -0.1437
  106MPD2    H5 1658   3.953   0.972   0.100 -1.2190 -1.7830  1.5122
  106MPD2    N1 1659   4.240   1.204  17.551 -0.4119 -0.2447  0.6322
  106MPD2    H7 1660   4.143   1.230  17.538  0.3069  1.7019 -0.8217
  107TMC2    C1 1661   4.387   1.072  11.276 -0.7897  0.0649  0.1710
  107TMC2    C2 1662   4.443   1.204  11.261  0.1031 -0.0631 -0.4025
  107TMC2    C3 1663   4.531   1.221  11.159 -0.1787  0.0156  0.6348
  107TMC2    C4 1664   4.414   0.970  11.188 -0.4579 -0.4682 -0.1345
  107TMC2    C5 1665   4.508   0.994  11.093  0.4107  0.0376 -0.1695
  107TMC2    C6 1666   4.563   1.122  11.072  0.7607  0.7020 -0.3034
  107TMC2     C 1667   4.332   1.027  11.410 -0.4682 -0.5703 -0.0897
  107TMC2     O 1668   4.289   1.118  11.481 -0.5865  0.8312 -0.1368
  107TMC2     H 1669   4.425   1.281  11.336  2.3638 -0.5028  0.5678
  107TMC2    H1 1670   4.382   0.867  11.193  0.0755 -0.6251  0.0275
  107TMC2    H2 1671   4.646   1.140  11.004 -0.3304 -2.4431 -2.4435
  107TMC2    C7 1672   4.565   0.873  11.027  0.6821 -0.1757 -0.2436
  107TMC2    C8 1673   4.601   1.350  11.140  0.2481  0.5663 -0.8314
  107TMC2    O1 1674   4.521   0.766  11.065 -0.1965  0.5680 -0.3164
  107TMC2    O2 1675   4.626   1.424  11.232  0.0821 -0.4363  0.3182
  107TMC2    O5 1676   4.610   1.371  11.011 -0.6185  0.2026  0.0665
  107TMC2    H5 1677   4.539   1.325  10.961  1.9814 -2.9338 -0.7533
  108MPD2     C 1678   4.379   0.708  11.577 -0.3259  0.0363 -0.0956
  108MPD2    C1 1679   4.315   0.826  11.546  0.5293 -0.3584 -0.4747
  108MPD2    C2 1680   4.215   0.866  11.627  0.7633 -0.2861  0.2399
  108MPD2    C3 1681   4.181   0.797  11.744  0.2103 -0.2905 -0.3046
  108MPD2    C4 1682   4.261   0.692  11.785 -0.2398  0.0623  0.0087
  108MPD2    C5 1683   4.358   0.651  11.700  0.2302  0.9317 -0.0512
  108MPD2     H 1684   4.157   0.951  11.593  0.9157 -1.0396 -1.9525
  108MPD2    H1 1685   4.236   0.632  11.872 -1.0193 -0.9728 -0.9384
  108MPD2    H2 1686   4.466   0.671  11.525  0.5930  1.1822  0.6484
  108MPD2    H3 1687   4.414   0.563  11.728 -1.0705  0.4540  1.0076
  108MPD2     N 1688   4.070   0.826  11.823 -0.0421  0.4492  0.0087
  108MPD2    H5 1689   4.072   0.774  11.910  0.8164 -0.2893 -0.4535
  108MPD2    N1 1690   4.357   0.894  11.431 -0.0484  0.0259  0.1206
  108MPD2    H7 1691   4.436   0.849  11.386  0.0739 -0.7192  1.0712
  109TMC2    C1 1692   4.183   3.333   2.046  0.0481 -0.4823  0.6129
  109TMC2    C2 1693   4.105   3.439   2.068  0.0848 -0.3416 -0.1167
  109TMC2    C3 1694   4.112   3.544   1.987 -0.2981 -0.5942 -0.4756
  109TMC2    C4 1695   4.258   3.309   1.929 -0.3381 -0.2179  0.4100
  109TMC2    C5 1696   4.261   3.425   1.852  0.3332 -0.0343 -0.3402
  109TMC2    C6 1697   4.189   3.542   1.879  0.5151  0.1729  0.2382
  109TMC2     C 1698   4.165   3.226   2.141 -0.2606  0.4079 -0.1623
  109TMC2     O 1699   4.062   3.222   2.205 -0.0891  0.2553  0.5606
  109TMC2     H 1700   4.072   3.459   2.170 -0.0275  2.2653 -0.6853
  109TMC2    H1 1701   4.317   3.225   1.897  2.0342  1.6162  0.0114
  109TMC2    H2 1702   4.211   3.629   1.819  0.8552 -1.2339 -1.6643
  109TMC2    C7 1703   4.346   3.438   1.732  0.4556  0.8881 -0.2271
  109TMC2    C8 1704   4.027   3.656   2.009  0.2943  0.2875  0.1673
  109TMC2    O1 1705   4.327   3.531   1.653 -0.1871 -0.4144 -0.2992
  109TMC2    O2 1706   4.003   3.700   2.121  0.4656  0.5520  0.0975
  109TMC2    O5 1707   3.970   3.719   1.900  0.3571 -0.3489  0.8858
  109TMC2    H5 1708   3.997   3.673   1.818  1.6492 -0.0474  1.1466
  110MPD2     C 1709   4.301   2.750   2.250 -0.6420 -0.1950 -0.6809
  110MPD2    C1 1710   4.405   2.803   2.180 -0.3299 -0.0662 -0.8382
  110MPD2    C2 1711   4.395   2.937   2.154  0.1867  0.0452  0.1691
  110MPD2    C3 1712   4.289   3.012   2.192 -0.4037 -0.3340 -0.0163
  110MPD2    C4 1713   4.185   2.960   2.273 -0.4758 -0.3880 -0.2307
  110MPD2    C5 1714   4.199   2.824   2.308  0.6884  0.0417 -0.6456
  110MPD2     H 1715   4.453   2.985   2.076  0.1695  0.1628  0.2281
  110MPD2    H1 1716   4.091   3.013   2.284 -0.9566 -1.5600  1.2296
  110MPD2    H2 1717   4.311   2.647   2.281 -2.6320 -0.4500 -0.8928
  110MPD2    H3 1718   4.124   2.772   2.367  1.2201 -0.6986 -0.6174
  110MPD2     N 1719   4.276   3.140   2.139 -0.4302  0.6038 -0.1906
  110MPD2    H5 1720   4.351   3.184   2.087  0.6321 -0.0135  0.8263
  110MPD2    N1 1721   4.507   2.722   2.128 -0.7693  0.5311  1.0937
  110MPD2    H7 1722   4.491   2.622   2.140  1.2013  0.0302 -0.3821
  111TMC2    C1 1723   4.582   2.500  11.337 -0.1524  0.3719  0.0125
  111TMC2    C2 1724   4.667   2.465  11.237 -0.6834  0.4108  0.1491
  111TMC2    C3 1725   0.064   2.462  11.263 -0.5177 -0.6308 -0.4277
  111TMC2    C4 1726   4.630   2.524  11.458 -0.8810 -0.3027 -0.1851
  111TMC2    C5 1727   0.026   2.516  11.474  0.0019 -0.1774  0.4453
  111TMC2    C6 1728   0.118   2.488  11.381 -0.1417  0.4663  0.7602
  111TMC2     C 1729   4.480   2.583  11.293  0.2005 -0.5115 -0.0716
  111TMC2     O 1730   4.497   2.628  11.183 -0.6064 -0.2001 -0.1617
  111TMC2     H 1731   4.631   2.462  11.134 -2.0534 -0.4916  0.6523
  111TMC2    H1 1732   4.565   2.550  11.541 -1.2611 -2.3910  0.1799
  111TMC2    H2 1733   0.226   2.489  11.384 -0.0318  2.1154 -3.7525
  111TMC2    C7 1734   0.063   2.552  11.607 -0.3009  0.1589 -0.0084
  111TMC2    C8 1735   0.151   2.467  11.146 -0.0930 -0.1104  0.0495
  111TMC2    O1 1736   4.736   2.521  11.703  0.2762  0.5439  0.6468
  111TMC2    O2 1737   0.262   2.512  11.155 -0.2697 -0.3184 -0.1240
  111TMC2    O5 1738   0.105   2.389  11.042  0.6288  0.3130 -0.5801
  111TMC2    H5 1739   0.023   2.340  11.065  0.3566  1.2704  0.4987
  112MPD2     C 1740   4.129   2.937  11.423 -0.1805 -0.5667 -0.1626
  112MPD2    C1 1741   4.223   2.939  11.322 -0.1599  0.0806 -0.4865
  112MPD2    C2 1742   4.308   2.829  11.305 -0.3341 -0.5967  0.1570
  112MPD2    C3 1743   4.294   2.723  11.389  0.5939  0.0746 -0.0740
  112MPD2    C4 1744   4.196   2.719  11.493 -0.2608 -0.7246  0.3285
  112MPD2    C5 1745   4.118   2.833  11.506  0.1412  0.4967 -0.4412
  112MPD2     H 1746   4.387   2.825  11.230 -2.7984 -3.6388 -2.2693
  112MPD2    H1 1747   4.180   2.634  11.558 -0.2028  0.2907  1.6604
  112MPD2    H2 1748   4.067   3.025  11.435 -0.4099 -0.5965 -1.1550
  112MPD2    H3 1749   4.030   2.836  11.569  0.6910 -1.8239  0.4473
  112MPD2     N 1750   4.389   2.619  11.387 -0.2211 -0.6413 -0.9321
  112MPD2    H5 1751   4.384   2.554  11.465 -1.3697  1.7173  0.9468
  112MPD2    N1 1752   4.242   3.057  11.243  0.0996  0.9824 -0.3561
  112MPD2    H7 1753   4.328   3.056  11.190 -0.1219  0.9389 -0.7165
  113TMC2    C1 1754   2.475   0.498   0.294 -0.2665 -0.4765  0.0337
  113TMC2    C2 1755   2.410   0.563   0.198 -0.1965 -0.4179  0.3532
  113TMC2    C3 1756   2.327   0.491   0.112  0.2440  0.6913  0.4065
  113TMC2    C4 1757   2.462   0.365   0.312 -0.2592  0.2620  0.1895
  113TMC2    C5 1758   2.374   0.293   0.226 -0.1696 -0.4618 -0.5816
  113TMC2    C6 1759   2.313   0.354   0.121 -0.3280 -1.2112  0.0748
  113TMC2     C 1760   2.541   0.584   0.396  0.0614  0.3699 -0.5192
  113TMC2     O 1761   2.501   0.699   0.409 -0.1578  0.6555 -0.0517
  113TMC2     H 1762   2.429   0.670   0.191 -0.6568 -0.3245  0.5599
  113TMC2    H1 1763   2.531   0.321   0.383  1.5320  0.8293 -1.2227
  113TMC2    H2 1764   2.238   0.300   0.063 -2.0596 -0.5566  1.6930
  113TMC2    C7 1765   2.336   0.155   0.251 -0.3041 -2.0751 -0.5165
  113TMC2    C8 1766   2.216   0.556   0.040  0.6310  0.4877 -0.3798
  113TMC2    O1 1767   2.278   0.094   0.164 -0.1531 -0.5914  0.2403
  113TMC2    O2 1768   2.100   0.526   0.048 -0.1845 -0.3296  0.3456
  113TMC2    O5 1769   2.251   0.682   0.035 -0.8849 -0.0738  0.3487
  113TMC2    H5 1770   2.338   0.686  17.739 -1.2346 -4.0090 -0.6475
  114MPD2     C 1771   2.881   0.656   0.767  0.1835  0.4596 -0.0938
  114MPD2    C1 1772   2.768   0.729   0.737 -0.0441 -0.1239  0.1112
  114MPD2    C2 1773   2.687   0.687   0.634 -0.1872 -0.1201  0.0412
  114MPD2    C3 1774   2.722   0.567   0.572 -0.2336  0.5748 -0.7392
  114MPD2    C4 1775   2.832   0.492   0.608  0.0258 -0.1363  0.0032
  114MPD2    C5 1776   2.914   0.539   0.702  0.3357 -0.0499  0.1658
  114MPD2     H 1777   2.592   0.733   0.609  0.1722  1.0151  0.7760
  114MPD2    H1 1778   2.863   0.408   0.547 -1.0382 -1.4512  1.2529
  114MPD2    H2 1779   2.952   0.692   0.841 -0.6456 -1.9243  1.8536
  114MPD2    H3 1780   3.006   0.488   0.729 -0.1428  0.1183  2.1023
  114MPD2     N 1781   2.643   0.517   0.460 -0.0121 -0.5629 -0.0320
  114MPD2    H5 1782   2.670   0.429   0.417  0.9569 -1.1098  1.7017
  114MPD2    N1 1783   2.730   0.846   0.812  0.1589 -0.1564  0.2933
  114MPD2    H7 1784   2.648   0.897   0.784 -0.6130 -1.4767  0.1461
  115TMC2    C1 1785   3.963   3.457   0.032  0.0747 -0.6032 -0.2106
  115TMC2    C2 1786   4.016   3.489   0.154 -0.4739  0.9378  0.7319
  115TMC2    C3 1787   4.022   3.622   0.185 -0.3765 -0.2596 -0.2783
  115TMC2    C4 1788   3.930   3.551  17.685 -0.3514 -0.2840 -0.0901
  115TMC2    C5 1789   3.961   3.684  17.713  0.1560 -0.5375  0.2747
  115TMC2    C6 1790   3.988   3.716   0.091  0.7862  0.5684 -0.4520
  115TMC2     C 1791   3.892   3.332   0.000  0.4693 -0.3421 -0.6400
  115TMC2     O 1792   3.804   3.336  17.666  0.2955 -0.0981  0.4906
  115TMC2     H 1793   4.015   3.415   0.234 -1.4785 -0.3127 -0.4362
  115TMC2    H1 1794   3.903   3.524  17.583  3.7453  0.4115 -1.3244
  115TMC2    H2 1795   4.000   3.822   0.111  0.2619  0.7981 -1.3501
  115TMC2    C7 1796   3.922   3.781  17.613  0.0077  0.8495  0.4425
  115TMC2    C8 1797   4.113   3.675   0.277 -0.6023  0.3987 -0.0726
  115TMC2    O1 1798   3.855   3.751  17.517  0.7299 -0.1520 -0.0710
  115TMC2    O2 1799   4.140   3.794   0.293  0.6446 -0.1514 -0.3837
  115TMC2    O5 1800   4.181   3.574   0.334  0.0720  0.7147 -0.0377
  115TMC2    H5 1801   4.156   3.484   0.302 -1.3306  1.6318 -1.5168
  116MPD2     C 1802   3.814   2.847   0.072  0.0730 -0.0294  0.3040
  116MPD2    C1 1803   3.786   2.925  17.708  0.4753  0.0563  0.1700
  116MPD2    C2 1804   3.824   3.058  17.709 -0.1817 -0.1445 -0.0160
  116MPD2    C3 1805   3.898   3.100   0.067 -1.5082 -0.0347 -0.1262
  116MPD2    C4 1806   3.936   3.023   0.171 -0.0542  0.8354  0.9034
  116MPD2    C5 1807   3.893   2.895   0.169  0.0103 -0.0329  0.0916
  116MPD2     H 1808   3.802   3.120  17.623  2.8158  1.0022  0.0692
  116MPD2    H1 1809   3.989   3.059   0.259  2.1009  1.2340 -0.5660
  116MPD2    H2 1810   3.787   2.742   0.079  0.9608 -0.1620  1.7293
  116MPD2    H3 1811   3.926   2.823   0.243 -0.4320  0.0108  0.3308
  116MPD2     N 1812   3.936   3.235   0.075  0.2974  0.2601  0.0364
  116MPD2    H5 1813   4.007   3.248   0.145 -2.0615 -2.4313  2.9613
  116MPD2    N1 1814   3.705   2.864  17.609 -1.0146 -0.1827  0.2640
  116MPD2    H7 1815   3.679   2.768  17.630 -0.6349 -0.7184 -1.6566
  117TMC2    C1 1816   2.336   4.311  14.210 -0.0835  0.1346 -0.8220
  117TMC2    C2 1817   2.475   4.297  14.200 -0.4014 -0.0637  0.3579
  117TMC2    C3 1818   2.544   4.401  14.147  0.1094 -0.4439 -0.4365
  117TMC2    C4 1819   2.265   4.425  14.177  0.1701 -0.2628 -0.3228
  117TMC2    C5 1820   2.341   4.527  14.124 -0.6371  0.8116  0.8946
  117TMC2    C6 1821   2.484   4.513  14.103 -0.2021 -0.9582 -0.4534
  117TMC2     C 1822   2.264   4.197  14.273 -0.5671 -0.2743  0.3746
  117TMC2     O 1823   2.325   4.109  14.330 -0.6292  0.4127  0.2796
  117TMC2     H 1824   2.528   4.205  14.222 -0.6351 -0.0105  1.1581
  117TMC2    H1 1825   2.160   4.432  14.201  0.3526  1.4922 -0.0362
  117TMC2    H2 1826   2.546   4.585  14.051  0.9395 -0.4722  1.5663
  117TMC2    C7 1827   2.280   4.657  14.097  0.0234  0.4551 -0.3017
  117TMC2    C8 1828   2.685   4.394  14.117  0.2426  0.4886  0.2657
  117TMC2    O1 1829   2.353   0.010  14.070 -0.0883  0.2829  0.6601
  117TMC2    O2 1830   2.751   4.318  14.052  0.2551 -0.0635 -0.5025
  117TMC2    O5 1831   2.737   4.506  14.168 -0.0367 -0.0167 -0.4798
  117TMC2    H5 1832   2.678   4.548  14.235 -0.6221  0.0690 -1.0476
  118MPD2     C 1833   1.934   4.717  14.137  0.0916  0.5240  0.4581
  118MPD2    C1 1834   2.059   0.015  14.123 -0.9982 -0.2771 -0.3343
  118MPD2    C2 1835   2.096   0.143  14.136 -0.6490 -0.2964 -0.1461
  118MPD2    C3 1836   1.996   0.243  14.157  0.4993  0.0780  0.4415
  118MPD2    C4 1837   1.862   0.199  14.182 -0.1617 -0.9252  0.3783
  118MPD2    C5 1838   1.834   0.063  14.174 -0.1304 -0.7816  0.2135
  118MPD2     H 1839   2.201   0.170  14.132 -0.9818  1.3804  1.8556
  118MPD2    H1 1840   1.779   0.263  14.208  0.5733 -0.1759  0.8753
  118MPD2    H2 1841   1.919   4.610  14.136 -2.3640  0.8894 -0.5336
  118MPD2    H3 1842   1.731   0.032  14.183 -0.9077  1.5634 -0.7211
  118MPD2     N 1843   2.013   0.383  14.161  0.3295 -0.2775  0.5687
  118MPD2    H5 1844   1.930   0.434  14.192  1.1621  1.3697  0.1073
  118MPD2    N1 1845   2.148   4.652  14.104 -0.2933 -0.0814  0.0085
  118MPD2    H7 1846   2.103   4.561  14.117 -0.2957  0.1712  1.8141
  119TMC2    C1 1847   4.531   1.018  13.363  0.1449  0.5307 -0.1612
  119TMC2    C2 1848   4.570   0.895  13.303 -0.1843 -0.4514 -0.2236
  119TMC2    C3 1849   4.502   0.784  13.341  0.0225  0.2090 -0.1232
  119TMC2    C4 1850   4.455   1.013  13.476 -0.5447 -0.8902 -0.3102
  119TMC2    C5 1851   4.410   0.892  13.526  0.6600  0.8660 -0.2697
  119TMC2    C6 1852   4.420   0.777  13.455 -0.7379 -0.1444 -0.6613
  119TMC2     C 1853   4.638   1.109  13.366 -0.3717  0.2020 -1.0888
  119TMC2     O 1854   4.605   1.223  13.403  0.7707  0.6160  0.1615
  119TMC2     H 1855   4.628   0.894  13.212 -1.3966 -1.7572 -0.9866
  119TMC2    H1 1856   4.464   1.106  13.530 -2.2656  1.5500 -4.2142
  119TMC2    H2 1857   4.383   0.682  13.492  0.6890  0.1674  1.5755
  119TMC2    C7 1858   4.405   0.871  13.669  0.5503 -0.8516  0.0671
  119TMC2    C8 1859   4.523   0.668  13.273  0.3986 -0.0493  0.2085
  119TMC2    O1 1860   4.402   0.757  13.708 -0.6793 -0.0844  0.0015
  119TMC2    O2 1861   4.548   0.658  13.159  0.2200 -0.2138  0.0784
  119TMC2    O5 1862   4.579   0.580  13.361 -0.5600  0.6523 -0.7113
  119TMC2    H5 1863   4.609   0.627  13.442  0.2793 -0.5118 -0.3516
  120MPD2     C 1864   0.353   1.163  13.582  0.2058 -0.4785 -0.3698
  120MPD2    C1 1865   0.232   1.218  13.614 -0.0103  0.4184  0.3151
  120MPD2    C2 1866   0.125   1.190  13.531  0.3524 -0.4385  0.2748
  120MPD2    C3 1867   0.141   1.100  13.426 -0.6693 -0.7695 -0.2963
  120MPD2    C4 1868   0.261   1.043  13.399 -0.4021  0.2590 -0.8097
  120MPD2    C5 1869   0.375   1.089  13.467  0.0441  0.2970 -0.0340
  120MPD2     H 1870   0.027   1.217  13.569  0.0103 -1.1760 -0.0742
  120MPD2    H1 1871   0.283   0.980  13.314  1.0705 -0.7261  0.3200
  120MPD2    H2 1872   0.443   1.179  13.640 -0.9036 -0.7790  1.4265
  120MPD2    H3 1873   0.474   1.053  13.442 -0.0972 -0.1296  0.0107
  120MPD2     N 1874   0.025   1.045  13.361 -0.5822  0.4007 -0.2464
  120MPD2    H5 1875   0.043   0.958  13.314 -0.5671 -0.2425  0.9570
  120MPD2    N1 1876   0.223   1.299  13.728 -0.5461 -0.3087 -0.2067
  120MPD2    H7 1877   0.308   1.311  13.783 -1.8397 -0.7886  1.8488
  121TMC2    C1 1878   2.012   2.434  14.191 -0.9900  0.2763  0.0691
  121TMC2    C2 1879   2.138   2.486  14.213  0.5158  0.5402  0.2064
  121TMC2    C3 1880   2.144   2.583  14.314 -0.4459  0.4628 -1.0319
  121TMC2    C4 1881   1.906   2.460  14.270  0.1578  0.0303 -0.5922
  121TMC2    C5 1882   1.919   2.531  14.383 -0.2335  0.4943 -0.3853
  121TMC2    C6 1883   2.042   2.590  14.409 -0.1784 -0.0915  0.5675
  121TMC2     C 1884   1.988   2.370  14.071  0.7892 -0.0956  0.9032
  121TMC2     O 1885   1.896   2.290  14.061  0.1317  0.0867 -0.2387
  121TMC2     H 1886   2.228   2.459  14.159  0.6353  1.1912  0.0691
  121TMC2    H1 1887   1.811   2.421  14.236  0.8512 -2.1016 -0.0707
  121TMC2    H2 1888   2.052   2.651  14.498  0.9350  0.7376 -0.1225
  121TMC2    C7 1889   1.799   2.592  14.446  0.2409 -0.2291  0.5474
  121TMC2    C8 1890   2.276   2.634  14.354 -0.1720  0.0628  0.3602
  121TMC2    O1 1891   1.814   2.639  14.561 -0.4325 -0.2279  0.0557
  121TMC2    O2 1892   2.325   2.644  14.466  0.3650 -0.3654 -0.0160
  121TMC2    O5 1893   2.316   2.708  14.251  0.0485  0.2696 -0.0181
  121TMC2    H5 1894   2.250   2.714  14.178  2.0457  0.4037 -1.8428
  122MPD2     C 1895   1.940   2.330  13.773  0.3382  0.0772 -0.0495
  122MPD2    C1 1896   2.014   2.434  13.831  0.1801  0.1356 -0.1356
  122MPD2    C2 1897   2.065   2.533  13.757 -0.7340 -0.9998 -0.4305
  122MPD2    C3 1898   2.042   2.534  13.627 -0.6215 -0.3474  0.3930
  122MPD2    C4 1899   1.979   2.433  13.557 -0.0328 -0.2311 -0.7046
  122MPD2    C5 1900   1.916   2.338  13.635 -0.2578  0.2916 -0.4542
  122MPD2     H 1901   2.140   2.594  13.807 -1.6754 -0.3020  0.1378
  122MPD2    H1 1902   1.951   2.443  13.452  2.7653  0.4846 -1.3831
  122MPD2    H2 1903   1.904   2.249  13.835  3.3608  0.6359  2.4260
  122MPD2    H3 1904   1.859   2.255  13.594 -0.3521 -0.0076  0.2763
  122MPD2     N 1905   2.073   2.647  13.551  0.2374  0.6005 -0.9251
  122MPD2    H5 1906   2.044   2.643  13.453  0.7834 -0.3540 -1.0401
  122MPD2    N1 1907   2.048   2.441  13.970  0.4799 -0.3078 -0.0635
  122MPD2    H7 1908   2.098   2.527  13.988  0.0247  0.0175 -0.3747
  123TMC2    C1 1909   0.559   2.304  10.407  0.1347  0.8543 -0.5448
  123TMC2    C2 1910   0.538   2.400  10.309  0.3966  0.1344  0.5709
  123TMC2    C3 1911   0.618   2.513  10.317 -0.5958 -0.1674  0.2669
  123TMC2    C4 1912   0.659   2.310  10.497  0.7441  0.0799 -0.0389
  123TMC2    C5 1913   0.754   2.402  10.479  0.2373 -0.5237 -0.2878
  123TMC2    C6 1914   0.735   2.514  10.392  0.4058 -0.0328  0.5856
  123TMC2     C 1915   0.512   2.169  10.391 -0.3065  1.1521  0.7725
  123TMC2     O 1916   0.584   2.083  10.445  0.1232 -0.2007  0.5312
  123TMC2     H 1917   0.447   2.399  10.251  1.5335  0.8811 -1.2301
  123TMC2    H1 1918   0.652   2.253  10.589 -2.5764  2.5766  1.2732
  123TMC2    H2 1919   0.811   2.590  10.378 -0.9118  1.3485  0.8643
  123TMC2    C7 1920   0.880   2.363  10.516 -0.0888  0.5981  0.5171
  123TMC2    C8 1921   0.575   2.620  10.233 -0.2422  0.2378 -0.2215
  123TMC2    O1 1922   0.970   2.448  10.521 -0.2962  0.5662 -0.2788
  123TMC2    O2 1923   0.503   2.610  10.135  0.0725 -0.0877  0.4347
  123TMC2    O5 1924   0.603   2.741  10.296  0.2458 -0.0687  0.0411
  123TMC2    H5 1925   0.656   2.733  10.378  0.8863 -1.0938 -0.4732
  124MPD2     C 1926   0.146   1.853  10.248 -0.0171  0.1954 -0.4640
  124MPD2    C1 1927   0.107   1.973  10.200 -0.2282  0.2476  0.3307
  124MPD2    C2 1928   0.197   2.075  10.229 -0.1486 -0.3713  0.5517
  124MPD2    C3 1929   0.311   2.052  10.299  0.8423 -0.8214 -0.5110
  124MPD2    C4 1930   0.346   1.922  10.336  0.1180 -0.6979 -0.0840
  124MPD2    C5 1931   0.261   1.824  10.309 -0.1726 -0.5848  0.3053
  124MPD2     H 1932   0.185   2.176  10.190 -3.0209 -1.4385 -1.4048
  124MPD2    H1 1933   0.443   1.905  10.382  0.8039 -0.7840 -1.5540
  124MPD2    H2 1934   0.077   1.769  10.241  0.2206 -0.0698  0.4276
  124MPD2    H3 1935   0.271   1.716  10.320  3.1349 -0.1730  1.3089
  124MPD2     N 1936   0.394   2.164  10.324 -0.5742 -0.1922  0.8454
  124MPD2    H5 1937   0.343   2.250  10.304 -1.2321 -0.8117 -0.1255
  124MPD2    N1 1938   4.730   1.986  10.117  0.1108  0.2195 -0.1986
  124MPD2    H7 1939   4.680   1.898  10.108 -1.0987  0.5214  3.9433
  125TMC2    C1 1940   1.056   4.610   9.101  0.3245  0.2033 -0.1089
  125TMC2    C2 1941   1.104   4.584   8.975  0.1091  0.2908 -0.5767
  125TMC2    C3 1942   1.195   4.494   8.947 -0.7738  0.3644  0.7553
  125TMC2    C4 1943   1.120   4.552   9.205  0.1207 -0.3545 -0.0482
  125TMC2    C5 1944   1.226   4.470   9.177  0.3464 -0.1752 -0.0568
  125TMC2    C6 1945   1.261   4.436   9.045 -0.2309 -0.1095  0.0272
  125TMC2     C 1946   0.988   4.733   9.128 -0.5277 -0.0185  0.2246
  125TMC2     O 1947   1.022   0.095   9.059  0.1981 -0.1077  0.7298
  125TMC2     H 1948   1.078   4.657   8.900  1.0873  0.7122 -0.5009
  125TMC2    H1 1949   1.092   4.581   9.306 -2.2788  0.0464 -0.8310
  125TMC2    H2 1950   1.341   4.369   9.016 -0.5817 -0.2753 -0.5580
  125TMC2    C7 1951   1.288   4.409   9.288  0.2210 -0.4168  1.2738
  125TMC2    C8 1952   1.238   4.460   8.813  0.1890  0.5481 -0.1124
  125TMC2    O1 1953   1.297   4.488   9.381  0.0237  0.3664  0.2525
  125TMC2    O2 1954   1.352   4.423   8.783 -0.0414  0.3532 -0.1155
  125TMC2    O5 1955   1.130   4.482   8.733  0.1046  0.4590 -0.2461
  125TMC2    H5 1956   1.043   4.495   8.776 -0.4986 -1.3164 -0.9341
  126MPD1     C 1957   0.693   0.285   9.427  0.6380 -0.1386 -0.2733
  126MPD1    C1 1958   0.703   0.167   9.484 -0.8057 -0.3805  0.4665
  126MPD1    C2 1959   0.770   0.068   9.421 -0.4604 -0.7314 -0.4230
  126MPD1    C3 1960   0.830   0.089   9.297  0.7455  0.0030  0.4921
  126MPD1    C4 1961   0.827   0.211   9.247 -0.6896  0.1082  0.7539
  126MPD1    C5 1962   0.751   0.311   9.306 -0.2810 -0.0591 -0.2631
  126MPD1     H 1963   0.767   4.708   9.468  1.2068  0.0793  1.3493
  126MPD1    H1 1964   0.883   0.238   9.158 -0.9268  0.2457  0.6424
  126MPD1    H2 1965   0.639   0.361   9.482  0.6648 -0.1089 -0.2879
  126MPD1    H3 1966   0.734   0.409   9.263  0.3876  0.5202  0.7714
  126MPD1     N 1967   0.897   4.720   9.234 -0.7442 -0.4993  0.0514
  126MPD1    H5 1968   0.884   4.627   9.272  0.3764  0.0150  1.7098
  126MPD1    N1 1969   0.612   0.127   9.584  0.0809 -0.3559  0.3810
  126MPD1    H6 1970   0.584   0.204   9.645  2.4963  0.3717  0.5948
  126MPD1    H7 1971   0.635   0.048   9.644  0.8784  0.0996  0.6794
  127TMC2    C1 1972   1.674   2.481  10.219 -0.1021  0.1600  1.3493
  127TMC2    C2 1973   1.748   2.430  10.324  0.2869 -0.0428  0.4631
  127TMC2    C3 1974   1.670   2.381  10.427  0.0993 -0.6534  0.0255
  127TMC2    C4 1975   1.536   2.489  10.216 -0.5993 -0.4855  0.4904
  127TMC2    C5 1976   1.472   2.453  10.331 -0.3358  0.4693 -0.8953
  127TMC2    C6 1977   1.535   2.380  10.428  0.1696 -0.3672 -0.5932
  127TMC2     C 1978   1.753   2.543  10.116 -0.2546 -0.0559  0.5018
  127TMC2     O 1979   1.858   2.603  10.152 -0.2306 -0.0838 -0.2934
  127TMC2     H 1980   1.855   2.450  10.330  0.2528  0.9462 -2.2780
  127TMC2    H1 1981   1.485   2.533  10.132  1.9208  2.0116  0.2869
  127TMC2    H2 1982   1.482   2.325  10.504  1.7255 -2.9740 -1.3805
  127TMC2    C7 1983   1.333   2.423  10.302  0.8809  0.0991  0.4379
  127TMC2    C8 1984   1.728   2.315  10.539 -0.0456 -0.3417  0.0733
  127TMC2    O1 1985   1.268   2.517  10.252 -0.7407  0.1421  0.4771
  127TMC2    O2 1986   1.848   2.286  10.536 -0.2164 -0.4487 -0.1519
  127TMC2    O5 1987   1.670   2.380  10.645  0.3514 -0.1265  0.3244
  127TMC2    H5 1988   1.588   2.428  10.617  2.0357  2.5519 -0.0086
  128MPD2     C 1989   1.655   2.550   9.762  0.9235 -0.2202 -0.5417
  128MPD2    C1 1990   1.742   2.558   9.866  0.4687 -0.3752 -0.2230
  128MPD2    C2 1991   1.862   2.611   9.837 -0.0051  0.4865  0.2453
  128MPD2    C3 1992   1.893   2.662   9.713  0.3516  0.0732 -0.6062
  128MPD2    C4 1993   1.804   2.657   9.615  0.0995  0.2181 -0.6745
  128MPD2    C5 1994   1.687   2.596   9.638  0.3854 -0.2217  0.0146
  128MPD2     H 1995   1.938   2.607   9.914 -0.8127 -0.8609  0.9646
  128MPD2    H1 1996   1.829   2.696   9.517  2.3894 -0.9771 -0.5696
  128MPD2    H2 1997   1.556   2.507   9.773 -0.0804  1.7549 -2.0279
  128MPD2    H3 1998   1.609   2.595   9.563  0.5858 -0.6352 -0.1907
  128MPD2     N 1999   2.019   2.729   9.704 -0.3189 -0.0897 -0.0095
  128MPD2    H5 2000   2.085   2.727   9.781  0.3861  1.4932 -0.5594
  128MPD2    N1 2001   1.693   2.520   9.990  0.5107  0.0464  0.3194
  128MPD2    H7 2002   1.610   2.462   9.991  1.6324 -1.5943 -1.1616
  129TMC2    C1 2003   0.626   2.424   0.877  0.7988 -0.8738  0.7496
  129TMC2    C2 2004   0.618   2.444   0.748  0.5061 -0.4411  0.1160
  129TMC2    C3 2005   0.508   2.387   0.691  0.4873  0.6174 -0.0539
  129TMC2    C4 2006   0.531   2.364   0.955 -0.0713 -0.3928 -0.3504
  129TMC2    C5 2007   0.416   2.319   0.893  0.3737  0.1856 -0.5892
  129TMC2    C6 2008   0.409   2.321   0.752  0.0148  1.0920 -0.1158
  129TMC2     C 2009   0.734   2.506   0.940  0.2101  0.3749 -0.4049
  129TMC2     O 2010   0.847   2.471   0.908  0.4148 -0.2216  0.7259
  129TMC2     H 2011   0.698   2.500   0.702 -0.5706  1.7765  0.9542
  129TMC2    H1 2012   0.535   2.367   1.064  0.2339  0.5843 -0.3825
  129TMC2    H2 2013   0.317   2.300   0.700  1.2673 -2.5579 -0.8669
  129TMC2    C7 2014   0.299   2.270   0.967  0.4509  0.2828 -0.0891
  129TMC2    C8 2015   0.490   2.402   0.548 -0.1295  0.3992 -0.7305
  129TMC2    O1 2016   0.291   2.305   1.084  0.2073 -0.3356 -0.7739
  129TMC2    O2 2017   0.400   2.337   0.502 -0.0489  0.2397  0.4633
  129TMC2    O5 2018   0.537   2.517   0.497  0.1608 -0.1985 -0.1508
  129TMC2    H5 2019   0.576   2.581   0.560 -1.4358 -1.8095  2.4549
  130MPD2     C 2020   0.894   2.729   1.048  0.1205 -0.0522 -0.1080
  130MPD2    C1 2021   0.758   2.722   1.052  0.4354 -0.3042  0.1760
  130MPD2    C2 2022   0.685   2.830   1.105 -0.4621  1.5958 -0.3602
  130MPD2    C3 2023   0.752   2.949   1.139  0.6055  0.0664 -0.2719
  130MPD2    C4 2024   0.889   2.941   1.147 -0.0712  0.3308 -0.8096
  130MPD2    C5 2025   0.958   2.837   1.098 -0.3700 -0.6281  0.0133
  130MPD2     H 2026   0.577   2.832   1.104 -0.4890  0.6109  0.4700
  130MPD2    H1 2027   0.945   3.032   1.167 -1.4400  0.5601  2.1203
  130MPD2    H2 2028   0.952   2.649   1.004 -1.3905 -0.6977 -0.9158
  130MPD2    H3 2029   1.064   2.844   1.080 -0.1850 -2.1243  0.5648
  130MPD2     N 2030   0.670   3.060   1.165 -0.5962  0.6576  0.4294
  130MPD2    H5 2031   0.573   3.066   1.136 -0.8576  0.1642  1.2174
  130MPD2    N1 2032   0.682   2.614   1.007 -0.5211  0.3485 -1.1940
  130MPD2    H7 2033   0.581   2.617   1.021 -0.9673 -2.5510 -3.8300
  131TMC2    C1 2034   4.411   3.049   9.631  0.0921  0.3675 -0.5376
  131TMC2    C2 2035   4.418   3.151   9.534  0.3310 -0.5330 -0.1158
  131TMC2    C3 2036   4.495   3.260   9.550 -0.5491  0.3900 -0.3126
  131TMC2    C4 2037   4.492   3.052   9.746 -0.5236  0.7265 -0.2500
  131TMC2    C5 2038   4.571   3.159   9.762 -0.4437 -0.5371 -0.0919
  131TMC2    C6 2039   4.574   3.266   9.667 -0.2742  0.1077 -0.8774
  131TMC2     C 2040   4.310   2.947   9.614 -0.4486 -0.1557 -0.0624
  131TMC2     O 2041   4.215   2.968   9.538 -0.3221 -0.4352  0.1220
  131TMC2     H 2042   4.363   3.131   9.443 -0.0495 -0.0383  0.0018
  131TMC2    H1 2043   4.474   2.992   9.834  1.1857 -0.7632 -0.9140
  131TMC2    H2 2044   4.612   3.365   9.689  0.2914  0.5204 -3.7003
  131TMC2    C7 2045   4.668   3.154   9.876 -0.3085  0.2463 -0.1459
  131TMC2    C8 2046   4.520   3.346   9.435  0.8671 -0.3896  0.1350
  131TMC2    O1 2047   4.658   3.057   9.952  0.3993 -1.0390  0.2472
  131TMC2    O2 2048   4.449   3.365   9.340 -0.1456 -0.4158  0.3114
  131TMC2    O5 2049   4.629   3.420   9.466  0.1246  0.1937 -0.4319
  131TMC2    H5 2050   4.695   3.371   9.520 -0.2722  0.5292  0.3579
  132MPD2     C 2051   4.184   2.682   9.579 -0.6848  0.1737 -0.5501
  132MPD2    C1 2052   4.310   2.698   9.637  0.3982  1.0428 -0.2061
  132MPD2    C2 2053   4.388   2.592   9.681  0.9348 -0.1646 -0.2505
  132MPD2    C3 2054   4.349   2.464   9.657  0.3281  0.1486  0.3522
  132MPD2    C4 2055   4.221   2.447   9.593 -0.6730  0.6235 -0.8334
  132MPD2    C5 2056   4.140   2.558   9.561  0.0561  0.0168  0.0801
  132MPD2     H 2057   4.486   2.619   9.717 -0.0102  0.0771  2.1686
  132MPD2    H1 2058   4.185   2.348   9.568 -0.0986  0.4075 -0.8098
  132MPD2    H2 2059   4.130   2.770   9.546 -2.6356 -0.8027  0.0615
  132MPD2    H3 2060   4.042   2.543   9.518 -0.6559  1.4214  1.2155
  132MPD2     N 2061   4.439   2.356   9.686  0.0611 -0.0245 -0.0324
  132MPD2    H5 2062   4.520   2.380   9.742  1.1633  0.9311 -2.0292
  132MPD2    N1 2063   4.367   2.823   9.655 -0.4247  0.6520 -0.4702
  132MPD2    H7 2064   4.465   2.817   9.680 -0.2125 -0.2530 -1.4859
  133TMC2    C1 2065   3.106   1.278  10.182 -0.1866  0.6371  1.2731
  133TMC2    C2 2066   3.195   1.216  10.268 -0.1282  0.4663 -0.1860
  133TMC2    C3 2067   3.156   1.164  10.391  0.7319 -0.5419 -0.5028
  133TMC2    C4 2068   2.981   1.297  10.224 -0.9292 -0.1545  0.5998
  133TMC2    C5 2069   2.943   1.241  10.351 -0.4082 -0.2438 -0.1808
  133TMC2    C6 2070   3.026   1.168  10.433  0.2818 -0.4811 -0.1010
  133TMC2     C 2071   3.151   1.351  10.066  0.4264  0.3748 -0.2620
  133TMC2     O 2072   3.086   1.450  10.037  0.2578  0.6905 -0.1905
  133TMC2     H 2073   3.299   1.217  10.240  0.2881 -0.9787  1.3057
  133TMC2    H1 2074   2.915   1.363  10.170 -0.7587 -1.2250 -0.9247
  133TMC2    H2 2075   2.997   1.137  10.533  0.5964  1.7673  0.6742
  133TMC2    C7 2076   2.816   1.281  10.399  0.0225  0.3567 -0.1756
  133TMC2    C8 2077   3.256   1.145  10.493  0.8401  0.1100 -0.3359
  133TMC2    O1 2078   2.755   1.366  10.335 -0.7052 -0.4064  0.3835
  133TMC2    O2 2079   3.231   1.160  10.611  0.1397  0.2744 -0.3072
  133TMC2    O5 2080   3.373   1.091  10.456  0.0823 -1.0422  0.0428
  133TMC2    H5 2081   3.382   1.077  10.360  0.9556  0.3988 -0.0954
  134MPD2     C 2082   3.492   1.351   9.925 -0.5553 -0.0906 -0.4320
  134MPD2    C1 2083   3.371   1.410   9.952 -0.7168  0.2661  0.4624
  134MPD2    C2 2084   3.350   1.549   9.939  0.2882  0.0376  0.8747
  134MPD2    C3 2085   3.452   1.630   9.895 -0.3374 -0.4787  0.4383
  134MPD2    C4 2086   3.568   1.567   9.870 -0.2367 -0.1667  0.6110
  134MPD2    C5 2087   3.587   1.435   9.888 -0.1179 -0.2183  0.7131
  134MPD2     H 2088   3.261   1.598   9.977 -0.5044 -0.2070 -0.6806
  134MPD2    H1 2089   3.651   1.626   9.832 -0.3422 -0.8866 -0.7518
  134MPD2    H2 2090   3.500   1.245   9.944  2.7653  0.2959  0.2793
  134MPD2    H3 2091   3.678   1.379   9.871  0.9779  2.2536 -1.5888
  134MPD2     N 2092   3.453   1.769   9.887 -0.3014  0.3776 -0.3686
  134MPD2    H5 2093   3.544   1.814   9.893  0.6940 -1.8879  1.4431
  134MPD2    N1 2094   3.280   1.323  10.029  0.2366 -0.2729 -0.2606
  134MPD2    H7 2095   3.318   1.233  10.057 -0.9289  0.0945  2.5039
  135TMC2    C1 2096   1.417   0.009   9.659 -0.0785  0.2401 -0.5232
  135TMC2    C2 2097   1.312   4.673   9.621  0.3296 -0.0133 -0.9801
  135TMC2    C3 2098   1.208   4.661   9.709  0.9435  0.8090 -0.3080
  135TMC2    C4 2099   1.434   0.072   9.780  0.4101  0.3889 -0.9063
  135TMC2    C5 2100   1.330   0.060   9.864 -0.3702  0.4391  0.0071
  135TMC2    C6 2101   1.225   4.718   9.836 -1.1821 -0.5272  0.4196
  135TMC2     C 2102   1.541   0.007   9.587 -0.1275  0.3028 -0.6151
  135TMC2     O 2103   1.626   0.082   9.633 -0.0847 -0.5179  0.3113
  135TMC2     H 2104   1.305   4.653   9.515  0.1712  2.1848 -1.3789
  135TMC2    H1 2105   1.517   0.133   9.814  0.1518  1.1293 -1.5877
  135TMC2    H2 2106   1.135   4.732   9.895  1.2598  0.0022  4.0048
  135TMC2    C7 2107   1.364   0.094  10.007  0.1654 -0.1962 -0.3413
  135TMC2    C8 2108   1.079   4.622   9.653 -0.7134 -1.2157 -1.1425
  135TMC2    O1 2109   1.462   0.164  10.036  0.2637  0.6768  0.0305
  135TMC2    O2 2110   0.984   4.639   9.726  0.9500 -0.0445 -0.3646
  135TMC2    O5 2111   1.093   4.530   9.561  0.2497 -0.4104  0.2395
  135TMC2    H5 2112   1.185   4.520   9.527  0.6252 -1.1311  1.4399
  136MPD2     C 2113   1.792   4.638   9.497  0.7095 -0.2505  0.0345
  136MPD2    C1 2114   1.671   4.611   9.438  0.6628 -0.3382  0.5104
  136MPD2    C2 2115   1.667   4.531   9.331 -0.0841  0.0593 -0.0056
  136MPD2    C3 2116   1.787   4.494   9.266 -0.1691 -0.0988  0.5632
  136MPD2    C4 2117   1.902   4.514   9.333  0.5841 -0.0513  0.0773
  136MPD2    C5 2118   1.907   4.593   9.446  0.6160  0.3607  0.9447
  136MPD2     H 2119   1.570   4.516   9.286  0.3066 -0.9965 -0.5036
  136MPD2    H1 2120   1.996   4.476   9.293  1.4240 -0.1430  2.1435
  136MPD2    H2 2121   1.810   4.701   9.584  2.9308 -2.7495  1.3617
  136MPD2    H3 2122   1.997   4.611   9.503  0.6662 -1.1817  1.3472
  136MPD2     N 2123   1.791   4.416   9.148  0.1292 -0.2036 -0.3163
  136MPD2    H5 2124   1.877   4.379   9.109 -0.0848 -0.9841 -0.0437
  136MPD2    N1 2125   1.556   4.650   9.496 -0.4309 -0.0220  0.8091
  136MPD2    H7 2126   1.480   4.598   9.454  0.4569 -3.1043  2.9819
  137TMC2    C1 2127   1.599   3.435   9.705  0.2589 -0.9390 -0.7504
  137TMC2    C2 2128   1.717   3.412   9.643 -0.9210  0.3637  0.9415
  137TMC2    C3 2129   1.723   3.455   9.511 -0.6168  0.2080 -0.3328
  137TMC2    C4 2130   1.498   3.504   9.652 -0.2640  0.5119  0.0804
  137TMC2    C5 2131   1.501   3.541   9.516 -0.5997  1.1229 -0.6145
  137TMC2    C6 2132   1.619   3.519   9.448  0.3144 -0.3334 -0.3448
  137TMC2     C 2133   1.592   3.406   9.838  0.1455 -0.1757 -0.2276
  137TMC2     O 2134   1.694   3.412   9.902 -0.4089 -0.4735  0.0285
  137TMC2     H 2135   1.801   3.373   9.699  0.1719  2.4567  0.7801
  137TMC2    H1 2136   1.421   3.541   9.718 -1.5673 -1.0123 -0.6006
  137TMC2    H2 2137   1.628   3.551   9.345  0.7449 -1.1447 -0.5605
  137TMC2    C7 2138   1.424   3.659   9.470 -0.2972  0.2899  0.2406
  137TMC2    C8 2139   1.851   3.431   9.443 -0.4470  0.0138 -0.4228
  137TMC2    O1 2140   1.469   3.723   9.375 -0.3311  0.0074 -0.2246
  137TMC2    O2 2141   1.870   3.410   9.326 -0.4004 -0.1967 -0.3085
  137TMC2    O5 2142   1.950   3.446   9.532 -0.0684 -0.0793 -0.1922
  137TMC2    H5 2143   1.923   3.469   9.623 -3.0934 -1.9844 -0.5946
  138MPD2     C 2144   1.282   3.296  10.007 -0.2041  0.1710 -0.3704
  138MPD2    C1 2145   1.414   3.325   9.994  0.2677  0.8299  0.2306
  138MPD2    C2 2146   1.486   3.328  10.107  0.0035 -0.0500 -0.6675
  138MPD2    C3 2147   1.429   3.311  10.228 -0.1898 -0.4720  0.0582
  138MPD2    C4 2148   1.296   3.287  10.241  0.2205  0.0495  0.2308
  138MPD2    C5 2149   1.223   3.277  10.129  0.4210  0.1345  0.5613
  138MPD2     H 2150   1.589   3.362  10.101  0.3011 -0.5224  1.8860
  138MPD2    H1 2151   1.252   3.270  10.338 -1.9488  0.3555 -0.7056
  138MPD2    H2 2152   1.225   3.303   9.915 -1.2763 -0.2733  0.2609
  138MPD2    H3 2153   1.116   3.272  10.140  0.2580 -0.7461 -1.3253
  138MPD2     N 2154   1.494   3.320  10.352 -0.0069  0.1359  0.0044
  138MPD2    H5 2155   1.442   3.347  10.435 -0.3469 -0.7692  0.0864
  138MPD2    N1 2156   1.463   3.365   9.866 -0.1728 -0.0958 -0.1560
  138MPD2    H7 2157   1.389   3.368   9.796 -1.4756 -1.9222  1.1322
  139TMC2    C1 2158   1.600   0.954  13.664 -0.1939 -0.2679  0.2760
  139TMC2    C2 2159   1.644   0.975  13.534  0.7779 -0.1431  0.1773
  139TMC2    C3 2160   1.563   1.055  13.461 -0.1271 -0.4332 -0.5589
  139TMC2    C4 2161   1.478   0.976  13.711  0.5648  0.0988 -0.1733
  139TMC2    C5 2162   1.410   1.069  13.635 -0.1875 -0.4339  0.2079
  139TMC2    C6 2163   1.451   1.116  13.510  0.2556  0.2664  0.1468
  139TMC2     C 2164   1.672   0.857  13.736 -0.5333  0.4713  0.1220
  139TMC2     O 2165   1.793   0.874  13.734 -0.6474  0.7185 -0.8408
  139TMC2     H 2166   1.726   0.917  13.493  1.0466  0.5773 -0.3070
  139TMC2    H1 2167   1.451   0.947  13.811 -1.5600 -0.1869 -0.8235
  139TMC2    H2 2168   1.384   1.172  13.445 -0.2207 -2.3410 -1.6197
  139TMC2    C7 2169   1.284   1.137  13.674  0.2949 -0.1331  0.6525
  139TMC2    C8 2170   1.604   1.092  13.323 -0.3744 -0.6230  0.6591
  139TMC2    O1 2171   1.255   1.236  13.606 -0.0991  0.8069 -0.2772
  139TMC2    O2 2172   1.512   1.100  13.237 -0.0452 -0.3781 -0.6885
  139TMC2    O5 2173   1.699   1.188  13.345 -0.0785  0.2071 -0.3830
  139TMC2    H5 2174   1.756   1.167  13.423 -0.3449  0.5905 -0.0872
  140MPD2     C 2175   1.590   0.519  13.854  0.6597  0.0495 -0.5868
  140MPD2    C1 2176   1.661   0.624  13.803  0.7081 -0.2672  0.1477
  140MPD2    C2 2177   1.799   0.599  13.795 -0.8523  0.4032  0.0165
  140MPD2    C3 2178   1.854   0.476  13.833 -0.9824  0.1718 -0.3859
  140MPD2    C4 2179   1.776   0.384  13.897  0.0084 -0.1069  0.9653
  140MPD2    C5 2180   1.640   0.404  13.903  0.4125 -0.2802  0.2015
  140MPD2     H 2181   1.848   0.670  13.731  1.1399 -1.9399 -1.0636
  140MPD2    H1 2182   1.822   0.291  13.926  1.3390  0.0325 -0.6650
  140MPD2    H2 2183   1.484   0.537  13.871  0.8197  0.2223  0.2325
  140MPD2    H3 2184   1.574   0.329  13.946  2.3442 -1.7012  0.6852
  140MPD2     N 2185   1.992   0.468  13.799 -0.2652 -0.1722  0.5673
  140MPD2    H5 2186   2.032   0.553  13.762  0.1084 -0.0566  1.2387
  140MPD2    N1 2187   1.599   0.745  13.757  0.2860 -0.3848  0.2605
  140MPD2    H7 2188   1.498   0.750  13.750  0.4090 -0.8583 -1.7373
  141TMC2    C1 2189   1.947   2.390  14.854  0.0699 -0.1870  0.0409
  141TMC2    C2 2190   2.000   2.338  14.970 -0.5228 -0.0515  0.6211
  141TMC2    C3 2191   2.063   2.421  15.062  0.0849 -0.0305 -0.6060
  141TMC2    C4 2192   1.984   2.522  14.815  0.2149 -0.4150 -0.2159
  141TMC2    C5 2193   2.071   2.591  14.908 -1.0784  0.1976 -0.6738
  141TMC2    C6 2194   2.110   2.546  15.030 -0.0538  0.6029 -0.5808
  141TMC2     C 2195   1.875   2.312  14.757  0.1394 -0.1957  0.7235
  141TMC2     O 2196   1.904   2.196  14.739 -0.1488  0.2139 -0.0312
  141TMC2     H 2197   1.991   2.232  14.991 -0.0434 -0.3563 -0.6895
  141TMC2    H1 2198   1.974   2.562  14.715  2.8571  0.7297 -0.0141
  141TMC2    H2 2199   2.158   2.604  15.108 -2.0023  1.2789  0.1091
  141TMC2    C7 2200   2.107   2.719  14.862  1.0476 -0.4015 -0.8333
  141TMC2    C8 2201   2.095   2.378  15.197  0.7878 -0.4498  0.0388
  141TMC2    O1 2202   2.030   2.767  14.781 -0.1508  0.0229  0.0660
  141TMC2    O2 2203   2.195   2.415  15.259 -0.3740 -0.0921  0.8171
  141TMC2    O5 2204   1.992   2.295  15.236 -0.4551  0.1421  0.0569
  141TMC2    H5 2205   1.926   2.292  15.163 -1.7379 -0.2784  1.2489
  142TMC2    C1 2206   0.895   1.362  10.522  0.5723  0.2308 -0.2175
  142TMC2    C2 2207   0.991   1.293  10.580  0.1831 -0.1141 -0.1375
  142TMC2    C3 2208   1.076   1.381  10.647 -0.2008 -0.3958 -0.9986
  142TMC2    C4 2209   0.883   1.495  10.506 -0.7502 -0.0273 -0.1728
  142TMC2    C5 2210   0.977   1.578  10.566  0.5353 -0.7881 -0.0741
  142TMC2    C6 2211   1.070   1.518  10.643  0.5021  0.0305 -0.7189
  142TMC2     C 2212   0.789   1.286  10.476 -0.1596  0.1306  0.6219
  142TMC2     O 2213   0.745   1.312  10.364  0.0041 -0.4293 -0.4358
  142TMC2     H 2214   0.989   1.185  10.588 -0.9058 -0.0221  0.9442
  142TMC2    H1 2215   0.797   1.541  10.459 -0.1189  0.3330 -0.9851
  142TMC2    H2 2216   1.136   1.576  10.707 -1.2483  1.9819 -0.6680
  142TMC2    C7 2217   0.959   1.723  10.570 -0.1800  0.4870  0.3636
  142TMC2    C8 2218   1.174   1.321  10.726  0.8736  0.3610 -0.0271
  142TMC2    O1 2219   0.850   1.765  10.530  0.0830  0.3508 -0.2117
  142TMC2    O2 2220   1.268   1.386  10.765  0.0039  0.0043 -0.4428
  142TMC2    O5 2221   1.106   1.225  10.795 -0.3354  0.1754 -0.4710
  142TMC2    H5 2222   1.014   1.205  10.767 -1.1644  1.1026  1.5323
  143MPD2     C 2223   0.322   1.133  10.631  0.1588 -0.5871 -0.3459
  143MPD2    C1 2224   0.357   1.226  10.538  0.0338  0.3789 -0.1022
  143MPD2    C2 2225   0.495   1.246  10.512  0.4275  0.1947 -0.2855
  143MPD2    C3 2226   0.592   1.197  10.591 -0.9509 -0.1902  0.9053
  143MPD2    C4 2227   0.551   1.110  10.699 -0.4921 -0.1445  0.3174
  143MPD2    C5 2228   0.418   1.082  10.714 -0.2744  0.4554  0.2611
  143MPD2     H 2229   0.523   1.312  10.430  1.1018  0.5261  0.2140
  143MPD2    H1 2230   0.627   1.063  10.761  1.8632 -1.4122 -3.4879
  143MPD2    H2 2231   0.219   1.114  10.659 -0.2284  1.1036 -0.6384
  143MPD2    H3 2232   0.381   1.015  10.790 -1.5753 -0.2100 -0.9582
  143MPD2     N 2233   0.731   1.212  10.574  0.0440  0.1887  0.5893
  143MPD2    H5 2234   0.785   1.184  10.655  0.5415 -0.2061  0.1198
  143MPD2    N1 2235   0.246   1.280  10.464  0.5594 -0.1648  0.1717
  143MPD2    H7 2236   0.151   1.246  10.480  0.2061  1.2484  1.1152
  144TMC2    C1 2237   3.310   4.336   0.503 -0.4142  0.2639  1.1007
  144TMC2    C2 2238   3.409   4.257   0.450 -0.3677  0.1165 -0.0263
  144TMC2    C3 2239   3.537   4.303   0.444  0.1771  0.5448 -0.3923
  144TMC2    C4 2240   3.336   4.462   0.542 -0.1362  0.7624  0.3924
  144TMC2    C5 2241   3.468   4.503   0.532 -0.0399  0.6163  1.2649
  144TMC2    C6 2242   3.570   4.429   0.486  0.5187  0.0323  0.1177
  144TMC2     C 2243   3.178   4.283   0.480  0.4375 -0.1386 -0.0433
  144TMC2     O 2244   3.180   4.210   0.382 -0.1931 -0.0168 -0.5739
  144TMC2     H 2245   3.395   4.155   0.417  0.4928 -0.2557  0.7719
  144TMC2    H1 2246   3.254   4.523   0.576 -0.1790  1.0959 -0.3139
  144TMC2    H2 2247   3.665   4.482   0.481  1.4022 -1.4018  1.6879
  144TMC2    C7 2248   3.497   4.644   0.568  0.0238  0.0279  0.4807
  144TMC2    C8 2249   3.635   4.228   0.370  0.1134 -0.5509  0.2190
  144TMC2    O1 2250   3.608   4.685   0.539 -0.1970 -0.0792  0.1814
  144TMC2    O2 2251   3.605   4.123   0.315 -0.1410 -0.1880  0.7801
  144TMC2    O5 2252   3.711   4.321   0.305 -0.2779  0.3474  0.4289
  144TMC2    H5 2253   3.709   4.409   0.349  0.8958  0.7421 -0.3007
  145MPD2     C 2254   2.661   4.332   0.428  0.1524 -0.5503 -0.8112
  145MPD2    C1 2255   2.756   4.270   0.355 -0.4635 -0.1684 -1.0187
  145MPD2    C2 2256   2.893   4.266   0.387  0.2433  0.6621 -0.0510
  145MPD2    C3 2257   2.937   4.325   0.504  0.3714  0.6557  0.1247
  145MPD2    C4 2258   2.839   4.383   0.579 -0.6560 -0.0707  0.2548
  145MPD2    C5 2259   2.704   4.374   0.547 -0.8513 -0.1145  0.6005
  145MPD2     H 2260   2.963   4.224   0.317 -1.0382  1.3450 -1.7407
  145MPD2    H1 2261   2.863   4.443   0.666  1.3110 -1.3734  0.5979
  145MPD2    H2 2262   2.554   4.327   0.411  0.4003 -2.6916 -1.6760
  145MPD2    H3 2263   2.628   4.418   0.610  0.3222 -0.6318  2.3953
  145MPD2     N 2264   3.069   4.351   0.536  0.1175  0.5461  0.1797
  145MPD2    H5 2265   3.091   4.399   0.622 -1.6771 -1.2836  1.6588
  145MPD2    N1 2266   2.720   4.210   0.225  0.8163 -0.3492 -0.2950
  145MPD2    H7 2267   2.793   4.166   0.171  0.6506 -1.2643  0.2203
  146TMC2    C1 2268   4.005   3.286  12.506 -0.7233 -0.2416 -0.4375
  146TMC2    C2 2269   3.962   3.346  12.393 -0.2873 -0.0139 -0.6698
  146TMC2    C3 2270   3.992   3.280  12.280 -0.1028  0.8464  0.3513
  146TMC2    C4 2271   4.070   3.163  12.510 -0.0089  0.6019  0.3398
  146TMC2    C5 2272   4.118   3.114  12.395 -1.2347 -0.3752 -0.1135
  146TMC2    C6 2273   4.067   3.170  12.278  0.8147  0.6179 -0.4203
  146TMC2     C 2274   3.987   3.352  12.628 -0.4689 -0.3035  0.2154
  146TMC2     O 2275   3.904   3.445  12.628  0.4691  0.2025 -0.7170
  146TMC2     H 2276   3.902   3.436  12.381 -1.0302  0.0484  3.4572
  146TMC2    H1 2277   4.088   3.110  12.603  1.2368 -3.0956 -2.0014
  146TMC2    H2 2278   4.116   3.139  12.187  1.8621 -0.1426  0.4079
  146TMC2    C7 2279   4.188   2.989  12.382 -0.0951  0.5058 -0.0572
  146TMC2    C8 2280   3.960   3.344  12.161 -0.7112  0.0156  0.6423
  146TMC2    O1 2281   4.151   2.930  12.284  0.0212  0.2310  0.3463
  146TMC2    O2 2282   3.934   3.459  12.149  0.2916  0.6580  0.3857
  146TMC2    O5 2283   3.932   3.255  12.069 -0.1619 -0.1355  0.2881
  146TMC2    H5 2284   3.913   3.162  12.096 -2.3566 -0.3335 -1.9043
  147MPD2     C 2285   4.424   2.563  12.556  0.1773 -0.3925  0.1843
  147MPD2    C1 2286   4.455   2.659  12.643  0.0294 -0.2102  0.0885
  147MPD2    C2 2287   4.412   2.798  12.616 -0.5397 -0.2509 -0.3533
  147MPD2    C3 2288   4.330   2.818  12.501  0.3102  0.3480 -0.8545
  147MPD2    C4 2289   4.290   2.712  12.421  0.0053  0.2784  0.3594
  147MPD2    C5 2290   4.331   2.587  12.453  0.3406 -0.1026 -0.4835
  147MPD2     H 2291   4.454   2.887  12.661 -0.8801 -1.6407  2.7472
  147MPD2    H1 2292   4.225   2.719  12.334 -3.0950  0.3832  2.6999
  147MPD2    H2 2293   4.465   2.465  12.574 -1.0629 -0.5491  2.1727
  147MPD2    H3 2294   4.298   2.497  12.403  0.0785  0.7192 -1.7947
  147MPD2     N 2295   4.265   2.946  12.487 -0.2736 -0.4139 -0.0459
  147MPD2    H5 2296   4.291   3.018  12.554 -1.4620  0.0107 -0.0464
  147MPD2    N1 2297   4.539   2.619  12.750  0.0917  0.2174 -0.1087
  147MPD2    H7 2298   4.575   2.524  12.759 -3.7782 -1.3138 -0.9986
  148TMC2    C1 2299   4.556   2.175  10.469 -0.3853 -0.0620  0.2172
  148TMC2    C2 2300   4.653   2.244  10.535  0.9398  0.1425 -0.1966
  148TMC2    C3 2301   0.024   2.180  10.580 -0.2643  0.8564  0.4649
  148TMC2    C4 2302   4.575   2.044  10.435 -0.2389 -0.3680 -0.6043
  148TMC2    C5 2303   4.684   1.983  10.484 -0.5697 -0.6893  0.2113
  148TMC2    C6 2304   0.042   2.049  10.555 -0.4981 -0.0405 -0.3459
  148TMC2     C 2305   4.423   2.222  10.476  0.7405 -0.4044 -0.6564
  148TMC2     O 2306   4.401   2.338  10.467  0.0233  0.4070  0.8921
  148TMC2     H 2307   4.640   2.351  10.553  0.9998 -0.4709  3.4690
  148TMC2    H1 2308   4.511   1.997  10.361 -2.0096  2.7648 -1.0672
  148TMC2    H2 2309   0.136   2.006  10.585  0.1826  0.6220 -1.5343
  148TMC2    C7 2310   4.676   1.838  10.482  0.1822  0.0829  0.1146
  148TMC2    C8 2311   0.147   2.257  10.617  0.2361  0.5544 -0.0355
  148TMC2    O1 2312   4.581   1.790  10.422  0.1295  0.1927  0.2805
  148TMC2    O2 2313   0.257   2.210  10.609 -0.7407 -1.0081  1.0586
  148TMC2    O5 2314   0.120   2.379  10.673 -0.6332  0.8472  0.5200
  148TMC2    H5 2315   0.029   2.397  10.705 -0.4667 -1.0933  2.1222
  149MPD2     C 2316   4.131   2.255  10.504 -0.3073  0.8577  0.0568
  149MPD2    C1 2317   4.199   2.133  10.514 -0.8103  0.3735 -0.2342
  149MPD2    C2 2318   4.128   2.023  10.547 -0.0138 -0.8388  0.0363
  149MPD2    C3 2319   3.992   2.033  10.571 -0.2281 -0.3501  0.0074
  149MPD2    C4 2320   3.925   2.152  10.560 -0.2361  0.2243  0.7064
  149MPD2    C5 2321   3.994   2.263  10.524  0.4052  0.3517 -0.0939
  149MPD2     H 2322   4.186   1.931  10.547  0.3480 -0.6119  0.4716
  149MPD2    H1 2323   3.819   2.166  10.572 -0.4973 -2.6278  1.7600
  149MPD2    H2 2324   4.177   2.348  10.473 -1.6729  1.0120 -1.5905
  149MPD2    H3 2325   3.945   2.357  10.505  0.4449  0.5866  0.9559
  149MPD2     N 2326   3.917   1.917  10.595  0.1457 -0.3457 -0.5768
  149MPD2    H5 2327   3.816   1.929  10.593  0.4330  2.4906  1.5639
  149MPD2    N1 2328   4.333   2.121  10.498 -0.5357 -0.0296 -0.1724
  149MPD2    H7 2329   4.374   2.034  10.531  0.2307  0.1365 -0.6788
  150TMC2    C1 2330   1.780   0.948  12.424  0.4697  0.1531 -0.2744
  150TMC2    C2 2331   1.724   1.041  12.338 -0.7963  0.1902 -0.6027
  150TMC2    C3 2332   1.809   1.124  12.262 -0.0881  0.0606 -0.4060
  150TMC2    C4 2333   1.913   0.950  12.441  0.1822  0.2225  0.2735
  150TMC2    C5 2334   1.990   1.036  12.362 -0.7646 -0.9905  0.1939
  150TMC2    C6 2335   1.945   1.119  12.269  0.7095  0.1417 -0.1877
  150TMC2     C 2336   1.707   0.866  12.522 -0.0201 -0.7860 -0.5146
  150TMC2     O 2337   1.775   0.819  12.614  0.8038 -0.4171  0.0845
  150TMC2     H 2338   1.617   1.054  12.327 -0.7970 -0.1048 -0.9356
  150TMC2    H1 2339   1.949   0.864  12.497  2.0920  0.6786 -0.2526
  150TMC2    H2 2340   2.001   1.159  12.185  0.2029 -0.6631 -0.9075
  150TMC2    C7 2341   2.132   1.031  12.392 -0.0358 -0.3210  0.9642
  150TMC2    C8 2342   1.740   1.202  12.161 -0.4542 -0.8914  0.5809
  150TMC2    O1 2343   2.197   1.109  12.327 -0.4126 -0.2053  0.5638
  150TMC2    O2 2344   1.622   1.198  12.125 -0.1467  0.1516  0.0982
  150TMC2    O5 2345   1.821   1.306  12.127 -0.7544 -0.1753 -0.5157
  150TMC2    H5 2346   1.898   1.320  12.186 -1.1104  1.0687 -0.3307
  151MPD2     C 2347   1.273   0.700  12.736  0.5922  0.0056 -0.6290
  151MPD2    C1 2348   1.244   0.798  12.648 -0.6968 -0.1682 -0.3108
  151MPD2    C2 2349   1.349   0.853  12.575 -0.5988  1.2042  0.5614
  151MPD2    C3 2350   1.477   0.814  12.596 -0.5533 -0.9572  0.2273
  151MPD2    C4 2351   1.507   0.720  12.697  0.3766 -0.1902 -0.6144
  151MPD2    C5 2352   1.401   0.654  12.758  0.4152  0.7854  0.1506
  151MPD2     H 2353   1.316   0.925  12.500  0.0490  0.0188 -0.8552
  151MPD2    H1 2354   1.606   0.677  12.703  1.2434  1.5557 -2.3729
  151MPD2    H2 2355   1.193   0.636  12.773 -0.4206  0.6568 -1.7018
  151MPD2    H3 2356   1.422   0.573  12.827 -0.1582  0.7756  0.3118
  151MPD2     N 2357   1.573   0.870  12.506  0.7144 -0.1470 -0.1260
  151MPD2    H5 2358   1.533   0.921  12.428  0.5171  2.0918  1.4536
  151MPD2    N1 2359   1.106   0.829  12.633  0.3036  0.8165 -0.2634
  151MPD2    H7 2360   1.037   0.769  12.676  1.3628 -0.4847 -0.3916
  152TMC2    C1 2361   1.219   0.970  12.963 -0.4135 -0.6807 -0.6377
  152TMC2    C2 2362   1.292   0.887  13.044  0.3023  0.2400  0.6780
  152TMC2    C3 2363   1.425   0.888  13.023  0.4017  0.2802  0.2366
  152TMC2    C4 2364   1.276   1.048  12.870  0.4651  0.0771 -0.5231
  152TMC2    C5 2365   1.415   1.063  12.868  0.3692 -0.4496  0.0029
  152TMC2    C6 2366   1.489   0.979  12.938 -0.5857 -0.2480 -0.6545
  152TMC2     C 2367   1.075   0.953  12.962 -0.8769 -0.1920 -0.1997
  152TMC2     O 2368   1.021   1.051  12.920 -0.1925  0.3542 -0.0172
  152TMC2     H 2369   1.248   0.814  13.110  0.9719 -0.6567  0.1317
  152TMC2    H1 2370   1.211   1.106  12.805 -0.9786 -0.4872  0.4134
  152TMC2    H2 2371   1.597   0.990  12.949 -1.0126 -0.0566  3.1796
  152TMC2    C7 2372   1.466   1.124  12.748  0.7910  0.4016 -0.7540
  152TMC2    C8 2373   1.510   0.797  13.103 -0.4423  0.7038  0.2547
  152TMC2    O1 2374   1.376   1.157  12.675  0.1541  0.5765  0.1494
  152TMC2    O2 2375   1.626   0.763  13.084 -0.0747  0.1058  0.1072
  152TMC2    O5 2376   1.466   0.821  13.226  0.1389  0.1739  0.2368
  152TMC2    H5 2377   1.396   0.889  13.218 -0.5343 -0.7482 -1.7316
  153MPD2     C 2378   0.895   0.637  12.947 -0.3724 -0.7722 -0.1524
  153MPD2    C1 2379   0.910   0.769  12.962  0.3072  0.4710 -0.0963
  153MPD2    C2 2380   0.798   0.853  12.941 -0.6389 -0.0664  0.1323
  153MPD2    C3 2381   0.675   0.799  12.912  0.1932  1.0604 -0.1482
  153MPD2    C4 2382   0.660   0.665  12.911 -0.3219  0.7448 -0.2224
  153MPD2    C5 2383   0.770   0.582  12.922 -0.2054  0.1748  0.1359
  153MPD2     H 2384   0.811   0.959  12.956  0.0186 -0.1896  0.4511
  153MPD2    H1 2385   0.562   0.623  12.890  0.0638  0.9591 -2.4392
  153MPD2    H2 2386   0.983   0.575  12.950 -0.1791 -0.3806  1.8131
  153MPD2    H3 2387   0.752   0.475  12.910  0.6266 -0.2562  2.8246
  153MPD2     N 2388   0.572   0.892  12.888 -0.1215  0.6300 -0.1877
  153MPD2    H5 2389   0.615   0.984  12.895 -0.4766  0.7395  0.5782
  153MPD2    N1 2390   1.040   0.822  12.983  0.4840 -0.1127 -0.1720
  153MPD2    H7 2391   1.115   0.753  12.988  0.7121  0.1573  0.1144
  154TMC2    C1 2392   2.970   1.221   0.181 -0.1526 -0.2724  0.3950
  154TMC2    C2 2393   2.907   1.127   0.260  0.4705  0.1459 -0.4646
  154TMC2    C3 2394   2.938   0.994   0.252  0.4855  0.3283 -0.5174
  154TMC2    C4 2395   3.056   1.180   0.082 -0.2948  0.1415 -0.1925
  154TMC2    C5 2396   3.091   1.043   0.072  0.0200  0.6044  0.2798
  154TMC2    C6 2397   3.034   0.956   0.167 -0.0070  1.0689  0.0517
  154TMC2     C 2398   2.970   1.356   0.239  0.5080  0.6788  0.5094
  154TMC2     O 2399   2.899   1.377   0.341 -0.1593 -0.2176  0.0524
  154TMC2     H 2400   2.833   1.175   0.323 -0.4509 -0.8253 -0.7985
  154TMC2    H1 2401   3.082   1.248   0.001  0.5482  0.3873  0.2772
  154TMC2    H2 2402   3.052   0.850   0.152  2.1467  1.3871  0.3969
  154TMC2    C7 2403   3.197   0.990  17.743 -0.0934 -0.1556 -0.9607
  154TMC2    C8 2404   2.907   0.909   0.365 -0.5394  0.4976  1.2247
  154TMC2    O1 2405   3.192   0.872  17.710 -0.3813 -0.4120 -0.2535
  154TMC2    O2 2406   2.995   0.851   0.426  0.0197 -0.1862 -0.1165
  154TMC2    O5 2407   2.791   0.948   0.412 -0.0128  0.1392  1.2426
  154TMC2    H5 2408   2.735   0.955   0.331  0.1085  1.7351  1.2896
  155MPD2     C 2409   3.161   1.650   0.108 -0.3381  0.7820  0.1573
  155MPD2    C1 2410   3.087   1.576   0.195  0.3175  0.4228  0.6975
  155MPD2    C2 2411   3.031   1.646   0.298 -0.6287  0.1502 -0.0885
  155MPD2    C3 2412   3.052   1.781   0.325  0.0706  0.1961  0.1046
  155MPD2    C4 2413   3.111   1.856   0.224  0.2960  0.3731  0.1426
  155MPD2    C5 2414   3.166   1.781   0.118 -0.0867 -0.5930 -0.1953
  155MPD2     H 2415   2.981   1.596   0.380  1.1780 -0.8257  0.4283
  155MPD2    H1 2416   3.134   1.962   0.225  3.0844 -0.2284 -0.8603
  155MPD2    H2 2417   3.201   1.598   0.022 -0.0814  1.3092 -0.0447
  155MPD2    H3 2418   3.224   1.836   0.044  0.6059 -0.1007  0.7172
  155MPD2     N 2419   3.005   1.830   0.446 -0.7230 -0.1123  0.4465
  155MPD2    H5 2420   2.969   1.760   0.511 -0.4700 -2.1601 -1.6549
  155MPD2    N1 2421   3.060   1.441   0.168 -0.1312 -0.7182 -0.2720
  155MPD2    H7 2422   3.117   1.396   0.097 -0.4173  0.5036 -1.2755
  156TMC2    C1 2423   1.889   3.181  11.538 -0.2473  0.2230 -0.1834
  156TMC2    C2 2424   1.994   3.176  11.446 -0.1293 -0.0487  0.7775
  156TMC2    C3 2425   1.983   3.230  11.321  0.1319 -0.5578  0.2495
  156TMC2    C4 2426   1.769   3.245  11.498  0.3954  0.5812  0.7430
  156TMC2    C5 2427   1.772   3.307  11.376 -0.3295  0.5635  0.1852
  156TMC2    C6 2428   1.874   3.304  11.286 -0.4576  0.1842  0.2316
  156TMC2     C 2429   1.907   3.156  11.683  0.2492  0.0925  0.3816
  156TMC2     O 2430   1.813   3.202  11.753  0.3011 -0.0062  0.0151
  156TMC2     H 2431   2.075   3.110  11.477 -0.7657 -0.6941  1.0488
  156TMC2    H1 2432   1.685   3.260  11.565  1.4510  1.3670  1.8947
  156TMC2    H2 2433   1.869   3.370  11.200  0.1971 -0.3366 -0.2080
  156TMC2    C7 2434   1.657   3.377  11.342  0.0167  0.1385  0.0802
  156TMC2    C8 2435   2.090   3.201  11.224  0.2276 -0.2026  0.1850
  156TMC2    O1 2436   1.598   3.429  11.430  0.1168  0.3373  0.2819
  156TMC2    O2 2437   2.188   3.133  11.258  0.0407  0.3858 -0.5971
  156TMC2    O5 2438   2.004   3.171  11.126  0.3522  0.0659  0.0539
  156TMC2    H5 2439   1.920   3.220  11.121 -1.0534 -2.5127 -1.4259
  157MPD2     C 2440   2.134   2.981  11.898 -0.4392 -0.4084 -0.0173
  157MPD2    C1 2441   2.040   3.066  11.865  0.3504 -0.1105 -0.7842
  157MPD2    C2 2442   1.984   3.140  11.969  0.2534  0.4074 -0.8700
  157MPD2    C3 2443   2.018   3.117  12.101 -0.3086  0.3547 -0.1073
  157MPD2    C4 2444   2.096   3.015  12.137  0.1952  0.4781  0.3348
  157MPD2    C5 2445   2.167   2.963  12.034  0.5394  0.0619 -0.6035
  157MPD2     H 2446   1.906   3.214  11.952  0.5638  1.1376  0.9367
  157MPD2    H1 2447   2.119   2.996  12.241  0.0950  0.0798  0.2861
  157MPD2    H2 2448   2.189   2.922  11.826 -1.1545 -1.2499  0.1247
  157MPD2    H3 2449   2.239   2.885  12.055 -1.9985 -1.8102  1.1596
  157MPD2     N 2450   1.945   3.191  12.198  0.2265  0.1172  0.0220
  157MPD2    H5 2451   1.896   3.270  12.156  1.3731  0.3206 -0.9330
  157MPD2    N1 2452   2.012   3.085  11.727 -0.7294 -0.0449 -0.7253
  157MPD2    H7 2453   2.074   3.041  11.661  1.0874  1.0956  0.2086
  158TMC2    C1 2454   1.722   1.729  13.192  0.4695 -0.4306  0.2913
  158TMC2    C2 2455   1.788   1.729  13.073 -0.5073  0.4379 -0.3189
  158TMC2    C3 2456   1.711   1.752  12.966  0.5734  0.1359  0.0267
  158TMC2    C4 2457   1.590   1.752  13.212  0.2483 -0.0325  0.2534
  158TMC2    C5 2458   1.524   1.796  13.097 -0.0453  0.5586 -0.0592
  158TMC2    C6 2459   1.583   1.797  12.976  0.5831  0.2100 -0.5294
  158TMC2     C 2460   1.800   1.682  13.300  1.0289  0.6468 -0.2833
  158TMC2     O 2461   1.923   1.681  13.286  0.0517 -0.4545  0.6395
  158TMC2     H 2462   1.890   1.691  13.072  0.2818  2.5602 -0.9351
  158TMC2    H1 2463   1.541   1.781  13.304 -0.3017 -2.9951  0.8776
  158TMC2    H2 2464   1.529   1.826  12.887 -0.4798  0.3336  0.1589
  158TMC2    C7 2465   1.405   1.872  13.116  0.0135  0.0115 -0.0291
  158TMC2    C8 2466   1.776   1.767  12.838  0.2262 -0.0943  0.3353
  158TMC2    O1 2467   1.387   1.969  13.042  0.2160 -0.3537  0.6785
  158TMC2    O2 2468   1.719   1.839  12.752 -0.0314  0.1795 -0.0981
  158TMC2    O5 2469   1.860   1.665  12.815  0.1955  0.1838 -1.2853
  158TMC2    H5 2470   1.884   1.618  12.898  0.8874  1.4567 -0.7756
  159MPD2     C 2471   1.856   1.487  13.766 -0.1866  0.1910  0.2127
  159MPD2    C1 2472   1.729   1.463  13.732  0.9255 -0.4819  0.7917
  159MPD2    C2 2473   1.684   1.517  13.614  0.6167 -0.2472  0.4006
  159MPD2    C3 2474   1.773   1.587  13.528  0.4041 -0.0896  0.7489
  159MPD2    C4 2475   1.907   1.613  13.571 -0.5754 -0.7339 -0.0544
  159MPD2    C5 2476   1.939   1.561  13.691  0.1357  0.7510 -0.3703
  159MPD2     H 2477   1.585   1.493  13.577  1.3840  0.0731 -1.8325
  159MPD2    H1 2478   1.982   1.653  13.504  0.1026 -1.6267  0.1692
  159MPD2    H2 2479   1.893   1.440  13.857 -3.4161 -1.9574  0.4068
  159MPD2    H3 2480   2.041   1.573  13.726  0.4814  0.1965 -1.2047
  159MPD2     N 2481   1.722   1.631  13.402 -0.3150 -0.4102 -0.2831
  159MPD2    H5 2482   1.630   1.608  13.366  0.3604  0.6394 -2.6780
  159MPD2    N1 2483   1.660   1.391  13.827  0.1809 -0.1122 -0.8288
  159MPD2    H7 2484   1.709   1.352  13.907 -1.0282  1.5650  0.7432
  160TMC2    C1 2485   1.259   0.758   1.540  0.5443 -0.7340 -0.2838
  160TMC2    C2 2486   1.242   0.772   1.675 -0.0400  0.3244 -0.0125
  160TMC2    C3 2487   1.196   0.662   1.749  1.2256  0.6427 -0.3017
  160TMC2    C4 2488   1.236   0.647   1.475 -0.0330  0.0104  0.3013
  160TMC2    C5 2489   1.204   0.537   1.554 -0.7131 -0.4999 -0.4080
  160TMC2    C6 2490   1.192   0.538   1.689 -0.2486  0.1077 -0.0306
  160TMC2     C 2491   1.272   0.871   1.457 -0.1916 -0.4352  0.6562
  160TMC2     O 2492   1.219   0.886   1.347  0.0591  0.4373 -0.2753
  160TMC2     H 2493   1.268   0.865   1.724 -1.6855  0.5817  0.4013
  160TMC2    H1 2494   1.256   0.634   1.369  0.6543 -1.0372  0.5584
  160TMC2    H2 2495   1.167   0.448   1.744 -1.8031  1.1938  1.0330
  160TMC2    C7 2496   1.273   0.415   1.517 -0.0355  0.5704  0.6307
  160TMC2    C8 2497   1.229   0.656   1.888 -0.1956 -0.1916  0.4699
  160TMC2    O1 2498   1.294   0.335   1.607  0.3314 -0.0048 -0.9755
  160TMC2    O2 2499   1.323   0.719   1.937  0.0140 -0.0213 -0.2046
  160TMC2    O5 2500   1.131   0.590   1.947 -0.4249  0.9053 -0.2691
  160TMC2    H5 2501   1.054   0.593   1.886 -0.3200 -0.0012 -0.4519
  161MPD2     C 2502   1.497   1.152   1.545  0.1094  0.2664  0.3200
  161MPD2    C1 2503   1.401   1.091   1.465  0.2848 -0.6244  0.1632
  161MPD2    C2 2504   1.360   1.137   1.341  0.5168 -0.0907 -0.0113
  161MPD2    C3 2505   1.422   1.252   1.295  0.3573 -0.2966 -0.2535
  161MPD2    C4 2506   1.517   1.315   1.379 -0.7339 -0.7247  0.0740
  161MPD2    C5 2507   1.553   1.270   1.498 -0.9432 -0.1821 -0.3572
  161MPD2     H 2508   1.287   1.084   1.281  1.4105 -0.2375 -0.9737
  161MPD2    H1 2509   1.568   1.403   1.339 -1.9786  0.3525  0.8488
  161MPD2    H2 2510   1.527   1.101   1.636  0.2945 -1.5310 -0.7467
  161MPD2    H3 2511   1.618   1.326   1.564 -0.9831 -1.0774  0.4512
  161MPD2     N 2512   1.378   1.313   1.172  0.0740 -0.0892 -0.0270
  161MPD2    H5 2513   1.413   1.407   1.154  1.0551 -0.5042 -0.2849
  161MPD2    N1 2514   1.355   0.962   1.517 -0.1650  0.1094  0.4433
  161MPD2    H7 2515   1.389   0.928   1.606  0.7731 -0.7111 -0.2369
  162TMC2    C1 2516   4.393   3.009   1.121  0.4271 -0.1719  0.5838
  162TMC2    C2 2517   4.392   3.132   1.065  0.0936  0.1809  0.3599
  162TMC2    C3 2518   4.403   3.234   1.152  0.2570  0.3586 -0.5594
  162TMC2    C4 2519   4.411   2.983   1.253  0.0237 -0.6555 -0.4182
  162TMC2    C5 2520   4.410   3.093   1.337 -0.2878  0.4052  0.0477
  162TMC2    C6 2521   4.402   3.219   1.289 -0.3461 -0.1643 -0.0993
  162TMC2     C 2522   4.375   2.893   1.033 -0.1900  0.3197  0.9562
  162TMC2     O 2523   4.308   2.901   0.934 -0.8660  0.6746 -0.5653
  162TMC2     H 2524   4.396   3.151   0.958 -0.0121  1.1097  0.5260
  162TMC2    H1 2525   4.411   2.881   1.288  3.0402 -0.5326 -0.0925
  162TMC2    H2 2526   4.409   3.304   1.357  1.9684  0.3361 -0.9685
  162TMC2    C7 2527   4.402   3.076   1.480 -0.6282 -0.0347 -0.0755
  162TMC2    C8 2528   4.483   3.346   1.110 -0.0941  0.4071 -0.5264
  162TMC2    O1 2529   4.345   3.159   1.545 -0.2613  0.1799  0.1309
  162TMC2    O2 2530   4.535   3.339   1.005 -0.0509  0.1389  0.1314
  162TMC2    O5 2531   4.436   3.461   1.162 -0.1080  0.6508 -0.1161
  162TMC2    H5 2532   4.370   3.455   1.235 -1.3223  2.3462 -1.0615
  163MPD2     C 2533   4.519   2.388   0.956  0.4939  0.0154 -0.0748
  163MPD2    C1 2534   4.452   2.478   0.872 -0.7794  0.0306 -0.1602
  163MPD2    C2 2535   4.441   2.615   0.899  0.8670 -0.5254 -0.2814
  163MPD2    C3 2536   4.489   2.663   1.020 -0.0118 -0.0211  0.2714
  163MPD2    C4 2537   4.549   2.571   1.104 -0.6706 -0.1000 -0.0993
  163MPD2    C5 2538   4.560   2.437   1.075 -0.5710 -0.1530  0.1959
  163MPD2     H 2539   4.392   2.680   0.828 -1.4231 -0.3928  1.4018
  163MPD2    H1 2540   4.589   2.597   1.201 -3.4640  1.7414  0.5374
  163MPD2    H2 2541   4.537   2.289   0.917  2.0623 -0.3894  1.6870
  163MPD2    H3 2542   4.615   2.378   1.148 -0.5648 -0.4727 -0.0695
  163MPD2     N 2543   4.465   2.794   1.076 -0.0655  0.3985  0.3447
  163MPD2    H5 2544   4.525   2.822   1.152  1.4507 -1.0046 -0.3499
  163MPD2    N1 2545   4.407   2.421   0.747  0.3947 -0.1942  0.1065
  163MPD2    H7 2546   4.413   2.320   0.738 -0.0413 -0.1747 -0.3714
  164TMC2    C1 2547   0.461   1.895  10.806 -0.5548  0.2253  0.2320
  164TMC2    C2 2548   0.511   2.015  10.810 -0.2848 -0.0605  0.0656
  164TMC2    C3 2549   0.439   2.120  10.851 -0.1976  0.1305 -0.0332
  164TMC2    C4 2550   0.329   1.874  10.833 -1.2843  0.5413  0.2046
  164TMC2    C5 2551   0.254   1.983  10.878  1.2897  0.1809 -0.3643
  164TMC2    C6 2552   0.308   2.107  10.884  0.1114 -0.0322  0.2052
  164TMC2     C 2553   0.556   1.783  10.792  0.2595  0.4925 -0.1956
  164TMC2     O 2554   0.498   1.682  10.767  0.2484 -0.0101 -0.5231
  164TMC2     H 2555   0.611   2.043  10.779 -0.4948 -1.9316 -2.2447
  164TMC2    H1 2556   0.291   1.773  10.819 -0.6262  0.4267 -0.8161
  164TMC2    H2 2557   0.239   2.186  10.912  0.0461 -0.4641  1.2495
  164TMC2    C7 2558   0.112   1.977  10.864 -0.4986 -0.5668  0.0823
  164TMC2    C8 2559   0.499   2.254  10.839 -0.4174 -0.3310 -0.0359
  164TMC2    O1 2560   0.047   2.083  10.878  0.0366 -0.0938  0.2195
  164TMC2    O2 2561   0.614   2.274  10.825 -0.0719  0.1222  0.7424
  164TMC2    O5 2562   0.409   2.339  10.797 -0.2271 -0.3363 -0.1942
  164TMC2    H5 2563   0.331   2.295  10.758 -0.9661 -1.5652  2.6490
  165TMC2    C1 2564   0.952   0.205   0.984  0.6725 -0.7202 -0.0240
  165TMC2    C2 2565   0.963   0.332   1.028  0.7737 -0.2666  0.4235
  165TMC2    C3 2566   1.082   0.398   1.015 -0.0355  0.4257  0.8384
  165TMC2    C4 2567   1.062   0.138   0.938  0.4037 -0.0994 -0.4771
  165TMC2    C5 2568   1.181   0.210   0.932 -0.8230  0.3109  0.3801
  165TMC2    C6 2569   1.192   0.339   0.960  0.3156 -0.6577  0.1349
  165TMC2     C 2570   0.819   0.137   1.002 -0.0579  0.6873 -0.2771
  165TMC2     O 2571   0.753   0.161   1.102 -0.3035 -0.3916 -0.2373
  165TMC2     H 2572   0.890   0.387   1.086 -0.6776  0.8109 -2.4441
  165TMC2    H1 2573   1.065   0.035   0.902 -1.1265 -0.4064  0.2831
  165TMC2    H2 2574   1.289   0.382   0.986  0.8482 -1.8675  0.1647
  165TMC2    C7 2575   1.306   0.124   0.935 -0.6981 -0.2761  0.2757
  165TMC2    C8 2576   1.105   0.489   1.126 -0.0889 -0.1021 -0.2663
  165TMC2    O1 2577   1.408   0.186   0.915  0.0293 -0.2441 -0.0291
  165TMC2    O2 2578   1.071   0.461   1.240  0.0332  0.3028  0.0077
  165TMC2    O5 2579   1.206   0.577   1.109 -0.0016  0.0364  0.0154
  165TMC2    H5 2580   1.225   0.582   1.013 -2.8562  1.4742 -0.4668
  166MPD2     C 2581   0.492   4.513   0.819 -0.2368  0.8767 -0.0940
  166MPD2    C1 2582   0.495   4.577   0.941 -0.0528  0.2342 -0.3754
  166MPD2    C2 2583   0.592   4.682   0.968  0.3121  0.0619 -0.6765
  166MPD2    C3 2584   0.689   4.702   0.872 -0.4599  0.0883  0.0160
  166MPD2    C4 2585   0.692   4.627   0.758 -0.8365  0.2414  0.4587
  166MPD2    C5 2586   0.586   4.541   0.728  0.1888 -0.0841  0.5431
  166MPD2     H 2587   0.593   0.009   1.054  0.7449  0.7236 -1.1771
  166MPD2    H1 2588   0.772   4.648   0.687 -1.5184  1.1299 -0.0504
  166MPD2    H2 2589   0.410   4.444   0.806  0.9233  0.0963 -3.3497
  166MPD2    H3 2590   0.579   4.481   0.638 -0.2152 -0.2336  0.6722
  166MPD2     N 2591   0.796   0.056   0.894  0.2463  0.4047  0.1059
  166MPD2    H5 2592   0.871   0.057   0.824 -0.7092 -1.7217 -0.9548
  166MPD2    N1 2593   0.405   4.528   1.026 -0.1898 -0.3895  0.8215
  166MPD2    H7 2594   0.359   4.440   1.005  0.8033 -0.3875 -1.3831
  167TMC2    C1 2595   4.467   1.546  12.958 -1.1869  0.5694 -0.6694
  167TMC2    C2 2596   4.391   1.563  13.076  0.3229 -0.5845  0.0097
  167TMC2    C3 2597   4.348   1.455  13.150 -0.0536  0.0022  0.0724
  167TMC2    C4 2598   4.497   1.421  12.922 -0.4417  0.2592  0.2157
  167TMC2    C5 2599   4.452   1.318  12.997  0.1193  0.1134 -0.3698
  167TMC2    C6 2600   4.382   1.331  13.113 -0.3047 -0.1946 -0.5871
  167TMC2     C 2601   4.513   1.659  12.877 -0.4102 -0.3625 -0.4291
  167TMC2     O 2602   4.507   1.770  12.928  0.2009 -0.2813 -0.3160
  167TMC2     H 2603   4.368   1.665  13.105  0.2201  0.0622 -2.3402
  167TMC2    H1 2604   4.565   1.397  12.841 -0.3875  0.8581  0.0867
  167TMC2    H2 2605   4.329   1.249  13.160 -1.6196  0.5022 -0.8764
  167TMC2    C7 2606   4.486   1.181  12.955 -0.1924 -0.1093 -0.3948
  167TMC2    C8 2607   4.253   1.469  13.257 -0.7729 -0.9161  0.1422
  167TMC2    O1 2608   4.501   1.088  13.035  0.6231  0.4114 -0.1475
  167TMC2    O2 2609   4.137   1.434  13.238 -0.4218  0.0232  0.0861
  167TMC2    O5 2610   4.316   1.415  13.368  0.3698 -0.1406 -0.0985
  167TMC2    H5 2611   4.410   1.446  13.370  0.7563 -1.2425 -1.0351
  168MPD2     C 2612   4.610   1.843  12.666  0.4689 -0.2038  0.9053
  168MPD2    C1 2613   4.559   1.715  12.639  0.6020 -0.1903 -0.4919
  168MPD2    C2 2614   4.524   1.679  12.509  0.2225  0.0461  0.8429
  168MPD2    C3 2615   4.537   1.767  12.409  0.1052  0.3059 -0.1728
  168MPD2    C4 2616   4.598   1.890  12.430 -0.3452  0.5147 -0.0597
  168MPD2    C5 2617   4.639   1.926  12.558  0.2781 -0.3215  0.0089
  168MPD2     H 2618   4.475   1.583  12.505  1.3206 -0.4931  0.3144
  168MPD2    H1 2619   4.610   1.960  12.348 -0.6856  1.9991  1.1607
  168MPD2    H2 2620   4.637   1.870  12.767 -3.2539 -1.2242  2.1898
  168MPD2    H3 2621   4.679   2.027  12.567  0.9168 -0.7880  2.3327
  168MPD2     N 2622   4.513   1.731  12.273  0.0098  0.2836  0.1878
  168MPD2    H5 2623   4.503   1.812  12.212  1.4731 -0.9512 -1.7053
  168MPD2    N1 2624   4.527   1.625  12.747 -0.1642 -0.8044 -0.0721
  168MPD2    H7 2625   4.470   1.543  12.728 -1.3282  0.0670 -0.3896
  169MPD1     C 2626   0.807   2.772  10.031  0.6902 -0.5833 -0.2599
  169MPD1    C1 2627   0.924   2.751  10.105 -0.4214 -0.2397  0.5020
  169MPD1    C2 2628   0.998   2.642  10.067 -0.6348  0.0099  0.1534
  169MPD1    C3 2629   0.962   2.557   9.973  0.1406  0.7950 -0.1776
  169MPD1    C4 2630   0.842   2.573   9.911 -0.1383  0.0897  0.5529
  169MPD1    C5 2631   0.770   2.688   9.935  0.1218  0.3841  0.0782
  169MPD1     H 2632   1.084   2.620  10.129 -0.2721  0.2005 -0.2840
  169MPD1    H1 2633   0.810   2.512   9.827  1.3266 -0.8503  0.6823
  169MPD1    H2 2634   0.745   2.860  10.040  0.4447 -0.8151  0.3696
  169MPD1    H3 2635   0.686   2.704   9.870 -0.8706  0.1491  1.3028
  169MPD1     N 2636   1.047   2.439   9.954  0.8128  0.8853  0.1929
  169MPD1    H5 2637   1.136   2.424  10.001  0.1377  1.4482  1.6202
  169MPD1    N1 2638   0.976   2.851  10.189  0.5747 -0.4304 -0.0305
  169MPD1    H6 2639   1.055   2.816  10.243 -1.0992 -1.1655  1.9233
  169MPD1    H7 2640   0.914   2.896  10.256  0.6033  1.5342 -1.3089
  170MPD1     C 2641   0.922   3.536  13.091  0.0134  0.0183  0.2815
  170MPD1    C1 2642   0.810   3.613  13.063 -0.2889 -0.4761  0.3393
  170MPD1    C2 2643   0.764   3.689  13.165  0.4066  0.6361 -0.2287
  170MPD1    C3 2644   0.824   3.684  13.296  0.2568 -0.3688 -0.5375
  170MPD1    C4 2645   0.937   3.604  13.321 -0.0873  0.3862  0.2648
  170MPD1    C5 2646   0.981   3.530  13.217 -0.0971 -0.0339  0.1938
  170MPD1     H 2647   0.672   3.744  13.151 -0.0548 -0.1507 -0.2579
  170MPD1    H1 2648   0.977   3.590  13.420 -1.4834  2.7594  1.1523
  170MPD1    H2 2649   0.968   3.467  13.021  0.2832 -0.9891  1.4605
  170MPD1    H3 2650   1.065   3.464  13.235  0.3968 -0.0489 -2.0785
  170MPD1     N 2651   0.749   3.738  13.399 -0.2834  0.5545  0.1765
  170MPD1    H5 2652   0.662   3.788  13.388  0.5108  2.1854  1.3177
  170MPD1    N1 2653   0.743   3.597  12.939 -0.0344 -0.4056 -0.4174
  170MPD1    H6 2654   0.705   3.504  12.923  1.7964 -1.4881  1.6086
  170MPD1    H7 2655   0.684   3.674  12.907 -1.6188  0.1508  3.8443
  171MPD1     C 2656   3.392   0.392  15.350  0.7264 -0.7385  0.2938
  171MPD1    C1 2657   3.395   0.257  15.383  0.4072  0.3032  0.5583
  171MPD1    C2 2658   3.491   0.216  15.472 -0.1711 -0.1656  0.3653
  171MPD1    C3 2659   3.576   0.307  15.534  0.3762 -0.5854 -0.5984
  171MPD1    C4 2660   3.561   0.437  15.519  1.0334  0.3341 -0.3226
  171MPD1    C5 2661   3.473   0.481  15.423  0.2359 -0.1027 -0.0169
  171MPD1     H 2662   3.498   0.111  15.497  0.2812 -0.1262  0.3942
  171MPD1    H1 2663   3.623   0.516  15.559 -1.2810  1.6342  0.7366
  171MPD1    H2 2664   3.332   0.432  15.269 -0.2835 -1.2259  0.8001
  171MPD1    H3 2665   3.466   0.583  15.387 -0.0132 -0.2750 -0.4569
  171MPD1     N 2666   3.677   0.266  15.623 -0.0120  0.6139  0.3220
  171MPD1    H5 2667   3.705   0.332  15.695  1.5409 -1.7037  1.8543
  171MPD1    N1 2668   3.300   0.175  15.324 -0.0667  0.3977  1.0004
  171MPD1    H6 2669   3.203   0.199  15.342  0.0882  0.8295  1.2602
  171MPD1    H7 2670   3.315   0.076  15.344  0.9498  0.2997 -0.2579
  172MPD1     C 2671   3.498   3.708  17.400 -0.2678 -0.5262 -0.3561
  172MPD1    C1 2672   3.415   3.697  17.511  0.0661  0.1940 -0.1583
  172MPD1    C2 2673   3.378   3.811  17.577  1.1401 -0.6013 -0.3608
  172MPD1    C3 2674   3.422   3.934  17.536  0.9848  0.0585 -0.4778
  172MPD1    C4 2675   3.512   3.938  17.441 -0.2144  0.4541  0.0597
  172MPD1    C5 2676   3.554   3.828  17.372  0.7413 -0.6876 -0.2379
  172MPD1     H 2677   3.302   3.793  17.652  1.6244  0.4506  0.3715
  172MPD1    H1 2678   3.545   4.038  17.416  2.2333 -0.3993 -0.0294
  172MPD1    H2 2679   3.536   3.625  17.341 -0.0747 -0.4713 -0.3100
  172MPD1    H3 2680   3.624   3.847  17.291  0.7830  0.2403  0.0184
  172MPD1     N 2681   3.373   4.058  17.588 -0.2377  0.6794 -0.3967
  172MPD1    H5 2682   3.416   4.144  17.553 -2.2256  1.6524 -0.4381
  172MPD1    N1 2683   3.375   3.570  17.554 -0.2458 -0.4866 -0.1569
  172MPD1    H6 2684   3.360   3.563  17.655 -1.2443 -0.7577 -0.3201
  172MPD1    H7 2685   3.443   3.502  17.521  0.8477  0.5235 -0.0013
  173MPD1     C 2686   4.362   4.532  13.551 -0.3070  0.0828  0.4332
  173MPD1    C1 2687   4.385   4.578  13.674 -0.7120  0.7129  0.3728
  173MPD1    C2 2688   4.351   4.494  13.783 -0.5491  0.6406 -0.0508
  173MPD1    C3 2689   4.290   4.371  13.761 -0.6503 -0.0229  0.6748
  173MPD1    C4 2690   4.277   4.324  13.630 -0.3015  0.6678 -0.2940
  173MPD1    C5 2691   4.318   4.404  13.528  0.1566 -0.0093 -0.0868
  173MPD1     H 2692   4.352   4.532  13.885  2.2104 -1.4176  0.6844
  173MPD1    H1 2693   4.227   4.230  13.608 -0.9002  1.0183 -0.4269
  173MPD1    H2 2694   4.379   4.593  13.463  1.1553  0.2993  0.8830
  173MPD1    H3 2695   4.304   4.379  13.423  0.0123 -1.4590  0.2791
  173MPD1     N 2696   4.257   4.294  13.872  0.4036  0.6098  0.6244
  173MPD1    H5 2697   4.291   4.330  13.961 -0.7849  0.2655  1.2155
  173MPD1    N1 2698   4.421   4.714  13.689 -0.7232  0.2355  0.4432
  173MPD1    H6 2699   4.459   0.002  13.780 -2.0856  0.1800  1.0396
  173MPD1    H7 2700   4.341   0.036  13.668 -1.3357 -1.5717 -2.3356
  174MPD1     C 2701   3.973   3.341  13.825 -0.2812  0.2155  0.0369
  174MPD1    C1 2702   4.046   3.348  13.937  0.0212  0.2341  0.2909
  174MPD1    C2 2703   4.070   3.471  13.986 -0.2733 -0.0087 -0.1758
  174MPD1    C3 2704   4.041   3.586  13.917  0.7109  0.3549  0.2713
  174MPD1    C4 2705   3.971   3.577  13.799 -0.0882  0.4231 -0.2480
  174MPD1    C5 2706   3.938   3.456  13.760 -0.8404  0.2252  0.1629
  174MPD1     H 2707   4.115   3.485  14.083 -0.9601 -1.8075  0.3933
  174MPD1    H1 2708   3.928   3.656  13.737 -2.2377 -0.9575 -0.5106
  174MPD1    H2 2709   3.946   3.243  13.788  0.0442  0.6931 -1.4518
  174MPD1    H3 2710   3.880   3.454  13.668  0.8274  0.9109 -0.9024
  174MPD1     N 2711   4.069   3.717  13.958  0.2113  0.2983  0.1838
  174MPD1    H5 2712   4.041   3.788  13.891 -0.2034  0.0803  0.1247
  174MPD1    N1 2713   4.062   3.231  14.017 -0.4514 -0.0379 -0.5262
  174MPD1    H6 2714   4.073   3.140  13.973 -5.0062 -0.7839 -0.1654
  174MPD1    H7 2715   4.141   3.238  14.081 -1.2353 -0.3594  0.4830
  175MPD1     C 2716   3.092   0.572  15.605 -0.4398 -0.2638  0.1425
  175MPD1    C1 2717   2.954   0.571  15.600 -0.2398 -0.6417 -0.0606
  175MPD1    C2 2718   2.892   0.533  15.718  0.1860  0.2878 -0.1169
  175MPD1    C3 2719   2.958   0.470  15.825  0.3267 -0.6214 -0.0999
  175MPD1    C4 2720   3.099   0.473  15.821  0.2629  0.2566 -0.3603
  175MPD1    C5 2721   3.157   0.529  15.711 -0.7030 -0.5023 -0.4757
  175MPD1     H 2722   2.784   0.534  15.726  0.0560  0.4733 -1.8885
  175MPD1    H1 2723   3.159   0.446  15.907  0.8073  0.8651 -0.5436
  175MPD1    H2 2724   3.147   0.616  15.522  1.1414 -0.6000  1.0074
  175MPD1    H3 2725   3.265   0.538  15.712 -0.5632 -2.3519 -0.1789
  175MPD1     N 2726   2.898   0.414  15.940  0.1285  0.8172  0.3906
  175MPD1    H5 2727   2.954   0.370  16.012 -1.3343 -0.4834  0.7200
  175MPD1    N1 2728   2.879   0.614  15.491 -0.6255  0.7022 -0.0949
  175MPD1    H6 2729   2.790   0.568  15.479  1.6466 -3.4393 -1.0759
  175MPD1    H7 2730   2.940   0.623  15.410 -0.5738  1.2228  0.0024
  176MPD1     C 2731   4.120   2.850  17.502 -0.1901  0.1544  0.0859
  176MPD1    C1 2732   4.222   2.872  17.416 -0.2992 -0.3157 -0.7621
  176MPD1    C2 2733   4.306   2.980  17.439 -0.0574  0.2696  0.0939
  176MPD1    C3 2734   4.317   3.039  17.560  0.3935  0.2772 -0.1569
  176MPD1    C4 2735   4.224   3.000  17.661 -0.8336 -0.7232  0.3427
  176MPD1    C5 2736   4.120   2.910  17.625  0.5225 -0.6421 -0.5027
  176MPD1     H 2737   4.372   3.007  17.357 -0.1475  1.3733  0.3851
  176MPD1    H1 2738   4.226   3.050   0.008 -0.8864  0.5278 -0.2989
  176MPD1    H2 2739   4.043   2.785  17.462 -0.9955  0.1407  1.6623
  176MPD1    H3 2740   4.039   2.894  17.696  0.1383 -1.9658 -1.2541
  176MPD1     N 2741   4.432   3.126  17.583  0.1316 -0.3410  0.0494
  176MPD1    H5 2742   4.481   3.150  17.497  0.1810 -1.3414 -0.1967
  176MPD1    N1 2743   4.224   2.810  17.289 -0.2647 -0.0547 -0.1230
  176MPD1    H6 2744   4.199   2.711  17.294  2.2097 -0.7038 -0.6914
  176MPD1    H7 2745   4.313   2.819  17.241  0.6220 -0.3242  1.4700
  177MPD1     C 2746   2.900   2.495  10.043  0.2770 -0.7457  0.0346
  177MPD1    C1 2747   2.936   2.608   9.967  0.1770  0.5287 -0.5039
  177MPD1    C2 2748   2.855   2.683   9.891 -0.3167 -0.4510  0.5936
  177MPD1    C3 2749   2.722   2.655   9.896  0.0352  0.0492 -0.4747
  177MPD1    C4 2750   2.684   2.548   9.980 -0.1725  0.5679  0.1235
  177MPD1    C5 2751   2.765   2.473  10.054  0.4451  0.3761  0.4632
  177MPD1     H 2752   2.905   2.755   9.828 -1.7345 -1.3466 -1.5740
  177MPD1    H1 2753   2.580   2.519   9.979  0.2349 -0.8577 -1.4442
  177MPD1    H2 2754   2.978   2.430  10.083 -0.9329 -2.5780 -0.5587
  177MPD1    H3 2755   2.736   2.385  10.110 -0.1452 -1.1928 -2.3311
  177MPD1     N 2756   2.633   2.728   9.812  0.1474 -0.3918 -0.0206
  177MPD1    H5 2757   2.669   2.806   9.758 -3.0894  0.2923 -1.1827
  177MPD1    N1 2758   3.073   2.637   9.959 -0.0249 -0.0411 -0.2844
  177MPD1    H6 2759   3.099   2.735   9.948 -2.3398  0.6769  0.6501
  177MPD1    H7 2760   3.107   2.613  10.052 -1.2457  1.9099  0.6667
  178MPD1     C 2761   0.058   3.029   0.084  0.5878  0.2655  0.0162
  178MPD1    C1 2762   0.129   3.143   0.094  0.1817 -0.1367 -0.2317
  178MPD1    C2 2763   0.218   3.178  17.744  0.3251  0.4403 -0.0329
  178MPD1    C3 2764   0.234   3.115  17.622  0.3046  0.0959  0.3363
  178MPD1    C4 2765   0.156   3.003  17.615  0.2306 -0.2477 -0.3311
  178MPD1    C5 2766   0.079   2.957  17.716 -0.3994  0.3358 -0.3281
  178MPD1     H 2767   0.288   3.255   0.024  0.9862 -0.5176  0.8514
  178MPD1    H1 2768   0.179   2.947  17.525  1.3992 -1.1593  0.5268
  178MPD1    H2 2769   4.722   2.990   0.153 -0.9561  1.2152 -1.1117
  178MPD1    H3 2770   0.032   2.860  17.703  0.5336 -0.2655  0.7775
  178MPD1     N 2771   0.311   3.151  17.506 -0.2785  0.1137 -1.2501
  178MPD1    H5 2772   0.306   3.084  17.429 -0.8313 -0.0711 -1.0564
  178MPD1    N1 2773   0.110   3.216   0.210 -0.1438  0.3191 -0.7366
  178MPD1    H6 2774   0.012   3.210   0.237  0.2341 -0.0560  0.5827
  178MPD1    H7 2775   0.130   3.313   0.187  2.0710 -0.2792 -1.3802
  179MPD1     C 2776   0.109   1.794  15.954 -0.5765  0.1547 -0.8252
  179MPD1    C1 2777   0.147   1.743  15.827  0.2076  0.1903 -0.8252
  179MPD1    C2 2778   0.116   1.606  15.801 -0.5994 -0.3306 -0.7331
  179MPD1    C3 2779   0.041   1.537  15.889 -0.4070 -0.4569 -0.7653
  179MPD1    C4 2780   4.733   1.592  16.003  0.4331 -0.1046 -0.1255
  179MPD1    C5 2781   0.037   1.716  16.040 -0.4728 -1.1292  0.1796
  179MPD1     H 2782   0.161   1.565  15.711 -0.7922  0.7690 -1.3290
  179MPD1    H1 2783   4.668   1.540  16.073 -0.9804 -2.3317 -3.0577
  179MPD1    H2 2784   0.145   1.891  15.985 -0.4731 -0.2321  0.2968
  179MPD1    H3 2785   0.008   1.757  16.136 -1.0078 -1.1193  0.0162
  179MPD1     N 2786   0.017   1.403  15.867  0.4552 -0.3011 -0.0656
  179MPD1    H5 2787   4.726   1.347  15.947  0.5007  1.0841  0.9208
  179MPD1    N1 2788   0.237   1.818  15.758  0.5780 -0.5802 -0.2193
  179MPD1    H6 2789   0.228   1.801  15.658 -0.5920  1.6588 -0.4951
  179MPD1    H7 2790   0.233   1.920  15.762 -0.4556 -0.6201 -0.2050
  180MPD1     C 2791   4.543   1.470  14.948 -1.1128  0.0861 -0.2954
  180MPD1    C1 2792   4.545   1.605  14.958  0.0891 -0.1894  0.1712
  180MPD1    C2 2793   4.440   1.686  14.905  0.0558  0.5301 -0.0273
  180MPD1    C3 2794   4.331   1.620  14.849 -0.0333 -0.3547 -0.6080
  180MPD1    C4 2795   4.319   1.485  14.858  0.4253  0.4411 -0.4570
  180MPD1    C5 2796   4.425   1.417  14.909 -0.1996 -0.1790  0.0237
  180MPD1     H 2797   4.449   1.793  14.894 -0.7188  0.4609 -1.3814
  180MPD1    H1 2798   4.228   1.432  14.832  0.9930 -0.5082 -0.5111
  180MPD1    H2 2799   4.623   1.404  14.980  0.1215  2.3776  1.3375
  180MPD1    H3 2800   4.415   1.310  14.914 -0.6859 -0.0076  2.7089
  180MPD1     N 2801   4.233   1.700  14.795 -1.1601  0.5754 -0.1260
  180MPD1    H5 2802   4.240   1.801  14.806 -0.2795  0.4454  0.4635
  180MPD1    N1 2803   4.665   1.664  14.983 -0.4395 -0.2340 -0.0047
  180MPD1    H6 2804   4.646   1.752  15.030 -1.3266 -0.1398 -0.5386
  180MPD1    H7 2805   4.730   1.608  15.038  1.9504  0.5556 -2.0084
  181MPD1     C 2806   0.903   0.272   9.739 -0.1731  0.6225  0.1169
  181MPD1    C1 2807   0.900   0.330   9.866  0.8872 -0.0672 -0.3111
  181MPD1    C2 2808   1.018   0.369   9.925  0.1919  0.0566 -0.6806
  181MPD1    C3 2809   1.134   0.367   9.850  0.0409  0.6166  0.2183
  181MPD1    C4 2810   1.138   0.313   9.723 -0.0563 -0.0485 -0.2587
  181MPD1    C5 2811   1.020   0.272   9.669 -0.2083 -0.3509 -0.2199
  181MPD1     H 2812   1.013   0.418  10.021  0.9739 -2.3221  0.5733
  181MPD1    H1 2813   1.229   0.320   9.665 -0.9677  3.0500 -1.2937
  181MPD1    H2 2814   0.814   0.224   9.701 -0.1121  1.3125 -0.9011
  181MPD1    H3 2815   1.017   0.242   9.565 -1.7657  0.7544 -0.4952
  181MPD1     N 2816   1.252   0.437   9.896 -0.1475  0.3665 -0.4469
  181MPD1    H5 2817   1.332   0.425   9.835  0.8671  3.5664  0.2391
  181MPD1    N1 2818   0.788   0.329   9.947  0.1887  0.4132 -0.5999
  181MPD1    H6 2819   0.712   0.344   9.881  2.1680 -0.6668 -3.1347
  181MPD1    H7 2820   0.793   0.412  10.005  0.7218 -0.6542  0.8851
  182MPD1     C 2821   3.049   4.062   1.507 -0.0993 -0.0423 -0.0271
  182MPD1    C1 2822   3.112   4.040   1.387 -0.3954  0.7394  0.1010
  182MPD1    C2 2823   3.043   4.053   1.263 -0.1623 -0.3256 -0.3508
  182MPD1    C3 2824   2.907   4.076   1.264 -0.0354  0.2205  0.2210
  182MPD1    C4 2825   2.847   4.098   1.386  0.6904  0.1063 -0.5129
  182MPD1    C5 2826   2.916   4.084   1.502 -0.2156 -0.9757 -0.2366
  182MPD1     H 2827   3.090   4.021   1.170  0.0395 -0.6440 -0.1385
  182MPD1    H1 2828   2.742   4.120   1.400  0.4864 -0.7005 -0.7751
  182MPD1    H2 2829   3.094   4.081   1.604  0.9448  2.8231 -1.0849
  182MPD1    H3 2830   2.862   4.107   1.593  0.1671  1.0959 -0.5511
  182MPD1     N 2831   2.819   4.075   1.151 -0.3117 -0.1137  0.9746
  182MPD1    H5 2832   2.722   4.104   1.165  0.1676  1.0127  1.9733
  182MPD1    N1 2833   3.247   4.020   1.384 -0.2602  0.0969  0.0475
  182MPD1    H6 2834   3.284   3.976   1.300 -0.1696  2.8015 -1.3049
  182MPD1    H7 2835   3.280   3.982   1.473  0.7553 -1.4294 -0.9745
  183MPD1     C 2836   2.876   3.760   8.950  0.2014  0.1375  0.5527
  183MPD1    C1 2837   2.789   3.863   8.942  0.3353 -0.2417  0.9728
  183MPD1    C2 2838   2.780   3.949   9.043  0.2605 -0.0410  0.0070
  183MPD1    C3 2839   2.857   3.931   9.155 -0.5699 -0.3227 -1.0950
  183MPD1    C4 2840   2.947   3.829   9.162  0.3061  0.1338 -0.6014
  183MPD1    C5 2841   2.953   3.742   9.060 -0.5177  0.3120  0.1551
  183MPD1     H 2842   2.727   4.043   9.043 -0.3272 -0.3735 -0.9182
  183MPD1    H1 2843   3.016   3.813   9.244  0.8458 -1.2795 -1.3398
  183MPD1    H2 2844   2.901   3.694   8.868  0.0210 -0.9099  1.3375
  183MPD1    H3 2845   3.017   3.655   9.069  1.3946  1.5865 -1.1530
  183MPD1     N 2846   2.849   4.034   9.253 -0.6390 -0.0738  0.7222
  183MPD1    H5 2847   2.791   4.114   9.229  1.0104  0.9227  0.0831
  183MPD1    N1 2848   2.708   3.880   8.828 -0.0311 -0.3353 -0.3454
  183MPD1    H6 2849   2.683   3.791   8.785  0.1002 -2.0001  3.0727
  183MPD1    H7 2850   2.639   3.955   8.829  2.5101  1.9610  1.1885
  184MPD1     C 2851   1.332   2.888  10.493 -0.3545 -0.7450 -0.2827
  184MPD1    C1 2852   1.298   2.812  10.385  0.1435  0.7318 -0.2936
  184MPD1    C2 2853   1.355   2.831  10.257 -0.0627  0.5017  0.2520
  184MPD1    C3 2854   1.450   2.921  10.238  0.0020  0.0443  0.1736
  184MPD1    C4 2855   1.491   2.992  10.346  0.0393  0.4307  0.1589
  184MPD1    C5 2856   1.434   2.977  10.474 -0.0688  0.2462 -0.3669
  184MPD1     H 2857   1.304   2.789  10.171  2.1664  0.3049 -0.9662
  184MPD1    H1 2858   1.568   3.068  10.340 -0.9861  1.4472 -0.1534
  184MPD1    H2 2859   1.297   2.868  10.594  0.2071 -1.0030 -0.1398
  184MPD1    H3 2860   1.468   3.039  10.557  0.3956 -0.3109 -0.1376
  184MPD1     N 2861   1.507   2.951  10.109 -0.3138 -0.7732 -0.2634
  184MPD1    H5 2862   1.593   3.005  10.109 -0.3137 -0.7819 -1.6286
  184MPD1    N1 2863   1.179   2.733  10.389 -0.0393 -0.2239  0.3984
  184MPD1    H6 2864   1.173   2.657  10.322 -0.2443 -0.3192  0.5264
  184MPD1    H7 2865   1.171   2.682  10.477 -0.0813 -1.4231 -0.2985
  185MPD1     C 2866   1.329   3.414   9.153 -0.1265 -0.2810  0.4720
  185MPD1    C1 2867   1.245   3.381   9.262  0.1933  0.4571  0.4912
  185MPD1    C2 2868   1.291   3.290   9.354  0.5794 -0.6755 -0.3485
  185MPD1    C3 2869   1.426   3.245   9.353 -0.4357  0.1046  0.5872
  185MPD1    C4 2870   1.496   3.276   9.239 -0.0811  0.5093 -0.7976
  185MPD1    C5 2871   1.453   3.356   9.140 -0.0810  0.2216  0.4938
  185MPD1     H 2872   1.231   3.266   9.440  2.3883 -1.2136  0.7678
  185MPD1    H1 2873   1.598   3.240   9.226 -0.3017 -0.3387 -0.1845
  185MPD1    H2 2874   1.288   3.478   9.075 -0.8768  0.7795  1.7437
  185MPD1    H3 2875   1.514   3.384   9.055  1.2490  0.6092  1.5660
  185MPD1     N 2876   1.483   3.156   9.456 -0.4170  0.2683  0.3493
  185MPD1    H5 2877   1.572   3.113   9.434 -1.0337 -0.7559 -0.1689
  185MPD1    N1 2878   1.112   3.429   9.266 -1.3484 -0.3852 -0.1771
  185MPD1    H6 2879   1.063   3.423   9.354 -0.7208 -0.9660  0.1297
  185MPD1    H7 2880   1.094   3.514   9.211 -1.6106 -0.9623 -0.9864
  186MPD1     C 2881   0.429   1.063  15.950 -0.3528  0.6774  0.2608
  186MPD1    C1 2882   0.382   1.069  16.081 -0.5834  0.3871 -0.2200
  186MPD1    C2 2883   0.357   1.192  16.136 -0.5559  0.5287 -0.0611
  186MPD1    C3 2884   0.368   1.308  16.062  0.2733  0.2065  0.4597
  186MPD1    C4 2885   0.414   1.302  15.930 -1.0114  0.0315  0.6546
  186MPD1    C5 2886   0.439   1.179  15.876 -0.1778 -0.3661 -0.0314
  186MPD1     H 2887   0.338   1.195  16.243 -0.6906  0.0098 -0.0707
  186MPD1    H1 2888   0.418   1.392  15.870 -0.1519 -0.0975  0.5168
  186MPD1    H2 2889   0.458   0.970  15.903 -3.1213 -0.2919  0.4857
  186MPD1    H3 2890   0.488   1.182  15.780 -0.2760 -5.6778 -0.2046
  186MPD1     N 2891   0.317   1.434  16.114  0.2142  0.0586 -0.6440
  186MPD1    H5 2892   0.331   1.516  16.055 -0.7192 -0.1505 -1.1635
  186MPD1    N1 2893   0.373   0.952  16.153  0.1855 -0.3143 -0.1126
  186MPD1    H6 2894   0.298   0.953  16.223 -0.2633 -0.1397 -0.5969
  186MPD1    H7 2895   0.381   0.861  16.108 -1.7632 -0.4203 -0.2412
  187MPD1     C 2896   0.105   4.223   0.132 -0.3336 -0.3532 -0.3437
  187MPD1    C1 2897   0.079   4.088   0.135 -0.0314  0.0581  0.4020
  187MPD1    C2 2898   0.071   4.018   0.019 -0.3793  0.4059  0.2633
  187MPD1    C3 2899   0.094   4.087  17.649 -0.0905  0.5549  0.4225
  187MPD1    C4 2900   0.130   4.216  17.649  1.0557  0.2069 -0.2762
  187MPD1    C5 2901   0.120   4.285   0.016 -0.6090  0.0316  0.7105
  187MPD1     H 2902   0.046   3.913   0.026  0.7850  0.0363 -0.8902
  187MPD1    H1 2903   0.153   4.274  17.560  0.5008  1.4289  0.3703
  187MPD1    H2 2904   0.104   4.286   0.220 -2.1154 -0.4743 -0.2711
  187MPD1    H3 2905   0.142   4.391   0.010  1.0755 -0.4341 -1.3692
  187MPD1     N 2906   0.091   4.022  17.521  0.0964  0.3655 -0.2389
  187MPD1    H5 2907   0.130   4.080  17.447 -2.0063  0.1988 -1.4697
  187MPD1    N1 2908   0.038   4.035   0.258 -0.6985 -0.3204  0.0819
  187MPD1    H6 2909   0.093   4.080   0.331  0.8783 -0.0891 -1.2455
  187MPD1    H7 2910   0.071   3.939   0.265 -1.2437 -0.4331  1.0184
  188MPD1     C 2911   4.410   3.822  10.476  0.3445 -0.1520  0.1951
  188MPD1    C1 2912   4.424   3.779  10.349  0.2372 -0.0478  0.1755
  188MPD1    C2 2913   4.419   3.644  10.321  0.2279  0.9122 -0.2374
  188MPD1    C3 2914   4.383   3.556  10.424  0.3336 -0.3971 -0.0695
  188MPD1    C4 2915   4.355   3.606  10.556  0.4133  0.0180  0.3493
  188MPD1    C5 2916   4.385   3.736  10.578  0.9038  0.5006  0.2820
  188MPD1     H 2917   4.436   3.620  10.217 -0.2549 -0.8488  0.0844
  188MPD1    H1 2918   4.345   3.537  10.640 -3.0174  2.0355  1.6046
  188MPD1    H2 2919   4.434   3.922  10.508 -0.6168  1.0340 -2.7556
  188MPD1    H3 2920   4.387   3.777  10.678 -1.9324 -1.0831  0.9975
  188MPD1     N 2921   4.382   3.413  10.407 -0.1701 -0.0564 -0.1248
  188MPD1    H5 2922   4.321   3.361  10.469 -1.7788  2.3192  0.2815
  188MPD1    N1 2923   4.467   3.873  10.257  0.6893 -0.3117 -0.1912
  188MPD1    H6 2924   4.410   3.868  10.173  1.1648 -0.0494 -0.5343
  188MPD1    H7 2925   4.461   3.971  10.284 -0.0324 -0.1378 -0.9831
  189MPD1     C 2926   1.596   4.259   0.385  0.2888 -0.0450  0.0589
  189MPD1    C1 2927   1.469   4.221   0.411 -0.4500 -0.0210  0.0953
  189MPD1    C2 2928   1.370   4.311   0.395 -0.1289 -0.6635  0.0526
  189MPD1    C3 2929   1.393   4.442   0.360  0.1647  0.5005 -0.3845
  189MPD1    C4 2930   1.519   4.475   0.322  0.6816 -0.6350  0.5711
  189MPD1    C5 2931   1.620   4.386   0.328 -0.6120 -0.4405 -0.1909
  189MPD1     H 2932   1.267   4.282   0.416 -0.6027  1.9042  1.3796
  189MPD1    H1 2933   1.538   4.569   0.271 -1.5257 -1.1287 -1.1750
  189MPD1    H2 2934   1.681   4.198   0.413  0.4229  0.4212  0.6649
  189MPD1    H3 2935   1.717   4.415   0.290  0.6350 -1.6426  2.1399
  189MPD1     N 2936   1.280   4.525   0.345 -0.0428 -0.1391 -0.8071
  189MPD1    H5 2937   1.190   4.492   0.377 -0.1534  0.5708 -0.3733
  189MPD1    N1 2938   1.443   4.082   0.418  0.1941  0.1818 -0.4923
  189MPD1    H6 2939   1.357   4.061   0.469 -0.7585  3.0223 -0.8899
  189MPD1    H7 2940   1.518   4.039   0.471  1.0289  1.3477 -0.7335
  190MPD1     C 2941   4.717   3.059  14.958  0.8589 -0.0676  0.4147
  190MPD1    C1 2942   0.110   3.068  14.998 -0.1506  0.3526 -0.2504
  190MPD1    C2 2943   0.151   2.973  15.091  0.0641  0.9141 -1.1434
  190MPD1    C3 2944   0.065   2.908  15.174 -0.4096  0.6588 -0.6431
  190MPD1    C4 2945   4.671   2.930  15.154 -0.4537  0.4214 -0.4978
  190MPD1    C5 2946   4.630   2.997  15.044  0.6290  0.3874 -0.2592
  190MPD1     H 2947   0.256   2.960  15.117 -0.7398 -0.3726  1.4611
  190MPD1    H1 2948   4.600   2.878  15.218 -1.3271  2.2892  0.0711
  190MPD1    H2 2949   4.676   3.126  14.883 -0.3265 -1.1978  0.0623
  190MPD1    H3 2950   4.523   3.013  15.030  0.1451 -2.0273  0.7101
  190MPD1     N 2951   0.125   2.821  15.276  0.2436 -0.0704 -0.2377
  190MPD1    H5 2952   0.225   2.807  15.271 -0.2634 -2.9111 -2.7870
  190MPD1    N1 2953   0.210   3.132  14.917 -0.5281 -0.5725  0.1244
  190MPD1    H6 2954   0.193   3.224  14.879 -2.5169 -0.2653  1.7900
  190MPD1    H7 2955   0.306   3.134  14.952 -0.0671 -0.7383 -1.1537
  191MPD1     C 2956   3.485   4.229  13.362 -0.5030  0.2195 -0.0982
  191MPD1    C1 2957   3.466   4.359  13.400 -0.1125 -0.8682  0.2402
  191MPD1    C2 2958   3.546   4.459  13.336 -0.2276  0.1151 -0.4828
  191MPD1    C3 2959   3.633   4.426  13.232 -0.2731 -0.3943 -0.1088
  191MPD1    C4 2960   3.652   4.294  13.192 -0.0270  0.3069  0.0371
  191MPD1    C5 2961   3.567   4.201  13.253  0.8589  0.8791 -1.0237
  191MPD1     H 2962   3.533   4.563  13.364  0.0253 -0.4670  1.7897
  191MPD1    H1 2963   3.707   4.261  13.104 -0.4771  1.3612 -0.6449
  191MPD1    H2 2964   3.431   4.151  13.414  2.3512 -1.6427  0.0636
  191MPD1    H3 2965   3.559   4.099  13.217 -4.6709  0.8479  0.3664
  191MPD1     N 2966   3.701   4.526  13.158  0.2709 -0.3445 -0.0057
  191MPD1    H5 2967   3.665   4.620  13.161 -2.1420 -1.2261 -1.4084
  191MPD1    N1 2968   3.379   4.399  13.503  0.2130 -0.3284  0.6171
  191MPD1    H6 2969   3.390   4.348  13.590  1.7887  2.1858  1.8983
  191MPD1    H7 2970   3.384   4.499  13.521 -0.7814 -0.2458  0.4597
  192MPD1     C 2971   3.407   0.560  12.617 -0.3564  0.1751  0.0909
  192MPD1    C1 2972   3.396   0.514  12.749 -0.8701  0.2370  0.1209
  192MPD1    C2 2973   3.486   0.427  12.806 -0.8367 -0.4740  0.4766
  192MPD1    C3 2974   3.594   0.372  12.733  0.5694 -0.3396  0.3027
  192MPD1    C4 2975   3.610   0.427  12.606 -0.5618  0.3686  0.6036
  192MPD1    C5 2976   3.530   0.528  12.555 -0.1205  0.0668 -0.2215
  192MPD1     H 2977   3.461   0.387  12.904 -1.0205 -1.0178  0.2031
  192MPD1    H1 2978   3.683   0.382  12.540 -0.1765  0.5851  0.8835
  192MPD1    H2 2979   3.337   0.619  12.559  0.6724 -1.0676 -2.4614
  192MPD1    H3 2980   3.543   0.566  12.455  0.5942  0.8219  0.1631
  192MPD1     N 2981   3.677   0.265  12.769  0.1305 -0.0744 -0.5278
  192MPD1    H5 2982   3.746   0.230  12.702  0.4951 -0.3036 -0.0337
  192MPD1    N1 2983   3.278   0.545  12.812  0.0008  0.3744 -0.5106
  192MPD1    H6 2984   3.227   0.624  12.773 -1.1089 -0.1003 -0.0212
  192MPD1    H7 2985   3.268   0.549  12.913 -1.5945 -1.5470 -0.5932
  193MPD1     C 2986   3.653   4.601  16.961 -0.1250 -0.4330  0.4424
  193MPD1    C1 2987   3.556   4.688  16.912  0.0680 -0.5831  0.3419
  193MPD1    C2 2988   3.600   0.061  16.836 -0.6737 -0.2729 -0.0797
  193MPD1    C3 2989   3.734   0.068  16.796 -0.2999 -0.1848 -0.3130
  193MPD1    C4 2990   3.827   4.723  16.853  0.4494 -0.6840  0.4674
  193MPD1    C5 2991   3.782   4.622  16.940  0.1355  0.2574  0.3299
  193MPD1     H 2992   3.534   0.142  16.806 -1.7226 -0.4739  1.7494
  193MPD1    H1 2993   3.935   4.732  16.841  0.5884 -0.8767  1.5991
  193MPD1    H2 2994   3.625   4.523  17.031 -0.4068 -0.9196 -0.2199
  193MPD1    H3 2995   3.863   4.563  16.981  1.1586  0.4999 -1.3730
  193MPD1     N 2996   3.789   0.165  16.710  0.3776 -0.3676 -0.2551
  193MPD1    H5 2997   3.889   0.162  16.692 -0.0030 -2.0588 -1.9909
  193MPD1    N1 2998   3.429   4.678  16.962 -0.4037 -0.6532 -0.1647
  193MPD1    H6 2999   3.367   4.701  16.885  1.3481  1.1806 -1.0373
  193MPD1    H7 3000   3.406   4.582  16.988 -2.3928 -0.4837 -1.2804
  194MPD1     C 3001   2.706   2.114  16.661  0.5965 -0.0309  0.1122
  194MPD1    C1 3002   2.712   2.178  16.783 -0.4755  0.0239  0.4200
  194MPD1    C2 3003   2.646   2.132  16.895 -0.2306 -0.0370  0.2913
  194MPD1    C3 3004   2.551   2.029  16.876  0.1974  0.0205 -0.2402
  194MPD1    C4 3005   2.529   1.970  16.755 -0.3936  0.2951  0.3439
  194MPD1    C5 3006   2.613   2.013  16.650  0.0317  0.6737 -0.1087
  194MPD1     H 3007   2.668   2.178  16.991  0.5623 -2.5860  1.3449
  194MPD1    H1 3008   2.454   1.892  16.743  0.9692 -1.3268  2.2361
  194MPD1    H2 3009   2.770   2.130  16.575  2.7127  0.3886  1.7747
  194MPD1    H3 3010   2.602   1.963  16.555 -0.0601  0.6397 -0.0796
  194MPD1     N 3011   2.472   1.976  16.976 -0.5281 -0.9072  0.2767
  194MPD1    H5 3012   2.407   1.900  16.959  1.8831 -3.1377  1.0774
  194MPD1    N1 3013   2.826   2.267  16.804  0.4237  0.2091 -0.7141
  194MPD1    H6 3014   2.816   2.335  16.879 -2.6349 -0.3264 -0.6276
  194MPD1    H7 3015   2.848   2.317  16.718 -0.6336  0.9089 -0.5789
  195MPD1     C 3016   4.092   0.005   0.628 -1.2066  0.0564 -0.6819
  195MPD1    C1 3017   3.979   4.683   0.594 -0.4402 -0.2583  0.1697
  195MPD1    C2 3018   3.975   4.552   0.612  0.3818 -0.3258  0.2922
  195MPD1    C3 3019   4.082   4.477   0.663  0.8587  0.2045 -0.1615
  195MPD1    C4 3020   4.195   4.544   0.699  0.1281  0.1559 -0.2547
  195MPD1    C5 3021   4.195   4.679   0.678  0.2005 -0.1875  0.2131
  195MPD1     H 3022   3.889   4.497   0.575  0.0794 -0.5885  1.3856
  195MPD1    H1 3023   4.287   4.497   0.734  0.2826 -0.1906 -1.1310
  195MPD1    H2 3024   4.095   0.110   0.604 -1.5182  0.7832  2.4131
  195MPD1    H3 3025   4.279   0.004   0.705 -0.6279 -0.1073  2.6414
  195MPD1     N 3026   4.089   4.338   0.683  0.0632 -0.6276 -0.0778
  195MPD1    H5 3027   4.181   4.299   0.700  1.3711  2.1146 -0.9785
  195MPD1    N1 3028   3.867   0.012   0.538 -0.0018  0.3047  0.0193
  195MPD1    H6 3029   3.771   4.726   0.561 -0.5119  1.8851 -0.4388
  195MPD1    H7 3030   3.885   0.112   0.541  2.3735 -0.1831  2.0867
  196MPD1     C 3031   2.868   3.206   0.803 -0.1471  0.1775 -0.1931
  196MPD1    C1 3032   2.899   3.317   0.883  0.7211 -0.0486  0.3294
  196MPD1    C2 3033   3.019   3.384   0.857 -0.2379 -0.5971 -0.3439
  196MPD1    C3 3034   3.100   3.351   0.747 -0.2591  0.5249 -0.1302
  196MPD1    C4 3035   3.070   3.237   0.680  0.4790 -0.5460  0.4154
  196MPD1    C5 3036   2.953   3.167   0.702 -0.2271 -0.5487  0.2184
  196MPD1     H 3037   3.038   3.470   0.921 -2.2413  0.5687 -1.3213
  196MPD1    H1 3038   3.128   3.203   0.595 -0.5777  1.0203 -0.9227
  196MPD1    H2 3039   2.778   3.151   0.828 -0.3015  0.5607  0.0990
  196MPD1    H3 3040   2.920   3.100   0.624  0.7746  0.3764 -0.9890
  196MPD1     N 3041   3.224   3.418   0.734  0.4994  0.0066  0.3741
  196MPD1    H5 3042   3.288   3.386   0.662 -0.2683  0.3472 -0.4667
  196MPD1    N1 3043   2.825   3.338   1.005 -0.5181 -0.5803 -0.2170
  196MPD1    H6 3044   2.724   3.348   0.999 -0.3755 -0.2929 -2.0625
  196MPD1    H7 3045   2.870   3.418   1.049  1.3673 -0.8165 -1.7114
  197MPD1     C 3046   2.723   0.748   0.137  0.3245 -0.2099 -0.1779
  197MPD1    C1 3047   2.655   0.865   0.138 -0.1840 -0.1126  1.0039
  197MPD1    C2 3048   2.673   0.943   0.024  0.0177  0.6670 -0.2576
  197MPD1    C3 3049   2.750   0.896  17.661  0.6035  0.6704 -0.3427
  197MPD1    C4 3050   2.821   0.784  17.676  0.5633  0.3968 -0.0425
  197MPD1    C5 3051   2.801   0.707   0.035  0.1784 -0.5092  0.8606
  197MPD1     H 3052   2.624   1.040   0.017  0.3527  0.8457 -0.1396
  197MPD1    H1 3053   2.881   0.738  17.598  0.0896 -2.0547  1.0538
  197MPD1    H2 3054   2.718   0.677   0.219  2.3047 -1.8333 -1.4643
  197MPD1    H3 3055   2.847   0.609   0.033 -0.6803 -0.8979 -0.0978
  197MPD1     N 3056   2.767   0.968  17.537 -0.1271  0.1223 -0.0066
  197MPD1    H5 3057   2.828   0.925  17.468  0.4327  0.6843  0.1399
  197MPD1    N1 3058   2.586   0.915   0.253 -0.1541  0.3713 -0.3494
  197MPD1    H6 3059   2.504   0.968   0.222 -0.2852  0.2074 -0.2840
  197MPD1    H7 3060   2.545   0.847   0.318  0.3647 -0.2383 -0.6631
  198MPD1     C 3061   0.191   3.413  15.624 -0.4331  0.3899  0.9078
  198MPD1    C1 3062   0.319   3.440  15.672 -0.0800 -0.1549 -0.2473
  198MPD1    C2 3063   0.333   3.557  15.733 -0.0449  0.6006 -0.0378
  198MPD1    C3 3064   0.225   3.640  15.773 -0.0336  0.0357  1.0310
  198MPD1    C4 3065   0.097   3.606  15.742 -0.2363 -0.5248 -0.4536
  198MPD1    C5 3066   0.082   3.488  15.668  0.0083  0.6102 -0.4379
  198MPD1     H 3067   0.434   3.591  15.753  0.7312 -0.4046 -2.2946
  198MPD1    H1 3068   0.015   3.666  15.781  0.7900 -0.0408  0.9651
  198MPD1    H2 3069   0.179   3.332  15.553 -2.3146  0.5314  1.0707
  198MPD1    H3 3070   4.725   3.464  15.623  0.3569 -0.7828 -0.4290
  198MPD1     N 3071   0.261   3.761  15.833  0.4181 -0.7397  0.1429
  198MPD1    H5 3072   0.360   3.777  15.849  0.4370 -1.1413  0.4291
  198MPD1    N1 3073   0.428   3.376  15.621 -0.1827 -0.0077 -0.2503
  198MPD1    H6 3074   0.396   3.279  15.630  0.8088 -0.2014  1.2350
  198MPD1    H7 3075   0.521   3.381  15.663 -0.5941  1.8564  0.4399
  199MPD1     C 3076   2.462   1.161  10.089 -0.1081 -0.1142 -0.0943
  199MPD1    C1 3077   2.384   1.251  10.153 -0.8380 -0.0745 -0.2639
  199MPD1    C2 3078   2.253   1.259  10.112 -0.0903  0.0742  0.2497
  199MPD1    C3 3079   2.198   1.162  10.034  0.7509  0.1436 -0.5807
  199MPD1    C4 3080   2.278   1.052   9.999  0.2448 -0.0282  1.3022
  199MPD1    C5 3081   2.411   1.063  10.018  0.0264  0.4796 -0.2020
  199MPD1     H 3082   2.196   1.341  10.154 -1.4668 -0.7595  0.0191
  199MPD1    H1 3083   2.240   0.969   9.940  1.0553  0.7575 -0.3051
  199MPD1    H2 3084   2.570   1.170  10.092 -0.2675  1.1952  1.7552
  199MPD1    H3 3085   2.479   0.990   9.974 -0.7449 -0.2895 -0.1285
  199MPD1     N 3086   2.065   1.152   9.989 -0.0877  0.2337  0.2293
  199MPD1    H5 3087   2.034   1.072   9.935 -0.0336  0.3082  0.0872
  199MPD1    N1 3088   2.448   1.360  10.214 -0.2691  0.9702 -0.1190
  199MPD1    H6 3089   2.383   1.402  10.281 -0.1213 -1.7819  1.7433
  199MPD1    H7 3090   2.524   1.334  10.276  0.2822  2.3339 -0.2453
  200MPD1     C 3091   1.077   4.693  15.559 -0.4072  0.9491 -0.4233
  200MPD1    C1 3092   0.983   4.630  15.492  0.2347  0.3085 -0.5315
  200MPD1    C2 3093   0.955   4.674  15.363  0.3230  0.1672 -0.3040
  200MPD1    C3 3094   1.036   0.027  15.295 -0.3134  0.2254 -0.3002
  200MPD1    C4 3095   1.131   0.096  15.375  0.6136  0.9467 -0.5403
  200MPD1    C5 3096   1.155   0.049  15.503  0.1422 -0.1561 -0.1854
  200MPD1     H 3097   0.873   4.640  15.301  0.5211 -0.5177 -0.1885
  200MPD1    H1 3098   1.198   0.173  15.338 -2.6343  2.4358 -3.3128
  200MPD1    H2 3099   1.111   4.654  15.654  0.9426 -0.0827 -1.3192
  200MPD1    H3 3100   1.227   0.096  15.568  0.3270  1.2966 -1.4462
  200MPD1     N 3101   1.029   0.052  15.151 -0.2064  0.5126 -0.2913
  200MPD1    H5 3102   0.940   0.034  15.105 -0.4743  2.2229 -0.4383
  200MPD1    N1 3103   0.903   4.543  15.567  0.7403  0.3196 -0.5775
  200MPD1    H6 3104   0.865   4.473  15.504  2.1353  0.5534 -1.6656
  200MPD1    H7 3105   0.959   4.501  15.641 -1.6281  1.3541  1.8184
  201MPD1     C 3106   2.624   3.564  13.386  0.4548 -0.6758 -0.0120
  201MPD1    C1 3107   2.649   3.598  13.255 -0.1196 -0.2535  0.3778
  201MPD1    C2 3108   2.780   3.619  13.212 -0.6426  0.0149  0.1019
  201MPD1    C3 3109   2.884   3.596  13.300 -1.0148  0.2826  0.1794
  201MPD1    C4 3110   2.858   3.559  13.428  0.5978  0.3554 -1.0741
  201MPD1    C5 3111   2.728   3.545  13.471  0.3962 -0.3129 -0.3065
  201MPD1     H 3112   2.806   3.621  13.107  0.1487 -2.0584  0.2473
  201MPD1    H1 3113   2.935   3.524  13.495 -0.2282  0.5376 -0.0332
  201MPD1    H2 3114   2.525   3.545  13.426  0.4741 -0.2228  0.2484
  201MPD1    H3 3115   2.702   3.512  13.571  0.2915  1.7710  0.3491
  201MPD1     N 3116   3.010   3.577  13.244 -0.5894 -0.2119 -0.0432
  201MPD1    H5 3117   3.025   3.616  13.151 -2.3259 -3.0476 -1.5176
  201MPD1    N1 3118   2.540   3.618  13.175  0.4069  0.5444  0.3826
  201MPD1    H6 3119   2.553   3.599  13.076  1.6858 -0.9775  0.8506
  201MPD1    H7 3120   2.464   3.563  13.217  1.9127 -2.1262 -0.3726
  202MPD1     C 3121   4.502   4.267  10.378  0.0417 -0.2815 -0.1620
  202MPD1    C1 3122   4.397   4.301  10.464  0.0196 -0.5041 -0.0970
  202MPD1    C2 3123   4.278   4.329  10.396  0.8875  0.4153 -0.2519
  202MPD1    C3 3124   4.246   4.249  10.288 -0.1908 -0.6458 -0.4629
  202MPD1    C4 3125   4.344   4.177  10.224 -0.7644  0.0514  0.5361
  202MPD1    C5 3126   4.475   4.208  10.260  0.2519 -0.0351 -0.1167
  202MPD1     H 3127   4.195   4.374  10.449 -0.1384  3.0565 -4.1225
  202MPD1    H1 3128   4.325   4.125  10.130  0.9864 -1.8156  1.2302
  202MPD1    H2 3129   4.608   4.268  10.404 -0.4976 -2.6231  2.0877
  202MPD1    H3 3130   4.556   4.170  10.199  0.4032  0.3769 -0.1736
  202MPD1     N 3131   4.111   4.229  10.243 -0.0522 -0.2529  0.0103
  202MPD1    H5 3132   4.100   4.159  10.170  0.4156  0.5137 -0.7914
  202MPD1    N1 3133   4.433   4.374  10.573  0.5399 -0.0185 -0.6902
  202MPD1    H6 3134   4.356   4.380  10.639 -0.0855 -1.2684 -1.3018
  202MPD1    H7 3135   4.508   4.329  10.626 -0.7069 -0.9047  0.3017
  203MPD1     C 3136   1.392   4.007  12.526  0.1177  0.1343 -0.0819
  203MPD1    C1 3137   1.448   3.911  12.442  0.7064  0.0020  0.1481
  203MPD1    C2 3138   1.571   3.867  12.463 -0.2143 -0.1763  0.0961
  203MPD1    C3 3139   1.647   3.912  12.570 -0.8347  0.2162  0.0406
  203MPD1    C4 3140   1.596   4.017  12.645 -0.3123 -0.2281  0.0217
  203MPD1    C5 3141   1.470   4.063  12.624 -0.6410  0.1283  0.3536
  203MPD1     H 3142   1.611   3.785  12.404 -2.7190 -0.4902 -1.1360
  203MPD1    H1 3143   1.655   4.066  12.721  0.8042 -0.4505 -0.7059
  203MPD1    H2 3144   1.294   4.053  12.517  0.6506  1.6369  1.6939
  203MPD1    H3 3145   1.432   4.149  12.677  1.7223  1.1076  0.4663
  203MPD1     N 3146   1.765   3.842  12.597  0.2455 -0.3110  0.1339
  203MPD1    H5 3147   1.791   3.771  12.531  2.1787  0.3879  0.1468
  203MPD1    N1 3148   1.360   3.852  12.355 -0.6192 -0.5000 -0.8228
  203MPD1    H6 3149   1.399   3.786  12.288 -1.0455 -1.1595 -0.4221
  203MPD1    H7 3150   1.288   3.919  12.329 -0.9070 -0.1032  1.0033
  204MPD1     C 3151   1.246   1.077  17.529  1.0885 -0.7436 -0.5438
  204MPD1    C1 3152   1.357   1.120  17.458  0.6775 -0.2720  0.4126
  204MPD1    C2 3153   1.463   1.031  17.431 -0.0433  0.6139 -0.4951
  204MPD1    C3 3154   1.453   0.902  17.476  0.1352  0.3230  0.1733
  204MPD1    C4 3155   1.336   0.856  17.534 -0.3317 -0.3394 -0.3011
  204MPD1    C5 3156   1.239   0.948  17.564 -0.2785 -0.7834 -0.5456
  204MPD1     H 3157   1.551   1.067  17.379 -0.2725  1.4871 -0.2823
  204MPD1    H1 3158   1.309   0.757  17.570  2.8256 -0.5883  1.3660
  204MPD1    H2 3159   1.165   1.144  17.554  1.1734 -1.3920  1.4471
  204MPD1    H3 3160   1.162   0.918  17.634 -0.8536  2.0425  0.0116
  204MPD1     N 3161   1.556   0.812  17.438 -0.0386  0.6168 -0.7385
  204MPD1    H5 3162   1.618   0.860  17.374  1.8575  0.6152  1.0998
  204MPD1    N1 3163   1.371   1.246  17.397 -0.5447 -0.2088  0.3866
  204MPD1    H6 3164   1.465   1.271  17.366 -1.0082  1.6244  0.4199
  204MPD1    H7 3165   1.333   1.318  17.458  0.1821 -0.3497  1.0104
  205MPD1     C 3166   2.401   4.349  16.760  0.1659  0.0532 -0.5271
  205MPD1    C1 3167   2.377   4.219  16.792 -0.2642  0.2697 -0.0891
  205MPD1    C2 3168   2.270   4.192  16.869 -0.4033  0.2718  0.6405
  205MPD1    C3 3169   2.173   4.288  16.894  0.1348  0.5410  0.8293
  205MPD1    C4 3170   2.200   4.419  16.854  0.3946 -0.1852 -0.5546
  205MPD1    C5 3171   2.317   4.450  16.795  0.0858 -0.2103  0.0012
  205MPD1     H 3172   2.264   4.093  16.913  0.0926  0.6720  1.6307
  205MPD1    H1 3173   2.140   4.506  16.878 -0.5826 -0.9162 -0.3687
  205MPD1    H2 3174   2.490   4.387  16.711  0.0915 -0.0727 -0.7622
  205MPD1    H3 3175   2.345   4.553  16.772  2.3527 -0.0687  3.3517
  205MPD1     N 3176   2.056   4.275  16.973 -0.0733 -0.2688 -0.0710
  205MPD1    H5 3177   2.003   4.359  16.994 -0.8989 -1.0556  1.0111
  205MPD1    N1 3178   2.472   4.122  16.774 -0.0760 -0.3219 -0.6294
  205MPD1    H6 3179   2.536   4.142  16.698 -0.1334  1.2373 -0.2721
  205MPD1    H7 3180   2.439   4.028  16.755  0.9547 -0.6261 -0.9105
  206MPD1     C 3181   2.191   2.018  16.614  0.6128  0.0489  0.2315
  206MPD1    C1 3182   2.063   2.067  16.637 -0.3898 -0.3616  0.5920
  206MPD1    C2 3183   1.975   2.053  16.528  0.2651 -0.8384  0.2226
  206MPD1    C3 3184   2.006   1.971  16.417 -0.1744  0.2995 -0.2376
  206MPD1    C4 3185   2.131   1.906  16.411  0.7968 -0.6157  0.0285
  206MPD1    C5 3186   2.224   1.942  16.502 -0.8006 -0.1063  0.0328
  206MPD1     H 3187   1.887   2.115  16.536 -0.6252 -2.2169  1.0911
  206MPD1    H1 3188   2.163   1.853  16.322  1.9373 -1.4419  0.9273
  206MPD1    H2 3189   2.278   2.044  16.673  1.1151 -1.0367 -0.0409
  206MPD1    H3 3190   2.325   1.919  16.472 -1.1985  1.4607 -2.5145
  206MPD1     N 3191   1.927   1.955  16.297 -0.2686 -0.1695 -0.1333
  206MPD1    H5 3192   1.975   1.901  16.225  0.6822 -0.4377  0.6933
  206MPD1    N1 3193   2.044   2.164  16.731 -0.0629  0.1743 -0.0528
  206MPD1    H6 3194   2.100   2.149  16.815 -1.1233 -0.7223  0.4795
  206MPD1    H7 3195   1.946   2.160  16.759  0.4144 -3.1105  1.1538
  207MPD1     C 3196   4.606   1.771   9.555  0.3833 -0.5069  0.2960
  207MPD1    C1 3197   4.694   1.821   9.641  0.0401  0.1229  1.1327
  207MPD1    C2 3198   4.734   1.731   9.743 -1.1435 -0.6484  0.4378
  207MPD1    C3 3199   4.658   1.622   9.781  0.1552  0.3489  1.5125
  207MPD1    C4 3200   4.543   1.595   9.701 -0.4782  0.8378  0.6010
  207MPD1    C5 3201   4.532   1.660   9.583 -0.4250 -0.2011 -0.3453
  207MPD1     H 3202   0.081   1.759   9.803 -0.2895 -0.1287 -1.0144
  207MPD1    H1 3203   4.484   1.507   9.725  2.6102 -1.4141 -0.0818
  207MPD1    H2 3204   4.584   1.830   9.467  0.3659 -0.1266  0.5564
  207MPD1    H3 3205   4.453   1.631   9.515 -0.9818  0.2029  0.1361
  207MPD1     N 3206   4.683   1.546   9.890 -0.2368 -0.0071 -0.9363
  207MPD1    H5 3207   4.607   1.482   9.908 -0.6922  0.8334  0.1233
  207MPD1    N1 3208   0.035   1.931   9.609  0.1111  0.3906  0.5657
  207MPD1    H6 3209   4.734   2.001   9.546  1.5732  0.3040 -0.4438
  207MPD1    H7 3210   0.071   1.970   9.696  1.5895 -1.6346  0.8446
  208MPD1     C 3211   2.520   3.690  16.861 -0.5534  0.1367  0.2958
  208MPD1    C1 3212   2.495   3.561  16.910  0.0843  0.1826  0.5269
  208MPD1    C2 3213   2.504   3.547  17.052  0.1116  1.1933 -0.2004
  208MPD1    C3 3214   2.562   3.640  17.136  0.1283 -0.3617 -0.4034
  208MPD1    C4 3215   2.601   3.762  17.080 -0.2097 -0.1378  0.2317
  208MPD1    C5 3216   2.565   3.785  16.947 -0.3562  0.4025 -0.1513
  208MPD1     H 3217   2.480   3.452  17.097  1.7648 -0.3150 -2.5183
  208MPD1    H1 3218   2.619   3.846  17.147 -4.1227  0.0067  1.0683
  208MPD1    H2 3219   2.509   3.725  16.759  2.2525  0.1664 -0.0010
  208MPD1    H3 3220   2.583   3.885  16.910 -2.8849  0.7983 -0.2838
  208MPD1     N 3221   2.570   3.612  17.270  0.2958 -0.5030  0.5311
  208MPD1    H5 3222   2.524   3.527  17.300  1.2239 -0.8571  0.9749
  208MPD1    N1 3223   2.426   3.473  16.823 -0.2595  0.2297 -0.4120
  208MPD1    H6 3224   2.443   3.503  16.727  0.4486 -0.7466 -0.5933
  208MPD1    H7 3225   2.469   3.382  16.840  0.0227  0.2176 -1.1754
  209MPD1     C 3226   4.252   0.032   9.541 -0.0498 -1.0456  0.1887
  209MPD1    C1 3227   4.219   4.716   9.667  0.2592 -0.2355 -0.7222
  209MPD1    C2 3228   4.230   0.055   9.783  0.1090 -0.2923 -0.5518
  209MPD1    C3 3229   4.248   0.193   9.773 -0.0579 -0.0345  0.2623
  209MPD1    C4 3230   4.258   0.249   9.641  0.5363  0.1180 -0.8459
  209MPD1    C5 3231   4.269   0.168   9.528  0.0220  0.5326  0.6686
  209MPD1     H 3232   4.216   4.734   9.873  0.9899 -0.6736 -0.6606
  209MPD1    H1 3233   4.274   0.355   9.628  0.7475  0.1859 -0.0287
  209MPD1    H2 3234   4.263   4.714   9.449  2.2385 -1.6453  0.8370
  209MPD1    H3 3235   4.292   0.210   9.431  0.4018 -3.0820 -0.7953
  209MPD1     N 3236   4.243   0.269   9.893 -0.3140 -0.5667  0.2621
  209MPD1    H5 3237   4.231   0.217   9.980  0.7656 -1.0893  0.0967
  209MPD1    N1 3238   4.212   4.578   9.677 -0.8096 -0.4863  0.0836
  209MPD1    H6 3239   4.158   4.544   9.756 -1.9493  0.2232 -0.3887
  209MPD1    H7 3240   4.179   4.531   9.592  0.8209 -1.4918  0.0007
  210MPD1     C 3241   4.712   0.155  10.724 -0.0763  0.2482  0.3418
  210MPD1    C1 3242   4.606   0.089  10.668  0.5502 -0.3512  0.1995
  210MPD1    C2 3243   4.536   0.166  10.574 -0.6282  0.1376  0.1276
  210MPD1    C3 3244   4.564   0.300  10.536  0.3031 -0.8035  0.0268
  210MPD1    C4 3245   4.659   0.364  10.612  0.2548 -1.1053  0.5060
  210MPD1    C5 3246   4.730   0.290  10.707 -0.5181  0.9839  0.6927
  210MPD1     H 3247   4.461   0.114  10.516 -1.2016 -1.3362  2.2117
  210MPD1    H1 3248   4.687   0.467  10.594 -1.1395 -0.4429  2.0894
  210MPD1    H2 3249   0.038   0.098  10.791 -1.4896 -1.0685  0.5788
  210MPD1    H3 3250   0.074   0.350  10.743 -0.6285  1.9897 -0.7105
  210MPD1     N 3251   4.484   0.378  10.450 -0.4367 -0.1381  0.1902
  210MPD1    H5 3252   4.514   0.474  10.436  3.0147 -1.1447  0.7050
  210MPD1    N1 3253   4.596   4.688  10.685  0.0347  0.1184 -0.1658
  210MPD1    H6 3254   4.619   4.663  10.780  0.1236 -1.6220 -0.6540
  210MPD1    H7 3255   4.498   4.664  10.669  0.7451 -2.5655 -0.3939
  211MPD1     C 3256   2.786   4.041  15.934 -0.7774 -0.4508 -1.2664
  211MPD1    C1 3257   2.727   4.157  15.900  0.3498 -0.6934 -0.7859
  211MPD1    C2 3258   2.598   4.191  15.947  0.3429 -0.4844  0.0547
  211MPD1    C3 3259   2.525   4.106  16.023 -0.0013 -0.0389  0.2078
  211MPD1    C4 3260   2.584   3.987  16.061  0.3517  0.2831  0.1903
  211MPD1    C5 3261   2.711   3.958  16.008  0.3421  0.2346  0.2373
  211MPD1     H 3262   2.552   4.284  15.915 -1.7404 -0.9407  1.7583
  211MPD1    H1 3263   2.532   3.913  16.120 -1.7082  1.2860 -0.3739
  211MPD1    H2 3264   2.890   4.017  15.919 -0.8382 -1.9379  0.7589
  211MPD1    H3 3265   2.752   3.864  16.044 -0.3539  0.3784  1.4086
  211MPD1     N 3266   2.400   4.156  16.070 -0.2464 -0.2579  0.3968
  211MPD1    H5 3267   2.379   4.253  16.052  1.3011 -0.4068 -2.2449
  211MPD1    N1 3268   2.808   4.251  15.831 -0.4092  0.6756 -1.0990
  211MPD1    H6 3269   2.752   4.315  15.775  0.5118  0.6436 -2.0558
  211MPD1    H7 3270   2.881   4.213  15.771  0.7980  0.8512  0.2634
  212MPD1     C 3271   1.344   2.386  16.550 -0.2949 -0.0068  0.1454
  212MPD1    C1 3272   1.244   2.449  16.614  0.0802 -0.6955 -0.1062
  212MPD1    C2 3273   1.133   2.379  16.655 -0.6041 -0.1866 -0.2137
  212MPD1    C3 3274   1.105   2.245  16.625  0.1126 -0.2826 -0.4222
  212MPD1    C4 3275   1.207   2.183  16.560 -0.1242 -0.7004  0.6104
  212MPD1    C5 3276   1.323   2.254  16.524  0.4761  0.0927  0.7163
  212MPD1     H 3277   1.056   2.437  16.705  0.3119  0.1845  0.7550
  212MPD1    H1 3278   1.201   2.077  16.537 -1.2872 -0.4927 -0.0504
  212MPD1    H2 3279   1.437   2.428  16.515 -0.9572  0.7044 -0.7385
  212MPD1    H3 3280   1.402   2.198  16.476 -1.7720 -1.1444 -1.5624
  212MPD1     N 3281   0.993   2.173  16.656  0.7908  0.9765 -0.0003
  212MPD1    H5 3282   0.988   2.081  16.612 -1.6056  1.8792 -1.5836
  212MPD1    N1 3283   1.265   2.584  16.653  0.4594 -0.1157  0.1502
  212MPD1    H6 3284   1.175   2.624  16.681  0.7499  1.2945 -0.8931
  212MPD1    H7 3285   1.295   2.638  16.572 -1.8528 -0.7886 -1.1764
  213MPD1     C 3286   4.007   2.242  15.020 -0.5647  0.6369 -0.0708
  213MPD1    C1 3287   3.872   2.275  15.030 -0.1960 -0.7191 -0.0953
  213MPD1    C2 3288   3.835   2.401  15.075 -0.1416 -0.0354  0.2381
  213MPD1    C3 3289   3.924   2.502  15.093  0.3871 -0.1166 -0.3610
  213MPD1    C4 3290   4.058   2.469  15.062 -0.1392  0.8282 -0.4340
  213MPD1    C5 3291   4.098   2.342  15.038 -0.1153 -0.2330  0.5729
  213MPD1     H 3292   3.732   2.425  15.100 -0.9642 -1.0140 -2.2377
  213MPD1    H1 3293   4.131   2.550  15.070 -0.3980  0.6873  3.3570
  213MPD1    H2 3294   4.041   2.146  14.984 -1.5164  0.7443 -1.2313
  213MPD1    H3 3295   4.204   2.318  15.040  0.4083  2.2964  2.2345
  213MPD1     N 3296   3.895   2.644  15.120  0.1931  0.7864 -0.1340
  213MPD1    H5 3297   3.979   2.700  15.135  0.2015  0.5571  0.7390
  213MPD1    N1 3298   3.785   2.164  15.045  0.0345 -0.2741  0.5327
  213MPD1    H6 3299   3.693   2.200  15.017  0.8256  1.2128 -0.1780
  213MPD1    H7 3300   3.822   2.082  14.997  0.9306  1.3433 -1.5650
  214MPD1     C 3301   3.012   3.166  15.363  0.0148  0.0237  0.0465
  214MPD1    C1 3302   3.090   3.195  15.249 -0.1372  0.4011 -0.1894
  214MPD1    C2 3303   3.217   3.137  15.240  0.4503  0.5027  0.0467
  214MPD1    C3 3304   3.278   3.076  15.346  0.0870 -0.2749  0.2758
  214MPD1    C4 3305   3.200   3.052  15.458 -0.5860  0.2960  0.5695
  214MPD1    C5 3306   3.069   3.095  15.464  0.6256 -0.5764 -0.3719
  214MPD1     H 3307   3.273   3.145  15.147  2.7867 -0.2860  1.3844
  214MPD1    H1 3308   3.242   2.987  15.534  2.5384  1.4769 -0.1050
  214MPD1    H2 3309   2.909   3.197  15.374 -0.1611  0.1264 -1.9374
  214MPD1    H3 3310   3.005   3.078  15.549 -1.3716  1.1820 -1.5320
  214MPD1     N 3311   3.411   3.032  15.333  0.3026 -0.5995  0.0108
  214MPD1    H5 3312   3.452   2.972  15.403  2.1895 -1.1259 -1.5514
  214MPD1    N1 3313   3.028   3.242  15.127 -0.0147  0.0700  0.5111
  214MPD1    H6 3314   3.085   3.279  15.051 -0.3862  0.8310  0.6080
  214MPD1    H7 3315   2.955   3.311  15.144  1.5446  2.2717 -1.6522
  215MPD1     C 3316   4.324   3.953  10.839  0.5248  0.2014 -0.1232
  215MPD1    C1 3317   4.257   3.912  10.954  0.1025 -0.1206  0.4876
  215MPD1    C2 3318   4.142   3.983  10.984 -0.5396  0.0478 -0.0871
  215MPD1    C3 3319   4.110   4.100  10.922  0.7021 -0.0018 -0.2754
  215MPD1    C4 3320   4.186   4.141  10.813  0.0582 -0.3354  0.1381
  215MPD1    C5 3321   4.291   4.065  10.778 -0.5914 -0.2083 -0.1062
  215MPD1     H 3322   4.084   3.943  11.067 -1.1217 -0.3885 -0.7100
  215MPD1    H1 3323   4.178   4.234  10.759 -2.3227  0.3311  1.6142
  215MPD1    H2 3324   4.423   3.916  10.817  0.9074  0.6843  0.7598
  215MPD1    H3 3325   4.359   4.101  10.702 -0.3703  0.3520  0.3613
  215MPD1     N 3326   3.994   4.170  10.961  0.5714  0.0777 -0.1499
  215MPD1    H5 3327   3.942   4.135  11.041 -1.8969  2.1941 -0.8235
  215MPD1    N1 3328   4.289   3.787  11.009 -0.0004 -0.1639  0.2513
  215MPD1    H6 3329   4.387   3.763  10.995 -0.2009  0.1693 -1.7638
  215MPD1    H7 3330   4.266   3.788  11.108  2.2674  3.5616  0.7407
  216MPD1     C 3331   0.690   2.484  17.439  0.2907  0.5132 -0.2714
  216MPD1    C1 3332   0.759   2.420  17.530 -0.6827  0.7214  0.9771
  216MPD1    C2 3333   0.842   2.320  17.490  0.2356 -0.1539  0.0861
  216MPD1    C3 3334   0.844   2.281  17.359  1.0444  0.3589  0.3542
  216MPD1    C4 3335   0.768   2.346  17.272  0.1933 -1.4047  0.2681
  216MPD1    C5 3336   0.688   2.445  17.308  0.6896  0.0635 -0.9405
  216MPD1     H 3337   0.899   2.268  17.567 -0.4959 -1.3326 -0.1677
  216MPD1    H1 3338   0.761   2.330  17.165  0.3806 -0.4482  0.1097
  216MPD1    H2 3339   0.635   2.575  17.460 -0.8824 -0.0702 -0.8058
  216MPD1    H3 3340   0.629   2.506  17.240  0.0076  1.4661  0.9190
  216MPD1     N 3341   0.936   2.177  17.322  0.4211  0.2340 -0.2035
  216MPD1    H5 3342   1.004   2.148  17.392 -1.6562 -0.3508  1.6029
  216MPD1    N1 3343   0.764   2.473  17.661 -0.0992 -0.1216 -0.1810
  216MPD1    H6 3344   0.677   2.519  17.687  0.4147  1.4220 -1.2410
  216MPD1    H7 3345   0.768   2.398  17.730 -3.7342  1.7518  2.0465
  217MPD1     C 3346   1.491   4.628   8.246  0.6246  0.9351  1.1782
  217MPD1    C1 3347   1.583   4.526   8.243 -0.0039  0.7178 -0.0765
  217MPD1    C2 3348   1.605   4.442   8.352  0.4023  0.1611  0.1013
  217MPD1    C3 3349   1.534   4.455   8.471  0.5653 -0.0814  0.4458
  217MPD1    C4 3350   1.440   4.552   8.471 -0.0567  0.0117  0.1914
  217MPD1    C5 3351   1.414   4.630   8.363  0.1564  0.3534 -0.1919
  217MPD1     H 3352   1.690   4.376   8.341 -0.2351 -1.0988  2.6946
  217MPD1    H1 3353   1.382   4.563   8.562  0.9166  1.9811  0.5845
  217MPD1    H2 3354   1.475   4.698   8.165  0.9868 -1.2932 -0.7935
  217MPD1    H3 3355   1.328   4.695   8.353 -0.7738 -0.5501  1.9999
  217MPD1     N 3356   1.554   4.375   8.591 -0.3763 -0.3422  0.0039
  217MPD1    H5 3357   1.498   4.403   8.671 -1.8667  0.9816 -1.4993
  217MPD1    N1 3358   1.640   4.490   8.117  0.0667  0.3909  0.0151
  217MPD1    H6 3359   1.725   4.436   8.128  1.2760  2.1698 -0.6905
  217MPD1    H7 3360   1.656   4.578   8.068  2.6521 -0.3803 -0.5377
  218MPD1     C 3361   2.988   3.847  13.610 -0.3284 -0.6477 -0.3570
  218MPD1    C1 3362   2.924   3.889  13.493  0.4002  0.2919 -0.6354
  218MPD1    C2 3363   3.000   3.923  13.387 -0.3861 -0.2217 -0.3610
  218MPD1    C3 3364   3.139   3.895  13.384 -0.5569  0.7932 -0.4717
  218MPD1    C4 3365   3.200   3.848  13.499 -0.0390  0.2735  0.5677
  218MPD1    C5 3366   3.128   3.824  13.610  0.0288 -0.2300  0.1886
  218MPD1     H 3367   2.942   3.960  13.303  0.1607 -0.4479 -0.8320
  218MPD1    H1 3368   3.306   3.828  13.505 -0.1476 -0.9728 -1.7445
  218MPD1    H2 3369   2.935   3.834  13.704  0.9092 -0.2327  0.3955
  218MPD1    H3 3370   3.174   3.784  13.701 -0.3626  0.0360  0.5019
  218MPD1     N 3371   3.212   3.928  13.263  0.1953 -0.0962 -0.3195
  218MPD1    H5 3372   3.159   3.968  13.186 -0.4718  1.2677  0.8332
  218MPD1    N1 3373   2.792   3.921  13.505  0.4790  0.0613  0.1919
  218MPD1    H6 3374   2.737   3.943  13.422  0.6817 -0.6232 -0.1200
  218MPD1    H7 3375   2.745   3.836  13.538  1.4535  0.2140  1.9642
  219MPD1     C 3376   3.534   4.692  12.660 -0.8711  0.7371  0.2420
  219MPD1    C1 3377   3.459   4.687  12.784  0.0836 -0.5371  0.2554
  219MPD1    C2 3378   3.442   4.564  12.848  0.7669 -0.1902 -0.7007
  219MPD1    C3 3379   3.515   4.456  12.808 -0.1845 -0.2257  0.1341
  219MPD1    C4 3380   3.591   4.464  12.689  0.4250  0.4303  0.4924
  219MPD1    C5 3381   3.591   4.579  12.614  0.2492  1.3325 -0.2490
  219MPD1     H 3382   3.362   4.559  12.921  1.1182 -0.5796 -0.3435
  219MPD1    H1 3383   3.652   4.382  12.653  0.9917  1.1148 -0.1273
  219MPD1    H2 3384   3.542   0.041  12.596 -1.7762 -0.0424 -0.9226
  219MPD1    H3 3385   3.650   4.579  12.523 -0.9829 -2.7154 -1.0853
  219MPD1     N 3386   3.497   4.318  12.864 -0.1239 -0.3030 -0.4319
  219MPD1    H5 3387   3.568   4.250  12.839 -0.0755 -0.0869 -0.8824
  219MPD1    N1 3388   3.372   0.058  12.817  0.3875  0.0542  0.5024
  219MPD1    H6 3389   3.329   0.041  12.908 -1.0910  0.2832 -0.1633
  219MPD1    H7 3390   3.420   0.148  12.819  1.2700 -0.3755 -2.2452
  220MPD1     C 3391   2.967   0.507   9.558 -0.3635 -0.6156 -0.5826
  220MPD1    C1 3392   2.856   0.434   9.602  0.8475  0.8632 -0.5883
  220MPD1    C2 3393   2.875   0.345   9.705 -0.6878  0.4175 -0.4579
  220MPD1    C3 3394   3.000   0.311   9.752 -0.0118 -0.1352 -0.0390
  220MPD1    C4 3395   3.114   0.360   9.687  0.0623  0.2884  0.2814
  220MPD1    C5 3396   3.099   0.463   9.591  0.0874 -0.0319 -0.8163
  220MPD1     H 3397   2.786   0.305   9.753 -1.2548  0.7042 -1.2660
  220MPD1    H1 3398   3.217   0.334   9.707  0.0529  0.5864  0.7141
  220MPD1    H2 3399   2.945   0.588   9.490  2.1475 -1.3804 -2.3300
  220MPD1    H3 3400   3.192   0.506   9.557 -0.3393  0.1382 -1.7738
  220MPD1     N 3401   3.006   0.212   9.857  0.1665 -0.0518  0.1503
  220MPD1    H5 3402   2.919   0.168   9.881  0.9185 -0.4201  2.1951
  220MPD1    N1 3403   2.731   0.486   9.568 -0.2243  0.7048  0.4920
  220MPD1    H6 3404   2.658   0.415   9.579  2.4297 -2.1995 -0.8349
  220MPD1    H7 3405   2.722   0.533   9.478 -1.3476 -2.7309 -1.2055
  221MPD1     C 3406   1.378   4.183  17.193  0.3864 -0.1754  0.0277
  221MPD1    C1 3407   1.452   4.260  17.112  0.0900  0.2504  0.2232
  221MPD1    C2 3408   1.538   4.200  17.022 -0.1965  0.4369  0.1352
  221MPD1    C3 3409   1.544   4.064  17.008  0.0789 -0.4121  0.0012
  221MPD1    C4 3410   1.463   3.988  17.091  0.0834  0.4387  0.9382
  221MPD1    C5 3411   1.378   4.053  17.184 -0.0522 -0.7481 -0.0339
  221MPD1     H 3412   1.606   4.257  16.960  0.8342 -0.4202  0.4698
  221MPD1    H1 3413   1.465   3.880  17.089  2.3739  0.5049 -0.0891
  221MPD1    H2 3414   1.322   4.225  17.276  1.7324  3.0477 -0.6970
  221MPD1    H3 3415   1.301   3.999  17.237  0.1655 -1.2458 -0.2276
  221MPD1     N 3416   1.630   3.993  16.919 -0.5684 -0.5652  0.2971
  221MPD1    H5 3417   1.623   3.893  16.934 -1.3674 -0.6329 -0.5479
  221MPD1    N1 3418   1.461   4.396  17.129  0.2817 -0.6117  0.0136
  221MPD1    H6 3419   1.492   4.448  17.048  0.2077 -1.4343 -0.5420
  221MPD1    H7 3420   1.383   4.440  17.178  1.0999 -0.1152  0.8760
  222MPD1     C 3421   0.330   2.140  17.740 -0.5935 -0.5180  0.1237
  222MPD1    C1 3422   0.419   2.216  17.663  0.3167  0.5244 -0.1777
  222MPD1    C2 3423   0.424   2.350  17.693 -0.4523 -0.2111  0.1056
  222MPD1    C3 3424   0.356   2.398   0.054 -0.1626  0.4165  0.3925
  222MPD1    C4 3425   0.279   2.319   0.136 -0.0924  0.0126  0.3024
  222MPD1    C5 3426   0.273   2.186   0.106  0.4511 -0.2673  0.3688
  222MPD1     H 3427   0.478   2.420  17.630 -0.3078  0.4414  0.9551
  222MPD1    H1 3428   0.235   2.348   0.231 -0.6976 -0.6550  0.2267
  222MPD1    H2 3429   0.306   2.035  17.723 -0.0206 -0.9174  1.8534
  222MPD1    H3 3430   0.209   2.118   0.161 -0.7555  1.0573  0.6057
  222MPD1     N 3431   0.349   2.534   0.084  0.2392 -0.5486  0.6585
  222MPD1    H5 3432   0.279   2.555   0.155 -0.8483  1.4295 -1.0025
  222MPD1    N1 3433   0.457   2.165  17.540  0.3383 -0.5334  0.0604
  222MPD1    H6 3434   0.533   2.220  17.501  2.4209 -2.2787  1.6779
  222MPD1    H7 3435   0.485   2.068  17.553  0.9461 -0.3939 -0.1924
  223MPD1     C 3436   4.694   3.110   0.782  0.1173  0.1943 -0.2109
  223MPD1    C1 3437   0.006   3.207   0.696  0.3808 -1.3456  0.2366
  223MPD1    C2 3438   0.058   3.175   0.580 -0.1558  0.3836 -0.1425
  223MPD1    C3 3439   0.090   3.045   0.551 -0.1245 -0.2465  0.1717
  223MPD1    C4 3440   0.050   2.947   0.641  0.0816 -0.0330  0.0184
  223MPD1    C5 3441   4.711   2.978   0.754  0.0912  0.4010  0.1235
  223MPD1     H 3442   0.072   3.260   0.514 -1.1960  0.9719  0.3853
  223MPD1    H1 3443   0.045   2.843   0.609 -1.9594  0.5051 -1.3732
  223MPD1    H2 3444   4.625   3.129   0.863  1.5334  0.1898  0.9864
  223MPD1    H3 3445   4.656   2.907   0.814  1.6625 -1.1153 -0.2224
  223MPD1     N 3446   0.156   3.014   0.428 -0.5420 -0.2412  0.4050
  223MPD1    H5 3447   0.167   3.087   0.358 -0.9300 -1.3636 -0.8362
  223MPD1    N1 3448   4.711   3.344   0.733 -0.3888  0.5674 -0.3137
  223MPD1    H6 3449   0.045   3.412   0.710 -1.4687  0.9244 -2.5481
  223MPD1    H7 3450   4.687   3.346   0.832 -0.9477 -0.1361 -0.4333
  224MPD1     C 3451   1.834   4.582   8.712  0.3933  0.2584  0.7222
  224MPD1    C1 3452   1.793   4.693   8.789  0.0693  0.0364  0.5079
  224MPD1    C2 3453   1.876   4.719   8.900  0.2207  0.9878 -0.2729
  224MPD1    C3 3454   1.984   4.635   8.932  0.7604 -0.1205  0.1891
  224MPD1    C4 3455   2.015   4.530   8.850 -0.2460 -0.2132 -0.9363
  224MPD1    C5 3456   1.935   4.500   8.750 -0.3496  1.1954  0.5051
  224MPD1     H 3457   1.835   0.055   8.967  1.3438  1.3734 -0.0279
  224MPD1    H1 3458   2.100   4.467   8.874  0.3504  1.0555  0.2726
  224MPD1    H2 3459   1.782   4.546   8.624 -1.1721  1.7963  1.0148
  224MPD1    H3 3460   1.960   4.414   8.689 -2.0263 -0.0564  1.5814
  224MPD1     N 3461   2.059   4.665   9.046  0.0603  0.5266  0.1286
  224MPD1    H5 3462   2.128   4.597   9.075 -0.5564  0.7600  2.1142
  224MPD1    N1 3463   1.667   0.012   8.774  0.9115  0.7327  0.0236
  224MPD1    H6 3464   1.666   0.109   8.806 -3.1107  0.9984 -0.9505
  224MPD1    H7 3465   1.641   0.007   8.676  1.7230  1.1538 -0.2178
  225MPD1     C 3466   3.827   0.505  11.850 -0.1002  0.4631  0.6757
  225MPD1    C1 3467   3.737   0.424  11.791 -1.0831  0.1027  0.6728
  225MPD1    C2 3468   3.600   0.443  11.811  0.0486  0.3902 -0.4872
  225MPD1    C3 3469   3.560   0.531  11.907  0.0442  0.1121 -0.2678
  225MPD1    C4 3470   3.653   0.620  11.960 -0.3463  0.2518 -0.1727
  225MPD1    C5 3471   3.790   0.608  11.926  0.2017  0.0586  0.6062
  225MPD1     H 3472   3.524   0.386  11.758  1.3127  0.8936 -2.8489
  225MPD1    H1 3473   3.627   0.698  12.032 -0.7927 -0.7309  0.7320
  225MPD1    H2 3474   3.932   0.508  11.823  0.2375 -0.1987  1.9203
  225MPD1    H3 3475   3.874   0.667  11.959  0.9272 -0.3908 -0.4675
  225MPD1     N 3476   3.431   0.530  11.964  0.4315  0.2618 -0.0020
  225MPD1    H5 3477   3.413   0.592  12.042  2.7883  0.3951  0.4237
  225MPD1    N1 3478   3.780   0.350  11.678 -0.0702 -0.0321 -0.3644
  225MPD1    H6 3479   3.720   0.273  11.647 -1.3699  0.2876  1.3751
  225MPD1    H7 3480   3.877   0.319  11.680 -0.1843 -0.3616  0.1357
  226MPD1     C 3481   2.125   3.959   8.556  0.0720 -0.0946  0.2901
  226MPD1    C1 3482   2.242   4.003   8.609  0.3963 -0.6253 -1.1669
  226MPD1    C2 3483   2.275   4.133   8.609  0.2596  0.4074 -0.4032
  226MPD1    C3 3484   2.187   4.231   8.565 -0.9280 -0.1560  0.1404
  226MPD1    C4 3485   2.066   4.187   8.510  0.0635 -0.5305  0.0440
  226MPD1    C5 3486   2.035   4.053   8.511  0.3305  0.9351 -0.2524
  226MPD1     H 3487   2.375   4.162   8.640  0.2502 -0.3798  0.3530
  226MPD1    H1 3488   1.989   4.256   8.477 -0.3441 -0.4970  1.0699
  226MPD1    H2 3489   2.090   3.856   8.561 -0.6397  0.1219 -0.2631
  226MPD1    H3 3490   1.929   4.038   8.494  0.3043 -0.0650  0.7515
  226MPD1     N 3491   2.209   4.371   8.568  0.1962  0.1826 -0.1403
  226MPD1    H5 3492   2.141   4.429   8.520 -0.1321  0.9972  1.2908
  226MPD1    N1 3493   2.335   3.907   8.639  0.1159 -0.3864 -0.3122
  226MPD1    H6 3494   2.298   3.815   8.661  0.8528 -0.6960 -0.3419
  226MPD1    H7 3495   2.408   3.942   8.701  0.4006 -0.2779 -0.7068
  227MPD1     C 3496   1.621   0.348   8.491  0.6939  0.2122  0.4530
  227MPD1    C1 3497   1.704   0.404   8.587 -0.1024  0.1396 -0.4708
  227MPD1    C2 3498   1.832   0.340   8.613  0.8357  0.2103 -0.3173
  227MPD1    C3 3499   1.865   0.217   8.559 -0.6914 -0.5192 -0.0591
  227MPD1    C4 3500   1.782   0.162   8.465  0.0205  0.2460  0.3865
  227MPD1    C5 3501   1.663   0.230   8.431  0.2897 -0.0040 -0.4506
  227MPD1     H 3502   1.915   0.389   8.662  1.0682  0.1739 -0.6772
  227MPD1    H1 3503   1.797   0.069   8.410 -0.4277 -1.1647  2.6354
  227MPD1    H2 3504   1.525   0.389   8.463  0.5411  0.2695  1.0564
  227MPD1    H3 3505   1.607   0.176   8.355  1.4948  0.8584 -1.9573
  227MPD1     N 3506   1.987   0.156   8.595 -0.2498  0.1108 -0.1593
  227MPD1    H5 3507   2.034   0.190   8.678 -1.0451 -0.1932  0.4206
  227MPD1    N1 3508   1.680   0.529   8.637  0.0999 -0.4098  0.8916
  227MPD1    H6 3509   1.728   0.562   8.720 -1.2683  0.1315  1.4750
  227MPD1    H7 3510   1.582   0.556   8.638  0.4964  1.0843  0.0985
  228MPD1     C 3511   0.177   3.266  13.374 -0.5401  0.3742 -0.0505
  228MPD1    C1 3512   0.177   3.261  13.241  0.6776  0.8183  0.4564
  228MPD1    C2 3513   0.161   3.142  13.172 -0.2252 -0.0453  0.9974
  228MPD1    C3 3514   0.152   3.028  13.251  0.7302 -0.4445  0.3705
  228MPD1    C4 3515   0.173   3.038  13.391 -0.3348  0.0495  0.3171
  228MPD1    C5 3516   0.181   3.156  13.453 -0.3129 -0.0295  0.4130
  228MPD1     H 3517   0.158   3.137  13.064 -0.4573 -2.0455  1.0914
  228MPD1    H1 3518   0.162   2.953  13.457 -1.5678 -0.3340 -0.3658
  228MPD1    H2 3519   0.183   3.359  13.430  0.3590 -0.4887  1.2865
  228MPD1    H3 3520   0.190   3.164  13.561 -0.5830  0.6456  0.3888
  228MPD1     N 3521   0.102   2.914  13.181 -0.0459 -0.2216  0.6783
  228MPD1    H5 3522   0.078   2.932  13.084  0.7169  1.8015  0.8764
  228MPD1    N1 3523   0.205   3.372  13.155  0.1529 -0.6799  0.2969
  228MPD1    H6 3524   0.169   3.360  13.061 -0.9845  0.7693  0.5445
  228MPD1    H7 3525   0.171   3.461  13.192  0.0968 -0.1744 -0.9580
  229MPD1     C 3526   4.127   1.722  15.441 -0.4886 -0.1452 -0.1917
  229MPD1    C1 3527   4.116   1.606  15.362  0.1273  0.7896  0.4808
  229MPD1    C2 3528   4.218   1.523  15.341  0.6719  0.1480 -0.2596
  229MPD1    C3 3529   4.343   1.552  15.387 -0.2186 -0.4100 -1.2378
  229MPD1    C4 3530   4.360   1.668  15.459  0.0692 -0.4985 -0.7543
  229MPD1    C5 3531   4.253   1.749  15.482  0.0510 -0.3502  0.0057
  229MPD1     H 3532   4.193   1.438  15.278  1.7040  0.0857 -0.5864
  229MPD1    H1 3533   4.456   1.708  15.489  0.6258 -0.9922 -1.8835
  229MPD1    H2 3534   4.045   1.791  15.455 -1.2302 -0.9093 -0.7500
  229MPD1    H3 3535   4.285   1.844  15.524 -1.0491  0.9998 -2.1781
  229MPD1     N 3536   4.452   1.464  15.371 -0.5572  0.0596 -0.5096
  229MPD1    H5 3537   4.543   1.489  15.408 -1.9958  3.3300  0.8122
  229MPD1    N1 3538   3.984   1.562  15.321  0.4327 -0.0411  0.2921
  229MPD1    H6 3539   3.924   1.641  15.296  0.4253 -0.1164  0.0676
  229MPD1    H7 3540   3.982   1.486  15.253 -1.1627 -0.6236  1.0043
  230MPD1     C 3541   0.547   1.616  15.634 -0.1624 -0.0601  0.4565
  230MPD1    C1 3542   0.567   1.479  15.640 -0.3297  0.4983 -0.6150
  230MPD1    C2 3543   0.461   1.401  15.582 -0.4476 -0.6140  0.6369
  230MPD1    C3 3544   0.359   1.454  15.510 -0.0655  0.6299  0.2339
  230MPD1    C4 3545   0.347   1.594  15.507 -0.0480  0.6176 -0.1723
  230MPD1    C5 3546   0.431   1.672  15.583 -0.1278  0.2274  0.2254
  230MPD1     H 3547   0.468   1.293  15.592  0.7070 -0.5398  0.6958
  230MPD1    H1 3548   0.251   1.638  15.485 -0.9783 -1.7431 -0.8780
  230MPD1    H2 3549   0.615   1.679  15.690 -3.0500  2.2595  1.3413
  230MPD1    H3 3550   0.417   1.779  15.594 -0.3775  0.2587 -0.4122
  230MPD1     N 3551   0.266   1.371  15.447  0.1385 -0.0597  0.6406
  230MPD1    H5 3552   0.269   1.273  15.474 -1.8523 -0.1687  0.4443
  230MPD1    N1 3553   0.666   1.422  15.730 -0.4581 -0.1263 -0.3871
  230MPD1    H6 3554   0.739   1.490  15.748 -1.1406  0.1907  1.1602
  230MPD1    H7 3555   0.702   1.332  15.699 -1.9536 -0.8573 -0.0007
  231MPD1     C 3556   3.407   3.488  15.718  0.2399  0.0850  0.3224
  231MPD1    C1 3557   3.369   3.411  15.603  0.1893  0.2113  0.0387
  231MPD1    C2 3558   3.412   3.450  15.477 -0.7145 -0.4492 -1.1875
  231MPD1    C3 3559   3.527   3.526  15.467 -0.0143  1.0670 -0.4733
  231MPD1    C4 3560   3.567   3.592  15.581 -0.1216  0.7650  0.3984
  231MPD1    C5 3561   3.503   3.582  15.703  0.8335 -0.0895  0.0485
  231MPD1     H 3562   3.382   3.398  15.387  0.9143 -0.1946 -1.8820
  231MPD1    H1 3563   3.657   3.652  15.577 -0.4078  1.0344 -1.6956
  231MPD1    H2 3564   3.365   3.480  15.817 -1.0535  1.7248 -0.0886
  231MPD1    H3 3565   3.536   3.624  15.798  0.0737 -0.3336  0.4180
  231MPD1     N 3566   3.593   3.534  15.341 -0.1465  1.0192  0.2808
  231MPD1    H5 3567   3.545   3.487  15.265  1.8210 -1.5907  0.6723
  231MPD1    N1 3568   3.265   3.318  15.626 -0.4899 -0.4817 -0.0881
  231MPD1    H6 3569   3.282   3.259  15.707 -0.7579  0.3698  0.5937
  231MPD1    H7 3570   3.253   3.253  15.549  0.7991 -0.7652 -0.0630
  232MPD1     C 3571   0.995   1.093   0.252  0.7665 -0.1508  0.3766
  232MPD1    C1 3572   0.936   1.030   0.362 -0.3997  0.1672  0.4608
  232MPD1    C2 3573   0.810   0.974   0.343  0.5556 -0.6331  0.1449
  232MPD1    C3 3574   0.730   0.999   0.227 -0.3436  0.1391  0.6008
  232MPD1    C4 3575   0.795   1.061   0.121  0.5949 -0.7970  0.0166
  232MPD1    C5 3576   0.926   1.113   0.138  0.1774 -0.3230  0.4446
  232MPD1     H 3577   0.756   0.918   0.419 -0.7122  1.5404  0.8371
  232MPD1    H1 3578   0.752   1.075   0.023  1.1703 -2.0825 -0.4294
  232MPD1    H2 3579   1.093   1.139   0.260  0.1519  1.3561 -0.7542
  232MPD1    H3 3580   0.978   1.172   0.063 -2.5183  2.5569  0.8571
  232MPD1     N 3581   0.607   0.933   0.218  0.1742  0.0504 -0.6817
  232MPD1    H5 3582   0.576   0.878   0.298  0.3451  0.4776 -0.3220
  232MPD1    N1 3583   0.996   1.009   0.484  0.4588 -0.3574  0.5097
  232MPD1    H6 3584   1.063   1.084   0.503 -0.0513  0.2787 -0.2199
  232MPD1    H7 3585   0.934   1.023   0.564 -0.6117  2.0927 -0.7453
  233MPD1     C 3586   1.376   4.678   1.517 -0.5937  0.3919 -0.9502
  233MPD1    C1 3587   1.417   4.637   1.644  0.6796  0.3430  0.3777
  233MPD1    C2 3588   1.537   4.561   1.657 -0.2135  0.4715 -0.0156
  233MPD1    C3 3589   1.618   4.548   1.539  1.0171  0.1198 -0.2635
  233MPD1    C4 3590   1.570   4.576   1.411 -1.0327 -1.1102  0.1112
  233MPD1    C5 3591   1.450   4.642   1.406  0.1415  0.1069  0.2864
  233MPD1     H 3592   1.563   4.541   1.760  0.7146  1.5825 -0.0343
  233MPD1    H1 3593   1.621   4.560   1.317 -2.2285 -3.6922 -0.0962
  233MPD1    H2 3594   1.284   4.731   1.497 -0.8415  0.6972  1.0404
  233MPD1    H3 3595   1.408   4.668   1.309 -0.2468  0.7267  0.6230
  233MPD1     N 3596   1.757   4.517   1.542  0.1148 -0.1017  0.1184
  233MPD1    H5 3597   1.805   4.514   1.452  2.0972  0.7598  1.1391
  233MPD1    N1 3598   1.332   4.661   1.750 -0.7346  0.1320  0.4424
  233MPD1    H6 3599   1.258   4.723   1.718 -1.6864 -0.1657  2.1237
  233MPD1    H7 3600   1.380   4.706   1.827 -0.2961  0.1314  0.1713
  234MPD1     C 3601   3.006   3.189   9.014  0.2501  0.4380 -0.9669
  234MPD1    C1 3602   2.886   3.218   8.951  0.6117 -0.1929 -0.0415
  234MPD1    C2 3603   2.802   3.317   9.004 -0.6684  0.2044  0.1999
  234MPD1    C3 3604   2.837   3.380   9.126  0.1417 -0.3875 -0.2577
  234MPD1    C4 3605   2.959   3.355   9.181  0.2843  0.1081  0.2379
  234MPD1    C5 3606   3.045   3.263   9.125 -0.1885  0.7803  0.4171
  234MPD1     H 3607   2.709   3.348   8.958  0.3458  1.1936 -1.1864
  234MPD1    H1 3608   2.997   3.412   9.265  2.0053 -1.2938  0.3965
  234MPD1    H2 3609   3.082   3.118   8.985  0.2184 -0.8648  2.1510
  234MPD1    H3 3610   3.142   3.247   9.169  0.4749  0.3354 -1.2001
  234MPD1     N 3611   2.750   3.473   9.178 -0.0538 -0.4184 -0.0660
  234MPD1    H5 3612   2.663   3.476   9.125 -0.1817 -2.3295  0.0044
  234MPD1    N1 3613   2.855   3.156   8.829 -0.5066 -0.1456  0.5492
  234MPD1    H6 3614   2.920   3.080   8.814 -0.1689  0.3482 -0.4468
  234MPD1    H7 3615   2.759   3.123   8.818 -0.4997  0.1201 -0.2958
  235MPD1     C 3616   3.942   1.509   9.705 -0.0792 -0.8056  0.2017
  235MPD1    C1 3617   3.997   1.570   9.598  0.7001 -0.8810 -0.0151
  235MPD1    C2 3618   4.107   1.657   9.630  0.3563  0.4647  0.2469
  235MPD1    C3 3619   4.154   1.683   9.757 -0.2455  0.3947  0.0282
  235MPD1    C4 3620   4.094   1.624   9.861 -0.5103  0.7490 -0.4979
  235MPD1    C5 3621   3.993   1.537   9.829  0.4583 -0.2226 -0.4955
  235MPD1     H 3622   4.159   1.700   9.545 -1.7566 -0.0785 -1.3189
  235MPD1    H1 3623   4.124   1.636   9.965 -0.8338 -0.7021 -0.2444
  235MPD1    H2 3624   3.856   1.446   9.690 -2.3301  2.2844  0.0602
  235MPD1    H3 3625   3.937   1.502   9.915 -0.0588 -0.5984 -0.9822
  235MPD1     N 3626   4.257   1.780   9.769 -0.1358 -0.0749  0.1828
  235MPD1    H5 3627   4.280   1.826   9.681 -1.3316  0.0355 -0.0826
  235MPD1    N1 3628   3.968   1.510   9.475  0.1650 -0.4711  0.2938
  235MPD1    H6 3629   3.868   1.493   9.478 -0.0016  0.5052  0.3486
  235MPD1    H7 3630   3.988   1.581   9.405 -0.5437 -1.2750 -0.7231
  236MPD1     C 3631   3.021   1.582  10.400  0.1042 -0.3143  0.6550
  236MPD1    C1 3632   3.111   1.655  10.321 -0.4528 -1.3041  0.3813
  236MPD1    C2 3633   3.253   1.652  10.354  0.6251  1.0215 -0.7636
  236MPD1    C3 3634   3.293   1.579  10.463  0.1504  0.3107  0.3735
  236MPD1    C4 3635   3.197   1.509  10.544 -0.2931 -0.4300 -0.0844
  236MPD1    C5 3636   3.066   1.514  10.509 -0.0275  0.2919 -0.3679
  236MPD1     H 3637   3.323   1.697  10.285 -3.3012  1.3573 -4.5241
  236MPD1    H1 3638   3.212   1.455  10.637 -1.0347  0.1536  0.3796
  236MPD1    H2 3639   2.916   1.578  10.372  0.3500 -0.9222 -0.1677
  236MPD1    H3 3640   2.997   1.456  10.569 -1.4514  1.4669 -0.8833
  236MPD1     N 3641   3.436   1.570  10.504 -0.1029 -0.1377 -0.4236
  236MPD1    H5 3642   3.465   1.497  10.569  0.3832 -0.1937 -0.7035
  236MPD1    N1 3643   3.055   1.741  10.218  0.5621 -0.1360 -0.0672
  236MPD1    H6 3644   2.968   1.696  10.191  0.6262  0.5770 -1.4560
  236MPD1    H7 3645   3.110   1.763  10.135 -1.5175 -1.3147 -1.7376
  237MPD1     C 3646   3.834   4.696  15.143  0.1413  0.4062  0.4495
  237MPD1    C1 3647   3.752   0.023  15.235  0.1754  0.0654 -0.1706
  237MPD1    C2 3648   3.627   4.704  15.245 -0.0818 -0.0609 -0.1430
  237MPD1    C3 3649   3.585   4.587  15.189  0.1973 -0.1076 -0.0822
  237MPD1    C4 3650   3.678   4.529  15.104  0.3604  0.0567  0.5403
  237MPD1    C5 3651   3.801   4.581  15.079  0.1753  0.1414 -0.6680
  237MPD1     H 3652   3.561   0.029  15.305  1.6894  1.6842 -0.0024
  237MPD1    H1 3653   3.641   4.444  15.047 -2.7174  1.5733  0.2512
  237MPD1    H2 3654   3.928   0.004  15.114  0.0021 -1.2329 -2.6367
  237MPD1    H3 3655   3.868   4.543  15.003 -0.3980 -2.1816 -0.0177
  237MPD1     N 3656   3.454   4.538  15.187 -0.1462 -0.3007 -0.4757
  237MPD1    H5 3657   3.435   4.458  15.129  1.4911  1.2852 -3.2279
  237MPD1    N1 3658   3.772   0.143  15.293  0.6234  0.6648  0.4074
  237MPD1    H6 3659   3.871   0.155  15.314  0.9327 -0.4948 -0.3983
  237MPD1    H7 3660   3.727   0.153  15.384 -1.0911 -0.8391 -0.2741
  238MPD1     C 3661   0.493   2.467  15.127 -0.4944 -0.6533  0.6476
  238MPD1    C1 3662   0.382   2.383  15.133  0.4790  0.1428  0.1900
  238MPD1    C2 3663   0.271   2.432  15.056  0.2105 -0.5649  0.0835
  238MPD1    C3 3664   0.256   2.559  15.013  0.0796 -0.0438 -0.5198
  238MPD1    C4 3665   0.369   2.644  15.031  0.7007 -0.7238  0.2120
  238MPD1    C5 3666   0.483   2.596  15.080  0.3103  0.0281 -0.3938
  238MPD1     H 3667   0.189   2.364  15.034 -0.3690  0.0044  0.5025
  238MPD1    H1 3668   0.373   2.744  14.989 -1.3448 -0.4169  0.7760
  238MPD1    H2 3669   0.593   2.442  15.160  0.0707  2.0199  0.9938
  238MPD1    H3 3670   0.575   2.650  15.062  0.8068 -0.1090  1.7320
  238MPD1     N 3671   0.151   2.627  14.937  0.3303  0.2065  0.4775
  238MPD1    H5 3672   0.152   2.724  14.909  0.4655 -0.2671 -1.1189
  238MPD1    N1 3673   0.387   2.249  15.180 -0.2717  0.2922  0.5492
  238MPD1    H6 3674   0.299   2.234  15.230  0.5374 -2.4658  1.1129
  238MPD1    H7 3675   0.466   2.226  15.240  0.3712  2.1881  0.4453
  239MPD1     C 3676   0.128   3.548  14.312 -0.2918 -0.7464  1.1637
  239MPD1    C1 3677   0.149   3.632  14.422  0.4787  0.6450 -0.2755
  239MPD1    C2 3678   0.112   3.764  14.413  0.1605 -0.1680  0.4830
  239MPD1    C3 3679   0.088   3.825  14.294 -0.2404  0.3952 -0.5454
  239MPD1    C4 3680   0.088   3.747  14.179  0.2148  0.1655  0.0096
  239MPD1    C5 3681   0.106   3.607  14.189  0.3772 -0.7313 -0.0949
  239MPD1     H 3682   0.127   3.825  14.501  4.5323 -2.4261  1.3289
  239MPD1    H1 3683   0.068   3.784  14.080  0.1026 -1.5870 -0.6263
  239MPD1    H2 3684   0.136   3.440  14.315  0.8858 -0.6893  0.1975
  239MPD1    H3 3685   0.094   3.556  14.094 -0.9555  0.7041 -0.6904
  239MPD1     N 3686   0.065   3.960  14.268 -0.0112  0.4242 -0.6042
  239MPD1    H5 3687   0.057   3.997  14.174 -1.2347 -3.4225 -2.0367
  239MPD1    N1 3688   0.161   3.577  14.551 -0.6749 -0.6945  0.5029
  239MPD1    H6 3689   0.225   3.497  14.556  0.3439 -0.0050 -1.3544
  239MPD1    H7 3690   0.202   3.635  14.624 -3.1849 -0.8621  2.0365
  240MPD1     C 3691   4.680   3.590  15.070  0.2647  0.3641 -0.0084
  240MPD1    C1 3692   4.731   3.664  14.965 -0.5394 -0.5037  0.1960
  240MPD1    C2 3693   4.717   3.618  14.838  0.2571  0.2293  0.8461
  240MPD1    C3 3694   4.653   3.497  14.822  0.1632  0.3404 -0.3105
  240MPD1    C4 3695   4.608   3.419  14.927 -0.4887 -0.0065  0.9075
  240MPD1    C5 3696   4.617   3.467  15.053  1.0367 -0.3224  0.4161
  240MPD1     H 3697   0.011   3.675  14.752 -0.1633  0.4628  0.8445
  240MPD1    H1 3698   4.549   3.330  14.910  0.0171 -0.1643 -0.0408
  240MPD1    H2 3699   4.688   3.625  15.172  0.7930 -0.6173  0.2838
  240MPD1    H3 3700   4.578   3.402  15.131 -0.1537 -0.6611 -0.4672
  240MPD1     N 3701   4.630   3.457  14.686  0.9765 -0.6565 -0.4072
  240MPD1    H5 3702   4.684   3.510  14.618 -0.3854 -0.7367 -1.5699
  240MPD1    N1 3703   0.053   3.791  14.982 -0.1758  0.8088 -0.0679
  240MPD1    H6 3704   0.129   3.794  14.914 -0.3942 -1.6448 -0.4136
  240MPD1    H7 3705   0.106   3.790  15.068  0.0127  1.2159 -0.1796
  241MPD1     C 3706   4.544   4.033  13.982 -0.2917 -0.1055 -0.2827
  241MPD1    C1 3707   4.500   4.023  14.109 -0.9488 -0.4974 -0.1319
  241MPD1    C2 3708   4.479   3.899  14.167  0.4528 -0.5016  0.0203
  241MPD1    C3 3709   4.496   3.785  14.095 -0.3104 -0.1374  0.7609
  241MPD1    C4 3710   4.527   3.793  13.964 -0.2142 -0.3776 -0.4111
  241MPD1    C5 3711   4.545   3.921  13.901 -0.0379  0.3841  0.6601
  241MPD1     H 3712   4.467   3.901  14.274 -1.9756  0.3937 -0.2656
  241MPD1    H1 3713   4.536   3.705  13.902  1.2806 -0.1718 -0.4925
  241MPD1    H2 3714   4.560   4.131  13.938  1.3918  0.0148  0.5862
  241MPD1    H3 3715   4.564   3.931  13.795  0.8776 -1.5273  0.6459
  241MPD1     N 3716   4.489   3.655  14.146  0.1209  0.0474 -0.3148
  241MPD1    H5 3717   4.508   3.578  14.083  1.6461  0.9555 -0.9735
  241MPD1    N1 3718   4.490   4.140  14.195 -0.3742 -0.7936 -0.3081
  241MPD1    H6 3719   4.446   4.109  14.281  0.4730  0.1267  0.4581
  241MPD1    H7 3720   4.453   4.224  14.151 -0.4109 -0.1037  1.0389
  242MPD1     C 3721   3.885   2.632  15.552  0.0280 -0.1662 -0.8409
  242MPD1    C1 3722   4.019   2.623  15.576 -0.1494 -0.0668 -0.3570
  242MPD1    C2 3723   4.095   2.516  15.528  0.1419 -0.0977  0.1924
  242MPD1    C3 3724   4.035   2.414  15.452 -0.5765  0.0548  0.3660
  242MPD1    C4 3725   3.901   2.420  15.427  0.1098 -0.4179 -0.2096
  242MPD1    C5 3726   3.833   2.530  15.472 -0.3863 -0.3331  0.1668
  242MPD1     H 3727   4.202   2.523  15.549  0.1345  0.1423  0.1586
  242MPD1    H1 3728   3.856   2.343  15.366  2.5865 -0.1783 -2.3321
  242MPD1    H2 3729   3.822   2.718  15.571  0.5035  0.1786 -0.8194
  242MPD1    H3 3730   3.728   2.538  15.449 -0.3848 -0.5885  0.0687
  242MPD1     N 3731   4.107   2.300  15.403  0.6219  0.5207  0.0973
  242MPD1    H5 3732   4.050   2.234  15.351 -0.2647  1.5286 -0.2123
  242MPD1    N1 3733   4.076   2.737  15.634 -0.7820  0.5897 -0.0350
  242MPD1    H6 3734   4.003   2.785  15.687  0.0407  1.0389  0.6905
  242MPD1    H7 3735   4.142   2.702  15.703 -0.9542 -1.7516 -1.0412
  243MPD1     C 3736   0.706   0.924  17.486 -0.4053  0.2897  0.2322
  243MPD1    C1 3737   0.774   0.831  17.563 -0.2281  0.4685  0.8569
  243MPD1    C2 3738   0.895   0.784  17.513  0.5764 -0.0211 -0.3649
  243MPD1    C3 3739   0.952   0.822  17.397 -0.1586  0.0521 -0.6591
  243MPD1    C4 3740   0.891   0.922  17.328  0.4294 -0.5346  0.0309
  243MPD1    C5 3741   0.772   0.967  17.369 -1.1241 -0.4387  0.0541
  243MPD1     H 3742   0.949   0.714  17.576 -0.9663  0.0979  1.0901
  243MPD1    H1 3743   0.934   0.956  17.234  1.4728 -1.6321  0.1144
  243MPD1    H2 3744   0.605   0.961  17.498 -0.7558 -0.1784 -1.2059
  243MPD1    H3 3745   0.716   1.030  17.301 -0.5216 -3.2921 -3.1165
  243MPD1     N 3746   1.070   0.758  17.358 -0.1600 -0.1682 -0.0667
  243MPD1    H5 3747   1.104   0.687  17.422 -0.3584  0.1960  0.4424
  243MPD1    N1 3748   0.706   0.773  17.668  0.6842 -0.5148  0.3747
  243MPD1    H6 3749   0.764   0.758   0.001  1.5513 -0.7632 -0.2782
  243MPD1    H7 3750   0.640   0.838  17.710 -1.1700 -1.2371 -1.4353
  244MPD1     C 3751   1.444   0.128   0.017  0.0022  0.5071  0.8281
  244MPD1    C1 3752   1.437   0.082  17.634 -0.6123  0.6108  0.4292
  244MPD1    C2 3753   1.396   0.164  17.529 -0.6918 -0.2185  0.2967
  244MPD1    C3 3754   1.384   0.300  17.554  0.2173 -0.8362  0.4773
  244MPD1    C4 3755   1.390   0.348  17.684  0.2468  0.4056  0.0505
  244MPD1    C5 3756   1.427   0.262   0.041  0.0938  0.0405  0.0036
  244MPD1     H 3757   1.373   0.121  17.433 -0.2319  2.8811 -1.2049
  244MPD1    H1 3758   1.365   0.448  17.716  0.5772  0.4241  0.2587
  244MPD1    H2 3759   1.452   0.056   0.098  0.9270 -0.3383 -0.0121
  244MPD1    H3 3760   1.431   0.301   0.142 -1.1300  0.6824 -0.1982
  244MPD1     N 3761   1.363   0.396  17.452 -0.6160  0.3628  0.3881
  244MPD1    H5 3762   1.350   0.487  17.494 -2.8527  0.4273 -0.4667
  244MPD1    N1 3763   1.425   4.678  17.609  0.1708  0.4104 -0.5437
  244MPD1    H6 3764   1.426   4.649  17.511 -2.2169  0.1098 -0.4839
  244MPD1    H7 3765   1.499   4.628  17.658  1.0113  1.4635 -0.7534
  245MPD1     C 3766   2.640   0.922  12.179 -0.0610 -0.1918 -0.4046
  245MPD1    C1 3767   2.758   0.880  12.233 -0.3793  0.2207 -0.4666
  245MPD1    C2 3768   2.826   0.962  12.325 -0.1539 -0.5136  0.0035
  245MPD1    C3 3769   2.788   1.092  12.336 -0.7470  0.2574 -1.2629
  245MPD1    C4 3770   2.675   1.136  12.274 -0.0686  0.6557 -0.4222
  245MPD1    C5 3771   2.594   1.043  12.213  0.2196  0.2582  0.2747
  245MPD1     H 3772   2.913   0.933  12.383 -0.6335 -2.9608 -0.4889
  245MPD1    H1 3773   2.632   1.234  12.288 -1.3205 -0.1427  1.3540
  245MPD1    H2 3774   2.580   0.862  12.112  1.6418 -0.4310 -1.6947
  245MPD1    H3 3775   2.496   1.072  12.178 -0.6949 -1.9513  0.9754
  245MPD1     N 3776   2.860   1.174  12.429 -0.0149  0.2080 -0.2042
  245MPD1    H5 3777   2.940   1.130  12.472 -2.5436 -0.4879  3.7608
  245MPD1    N1 3778   2.804   0.747  12.210  0.2406  0.7760 -0.2848
  245MPD1    H6 3779   2.901   0.749  12.240  0.3477 -1.5690 -0.4094
  245MPD1    H7 3780   2.805   0.723  12.110  1.3563 -0.0637 -0.0711
  246MPD1     C 3781   2.445   1.291  10.763 -0.0625 -0.1083 -0.8470
  246MPD1    C1 3782   2.530   1.184  10.791 -0.2902 -0.1252 -0.8126
  246MPD1    C2 3783   2.631   1.164  10.696 -0.0060 -0.4815 -0.2867
  246MPD1    C3 3784   2.652   1.244  10.583  0.2881 -0.2354 -0.0015
  246MPD1    C4 3785   2.580   1.358  10.568 -0.3202  0.3153 -0.4922
  246MPD1    C5 3786   2.476   1.373  10.658  0.3853  0.1820 -0.0457
  246MPD1     H 3787   2.701   1.084  10.715  0.4639  0.2790  1.1030
  246MPD1    H1 3788   2.587   1.428  10.485 -0.3364 -0.0222 -0.7777
  246MPD1    H2 3789   2.350   1.300  10.814  0.0520  2.1516 -1.0482
  246MPD1    H3 3790   2.409   1.456  10.637 -2.3697 -2.0046  0.1673
  246MPD1     N 3791   2.764   1.209  10.502  0.8046 -0.1714  0.0041
  246MPD1    H5 3792   2.825   1.138  10.541  1.3467  1.1956  1.6347
  246MPD1    N1 3793   2.513   1.085  10.894  0.4757 -0.1154  0.2019
  246MPD1    H6 3794   2.602   1.038  10.914  2.0235  2.3234 -1.0271
  246MPD1    H7 3795   2.503   1.141  10.978 -2.4344  1.3582 -1.1694
  247MPD1     C 3796   2.543   1.088  16.970 -0.3475 -0.1063 -1.1980
  247MPD1    C1 3797   2.507   1.159  16.862 -0.2229 -0.0943  0.3594
  247MPD1    C2 3798   2.546   1.116  16.742 -0.4313 -0.0727  0.3495
  247MPD1    C3 3799   2.607   0.996  16.716  0.4278 -0.5942 -0.4133
  247MPD1    C4 3800   2.645   0.924  16.826  0.6813 -0.0244 -0.5858
  247MPD1    C5 3801   2.598   0.966  16.946  0.3336  0.9472  0.0862
  247MPD1     H 3802   2.530   1.183  16.658  2.5964  1.1224  0.7350
  247MPD1    H1 3803   2.698   0.830  16.816  1.1312  0.0482  1.2505
  247MPD1    H2 3804   2.514   1.114  17.071 -1.9476 -2.7321 -0.9651
  247MPD1    H3 3805   2.613   0.905  17.034  0.1951  0.5201 -0.1832
  247MPD1     N 3806   2.656   0.958  16.589 -0.1281  0.4379  0.1320
  247MPD1    H5 3807   2.694   0.864  16.588  1.1881  0.9676  0.3093
  247MPD1    N1 3808   2.464   1.293  16.882 -0.4677  0.7409  0.1142
  247MPD1    H6 3809   2.401   1.291  16.962 -0.2216 -1.0957  0.2614
  247MPD1    H7 3810   2.409   1.333  16.806  1.2687  1.0886 -0.9680
  248MPD1     C 3811   3.631   1.014  17.492 -0.5995 -0.1331 -0.3985
  248MPD1    C1 3812   3.617   1.130  17.574  0.5752  0.4792  0.3131
  248MPD1    C2 3813   3.500   1.141  17.643 -0.4187  0.2755  0.3373
  248MPD1    C3 3814   3.410   1.045  17.658  0.3804 -0.5932  0.3300
  248MPD1    C4 3815   3.444   0.919  17.616  0.5614  0.4849  0.1766
  248MPD1    C5 3816   3.553   0.911  17.531  0.3892  0.0274  0.1855
  248MPD1     H 3817   3.467   1.238  17.678 -2.2409  1.0165 -3.3595
  248MPD1    H1 3818   3.393   0.826  17.636 -1.4117  0.8985 -2.9188
  248MPD1    H2 3819   3.686   1.002  17.400 -1.5785  0.2289 -1.0325
  248MPD1    H3 3820   3.558   0.820  17.472 -0.4080 -1.2541  2.0967
  248MPD1     N 3821   3.303   1.078  17.732  0.2177  0.1735  0.8198
  248MPD1    H5 3822   3.293   1.170   0.024 -0.6236  0.8560 -0.8889
  248MPD1    N1 3823   3.691   1.247  17.547  1.1036 -0.4938  0.7177
  248MPD1    H6 3824   3.788   1.223  17.534  0.8858 -1.2583  0.4966
  248MPD1    H7 3825   3.691   1.303  17.633 -0.9429  2.5898 -1.2741
  249MPD1     C 3826   0.461   0.936   8.940  0.8533 -0.0992 -0.4681
  249MPD1    C1 3827   0.590   0.963   8.899  0.2947  0.7465  0.8408
  249MPD1    C2 3828   0.677   1.001   9.002 -0.2649  0.7796 -0.1813
  249MPD1    C3 3829   0.645   1.000   9.132  0.1867 -1.1112  0.0022
  249MPD1    C4 3830   0.516   0.970   9.169 -0.4427  0.0467  0.1023
  249MPD1    C5 3831   0.430   0.940   9.071  0.3756  0.2919  0.1683
  249MPD1     H 3832   0.771   1.047   8.977  0.3318 -0.7947 -0.8483
  249MPD1    H1 3833   0.482   0.959   9.272 -0.3637  0.1221  0.1365
  249MPD1    H2 3834   0.376   0.915   8.877 -0.0961  2.3865 -0.0158
  249MPD1    H3 3835   0.329   0.925   9.106  0.7905  0.6353  1.5263
  249MPD1     N 3836   0.750   1.033   9.223  0.4409 -0.4227 -0.1380
  249MPD1    H5 3837   0.831   1.080   9.184 -0.5442 -0.2753 -2.0038
  249MPD1    N1 3838   0.621   0.985   8.764 -0.3184 -0.5449  0.5910
  249MPD1    H6 3839   0.583   0.917   8.698 -0.2615 -0.3700  0.3771
  249MPD1    H7 3840   0.721   0.984   8.746 -0.2069  1.8874  1.0795
  250MPD2     C 3841   1.919   4.462  13.618  0.3719 -0.2277 -0.0830
  250MPD2    C1 3842   1.794   4.492  13.564  0.0393  0.2092 -0.0671
  250MPD2    C2 3843   1.709   4.388  13.525  0.3114  0.4565  0.5595
  250MPD2    C3 3844   1.751   4.260  13.515 -0.4569  0.1540 -0.2304
  250MPD2    C4 3845   1.877   4.229  13.556  0.2459  0.4638 -0.1605
  250MPD2    C5 3846   1.950   4.331  13.607 -0.5025  0.4512  0.1722
  250MPD2     H 3847   1.608   4.401  13.489  0.6774  1.8585  0.0624
  250MPD2    H1 3848   1.911   4.127  13.539  0.4985  0.6382 -0.7164
  250MPD2    H2 3849   1.989   4.540  13.645  1.3600 -1.1180 -0.0843
  250MPD2    H3 3850   2.052   4.316  13.641 -0.6785 -0.6306  0.2272
  250MPD2     N 3851   1.677   4.151  13.464  0.0419 -0.6478  1.1780
  250MPD2    H5 3852   1.731   4.067  13.445  1.3060  0.4251  0.0256
  250MPD2    N1 3853   1.760   4.627  13.565  0.0014 -0.3832  0.1656
  250MPD2    H7 3854   1.809   4.687  13.630  1.2630 -1.5680  0.3065
  251TMC3    C1 3855   1.659   0.098  13.520  0.0897 -0.3426  0.5899
  251TMC3    C2 3856   1.545   0.161  13.546  0.8647 -0.1668  0.5650
  251TMC3    C3 3857   1.551   0.298  13.563  0.2492 -0.2771 -1.0522
  251TMC3    C4 3858   1.779   0.163  13.495  0.6726 -0.3656  1.0332
  251TMC3    C5 3859   1.776   0.297  13.507  0.4412 -0.3296 -0.2313
  251TMC3    C6 3860   1.664   0.369  13.538  0.8311 -0.0010  0.2902
  251TMC3     C 3861   1.648   4.685  13.512  0.5178  0.3977  0.1208
  251TMC3     O 3862   1.543   4.636  13.465  0.5256 -0.3846 -0.0335
  251TMC3     H 3863   1.465   0.097  13.583  2.5087 -1.9692  1.0361
  251TMC3    H1 3864   1.874   0.120  13.463  0.1673 -0.4638 -0.3303
  251TMC3    H2 3865   1.671   0.473  13.565  0.0769  0.2921 -0.6396
  251TMC3    C7 3866   1.894   0.362  13.473  0.9515  0.9546 -0.5690
  251TMC3    C8 3867   1.426   0.361  13.597  0.6224  0.3366 -0.3756
  251TMC3    O1 3868   1.996   0.296  13.501 -0.0791 -0.2766  0.1503
  251TMC3    O2 3869   1.345   0.291  13.657 -0.0333 -0.7695  0.2876
  252TMC3    C1 3870   1.129   2.233   9.886 -0.1669 -0.9330 -0.1343
  252TMC3    C2 3871   1.247   2.273   9.939 -0.6307  0.2165 -0.0848
  252TMC3    C3 3872   1.342   2.172   9.958 -0.7629  0.4798 -0.0171
  252TMC3    C4 3873   1.096   2.111   9.864 -0.4275  0.2798 -0.2830
  252TMC3    C5 3874   1.190   2.012   9.885 -0.2130 -0.1513  0.7309
  252TMC3    C6 3875   1.319   2.043   9.937  0.0596  0.3593  0.0165
  252TMC3     C 3876   1.015   2.332   9.882  0.2834 -0.5730  1.3279
  252TMC3     O 3877   0.912   2.307   9.819  0.0860  0.4728  0.3138
  252TMC3     H 3878   1.279   2.376   9.948  0.9551 -0.0201 -2.7780
  252TMC3    H1 3879   0.999   2.089   9.823 -0.0285  0.8211 -1.5084
  252TMC3    H2 3880   1.387   1.968   9.977 -0.4367  0.1901  0.5497
  252TMC3    C7 3881   1.132   1.871   9.891  0.0974  0.5589  0.2216
  252TMC3    C8 3882   1.478   2.217   9.989  0.4932 -0.0727  0.2486
  252TMC3    O1 3883   1.010   1.856   9.899  0.0276  0.4153 -0.2214
  252TMC3    O2 3884   1.503   2.332   9.954 -0.5512  0.1518  0.5787
  253MPD2     C 3885   2.930   0.039  14.926 -0.1833  0.6989 -0.0818
  253MPD2    C1 3886   2.809   0.008  14.977 -0.1121 -0.2091  0.1117
  253MPD2    C2 3887   2.785   0.045  15.111  0.1227 -1.0640 -0.1729
  253MPD2    C3 3888   2.872   0.119  15.188  0.2058  0.1586  0.5027
  253MPD2    C4 3889   2.995   0.143  15.132 -1.0290 -0.2674  0.3921
  253MPD2    C5 3890   3.018   0.094  15.011 -0.2399  0.2101 -0.1113
  253MPD2     H 3891   2.688   0.020  15.152  0.1150  0.5218  0.7993
  253MPD2    H1 3892   3.080   0.184  15.185  0.1366 -0.9394 -0.9531
  253MPD2    H2 3893   2.965   0.006  14.828  2.3183  1.8084  0.4222
  253MPD2    H3 3894   3.123   0.100  14.982 -0.5327  2.4152 -0.6877
  253MPD2     N 3895   2.829   0.166  15.315 -0.4220  0.2785 -0.4781
  253MPD2    H5 3896   2.734   0.145  15.343  0.5318  0.8279  3.2550
  253MPD2    N1 3897   2.710   4.673  14.906  0.5147  0.3720 -0.1141
  253MPD2    H7 3898   2.630   4.635  14.956  0.9172  1.3903  1.3181
  254TMC3    C1 3899   2.859   0.231  15.545  0.5870  0.2405 -0.9047
  254TMC3    C2 3900   2.725   0.235  15.542 -0.1771  0.1930 -0.7967
  254TMC3    C3 3901   2.653   0.163  15.639 -1.2618  0.5702  0.0746
  254TMC3    C4 3902   2.922   0.161  15.642  0.1157 -0.7043  0.3319
  254TMC3    C5 3903   2.856   0.066  15.719 -0.5430 -0.2869 -0.6736
  254TMC3    C6 3904   2.721   0.078  15.722 -0.1795 -0.1750 -0.3348
  254TMC3     C 3905   2.918   0.218  15.411  0.7214  0.1674 -0.5140
  254TMC3     O 3906   3.040   0.233  15.410  0.7339  0.1039 -0.0621
  254TMC3     H 3907   2.679   0.288  15.459 -0.4264  1.8865  0.4176
  254TMC3    H1 3908   3.027   0.155  15.617  0.0533 -0.5024  0.0199
  254TMC3    H2 3909   2.666   0.024  15.798 -1.0567  0.2476 -0.6650
  254TMC3    C7 3910   2.919   0.030  15.846  0.2475 -0.8144  0.1389
  254TMC3    C8 3911   2.525   0.217  15.688  0.3607  0.8752 -0.4374
  254TMC3    O1 3912   2.848   4.704  15.926 -0.7411 -0.2321 -0.3082
  254TMC3    O2 3913   2.467   0.151  15.771  0.0915 -0.8244  0.5293
  255MPD2     C 3914   0.911   3.780  10.806 -0.1027 -0.3336 -0.6004
  255MPD2    C1 3915   0.999   3.879  10.775  1.0570 -0.2362 -0.2450
  255MPD2    C2 3916   1.126   3.846  10.727 -0.1076  0.4574 -0.6432
  255MPD2    C3 3917   1.149   3.717  10.696  0.1359  0.3565  0.2881
  255MPD2    C4 3918   1.060   3.617  10.718 -0.1035 -0.0005 -0.0068
  255MPD2    C5 3919   0.940   3.649  10.779 -0.9275  0.3832  0.8695
  255MPD2     H 3920   1.196   3.928  10.714  1.2728 -0.1557  3.0068
  255MPD2    H1 3921   1.067   3.510  10.701  0.3869  0.0419 -0.0839
  255MPD2    H2 3922   0.811   3.792  10.846 -1.3395 -1.6530 -3.3069
  255MPD2    H3 3923   0.868   3.572  10.801 -0.4283 -0.2891  0.1657
  255MPD2     N 3924   1.279   3.698  10.642  0.3520  0.1323 -0.1012
  255MPD2    H5 3925   1.352   3.766  10.665  0.5174  0.5156 -1.7430
  255MPD2    N1 3926   0.954   4.012  10.792  0.0450 -0.0354  0.8717
  255MPD2    H7 3927   0.861   4.032  10.826 -0.3568 -2.6242  1.2142
  256TMC3    C1 3928   0.943   4.240  10.744 -0.2722  0.9123  0.5663
  256TMC3    C2 3929   1.024   4.345  10.746  0.0931 -0.1259  0.0301
  256TMC3    C3 3930   0.995   4.445  10.655 -0.7158 -0.1470 -0.2195
  256TMC3    C4 3931   0.828   4.233  10.663  0.4271  0.0710 -0.3789
  256TMC3    C5 3932   0.802   4.337  10.585 -0.3293  0.2396  0.5172
  256TMC3    C6 3933   0.885   4.447  10.578  0.7026  0.2932  0.1778
  256TMC3     C 3934   1.021   4.122  10.754  0.1316 -0.1718  0.0646
  256TMC3     O 3935   1.131   4.131  10.700 -0.2779 -0.1361  0.0414
  256TMC3     H 3936   1.115   4.351  10.804 -0.0148  0.0167  0.1852
  256TMC3    H1 3937   0.749   4.159  10.670  2.0394 -1.6735 -0.6323
  256TMC3    H2 3938   0.878   4.522  10.500 -0.5582 -1.2682 -1.1895
  256TMC3    C7 3939   0.742   4.285  10.460  0.4589  0.3612 -0.4435
  256TMC3    C8 3940   1.100   4.527  10.616  0.2510 -0.5888  0.2124
  256TMC3    O1 3941   0.758   4.164  10.443 -0.1305  0.1506 -0.1046
  256TMC3    O2 3942   1.146   4.586  10.712 -0.1626  0.3341 -0.0414
  257MPD2     C 3943   4.653   3.877  13.415 -0.2368 -0.5460 -0.0788
  257MPD2    C1 3944   0.020   3.949  13.361 -0.0779 -0.0249  0.3087
  257MPD2    C2 3945   0.146   3.938  13.422  0.0701  0.5247 -0.6954
  257MPD2    C3 3946   0.168   3.855  13.530 -0.2241  0.2145 -0.4480
  257MPD2    C4 3947   0.063   3.783  13.580 -0.0639  0.5005 -0.1548
  257MPD2    C5 3948   4.677   3.797  13.522 -0.0694  0.1285 -0.6273
  257MPD2     H 3949   0.238   3.969  13.374  0.8221 -0.6440 -0.0015
  257MPD2    H1 3950   0.068   3.716  13.664 -3.1626  1.1104  0.5292
  257MPD2    H2 3951   4.556   3.872  13.367 -0.5442  1.3720  0.3426
  257MPD2    H3 3952   4.598   3.730  13.552  0.5357  0.2130  1.1314
  257MPD2     N 3953   0.301   3.839  13.570  0.2839 -0.2806 -0.0884
  257MPD2    H5 3954   0.369   3.884  13.509  0.8592  0.5515  1.1661
  257MPD2    N1 3955   4.735   4.024  13.242  0.1776 -0.3439 -0.5201
  257MPD2    H7 3956   4.656   3.997  13.184 -1.4832 -0.9932  2.0779
  258TMC3    C1 3957   0.485   3.811  13.707 -0.3770 -0.0298 -0.2362
  258TMC3    C2 3958   0.574   3.798  13.607  0.5416 -0.3545  0.1632
  258TMC3    C3 3959   0.706   3.786  13.632  0.2013 -0.2375  0.2034
  258TMC3    C4 3960   0.526   3.816  13.838 -1.2998 -0.1533  0.2006
  258TMC3    C5 3961   0.661   3.804  13.867 -0.0837 -0.6696  0.2958
  258TMC3    C6 3962   0.748   3.787  13.762 -0.8239 -0.3621  0.2057
  258TMC3     C 3963   0.339   3.805  13.696  0.0215  0.2965  0.1720
  258TMC3     O 3964   0.273   3.797  13.797 -0.0830 -0.3459 -0.2251
  258TMC3     H 3965   0.536   3.785  13.506  3.3872 -0.5229 -0.8871
  258TMC3    H1 3966   0.465   3.830  13.927 -2.3515  0.3067 -0.6007
  258TMC3    H2 3967   0.855   3.797  13.779 -0.2631 -2.9834 -1.7776
  258TMC3    C7 3968   0.701   3.847  13.996  0.1462  0.3368 -0.8504
  258TMC3    C8 3969   0.796   3.739  13.534  0.4153 -0.5570  0.1812
  258TMC3    O1 3970   0.633   3.927  14.058  0.4289  0.2509  0.4454
  258TMC3    O2 3971   0.913   3.733  13.574  0.1922 -0.2063  0.2620
  259MPD2     C 3972   3.813   1.642   0.486 -0.0590 -0.3809  0.5843
  259MPD2    C1 3973   3.880   1.628   0.610  0.6635  0.1421  0.0266
  259MPD2    C2 3974   4.005   1.581   0.612  0.0456  0.6524  0.1075
  259MPD2    C3 3975   4.079   1.547   0.500 -0.3804 -0.0023 -0.6121
  259MPD2    C4 3976   4.012   1.576   0.382 -0.1814 -0.4090 -0.5212
  259MPD2    C5 3977   3.887   1.629   0.374 -0.0450  0.1203  0.1861
  259MPD2     H 3978   4.054   1.563   0.707  0.9019 -2.1878 -0.8920
  259MPD2    H1 3979   4.068   1.559   0.291  0.7450 -1.1886  0.2012
  259MPD2    H2 3980   3.710   1.676   0.481  0.0580 -0.2178 -0.6445
  259MPD2    H3 3981   3.838   1.643   0.279  0.0887  2.1137  0.4186
  259MPD2     N 3982   4.212   1.500   0.514 -0.6356  0.0637 -0.4087
  259MPD2    H5 3983   4.245   1.461   0.602  0.6487 -0.6955 -1.2259
  259MPD2    N1 3984   3.814   1.646   0.731 -0.3466 -0.4466 -0.6444
  259MPD2    H7 3985   3.866   1.639   0.818  0.2604  1.5226 -0.8619
  260TMC3    C1 3986   4.445   1.490   0.445 -0.2803  0.3219 -0.5530
  260TMC3    C2 3987   4.532   1.553   0.355 -0.7777 -0.1809 -1.0014
  260TMC3    C3 3988   4.643   1.479   0.326  0.1373  0.2543 -0.2313
  260TMC3    C4 3989   4.468   1.371   0.504  0.7267 -0.4726  0.4931
  260TMC3    C5 3990   4.584   1.300   0.477  0.0843 -0.0183  0.0872
  260TMC3    C6 3991   4.669   1.361   0.395  0.2410 -0.2800 -0.1906
  260TMC3     C 3992   4.308   1.520   0.415  0.3771 -0.7189  0.2421
  260TMC3     O 3993   4.291   1.572   0.302 -0.0622 -0.2266 -0.3818
  260TMC3     H 3994   4.511   1.649   0.309  1.4777  0.7976 -0.0018
  260TMC3    H1 3995   4.403   1.313   0.568  0.6074 -2.6106 -1.5546
  260TMC3    H2 3996   0.026   1.311   0.382  0.2504 -0.1038 -0.7891
  260TMC3    C7 3997   4.567   1.167   0.428 -0.4415 -0.0318 -0.0502
  260TMC3    C8 3998   4.691   1.490   0.193  0.5096  0.1187  0.2815
  260TMC3    O1 3999   4.563   1.157   0.305  0.0027 -0.3935  0.5940
  260TMC3    O2 4000   4.731   1.597   0.154  0.9603  0.0913 -0.1202
  261MPD2     C 4001   1.108   3.986  12.827  0.2207  0.1682  0.4818
  261MPD2    C1 4002   1.184   4.083  12.892  0.8048  0.1960 -0.1606
  261MPD2    C2 4003   1.191   4.208  12.831  0.4341 -0.4566 -0.4455
  261MPD2    C3 4004   1.139   4.225  12.703  0.0635 -0.1858  0.4490
  261MPD2    C4 4005   1.075   4.121  12.639  0.3039  0.2544  0.4676
  261MPD2    C5 4006   1.062   4.004  12.696 -0.5929 -0.5233  0.0848
  261MPD2     H 4007   1.239   4.292  12.879 -1.2448  0.3452 -0.1556
  261MPD2    H1 4008   1.046   4.123  12.534  0.2415 -0.4256  0.4665
  261MPD2    H2 4009   1.118   3.882  12.856  4.1168  0.2794 -0.4668
  261MPD2    H3 4010   1.010   3.925  12.643 -0.3357  0.1239 -1.1227
  261MPD2     N 4011   1.141   4.348  12.638 -0.2864 -0.5853 -0.1693
  261MPD2    H5 4012   1.166   4.431  12.691 -1.2795 -0.3675 -0.0517
  261MPD2    N1 4013   1.258   4.059  13.013  0.9707 -0.0013  0.1977
  261MPD2    H7 4014   1.300   4.142  13.054 -0.1067  0.0447  1.2230
  262TMC3    C1 4015   1.092   4.507  12.473  0.0199 -0.3145  0.0869
  262TMC3    C2 4016   1.001   4.582  12.545 -0.8171 -0.0843  0.2956
  262TMC3    C3 4017   0.943   4.687  12.480  0.3287 -0.7269  0.7515
  262TMC3    C4 4018   1.106   4.527  12.339  0.1132 -0.9333 -0.7298
  262TMC3    C5 4019   1.054   4.635  12.282  0.6109 -0.4418 -0.2009
  262TMC3    C6 4020   0.973   4.719  12.348 -0.1754  0.6738 -0.0572
  262TMC3     C 4021   1.120   4.374  12.508  0.7395  0.4450  0.8051
  262TMC3     O 4022   1.104   4.297  12.415 -0.4255  0.2860  0.1555
  262TMC3     H 4023   0.976   4.566  12.649 -0.0198  2.7007  0.9206
  262TMC3    H1 4024   1.181   4.468  12.288  1.0037 -0.2638 -0.1948
  262TMC3    H2 4025   0.922   0.064  12.301 -0.1312 -0.0847 -1.4542
  262TMC3    C7 4026   1.092   4.672  12.151  0.6121  0.0391  0.1520
  262TMC3    C8 4027   0.835   0.008  12.557  0.3050  0.5721 -1.1750
  262TMC3    O1 4028   1.115   4.588  12.064  0.3461  0.6600  0.0254
  262TMC3    O2 4029   0.760   4.670  12.618 -0.0507  0.2687  0.4197
  263MPD2     C 4030   1.625   3.703  11.548 -0.7829 -1.0092 -0.7916
  263MPD2    C1 4031   1.747   3.691  11.484  0.9587  0.0629 -0.0208
  263MPD2    C2 4032   1.765   3.756  11.362  0.1064  0.5534  0.1431
  263MPD2    C3 4033   1.675   3.850  11.316  0.5850  0.3357 -0.0907
  263MPD2    C4 4034   1.559   3.864  11.388  0.4823 -0.6423 -0.2490
  263MPD2    C5 4035   1.531   3.791  11.503 -0.3115  0.1202 -0.0361
  263MPD2     H 4036   1.858   3.758  11.307 -1.3730 -2.7586 -2.5106
  263MPD2    H1 4037   1.484   3.937  11.361 -0.3647 -1.4290 -0.0088
  263MPD2    H2 4038   1.595   3.645  11.634 -3.0270  0.9070 -0.2829
  263MPD2    H3 4039   1.437   3.801  11.555 -0.7367 -1.6264 -0.4803
  263MPD2     N 4040   1.697   3.925  11.192  0.4379  0.2455 -0.1983
  263MPD2    H5 4041   1.778   3.887  11.144 -0.0676  0.0459 -0.8949
  263MPD2    N1 4042   1.845   3.596  11.532  0.2038  0.5175  0.1232
  263MPD2    H7 4043   1.828   3.557  11.624  1.7524 -0.0707  0.1535
  264TMC3    C1 4044   1.696   4.094  11.028 -0.0481  0.0022  0.4230
  264TMC3    C2 4045   1.678   4.230  11.024  0.1447 -0.4930 -0.2374
  264TMC3    C3 4046   1.773   4.304  10.960  0.5207  0.6152 -1.4559
  264TMC3    C4 4047   1.800   4.029  10.969 -0.4558  0.3876 -0.2524
  264TMC3    C5 4048   1.885   4.104  10.891 -0.0557  0.4741  0.3489
  264TMC3    C6 4049   1.869   4.246  10.881 -0.0789  0.3227  0.0665
  264TMC3     C 4050   1.629   4.030  11.136  0.2810  0.2576 -0.3273
  264TMC3     O 4051   1.525   4.082  11.178 -0.3371 -0.2128 -0.0888
  264TMC3     H 4052   1.594   4.278  11.073  1.0162  0.5612  0.2066
  264TMC3    H1 4053   1.805   3.921  10.970  1.6436  0.4964  1.3105
  264TMC3    H2 4054   1.931   4.297  10.809 -1.7030 -0.5426 -1.9513
  264TMC3    C7 4055   1.975   4.046  10.795 -0.2016  0.0308  0.9009
  264TMC3    C8 4056   1.798   4.440  10.993 -0.0533  0.0765  0.2813
  264TMC3    O1 4057   2.024   4.117  10.711 -0.2722  0.4849  0.0423
  264TMC3    O2 4058   1.861   4.497  10.906 -0.1315 -0.3726 -0.0034
  265MPD2     C 4059   3.958   4.245  15.924  1.1104  0.1670 -0.7353
  265MPD2    C1 4060   3.923   4.309  15.806 -0.2486  0.0030 -0.9539
  265MPD2    C2 4061   3.930   4.236  15.686 -0.5560 -0.1887 -0.1388
  265MPD2    C3 4062   3.990   4.112  15.679  1.0858  0.6894 -0.4681
  265MPD2    C4 4063   4.048   4.058  15.794 -0.8303  0.4766 -0.3052
  265MPD2    C5 4064   4.029   4.121  15.923 -0.3854  0.3163  0.1731
  265MPD2     H 4065   3.894   4.288  15.598 -2.5335 -2.1749 -0.5127
  265MPD2    H1 4066   4.105   3.966  15.794 -1.9609 -0.2328  2.6087
  265MPD2    H2 4067   3.939   4.295  16.018  1.0962  0.3588 -0.8404
  265MPD2    H3 4068   4.064   4.076  16.015 -2.8177 -0.6774  0.6353
  265MPD2     N 4069   4.011   4.054  15.551  0.3880 -0.3892 -0.3692
  265MPD2    H5 4070   4.091   3.993  15.542  0.8500  0.0655  0.6329
  265MPD2    N1 4071   3.873   4.443  15.802  0.7628 -0.0645 -0.0904
  265MPD2    H7 4072   3.836   4.480  15.715 -0.0616 -0.2297  0.1934
  266TMC3    C1 4073   3.824   4.658  15.880 -0.0638  0.2283 -0.3068
  266TMC3    C2 4074   3.802   0.000  15.995  0.4049 -0.6025 -0.1475
  266TMC3    C3 4075   3.790   0.133  15.981  0.0279  0.1697  0.7604
  266TMC3    C4 4076   3.832   4.714  15.753 -0.3436 -0.1231 -0.7192
  266TMC3    C5 4077   3.806   0.115  15.744  0.3264 -0.0862 -0.5821
  266TMC3    C6 4078   3.786   0.188  15.856 -0.5900 -0.2742  0.4042
  266TMC3     C 4079   3.874   4.524  15.915  0.1684 -0.3539  0.4812
  266TMC3     O 4080   3.914   4.514  16.030 -0.3955 -0.2767 -0.6660
  266TMC3     H 4081   3.784   4.686  16.088  0.3845 -0.1204  0.1161
  266TMC3    H1 4082   3.854   4.654  15.666  0.5600  0.6211 -1.0022
  266TMC3    H2 4083   3.776   0.296  15.844  0.1410 -0.2268  0.2541
  266TMC3    C7 4084   3.721   0.138  15.627  0.0046  0.0242  0.5440
  266TMC3    C8 4085   3.752   0.210  16.093  0.6055 -0.6378  0.0897
  266TMC3    O1 4086   3.701   0.045  15.551 -0.0989 -0.5326  0.4604
  266TMC3    O2 4087   3.697   0.155  16.189  0.6338 -0.7761 -0.3125
  267MPD2     C 4088   1.108   1.471   0.042  0.2781  0.3266  0.0684
  267MPD2    C1 4089   1.231   1.496  17.734 -0.0165 -0.1752 -0.0721
  267MPD2    C2 4090   1.237   1.567  17.612 -0.0489  0.9953  0.3208
  267MPD2    C3 4091   1.126   1.617  17.552  0.5081 -0.6258 -0.1444
  267MPD2    C4 4092   1.004   1.588  17.616  0.5487  0.4690 -0.1764
  267MPD2    C5 4093   0.999   1.510  17.725 -0.3540 -0.5480 -0.4061
  267MPD2     H 4094   1.331   1.577  17.559  0.2806  1.8480  1.0626
  267MPD2    H1 4095   0.917   1.611  17.556  1.7528  0.8748 -1.7413
  267MPD2    H2 4096   1.102   1.413   0.133 -1.0304  2.0467  1.0822
  267MPD2    H3 4097   0.899   1.488   0.011  0.2319 -0.9228  1.0044
  267MPD2     N 4098   1.113   1.699  17.443 -0.0852 -0.4683 -0.5798
  267MPD2    H5 4099   1.017   1.716  17.417 -0.1323 -0.7131 -0.5684
  267MPD2    N1 4100   1.348   1.452   0.058 -0.0737  0.2690  0.8117
  267MPD2    H7 4101   1.327   1.407   0.146 -0.4703  1.3651  1.2709
  268TMC3    C1 4102   1.577   1.459   0.143 -0.7782  0.6587 -0.1102
  268TMC3    C2 4103   1.698   1.520   0.156  0.4434 -0.1493  0.1536
  268TMC3    C3 4104   1.787   1.474   0.249 -0.4496 -0.3708  0.3036
  268TMC3    C4 4105   1.551   1.350   0.220 -0.0492 -0.1033 -1.6393
  268TMC3    C5 4106   1.643   1.305   0.308 -0.1566 -0.1879  0.5907
  268TMC3    C6 4107   1.753   1.377   0.332  0.5654  0.2948 -0.7711
  268TMC3     C 4108   1.478   1.504   0.047  0.3992  0.6778  0.2279
  268TMC3     O 4109   1.526   1.585  17.712 -0.1137  0.8644  0.2323
  268TMC3     H 4110   1.738   1.593   0.086 -1.5626  0.7059 -0.0793
  268TMC3    H1 4111   1.464   1.295   0.187  0.4374 -2.5182  1.1373
  268TMC3    H2 4112   1.835   1.337   0.390  0.6612  1.9484  0.2474
  268TMC3    C7 4113   1.623   1.181   0.374  0.0028 -0.0443  0.2848
  268TMC3    C8 4114   1.927   1.512   0.252 -0.4751  0.1288  0.1464
  268TMC3    O1 4115   1.717   1.128   0.425 -0.1023 -0.3344 -0.2336
  268TMC3    O2 4116   1.989   1.503   0.356 -0.4313 -0.7924 -0.3654
  269MPD2     C 4117   1.943   0.059  15.831 -0.3565  0.2373  0.5250
  269MPD2    C1 4118   1.814   0.090  15.821 -0.3956 -0.1566 -0.4102
  269MPD2    C2 4119   1.779   0.213  15.789 -0.4428 -0.7987 -0.2038
  269MPD2    C3 4120   1.874   0.305  15.748  0.0655  0.0755 -0.7315
  269MPD2    C4 4121   2.006   0.275  15.751  0.4244 -0.0659 -0.1323
  269MPD2    C5 4122   2.040   0.156  15.799 -0.7972  0.6721 -0.6958
  269MPD2     H 4123   1.674   0.238  15.773 -0.1231 -0.8608 -2.2984
  269MPD2    H1 4124   2.082   0.349  15.729  1.1943 -0.5961  0.7619
  269MPD2    H2 4125   1.976   4.694  15.845 -2.4503 -0.6532 -0.9406
  269MPD2    H3 4126   2.142   0.124  15.820 -1.1610 -0.9453 -1.4014
  269MPD2     N 4127   1.826   0.432  15.713 -0.1651 -0.9143  0.0982
  269MPD2    H5 4128   1.728   0.451  15.733 -0.4494 -1.0936 -1.0980
  269MPD2    N1 4129   1.721   4.719  15.833 -0.5012  0.4473 -0.6607
  269MPD2    H7 4130   1.760   4.626  15.848 -0.4780  0.2420 -2.0720
  270TMC3    C1 4131   1.520   4.592  15.802  0.5564 -0.3620 -0.0604
  270TMC3    C2 4132   1.420   4.578  15.709 -0.1564 -0.0469  0.4637
  270TMC3    C3 4133   1.320   4.482  15.721 -0.0088 -0.6115 -0.2257
  270TMC3    C4 4134   1.528   4.519  15.915 -0.8709 -1.2559 -0.0536
  270TMC3    C5 4135   1.435   4.416  15.917  0.7494  0.4311  0.7981
  270TMC3    C6 4136   1.337   4.390  15.822 -0.0150  0.3976  0.5810
  270TMC3     C 4137   1.590   4.717  15.799 -0.1609  0.0141  0.3614
  270TMC3     O 4138   1.523   0.077  15.765 -0.3135  0.5485  0.1052
  270TMC3     H 4139   1.401   4.650  15.630  1.4145  0.6555  0.7380
  270TMC3    H1 4140   1.599   4.532  15.996 -1.1650 -0.4871  0.0815
  270TMC3    H2 4141   1.285   4.295  15.823 -0.6453  0.7524  1.2099
  270TMC3    C7 4142   1.473   4.292  15.980 -0.3366  0.8896  0.1482
  270TMC3    C8 4143   1.293   4.427  15.595  0.1081 -0.2116  0.4422
  270TMC3    O1 4144   1.372   4.238  16.029  0.2876  0.9108  0.3233
  270TMC3    O2 4145   1.347   4.479  15.496 -0.5861 -0.1782 -0.0426
  271MPD2     C 4146   0.951   4.134  13.965  0.4070 -0.2632  0.6920
  271MPD2    C1 4147   0.916   4.197  14.079 -0.5359  0.6567  0.0890
  271MPD2    C2 4148   0.820   4.297  14.087 -0.6077  0.7662  0.3241
  271MPD2    C3 4149   0.754   4.331  13.972  0.3076 -0.3855  0.3008
  271MPD2    C4 4150   0.787   4.268  13.858 -0.0072  0.1564  0.4418
  271MPD2    C5 4151   0.880   4.168  13.857  0.3234  0.3524  0.0274
  271MPD2     H 4152   0.800   4.339  14.184 -0.6002  0.8041  0.3089
  271MPD2    H1 4153   0.740   4.275  13.761 -1.3118  0.5293  1.1077
  271MPD2    H2 4154   1.024   4.054  13.966 -0.4581 -1.0556 -0.4624
  271MPD2    H3 4155   0.909   4.124  13.762  0.4807  2.6821 -0.9930
  271MPD2     N 4156   0.640   4.414  13.966  0.0885 -0.7234  0.7111
  271MPD2    H5 4157   0.585   4.415  13.881  1.4314 -3.0704 -0.1831
  271MPD2    N1 4158   0.987   4.158  14.199 -0.0202  0.4596  0.0024
  271MPD2    H7 4159   0.965   4.212  14.283  2.4098 -1.3881  1.8050
  272TMC3    C1 4160   1.121   4.058  14.360 -0.9859  0.0625  0.1839
  272TMC3    C2 4161   1.225   3.971  14.381  0.2048  0.3681  0.2509
  272TMC3    C3 4162   1.264   3.948  14.512  0.3186 -0.2934 -0.4507
  272TMC3    C4 4163   1.062   4.126  14.462  0.1603 -0.0204  0.0314
  272TMC3    C5 4164   1.095   4.097  14.595  0.9390  0.0738  0.1386
  272TMC3    C6 4165   1.197   4.007  14.620 -0.0618 -0.5458  0.1509
  272TMC3     C 4166   1.084   4.066  14.221  0.0576  0.0896  0.3529
  272TMC3     O 4167   1.148   3.994  14.146 -0.0287 -0.0483  0.2748
  272TMC3     H 4168   1.264   3.904  14.305 -0.4510 -1.3205  1.3853
  272TMC3    H1 4169   0.966   4.174  14.443  0.2140  0.7415  1.7278
  272TMC3    H2 4170   1.240   3.991  14.718 -2.6950  1.1016  1.5732
  272TMC3    C7 4171   1.034   4.167  14.705  0.6729  0.3202  0.6026
  272TMC3    C8 4172   1.404   3.918  14.520  0.5590  0.2976 -0.3003
  272TMC3    O1 4173   0.926   4.220  14.682 -0.2921 -0.3812 -0.6153
  272TMC3    O2 4174   1.472   3.952  14.421  0.6836 -0.1490  0.7489
  273MPD2     C 4175   2.980   2.576  11.587  0.4465  0.2174  0.0844
  273MPD2    C1 4176   3.078   2.668  11.594 -0.4570  0.8679 -0.2907
  273MPD2    C2 4177   3.090   2.767  11.500  0.4708 -0.3444  0.2294
  273MPD2    C3 4178   3.000   2.779  11.394 -0.4836 -1.0132 -0.3179
  273MPD2    C4 4179   2.895   2.686  11.389  0.0332  0.7382  0.0994
  273MPD2    C5 4180   2.886   2.586  11.483 -0.0273 -0.5421 -0.3050
  273MPD2     H 4181   3.179   2.828  11.504  0.6359 -0.5757  0.1137
  273MPD2    H1 4182   2.823   2.689  11.309 -0.2671 -0.2880  0.3306
  273MPD2    H2 4183   2.967   2.497  11.659 -0.4482  2.1815  2.0635
  273MPD2    H3 4184   2.813   2.506  11.473  1.4455 -2.1543  1.6883
  273MPD2     N 4185   2.995   2.893  11.308  0.3802 -0.1417  0.3714
  273MPD2    H5 4186   2.914   2.893  11.246  1.8744 -0.5770 -1.5830
  273MPD2    N1 4187   3.175   2.679  11.697  0.4412  0.3285  0.4271
  273MPD2    H7 4188   3.245   2.751  11.683 -1.0212  1.9756  1.6365
  274TMC3    C1 4189   3.052   3.107  11.212 -0.0283  0.2075 -0.6183
  274TMC3    C2 4190   2.991   3.097  11.090  0.1504  0.0497 -0.5264
  274TMC3    C3 4191   3.000   3.211  11.013 -0.2957  0.0798 -0.3112
  274TMC3    C4 4192   3.096   3.228  11.265  0.5669 -0.6662 -0.3003
  274TMC3    C5 4193   3.079   3.339  11.192 -0.1156  0.2615 -0.2633
  274TMC3    C6 4194   3.043   3.335  11.060  0.2234 -0.0029  0.6465
  274TMC3     C 4195   3.085   2.996  11.301 -0.5018 -0.5831  0.2112
  274TMC3     O 4196   3.186   3.017  11.371  0.4339  0.1444  0.2520
  274TMC3     H 4197   2.946   3.005  11.054 -0.2212 -0.4934  1.3304
  274TMC3    H1 4198   3.119   3.245  11.369 -0.2894  1.1278 -0.4114
  274TMC3    H2 4199   3.041   3.427  11.002  1.2028 -0.2790  0.1703
  274TMC3    C7 4200   3.028   3.447  11.270  0.5935  0.6319  0.6166
  274TMC3    C8 4201   2.881   3.231  10.930 -0.3526 -0.3808  0.4420
  274TMC3    O1 4202   3.092   3.549  11.255 -0.4480 -0.0520 -0.0401
  274TMC3    O2 4203   2.777   3.173  10.960 -0.1687 -0.0016  0.2229
  275MPD2     C 4204   2.052   1.003  14.506 -0.3457  0.3713  0.1681
  275MPD2    C1 4205   2.125   0.900  14.561 -0.0429 -0.0421 -0.7642
  275MPD2    C2 4206   2.077   0.768  14.558 -0.1677  0.0410 -0.1143
  275MPD2    C3 4207   1.946   0.745  14.528  0.1880 -0.4377 -0.1254
  275MPD2    C4 4208   1.866   0.846  14.484 -0.1870  0.2535 -0.4403
  275MPD2    C5 4209   1.919   0.971  14.465  0.0323 -0.2370  0.3218
  275MPD2     H 4210   2.141   0.685  14.586 -0.4719 -0.8369 -2.0793
  275MPD2    H1 4211   1.761   0.824  14.471 -0.4821  1.4808 -0.1472
  275MPD2    H2 4212   2.093   1.103  14.497 -1.4532  0.7121 -1.0408
  275MPD2    H3 4213   1.858   1.054  14.429  0.3971 -0.7173 -1.4055
  275MPD2     N 4214   1.874   0.622  14.556 -0.1448 -0.0796  0.2175
  275MPD2    H5 4215   1.774   0.625  14.541 -0.0053  0.7838 -0.5500
  275MPD2    N1 4216   2.253   0.926  14.610  0.1968  0.3162  0.2884
  275MPD2    H7 4217   2.314   0.847  14.630  0.3357 -0.1747 -2.0757
  276TMC3    C1 4218   2.446   1.046  14.674  1.0344  0.0174 -0.2212
  276TMC3    C2 4219   2.514   0.933  14.667 -0.2810  0.2727  0.8539
  276TMC3    C3 4220   2.620   0.915  14.749  0.7364 -0.6766  0.4134
  276TMC3    C4 4221   2.482   1.147  14.755 -0.6498  0.1863  0.5615
  276TMC3    C5 4222   2.593   1.128  14.841 -0.0565  0.1141  0.4409
  276TMC3    C6 4223   2.663   1.011  14.830  0.1666 -0.8376  0.4294
  276TMC3     C 4224   2.311   1.051  14.634  0.3722 -0.9150 -0.1228
  276TMC3     O 4225   2.262   1.164  14.630  0.2243 -0.0443  0.2216
  276TMC3     H 4226   2.486   0.856  14.596  2.1203 -1.2123  1.4950
  276TMC3    H1 4227   2.431   1.243  14.757 -0.5090  0.2764 -0.6756
  276TMC3    H2 4228   2.757   0.990  14.880 -0.2432 -1.6512  0.8411
  276TMC3    C7 4229   2.630   1.228  14.946 -0.0561  0.1819 -0.2623
  276TMC3    C8 4230   2.711   0.806  14.723 -0.1250  0.8735 -0.4863
  276TMC3    O1 4231   2.690   1.193  15.048  0.2627 -0.1988  0.0680
  276TMC3    O2 4232   2.830   0.826  14.720  0.1779 -0.1174  0.2469
  277MPD2     C 4233   4.206   0.209  12.992 -0.5712  0.3718 -0.7423
  277MPD2    C1 4234   4.089   0.231  13.063  0.4393  0.3353 -0.2842
  277MPD2    C2 4235   4.040   0.129  13.152  0.5216 -0.1629 -0.0186
  277MPD2    C3 4236   4.119   0.018  13.171 -0.3344 -0.6104 -0.0952
  277MPD2    C4 4237   4.233   4.737  13.096 -0.8467  0.3021  0.2349
  277MPD2    C5 4238   4.283   0.094  13.014 -0.1985  0.7334 -0.7478
  277MPD2     H 4239   3.949   0.135  13.209  0.8209 -0.9369  0.5408
  277MPD2    H1 4240   4.296   4.649  13.100  0.7935  1.5565  1.6657
  277MPD2    H2 4241   4.248   0.290  12.934 -0.2925  0.8072  0.0785
  277MPD2    H3 4242   4.381   0.083  12.968 -0.4440  0.1304 -1.1292
  277MPD2     N 4243   4.068   4.658  13.258 -0.1297  0.5916  0.4378
  277MPD2    H5 4244   3.984   4.681  13.309 -1.3898  1.1991 -1.9320
  277MPD2    N1 4245   4.013   0.353  13.036  0.1587  0.4836  0.7574
  277MPD2    H7 4246   4.035   0.410  12.955 -2.8815 -1.2920 -1.2911
  278TMC3    C1 4247   4.046   4.449  13.361 -0.6164 -0.3691  0.0297
  278TMC3    C2 4248   4.050   4.311  13.353  0.5662  0.2904 -0.0679
  278TMC3    C3 4249   3.977   4.235  13.439  0.1545 -0.5767 -0.7058
  278TMC3    C4 4250   3.970   4.507  13.457 -0.0828 -0.4236  0.2746
  278TMC3    C5 4251   3.891   4.428  13.535  0.0456 -0.1660  0.0106
  278TMC3    C6 4252   3.890   4.289  13.531  0.2084 -0.0471  0.3002
  278TMC3     C 4253   4.110   4.528  13.259  0.7580 -0.9950 -1.3383
  278TMC3     O 4254   4.203   4.475  13.200  0.0050  0.0402  0.0874
  278TMC3     H 4255   4.117   4.262  13.284 -0.9284 -1.5849 -0.1681
  278TMC3    H1 4256   3.971   4.613  13.479 -1.1140  0.1487 -2.4530
  278TMC3    H2 4257   3.841   4.235  13.611  0.4250  0.1575  0.5745
  278TMC3    C7 4258   3.777   4.504  13.605  0.6496  0.3102 -0.2738
  278TMC3    C8 4259   3.994   4.086  13.426  0.4587 -0.0711  0.1455
  278TMC3    O1 4260   3.791   4.626  13.614  0.2694  0.1114 -0.0790
  278TMC3    O2 4261   4.096   4.049  13.364 -0.6395 -0.2954 -0.1423
  279MPD2     C 4262   3.749   4.506  17.649 -0.0473  0.8480 -0.3922
  279MPD2    C1 4263   3.621   4.540  17.692 -0.4809 -0.4338  0.4757
  279MPD2    C2 4264   3.570   4.669  17.659 -0.3184 -0.1211 -0.1151
  279MPD2    C3 4265   3.643   0.024  17.587 -0.1372  0.1637  0.2289
  279MPD2    C4 4266   3.769   4.720  17.553  0.8738 -0.2261 -0.8754
  279MPD2    C5 4267   3.817   4.597  17.575  0.4307  0.1501  0.4757
  279MPD2     H 4268   3.474   4.699  17.700 -1.4288 -3.2221 -0.4321
  279MPD2    H1 4269   3.832   0.051  17.497 -1.0912  0.3309 -2.4236
  279MPD2    H2 4270   3.783   4.408  17.682 -0.5808  0.4982 -0.8678
  279MPD2    H3 4271   3.915   4.568  17.541  0.1049  0.5654 -0.8064
  279MPD2     N 4272   3.591   0.148  17.542 -0.2070 -0.1592 -0.0350
  279MPD2    H5 4273   3.650   0.203  17.480 -0.1675  0.3735  0.4781
  279MPD2    N1 4274   3.554   4.443   0.024 -0.1298 -0.0202 -0.0542
  279MPD2    H7 4275   3.584   4.347   0.011 -1.2065 -0.4960  0.9349
  280TMC3    C1 4276   3.357   4.361   0.126 -0.5251  0.4716  0.0746
  280TMC3    C2 4277   3.371   4.256   0.034  0.2935  0.4587  0.2370
  280TMC3    C3 4278   3.255   4.199  17.726 -0.6210 -0.8632 -0.2801
  280TMC3    C4 4279   3.230   4.407   0.163 -0.2541  0.1600 -0.6788
  280TMC3    C5 4280   3.122   4.335   0.115  0.2710  0.1910 -0.3818
  280TMC3    C6 4281   3.134   4.234   0.022 -0.2519 -0.0339 -0.4564
  280TMC3     C 4282   3.441   4.478   0.092 -0.3619  0.5335  0.1071
  280TMC3     O 4283   3.401   4.587   0.129 -0.0993 -0.0940 -0.6586
  280TMC3     H 4284   3.465   4.202   0.027  0.8052  1.1804  1.4702
  280TMC3    H1 4285   3.214   4.507   0.203  1.3844 -0.1785  0.8006
  280TMC3    H2 4286   3.043   4.202  17.721 -0.4639 -1.4613  0.8089
  280TMC3    C7 4287   3.003   4.427   0.098 -0.5202 -0.2350  0.2871
  280TMC3    C8 4288   3.268   4.064  17.675 -0.6663 -0.4238 -0.0848
  280TMC3    O1 4289   2.954   4.431  17.735 -0.4457  0.1325  0.2709
  280TMC3    O2 4290   3.184   3.984  17.713  0.5170  0.1164  0.6775
  281TMC3    C1 4291   2.209   0.383  13.770  0.5188  0.0600  0.6062
  281TMC3    C2 4292   2.247   0.498  13.699 -0.2803 -0.4074  0.1235
  281TMC3    C3 4293   2.359   0.490  13.625 -0.4546 -0.1956  0.5980
  281TMC3    C4 4294   2.278   0.264  13.772  0.3077  0.0829 -0.2027
  281TMC3    C5 4295   2.401   0.274  13.708 -0.9150  0.2648 -0.2395
  281TMC3    C6 4296   2.440   0.377  13.627 -0.2132  0.4038  0.1623
  281TMC3     C 4297   2.069   0.362  13.814  0.0720  0.7391  0.5316
  281TMC3     O 4298   2.025   0.252  13.839  0.7339  0.0346 -0.0965
  281TMC3     H 4299   2.193   0.592  13.697  0.4222 -0.0216 -0.5871
  281TMC3    H1 4300   2.240   0.180  13.828  2.8159 -2.6056 -2.5496
  281TMC3    H2 4301   2.542   0.378  13.590 -0.0845  0.2555  0.5092
  281TMC3    C7 4302   2.495   0.164  13.716 -0.0215  0.6510  0.2057
  281TMC3    C8 4303   2.414   0.598  13.552 -0.0932  1.3550  0.4232
  281TMC3    O1 4304   2.616   0.186  13.691 -0.6773  0.1695 -0.3584
  281TMC3    O2 4305   2.534   0.606  13.551 -0.5514 -0.4845  0.6553
  282MPD2     C 4306   3.790   1.082  14.954 -0.1605  1.0991  0.1752
  282MPD2    C1 4307   3.665   1.146  14.928  0.2847  0.2916 -0.1770
  282MPD2    C2 4308   3.613   1.126  14.803  0.1211 -0.0853 -0.0832
  282MPD2    C3 4309   3.669   1.044  14.711 -0.1581  0.3453 -1.0578
  282MPD2    C4 4310   3.786   0.985  14.738  0.2765 -0.3512 -0.0576
  282MPD2    C5 4311   3.843   0.996  14.857 -0.0201 -1.2060 -0.2394
  282MPD2     H 4312   3.516   1.169  14.780  0.1958  1.1346  1.8849
  282MPD2    H1 4313   3.829   0.912  14.669 -1.6231 -1.1749 -0.3713
  282MPD2    H2 4314   3.831   1.080  15.054  1.4926 -2.7399 -0.5967
  282MPD2    H3 4315   3.929   0.936  14.885  0.0171 -2.5152 -3.0494
  282MPD2     N 4316   3.606   1.040  14.588  0.1311  0.1357 -0.1265
  282MPD2    H5 4317   3.527   1.103  14.582  0.2325  0.2689 -0.0639
  282MPD2    N1 4318   3.604   1.222  15.033 -0.0529  0.0524 -0.0344
  282MPD2    H7 4319   3.661   1.237  15.116 -0.5716  0.4797  0.2431
  283TMC3    C1 4320   3.437   1.355  15.134  0.2092 -0.4373  0.0737
  283TMC3    C2 4321   3.362   1.470  15.134 -0.3712  1.0075  0.0431
  283TMC3    C3 4322   3.318   1.525  15.251 -0.1370 -0.1644  0.7043
  283TMC3    C4 4323   3.452   1.283  15.248  0.2689 -0.3033 -0.0118
  283TMC3    C5 4324   3.402   1.335  15.362 -0.2498 -0.8406  0.5288
  283TMC3    C6 4325   3.339   1.455  15.364  0.2470  0.5645  0.7728
  283TMC3     C 4326   3.494   1.300  15.013  0.2617  0.5875 -0.3319
  283TMC3     O 4327   3.410   1.307  14.923 -0.1265 -0.0718  0.2227
  283TMC3     H 4328   3.338   1.514  15.038  0.6256 -1.0682 -1.1486
  283TMC3    H1 4329   3.504   1.188  15.248  0.1566 -0.3609  0.5235
  283TMC3    H2 4330   3.315   1.503  15.458 -0.0603  0.7114  0.6169
  283TMC3    C7 4331   3.401   1.264  15.484 -0.2527  0.0167  0.0594
  283TMC3    C8 4332   3.296   1.672  15.255  0.9623  0.0066 -0.0420
  283TMC3    O1 4333   3.368   1.318  15.587  0.7384 -0.2148  0.5666
  283TMC3    O2 4334   3.303   1.725  15.364 -0.5727 -0.2326  0.4803
  284MPD2     C 4335   2.285   0.685  12.285  0.1495  0.5960  1.0125
  284MPD2    C1 4336   2.176   0.720  12.211  1.0662 -0.3153  0.6323
  284MPD2    C2 4337   2.055   0.678  12.254  0.5172 -0.2005  0.2304
  284MPD2    C3 4338   2.050   0.584  12.353 -0.1200 -0.7198  0.4550
  284MPD2    C4 4339   2.159   0.547  12.425  0.1767  0.4386  0.1472
  284MPD2    C5 4340   2.281   0.605  12.391  0.7991  0.3168  0.1155
  284MPD2     H 4341   1.962   0.698  12.202  1.3177 -0.8443 -1.4274
  284MPD2    H1 4342   2.164   0.479  12.509  0.1858  0.0285 -0.1867
  284MPD2    H2 4343   2.382   0.724  12.258  0.7147 -0.9561  0.7852
  284MPD2    H3 4344   2.376   0.564  12.423  1.1390  1.1836  0.2201
  284MPD2     N 4345   1.929   0.520  12.387  0.1441  0.1379  0.2650
  284MPD2    H5 4346   1.943   0.441  12.449  1.9797  0.2754  0.0529
  284MPD2    N1 4347   2.181   0.799  12.100  0.4980 -0.0451 -0.6951
  284MPD2    H7 4348   2.093   0.838  12.068 -0.8175 -2.3742  0.0788
  285TMC3    C1 4349   2.279   0.916  11.924 -0.1760  0.7155 -0.6996
  285TMC3    C2 4350   2.367   0.920  11.824 -0.6668  0.5946 -0.3748
  285TMC3    C3 4351   2.393   1.029  11.748  0.1753 -0.1179  0.6565
  285TMC3    C4 4352   2.212   1.029  11.957  0.0602 -0.1961 -0.3104
  285TMC3    C5 4353   2.256   1.147  11.896 -0.1402 -0.0059  0.5470
  285TMC3    C6 4354   2.341   1.148  11.790 -0.0169 -0.7441  0.1465
  285TMC3     C 4355   2.287   0.804  12.015  0.4297 -0.6249 -0.0086
  285TMC3     O 4356   2.385   0.734  12.011 -0.7273  0.2831 -0.1370
  285TMC3     H 4357   2.412   0.825  11.796  1.0885  0.7649  1.8115
  285TMC3    H1 4358   2.128   1.037  12.026  0.8943 -0.1575  0.6998
  285TMC3    H2 4359   2.356   1.238  11.731 -0.3469  0.5534  2.0633
  285TMC3    C7 4360   2.172   1.265  11.882  0.0556 -0.9240 -0.6475
  285TMC3    C8 4361   2.477   1.019  11.628  0.6493 -0.0801 -0.7918
  285TMC3    O1 4362   2.222   1.377  11.867  0.1230 -0.0118 -0.4045
  285TMC3    O2 4363   2.537   1.121  11.589  0.2228 -0.1854 -0.4755
  286MPD2     C 4364   2.517   4.496   1.474  0.5033  0.3655 -0.1177
  286MPD2    C1 4365   2.535   4.525   1.340 -0.8525 -0.1084  0.9106
  286MPD2    C2 4366   2.649   4.496   1.271 -0.1566  0.1027  0.4337
  286MPD2    C3 4367   2.754   4.439   1.342 -0.1071  0.1152  0.7096
  286MPD2    C4 4368   2.739   4.416   1.476 -0.0538 -0.2505 -0.0133
  286MPD2    C5 4369   2.625   4.447   1.540 -0.4553 -0.2747  0.4596
  286MPD2     H 4370   2.655   4.502   1.163  0.2133  4.2043  0.7044
  286MPD2    H1 4371   2.822   4.371   1.530  0.3807  0.5246 -0.0228
  286MPD2    H2 4372   2.422   4.505   1.525 -0.2164  1.4182 -1.6439
  286MPD2    H3 4373   2.609   4.423   1.644  1.8662  0.3498  0.9459
  286MPD2     N 4374   2.878   4.398   1.280  0.4213  0.1160  0.0747
  286MPD2    H5 4375   2.953   4.361   1.338 -0.2336  0.7395  1.3256
  286MPD2    N1 4376   2.436   4.565   1.246  0.6230  0.4095  0.1261
  286MPD2    H7 4377   2.453   4.562   1.146  0.9339  0.8334  0.1688
  287TMC3    C1 4378   3.043   4.354   1.121 -0.4625  0.7407  0.2104
  287TMC3    C2 4379   3.054   4.293   1.000 -0.3898 -0.4998  0.2514
  287TMC3    C3 4380   3.178   4.231   0.972  0.2773 -0.1193 -0.1221
  287TMC3    C4 4381   3.138   4.377   1.211 -0.2647  0.8240 -0.8218
  287TMC3    C5 4382   3.258   4.319   1.176 -0.4300  0.3388  1.4388
  287TMC3    C6 4383   3.280   4.235   1.065  0.0759  0.2808 -0.5695
  287TMC3     C 4384   2.916   4.404   1.146 -0.1358 -0.0902 -0.5904
  287TMC3     O 4385   2.851   4.446   1.049  0.5775  0.5671 -0.2213
  287TMC3     H 4386   2.981   4.298   0.920  0.3320 -0.4499 -0.4131
  287TMC3    H1 4387   3.129   4.444   1.295  1.5534 -1.1862  0.9963
  287TMC3    H2 4388   3.378   4.195   1.043  0.3221  0.4654  0.2078
  287TMC3    C7 4389   3.375   4.376   1.238  0.3870 -0.1473 -0.2722
  287TMC3    C8 4390   3.192   4.158   0.847 -0.6211  0.7819 -0.1049
  287TMC3    O1 4391   3.347   4.472   1.308 -0.3207  0.6106 -0.0705
  287TMC3    O2 4392   3.089   4.135   0.781 -0.5603 -0.2143  0.1356
  288TMC3    C1 4393   4.120   3.908  14.084 -0.1850  0.0039  0.1072
  288TMC3    C2 4394   4.080   3.969  14.201 -0.1761  0.5766  0.3862
  288TMC3    C3 4395   4.099   4.103  14.210 -0.3672  0.2665 -0.0809
  288TMC3    C4 4396   4.160   3.980  13.975 -0.6540 -0.5232 -0.5032
  288TMC3    C5 4397   4.183   4.112  13.991 -0.2560 -0.3796  0.0201
  288TMC3    C6 4398   4.140   4.182  14.100  0.1488 -0.3215 -0.3651
  288TMC3     C 4399   4.122   3.758  14.079 -0.2116 -0.7454  0.4022
  288TMC3     O 4400   4.133   3.687  14.179 -0.6814 -0.9105 -0.1724
  288TMC3     H 4401   4.052   3.900  14.279  2.3266  0.0907  0.8523
  288TMC3    H1 4402   4.218   3.928  13.900  0.3833 -2.3209  1.5361
  288TMC3    H2 4403   4.131   4.290  14.102 -0.5343 -0.4119  1.3203
  288TMC3    C7 4404   4.195   4.173  13.863 -0.5514 -0.3966 -0.7984
  288TMC3    C8 4405   4.050   4.169  14.332 -0.2696 -0.1390 -0.0849
  288TMC3    O1 4406   4.158   4.109  13.770 -0.0478  0.1607  0.1899
  288TMC3    O2 4407   3.997   4.278  14.322  0.0829 -0.3000  0.5595
  289MPD2     C 4408   4.282   2.822  14.395  0.2944  0.2209  0.0721
  289MPD2    C1 4409   4.266   2.936  14.322 -0.2897  0.1408  0.3202
  289MPD2    C2 4410   4.168   2.937  14.227  0.0051 -0.1514 -0.1169
  289MPD2    C3 4411   4.084   2.829  14.206 -0.4430 -0.1553  0.0155
  289MPD2    C4 4412   4.095   2.722  14.293  0.0921  0.5327 -0.1068
  289MPD2    C5 4413   4.190   2.722  14.391  0.4745  0.3998  0.1407
  289MPD2     H 4414   4.151   3.020  14.159 -0.5963  0.2944  0.5827
  289MPD2    H1 4415   4.025   2.639  14.285 -0.1004  1.0047 -3.3930
  289MPD2    H2 4416   4.350   2.817  14.480 -0.9890 -0.8214  1.0481
  289MPD2    H3 4417   4.189   2.644  14.467 -0.8260  2.2726  2.0235
  289MPD2     N 4418   3.968   2.825  14.116  0.4388  0.2312  0.3162
  289MPD2    H5 4419   3.895   2.758  14.137 -0.9662  1.3779 -0.9272
  289MPD2    N1 4420   4.366   3.036  14.330  0.0353 -0.4106  0.2808
  289MPD2    H7 4421   4.441   3.007  14.392  1.3091  0.6219 -0.7823
  290TMC3    C1 4422   3.834   2.882  13.926 -0.3021  0.0461  0.3853
  290TMC3    C2 4423   3.792   3.004  13.885 -0.1151 -0.3190  0.2343
  290TMC3    C3 4424   3.674   3.015  13.807  0.3770 -0.5730  0.8719
  290TMC3    C4 4425   3.771   2.766  13.885 -0.1682 -0.5290  0.2796
  290TMC3    C5 4426   3.654   2.783  13.817 -0.1972  0.1140  0.0319
  290TMC3    C6 4427   3.606   2.907  13.779  0.5714  0.5561 -0.2812
  290TMC3     C 4428   3.964   2.895  13.998  0.4511  0.4696  0.4836
  290TMC3     O 4429   4.054   2.966  13.951 -0.0386 -0.0119  0.2702
  290TMC3     H 4430   3.855   3.088  13.913  1.2912 -1.1690 -0.3497
  290TMC3    H1 4431   3.810   2.669  13.912 -0.0963 -0.7382 -0.5832
  290TMC3    H2 4432   3.510   2.923  13.732  0.9191  0.0152 -1.1926
  290TMC3    C7 4433   3.600   2.662  13.763 -0.5028  0.0828 -0.2202
  290TMC3    C8 4434   3.639   3.144  13.743  0.5103  0.4584  0.6797
  290TMC3    O1 4435   3.647   2.561  13.817 -0.0928 -0.1890  0.0659
  290TMC3    O2 4436   3.587   3.129  13.634  0.4977  0.3442  0.6665
  291MPD2     C 4437   3.626   3.620   0.119  0.0480  0.8581  0.4382
  291MPD2    C1 4438   3.658   3.563   0.237 -0.3318 -0.3015 -0.3786
  291MPD2    C2 4439   3.719   3.643   0.332 -0.6281 -0.2585  0.4626
  291MPD2    C3 4440   3.740   3.781   0.315  0.4721  0.5525  0.4330
  291MPD2    C4 4441   3.684   3.840   0.198  0.3149 -0.0828 -0.0033
  291MPD2    C5 4442   3.630   3.755   0.101  0.2809 -0.0449  0.3375
  291MPD2     H 4443   3.754   3.597   0.424 -0.4244 -1.6115 -0.2954
  291MPD2    H1 4444   3.682   3.945   0.174 -0.7530 -0.0479  0.2562
  291MPD2    H2 4445   3.607   3.562   0.029 -1.3616  1.8426  0.0894
  291MPD2    H3 4446   3.596   3.803   0.010 -2.1558 -1.5327  0.4683
  291MPD2     N 4447   3.809   3.857   0.413  0.2763 -0.6495  0.4459
  291MPD2    H5 4448   3.816   3.956   0.395  0.1338 -0.7713 -0.2852
  291MPD2    N1 4449   3.658   3.423   0.269  0.2693 -0.1048  0.4774
  291MPD2    H7 4450   3.694   3.401   0.362 -0.0270  0.0214  0.6223
  292TMC3    C1 4451   3.600   3.196   0.278 -0.4515  0.1325  0.4522
  292TMC3    C2 4452   3.693   3.174   0.378  0.4039 -0.1380 -0.5632
  292TMC3    C3 4453   3.693   3.050   0.439 -0.1659 -0.0732  0.4304
  292TMC3    C4 4454   3.510   3.103   0.238  0.6447  0.1092  0.1321
  292TMC3    C5 4455   3.518   2.973   0.297  0.1981  0.1855 -0.1802
  292TMC3    C6 4456   3.602   2.948   0.405 -0.6679 -0.6125 -0.1418
  292TMC3     C 4457   3.591   3.323   0.206 -0.6613  0.1718 -0.3204
  292TMC3     O 4458   3.537   3.323   0.096  0.3661  0.6857  0.0118
  292TMC3     H 4459   3.750   3.257   0.417 -0.6268  1.0900 -1.6790
  292TMC3    H1 4460   3.458   3.117   0.144 -2.0711 -2.0382  1.3590
  292TMC3    H2 4461   3.619   2.850   0.447 -0.7337 -0.3058  0.6015
  292TMC3    C7 4462   3.481   2.854   0.219 -0.4091 -0.0696  0.9555
  292TMC3    C8 4463   3.800   3.026   0.525  0.0087  0.1959 -0.7550
  292TMC3    O1 4464   3.521   2.746   0.264 -0.3125 -0.1139  0.7660
  292TMC3    O2 4465   3.903   3.082   0.494  0.3355  0.0211  0.2257
  293MPD2     C 4466   0.194   3.704  12.941  0.0652 -0.0606 -0.0202
  293MPD2    C1 4467   0.179   3.837  12.894  0.4110  0.6315 -0.1522
  293MPD2    C2 4468   0.246   3.932  12.970 -0.2469 -0.2606 -0.4237
  293MPD2    C3 4469   0.336   3.903  13.071 -0.1016 -0.4019  0.6264
  293MPD2    C4 4470   0.352   3.769  13.106 -0.2777  0.1745 -0.0335
  293MPD2    C5 4471   0.280   3.674  13.039  0.1331 -0.3062 -1.1793
  293MPD2     H 4472   0.246   4.028  12.921 -0.2007  0.5839  1.2189
  293MPD2    H1 4473   0.424   3.732  13.178 -2.2796 -4.8392 -0.6546
  293MPD2    H2 4474   0.149   3.618  12.893 -2.5375  1.0198  0.4821
  293MPD2    H3 4475   0.296   3.570  13.063  0.8500  0.1664  0.3525
  293MPD2     N 4476   0.420   4.007  13.119  0.3599  0.2074  0.0030
  293MPD2    H5 4477   0.418   4.099  13.074 -2.1568 -1.3707 -3.1282
  293MPD2    N1 4478   0.098   3.875  12.783  0.1778  0.4923 -0.1293
  293MPD2    H7 4479   0.097   3.974  12.762  0.5743  0.4622 -0.2838
  294TMC3    C1 4480   4.705   3.838  12.587  0.1147  0.6802  0.9699
  294TMC3    C2 4481   4.665   3.750  12.488 -1.4579 -0.6762 -0.7829
  294TMC3    C3 4482   4.568   3.787  12.400 -0.2687 -0.6035  0.1418
  294TMC3    C4 4483   4.636   3.950  12.611 -0.4511 -0.0207  0.0642
  294TMC3    C5 4484   4.533   3.988  12.519 -0.5729 -0.2276  1.0640
  294TMC3    C6 4485   4.500   3.910  12.412  0.1403 -0.5491  0.0648
  294TMC3     C 4486   0.041   3.779  12.697 -0.0198  0.5362  0.6867
  294TMC3     O 4487   0.056   3.659  12.700  0.3718  0.3099  0.4163
  294TMC3     H 4488   4.720   3.657  12.481 -1.2371 -0.2812 -4.5385
  294TMC3    H1 4489   4.662   4.018  12.692 -0.4125 -0.1580  0.1677
  294TMC3    H2 4490   4.415   3.929  12.347  0.3807  1.4817  0.3518
  294TMC3    C7 4491   4.455   4.106  12.556  0.1342  0.1004  0.4007
  294TMC3    C8 4492   4.519   3.672  12.327  0.0305 -0.1470 -0.1665
  294TMC3    O1 4493   4.471   4.136  12.670 -0.5054  0.2091  0.0933
  294TMC3    O2 4494   4.570   3.564  12.349  0.2098  0.1423  0.5652
  295MPD2     C 4495   0.534   3.962   0.713 -0.2211  0.2516  0.8253
  295MPD2    C1 4496   0.594   3.841   0.684 -0.1952 -0.3257 -0.7254
  295MPD2    C2 4497   0.577   3.732   0.762 -0.0877  0.2133 -0.5275
  295MPD2    C3 4498   0.503   3.742   0.881  0.3797 -0.5501  0.2900
  295MPD2    C4 4499   0.456   3.867   0.919  0.2634 -0.6415 -0.7236
  295MPD2    C5 4500   0.471   3.977   0.838 -0.1825  0.1768  0.5606
  295MPD2     H 4501   0.628   3.639   0.740  0.6270  1.2264 -3.1751
  295MPD2    H1 4502   0.412   3.886   1.016  2.5194  1.6361 -0.1502
  295MPD2    H2 4503   0.522   4.041   0.641 -0.7879  0.1827  0.8395
  295MPD2    H3 4504   0.429   4.071   0.874 -0.4225 -0.4990  2.0543
  295MPD2     N 4505   0.492   3.639   0.983  0.4457 -0.1899 -0.0444
  295MPD2    H5 4506   0.457   3.665   1.074  2.1921  1.4010  0.1826
  295MPD2    N1 4507   0.664   3.817   0.569  0.0401 -0.3071  0.1777
  295MPD2    H7 4508   0.677   3.720   0.541  0.3022 -0.1961 -0.0834
  296TMC3    C1 4509   0.521   3.435   1.087  0.3300 -0.5704  0.1871
  296TMC3    C2 4510   0.485   3.500   1.197 -0.1245 -0.1905 -0.2833
  296TMC3    C3 4511   0.517   3.464   1.315 -0.1252  0.8704  0.3369
  296TMC3    C4 4512   0.600   3.328   1.094  0.0581  0.2382  0.4372
  296TMC3    C5 4513   0.618   3.279   1.224  0.1657 -0.0498  0.0102
  296TMC3    C6 4514   0.593   3.352   1.338 -0.3600  0.0235 -0.0316
  296TMC3     C 4515   0.543   3.515   0.969  0.3871  0.1401  0.2547
  296TMC3     O 4516   0.606   3.466   0.878 -0.3801  0.1935 -0.0271
  296TMC3     H 4517   0.418   3.585   1.190  1.6532  1.3143  0.8791
  296TMC3    H1 4518   0.637   3.271   1.009  0.6152  0.7950  0.3085
  296TMC3    H2 4519   0.606   3.304   1.435 -1.8251  1.6633  0.9678
  296TMC3    C7 4520   0.713   3.170   1.236  0.2420  0.0599  0.5362
  296TMC3    C8 4521   0.446   3.522   1.429 -0.0292  0.2798 -0.1889
  296TMC3    O1 4522   0.810   3.168   1.310  0.5292 -0.3466 -0.0066
  296TMC3    O2 4523   0.405   3.448   1.521 -0.4511 -0.0639  0.1770
  297MPD2     C 4524   3.141   0.358  16.540 -0.5683 -0.3952  0.5010
  297MPD2    C1 4525   3.102   0.406  16.417  0.4789 -0.4899 -0.2984
  297MPD2    C2 4526   3.178   0.506  16.356  0.0451 -0.7720 -0.6152
  297MPD2    C3 4527   3.285   0.561  16.422 -0.9392 -0.1847 -0.0727
  297MPD2    C4 4528   3.318   0.526  16.550 -0.8448  0.2658 -0.0032
  297MPD2    C5 4529   3.245   0.426  16.607 -0.0742 -0.4910  0.4041
  297MPD2     H 4530   3.142   0.551  16.265  0.0256 -0.7196 -0.5814
  297MPD2    H1 4531   3.390   0.576  16.614 -0.3039 -0.9121  0.3124
  297MPD2    H2 4532   3.090   0.281  16.597  0.4668 -0.7740  0.9108
  297MPD2    H3 4533   3.278   0.390  16.704 -2.7031  1.0857  1.8994
  297MPD2     N 4534   3.338   0.668  16.347  0.5049 -0.1354 -0.1271
  297MPD2    H5 4535   3.308   0.670  16.250 -0.4772 -2.2569  0.1359
  297MPD2    N1 4536   2.992   0.372  16.355  0.0136 -0.6246 -0.0341
  297MPD2    H7 4537   2.962   0.437  16.282  0.3390 -0.2668  0.1525
  298TMC3    C1 4538   2.802   0.256  16.293  0.1626 -0.3945 -0.4708
  298TMC3    C2 4539   2.830   0.282  16.157  0.4468 -0.1522  0.1401
  298TMC3    C3 4540   2.727   0.314  16.077 -0.4634 -0.2362 -0.2879
  298TMC3    C4 4541   2.672   0.257  16.339 -0.4493  0.4232  0.3742
  298TMC3    C5 4542   2.571   0.291  16.248 -0.1069  0.3433  0.6326
  298TMC3    C6 4543   2.598   0.307  16.114  0.1269  0.7320 -0.2902
  298TMC3     C 4544   2.908   0.271  16.386  0.5414  0.6616  0.2232
  298TMC3     O 4545   2.913   0.194  16.480 -0.0816 -0.8290 -0.8425
  298TMC3     H 4546   2.930   0.271  16.116  0.1163  0.8257 -0.9321
  298TMC3    H1 4547   2.659   0.252  16.447 -2.2412  0.6836  0.1695
  298TMC3    H2 4548   2.532   0.333  16.032 -0.1691 -0.3152 -0.3776
  298TMC3    C7 4549   2.497   0.401  16.298 -0.0753  0.2175 -0.4385
  298TMC3    C8 4550   2.761   0.399  15.963  0.0905 -0.2071 -0.8566
  298TMC3    O1 4551   2.469   0.419  16.418  0.3614  0.7852 -0.5552
  298TMC3    O2 4552   2.667   0.451  15.905 -0.2749  0.0401  0.0989
  299MPD2     C 4553   3.113   0.489  10.888  0.2531 -0.3618  0.1290
  299MPD2    C1 4554   3.221   0.499  10.800 -0.3177  0.6750 -0.0004
  299MPD2    C2 4555   3.198   0.488  10.660  0.1274 -0.4021  0.1893
  299MPD2    C3 4556   3.071   0.451  10.623 -0.2443 -0.1858 -0.7895
  299MPD2    C4 4557   2.970   0.449  10.703  0.6801 -0.2424 -0.0141
  299MPD2    C5 4558   2.992   0.464  10.839  0.3374  0.6921  0.3589
  299MPD2     H 4559   3.291   0.489  10.604 -0.0571  1.1522 -0.0846
  299MPD2    H1 4560   2.870   0.415  10.679  1.3996 -1.7303 -0.9063
  299MPD2    H2 4561   3.117   0.500  10.995  0.6134 -0.6514  0.1467
  299MPD2    H3 4562   2.906   0.459  10.905 -0.7144  1.0962 -0.9799
  299MPD2     N 4563   3.051   0.418  10.487 -0.1171 -0.2112 -0.7753
  299MPD2    H5 4564   2.955   0.396  10.463 -0.2501  0.6078 -0.9974
  299MPD2    N1 4565   3.347   0.517  10.858 -0.3509 -0.4958 -0.6532
  299MPD2    H7 4566   3.353   0.509  10.959 -2.8525 -0.0170 -0.4532
  300TMC3    C1 4567   3.074   0.391  10.269  0.6384 -0.5105 -0.5968
  300TMC3    C2 4568   3.128   0.447  10.161 -0.1551  0.7396 -0.1629
  300TMC3    C3 4569   3.062   0.480  10.049  0.2119  0.0067  0.3177
  300TMC3    C4 4570   2.945   0.346  10.268  0.3462  0.2189 -0.3296
  300TMC3    C5 4571   2.881   0.371  10.152 -0.0179 -0.2674 -0.2567
  300TMC3    C6 4572   2.931   0.443  10.043 -0.0406 -0.1671  0.4257
  300TMC3     C 4573   3.148   0.400  10.387  0.0470 -0.8226 -0.8077
  300TMC3     O 4574   3.269   0.411  10.389  0.1963 -0.3562  0.0872
  300TMC3     H 4575   3.233   0.473  10.153 -0.3130  1.8570  1.3863
  300TMC3    H1 4576   2.908   0.278  10.344  0.9470 -0.6336 -0.7924
  300TMC3    H2 4577   2.866   0.463   9.959  1.2704 -2.0482 -1.0172
  300TMC3    C7 4578   2.749   0.320  10.138  0.0306 -0.5777  0.1026
  300TMC3    C8 4579   3.086   0.612  10.018 -0.0355 -0.4234  0.0745
  300TMC3    O1 4580   2.721   0.248  10.041  0.1958  0.2551 -0.0966
  300TMC3    O2 4581   3.197   0.658  10.047  0.2629  0.2977 -0.3544
  301MPD2     C 4582   1.527   2.109   0.899 -0.0114  0.2540  0.3781
  301MPD2    C1 4583   1.407   2.060   0.859  1.0272  0.1816  0.2492
  301MPD2    C2 4584   1.383   1.928   0.846  0.0442 -0.3347 -0.7832
  301MPD2    C3 4585   1.485   1.838   0.864 -0.4385  0.2443  0.5419
  301MPD2    C4 4586   1.604   1.885   0.913  0.1999 -0.4682 -0.1821
  301MPD2    C5 4587   1.623   2.020   0.934 -0.3317  0.6158 -0.3307
  301MPD2     H 4588   1.279   1.908   0.823 -0.3648 -0.0397  0.7838
  301MPD2    H1 4589   1.690   1.825   0.942  0.9390  0.1597 -1.0748
  301MPD2    H2 4590   1.543   2.216   0.907  1.1372 -0.0245  1.7834
  301MPD2    H3 4591   1.717   2.062   0.969 -0.2828 -0.2639  0.5897
  301MPD2     N 4592   1.476   1.700   0.830  0.1821  0.4503 -0.1159
  301MPD2    H5 4593   1.542   1.636   0.872  1.3401  1.2683 -0.6732
  301MPD2    N1 4594   1.297   2.141   0.824  0.2236  0.5505 -0.2507
  301MPD2    H7 4595   1.217   2.087   0.792  0.6219 -0.7301  0.9232
  302TMC3    C1 4596   1.344   1.504   0.797 -0.0513 -0.1913  0.1646
  302TMC3    C2 4597   1.364   1.447   0.921  1.1511 -0.2766 -0.4323
  302TMC3    C3 4598   1.273   1.351   0.956 -0.0840 -0.2223  0.5662
  302TMC3    C4 4599   1.266   1.446   0.701  0.3683  0.3377  0.3679
  302TMC3    C5 4600   1.185   1.343   0.740  0.4256 -0.3635  0.1923
  302TMC3    C6 4601   1.174   1.304   0.868  0.0286 -0.3481 -0.6442
  302TMC3     C 4602   1.360   1.645   0.777  0.3489 -0.7264  0.4401
  302TMC3     O 4603   1.274   1.697   0.706 -0.0574  0.3272  0.5129
  302TMC3     H 4604   1.436   1.485   0.993  0.3022 -0.2703  0.4180
  302TMC3    H1 4605   1.258   1.494   0.604 -1.1855  0.4689  0.5588
  302TMC3    H2 4606   1.102   1.237   0.912 -0.2940  0.4200  0.0078
  302TMC3    C7 4607   1.067   1.335   0.651 -0.2852 -0.1322  0.5993
  302TMC3    C8 4608   1.292   1.261   1.077  0.9486 -0.1278  0.1210
  302TMC3    O1 4609   1.095   1.304   0.535 -0.2356  0.1878  0.3992
  302TMC3    O2 4610   1.222   1.161   1.071  0.0756 -0.0175 -0.5088
  303MPD2     C 4611   0.799   0.520  10.460  0.1703  0.6766  0.8025
  303MPD2    C1 4612   0.715   0.468  10.366  0.5499 -0.2844 -0.1596
  303MPD2    C2 4613   0.722   0.509  10.234 -0.4035 -0.1026  0.0707
  303MPD2    C3 4614   0.803   0.618  10.200 -0.0567 -0.6758 -0.3565
  303MPD2    C4 4615   0.871   0.679  10.302 -0.0507 -0.1862 -1.2850
  303MPD2    C5 4616   0.878   0.627  10.428 -0.1974 -0.1574  0.3336
  303MPD2     H 4617   0.660   0.455  10.164  0.0360 -1.6284  0.8653
  303MPD2    H1 4618   0.922   0.773  10.285 -1.6018  0.9942  0.6114
  303MPD2    H2 4619   0.801   0.490  10.564 -0.3675 -3.7944 -0.4796
  303MPD2    H3 4620   0.927   0.676  10.511  0.5669  1.7657 -1.2689
  303MPD2     N 4621   0.808   0.679  10.075  0.0423  0.0108  0.2359
  303MPD2    H5 4622   0.890   0.734  10.054  0.1140 -0.9856 -2.1327
  303MPD2    N1 4623   0.611   0.381  10.415  0.4906 -0.0537 -0.1290
  303MPD2    H7 4624   0.584   0.387  10.513 -0.5487 -2.1039 -0.2784
  304TMC3    C1 4625   0.417   0.244  10.398  0.6483 -0.1531 -0.1388
  304TMC3    C2 4626   0.337   0.350  10.426 -0.0744 -0.6314  0.1429
  304TMC3    C3 4627   0.206   0.336  10.416  0.0463  0.2862  0.0685
  304TMC3    C4 4628   0.363   0.122  10.359 -0.2868  0.7241  0.1433
  304TMC3    C5 4629   0.226   0.110  10.336 -0.3157  0.3371  0.0859
  304TMC3    C6 4630   0.149   0.218  10.379  0.3620 -0.1615  0.2777
  304TMC3     C 4631   0.544   0.281  10.345 -0.1025 -0.2291 -0.1264
  304TMC3     O 4632   0.582   0.242  10.234 -0.2415 -0.0264 -0.3007
  304TMC3     H 4633   0.375   0.444  10.463 -0.1768 -1.1236  1.5045
  304TMC3    H1 4634   0.432   0.057  10.306 -0.6894 -0.2811  0.8457
  304TMC3    H2 4635   0.045   0.203  10.402 -0.1097  0.8384 -1.2166
  304TMC3    C7 4636   0.176   0.064  10.211  0.0056 -0.0116 -0.6320
  304TMC3    C8 4637   0.139   0.448  10.347 -0.4948  0.2407  0.5083
  304TMC3    O1 4638   0.075   0.124  10.178 -0.1210  0.2506 -0.0728
  304TMC3    O2 4639   0.177   0.566  10.355 -0.1579  0.0978  0.0644
  305MPD2     C 4640   3.355   1.421  14.269 -1.1689  0.1094  0.2489
  305MPD2    C1 4641   3.488   1.393  14.248  0.3404 -0.3129 -0.2145
  305MPD2    C2 4642   3.535   1.394  14.116 -0.3426  0.0296  0.1591
  305MPD2    C3 4643   3.455   1.447  14.015  0.5164 -0.1212 -0.0812
  305MPD2    C4 4644   3.321   1.460  14.031 -0.0021  0.4057  0.5637
  305MPD2    C5 4645   3.271   1.452  14.161  0.4844 -0.7333  0.2545
  305MPD2     H 4646   3.636   1.360  14.097 -0.7185 -0.6659 -0.5816
  305MPD2    H1 4647   3.266   1.502  13.948  0.4459  3.6079  1.9021
  305MPD2    H2 4648   3.311   1.432  14.367 -0.5110  2.7638  0.2490
  305MPD2    H3 4649   3.167   1.476  14.181  0.4118  0.1497 -1.1440
  305MPD2     N 4650   3.513   1.471  13.887 -0.2562 -0.3943  0.5568
  305MPD2    H5 4651   3.451   1.501  13.812 -1.5090  0.2849  1.8798
  305MPD2    N1 4652   3.573   1.366  14.354 -0.1895 -0.1452  0.9453
  305MPD2    H7 4653   3.545   1.393  14.447 -0.7643  0.1527  0.6870
  306TMC3    C1 4654   3.764   1.346  14.484 -0.8652 -0.2435  0.2003
  306TMC3    C2 4655   3.867   1.267  14.506 -0.1686  0.3750  0.4093
  306TMC3    C3 4656   3.919   1.260  14.636 -0.3702 -0.5335 -0.2595
  306TMC3    C4 4657   3.704   1.424  14.586 -0.6977 -0.3137  0.0624
  306TMC3    C5 4658   3.758   1.413  14.703  0.5683 -0.6065 -0.3015
  306TMC3    C6 4659   3.867   1.341  14.741 -0.1999 -0.3302  0.1389
  306TMC3     C 4660   3.705   1.325  14.349 -0.1093  0.0492  0.1330
  306TMC3     O 4661   3.761   1.272  14.255  0.0959 -0.7960  0.4743
  306TMC3     H 4662   3.924   1.232  14.421  0.1548  3.1156 -0.5156
  306TMC3    H1 4663   3.634   1.505  14.567  1.1606  1.5676  1.3684
  306TMC3    H2 4664   3.897   1.320  14.843  2.9405  2.6117 -0.1683
  306TMC3    C7 4665   3.716   1.515  14.799 -0.1867 -0.2752  0.0131
  306TMC3    C8 4666   4.051   1.194  14.658 -0.5849 -0.3314  0.8816
  306TMC3    O1 4667   3.598   1.551  14.792  0.3478  0.8294  0.2987
  306TMC3    O2 4668   4.080   1.118  14.568 -0.3024  0.0510 -0.5150
  307MPD2     C 4669   2.143   4.328   0.028 -0.0559 -0.0154  0.1857
  307MPD2    C1 4670   2.097   4.457   0.035  0.1565 -0.5002  0.2028
  307MPD2    C2 4671   2.049   4.503   0.155 -0.2752 -0.2324  0.2953
  307MPD2    C3 4672   2.039   4.426   0.268 -0.4401  0.4561 -0.0812
  307MPD2    C4 4673   2.076   4.291   0.257  0.0548  0.1798 -0.3040
  307MPD2    C5 4674   2.134   4.246   0.135 -0.6014  0.2346  0.4569
  307MPD2     H 4675   2.020   4.608   0.157 -0.9571 -0.3943 -1.8102
  307MPD2    H1 4676   2.064   4.224   0.342  1.3217 -0.5197 -0.6912
  307MPD2    H2 4677   2.202   4.290  17.694  0.7206 -1.6871  1.5038
  307MPD2    H3 4678   2.174   4.146   0.125 -3.9938 -1.0161 -0.6481
  307MPD2     N 4679   1.980   4.485   0.385 -0.0627  0.0541  0.1429
  307MPD2    H5 4680   1.957   4.583   0.373 -0.6793 -0.0662  0.3424
  307MPD2    N1 4681   2.097   4.547  17.677 -0.9517 -0.1783 -0.0507
  307MPD2    H7 4682   2.059   4.640  17.688  0.7914  0.5684 -0.3605
  308TMC3    C1 4683   1.687   4.585   0.674  0.0206  0.0144 -0.2086
  308TMC3    C2 4684   1.723   4.715   0.675  0.6455  0.6292  0.5139
  308TMC3    C3 4685   1.853   0.006   0.637 -0.3473 -0.1799 -0.2774
  308TMC3    C4 4686   1.776   4.483   0.648 -0.1411  0.4096  0.6963
  308TMC3    C5 4687   1.898   4.513   0.607 -0.3633  0.7352  0.2412
  308TMC3    C6 4688   1.932   4.643   0.591 -0.0374 -0.0288 -0.0399
  308TMC3     C 4689   1.548   4.547   0.683 -0.8391 -0.1570  0.9759
  308TMC3     O 4690   1.516   4.429   0.672  0.2880  0.1408 -0.4510
  308TMC3     H 4691   1.666   0.057   0.721  0.5105  0.9152 -0.1476
  308TMC3    H1 4692   1.745   4.381   0.666  1.7836 -0.4132 -0.5731
  308TMC3    H2 4693   2.035   4.655   0.559 -0.4609  1.8460 -0.7018
  308TMC3    C7 4694   1.961   4.424   0.509 -0.0999 -0.3381 -0.0921
  308TMC3    C8 4695   1.875   0.140   0.578 -0.0871  0.0627 -0.2589
  308TMC3    O1 4696   1.946   4.304   0.531 -0.0230  0.0239 -0.3949
  308TMC3    O2 4697   1.772   0.211   0.579 -0.2535  0.0416 -0.5259
  309MPD2     C 4698   1.171   0.167  17.186 -0.5795 -0.3292  0.0478
  309MPD2    C1 4699   1.134   0.244  17.080  0.0016  0.4103  0.0209
  309MPD2    C2 4700   1.030   0.338  17.105 -0.0729 -0.5929  0.7369
  309MPD2    C3 4701   0.976   0.353  17.232  0.6971  0.5205 -0.2928
  309MPD2    C4 4702   1.006   0.267  17.329 -0.1216 -0.2775  0.1072
  309MPD2    C5 4703   1.108   0.178  17.301  0.0452 -0.1770 -0.7441
  309MPD2     H 4704   0.985   0.400  17.029  1.7157  0.1351  0.2623
  309MPD2    H1 4705   0.968   0.268  17.431  2.5379 -0.4621  1.1008
  309MPD2    H2 4706   1.247   0.092  17.172 -2.8132 -2.2883 -1.4436
  309MPD2    H3 4707   1.154   0.116  17.377  0.8338  0.5024 -0.6643
  309MPD2     N 4708   0.879   0.456  17.266  0.0971 -0.1359 -0.2813
  309MPD2    H5 4709   0.838   0.458  17.359 -1.3226  3.6689 -0.9458
  309MPD2    N1 4710   1.195   0.239  16.958 -0.4256  0.1615  0.4182
  309MPD2    H7 4711   1.147   0.293  16.887  0.8787  1.3135  0.4244
  310TMC3    C1 4712   1.350   0.191  16.784  0.1826  0.0751 -1.0668
  310TMC3    C2 4713   1.303   0.300  16.711 -0.0249 -0.0450 -0.1850
  310TMC3    C3 4714   1.338   0.298  16.583 -0.3154  0.5942 -0.0601
  310TMC3    C4 4715   1.442   0.100  16.729 -0.3520 -0.1141  0.2875
  310TMC3    C5 4716   1.509   0.138  16.616 -0.1827 -0.2807  0.3013
  310TMC3    C6 4717   1.447   0.230  16.531  0.2727 -0.1626  0.1066
  310TMC3     C 4718   1.318   0.182  16.927 -0.3157  0.4400  0.0732
  310TMC3     O 4719   1.389   0.106  16.996 -0.0349  0.9154  0.1243
  310TMC3     H 4720   1.228   0.368  16.749 -0.6947 -0.5117 -0.6632
  310TMC3    H1 4721   1.486   0.019  16.786  0.8685  0.1610 -0.2530
  310TMC3    H2 4722   1.470   0.248  16.426  2.7739 -1.2157  0.4838
  310TMC3    C7 4723   1.603   0.053  16.556  0.4236 -0.7074  0.0029
  310TMC3    C8 4724   1.252   0.384  16.496 -0.1571 -0.0229  0.6446
  310TMC3    O1 4725   1.622   4.681  16.595  0.3721  0.6544 -0.2772
  310TMC3    O2 4726   1.136   0.402  16.528  0.9162 -0.0602  0.0519
  311MPD2     C 4727   2.702   1.863  12.114  0.6775  0.7460 -0.2283
  311MPD2    C1 4728   2.774   1.816  12.220 -0.4954  0.4550  0.2685
  311MPD2    C2 4729   2.729   1.706  12.287  0.4542  0.8316 -0.1954
  311MPD2    C3 4730   2.601   1.656  12.267 -0.1767  0.6200 -0.6726
  311MPD2    C4 4731   2.523   1.712  12.172 -0.0621  0.1257  0.6019
  311MPD2    C5 4732   2.582   1.808  12.089  0.0290 -0.8215 -0.0514
  311MPD2     H 4733   2.796   1.665  12.362  1.2784 -0.9631 -1.9172
  311MPD2    H1 4734   2.425   1.675  12.146 -0.3867  0.4327  1.3923
  311MPD2    H2 4735   2.736   1.945  12.051  1.4409 -0.4477 -1.3635
  311MPD2    H3 4736   2.524   1.832  12.000  1.1590 -0.4101 -0.6740
  311MPD2     N 4737   2.543   1.563  12.359 -0.4189 -0.1131  0.1770
  311MPD2    H5 4738   2.605   1.523  12.429 -0.8574 -0.2744  0.4739
  311MPD2    N1 4739   2.911   1.856  12.253 -0.2409  0.5745 -0.1584
  311MPD2    H7 4740   2.960   1.821  12.334 -3.0149 -0.6810  0.9749
  312TMC3    C1 4741   2.391   1.441  12.483 -0.7924  0.2348  0.2990
  312TMC3    C2 4742   2.264   1.403  12.505 -0.0114  0.1062 -0.0799
  312TMC3    C3 4743   2.238   1.324  12.617  0.0421  0.7969 -0.1387
  312TMC3    C4 4744   2.492   1.407  12.572  0.1114 -0.4811  0.4177
  312TMC3    C5 4745   2.460   1.331  12.686  0.7738 -0.3188  0.2568
  312TMC3    C6 4746   2.335   1.287  12.707 -1.1899  0.9095  0.2582
  312TMC3     C 4747   2.413   1.516  12.362 -0.1143 -0.6795 -0.0130
  312TMC3     O 4748   2.318   1.542  12.288 -0.2138 -0.2265  0.5775
  312TMC3     H 4749   2.185   1.428  12.435 -1.7183 -2.1415  1.0294
  312TMC3    H1 4750   2.587   1.457  12.564  1.0068 -2.1767  0.3882
  312TMC3    H2 4751   2.311   1.222  12.791 -1.3301 -1.0019 -1.2728
  312TMC3    C7 4752   2.574   1.300  12.770  0.6105 -0.1750 -0.0836
  312TMC3    C8 4753   2.100   1.285  12.639 -0.2758 -0.3555 -0.0911
  312TMC3    O1 4754   2.684   1.301  12.719 -0.1876  0.3027  0.1467
  312TMC3    O2 4755   2.075   1.212  12.739 -0.1544 -0.0914 -0.0673
  313MPD2     C 4756   2.108   0.824  11.214  0.4652  0.0812  0.4432
  313MPD2    C1 4757   2.187   0.936  11.184  0.3288 -0.7711  0.4943
  313MPD2    C2 4758   2.251   0.952  11.066  0.2252 -0.3512  0.2047
  313MPD2    C3 4759   2.240   0.857  10.969  0.4434 -0.7370 -0.2408
  313MPD2    C4 4760   2.169   0.741  11.004  0.1773  0.1614  0.7723
  313MPD2    C5 4761   2.108   0.724  11.124  0.4313  0.8105 -0.3910
  313MPD2     H 4762   2.309   1.042  11.047  2.1157 -1.8030 -0.7979
  313MPD2    H1 4763   2.162   0.651  10.944 -1.4677  1.5286 -1.0704
  313MPD2    H2 4764   2.055   0.815  11.308  1.0746 -0.2305  0.7557
  313MPD2    H3 4765   2.046   0.636  11.140  3.0891 -1.1448 -0.9118
  313MPD2     N 4766   2.315   0.866  10.851 -0.7736  0.1065  0.7261
  313MPD2    H5 4767   2.378   0.946  10.852  0.7763 -1.0996  0.4493
  313MPD2    N1 4768   2.209   1.041  11.276 -0.2493 -0.6132 -0.0560
  313MPD2    H7 4769   2.280   1.111  11.255  1.4952 -1.3755  3.2575
  314TMC3    C1 4770   2.185   1.189  11.451  0.1799 -0.6333  0.1527
  314TMC3    C2 4771   2.306   1.249  11.421  0.4239 -0.7435 -0.5838
  314TMC3    C3 4772   2.300   1.385  11.416 -0.0143  0.0532  0.0635
  314TMC3    C4 4773   2.071   1.263  11.488  0.3364 -0.3044  0.3625
  314TMC3    C5 4774   2.066   1.399  11.459 -0.1027 -0.2130  0.2493
  314TMC3    C6 4775   2.184   1.461  11.426  0.2441  0.2107 -0.6252
  314TMC3     C 4776   2.158   1.054  11.398 -0.7977 -0.1973  0.0047
  314TMC3     O 4777   2.061   0.994  11.440  0.1196 -0.0922 -0.5244
  314TMC3     H 4778   2.395   1.193  11.397 -1.3347 -4.0277  0.4842
  314TMC3    H1 4779   1.980   1.208  11.506 -0.6929  1.6860  1.2502
  314TMC3    H2 4780   2.194   1.568  11.423 -0.0310  0.2149 -1.2480
  314TMC3    C7 4781   1.957   1.411  11.363 -0.0209 -0.4393 -0.2487
  314TMC3    C8 4782   2.421   1.466  11.432  0.6890  0.7097 -0.5259
  314TMC3    O1 4783   1.882   1.320  11.345 -0.1045  0.5050 -0.0815
  314TMC3    O2 4784   2.414   1.582  11.466  0.2185 -0.0146 -0.2350
  315MPD2     C 4785   2.415   4.388  17.260  0.7021  0.7237 -0.1303
  315MPD2    C1 4786   2.445   4.410  17.389 -0.4371  0.4591  0.1356
  315MPD2    C2 4787   2.466   4.547  17.419 -0.1635  0.0388 -0.0010
  315MPD2    C3 4788   2.445   4.647  17.333  0.0384 -0.0594  0.2480
  315MPD2    C4 4789   2.412   4.624  17.198  0.3723 -0.2612 -0.1086
  315MPD2    C5 4790   2.397   4.491  17.174 -0.3176 -0.4159  0.0409
  315MPD2     H 4791   2.472   4.564  17.526  0.2735 -1.6001  0.2437
  315MPD2    H1 4792   2.382   4.690  17.118 -2.0919 -0.3867  0.7143
  315MPD2    H2 4793   2.380   4.293  17.221  1.1527  1.4901 -2.3838
  315MPD2    H3 4794   2.369   4.468  17.072  1.0906  0.3808 -0.5180
  315MPD2     N 4795   2.463   0.038  17.394  0.0801 -0.2644  0.0565
  315MPD2    H5 4796   2.473   0.040  17.495  0.6612 -0.3928 -0.0014
  315MPD2    N1 4797   2.452   4.315  17.493  0.2809  0.0132  0.7890
  315MPD2    H7 4798   2.487   4.354  17.579  1.3051  2.2360 -0.6245
  316TMC3    C1 4799   2.534   0.255  17.420  0.1362  0.2889 -0.3741
  316TMC3    C2 4800   2.616   0.213  17.518  0.0006  0.0947  0.4786
  316TMC3    C3 4801   2.654   0.301  17.612 -0.7616  0.4578  0.3494
  316TMC3    C4 4802   2.500   0.386  17.400  0.0744 -0.9133  0.2688
  316TMC3    C5 4803   2.539   0.472  17.499  0.4285 -0.3165  0.6409
  316TMC3    C6 4804   2.610   0.434  17.612 -0.8936  0.6945 -0.0367
  316TMC3     C 4805   2.463   0.155  17.333 -0.6477 -0.1124 -0.2305
  316TMC3     O 4806   2.428   0.183  17.220  0.3610 -0.4231 -0.0487
  316TMC3     H 4807   2.656   0.112  17.523 -1.1299 -0.1690  3.8347
  316TMC3    H1 4808   2.446   0.416  17.311  0.5623 -0.0629  0.2615
  316TMC3    H2 4809   2.624   0.501  17.696  2.3984  0.1566 -0.1862
  316TMC3    C7 4810   2.498   0.612  17.510  0.3727 -0.2996 -0.5435
  316TMC3    C8 4811   2.682   0.253  17.748 -0.1700 -0.3424  0.1289
  316TMC3    O1 4812   2.454   0.636  17.623  0.5726  0.3571  0.0404
  316TMC3    O2 4813   2.674   0.324   0.098  0.2734 -0.0269  0.0332
  317MPD2     C 4814   3.992   3.444  12.916 -0.4567 -0.5053  0.3350
  317MPD2    C1 4815   4.084   3.362  12.854 -0.0806  0.0828 -0.4678
  317MPD2    C2 4816   4.188   3.322  12.928  0.2060 -0.1227  0.4104
  317MPD2    C3 4817   4.192   3.346  13.065  0.1846  1.4032 -0.6658
  317MPD2    C4 4818   4.098   3.429  13.121 -0.5086 -0.0954 -0.4303
  317MPD2    C5 4819   3.999   3.483  13.048 -0.2289 -0.4812 -0.1407
  317MPD2     H 4820   4.257   3.246  12.892 -0.3699  0.1085 -1.1538
  317MPD2    H1 4821   4.098   3.456  13.226 -2.2202 -2.0686  0.0842
  317MPD2    H2 4822   3.902   3.477  12.865 -0.6190  0.0213  0.9502
  317MPD2    H3 4823   3.935   3.554  13.098 -0.8954  0.1145 -1.8392
  317MPD2     N 4824   4.268   3.258  13.136  0.1123 -0.0552 -0.3519
  317MPD2    H5 4825   4.318   3.193  13.076  0.6498 -0.0893  0.1262
  317MPD2    N1 4826   4.083   3.322  12.718  0.0017 -0.3840 -0.4891
  317MPD2    H7 4827   4.154   3.255  12.691 -0.3954 -0.0280 -2.4217
  318TMC3    C1 4828   4.329   3.111  13.319 -0.6996 -0.4592 -0.6349
  318TMC3    C2 4829   4.326   3.006  13.238 -0.5703  0.0872 -0.5714
  318TMC3    C3 4830   4.415   2.904  13.275  1.1641  0.1525 -0.5233
  318TMC3    C4 4831   4.414   3.125  13.427  0.1666  0.4644 -0.3843
  318TMC3    C5 4832   4.505   3.025  13.454  0.2538  0.6433 -0.1265
  318TMC3    C6 4833   4.505   2.905  13.380  1.3648  0.4143 -0.0363
  318TMC3     C 4834   4.265   3.235  13.275  0.3560  0.9677 -0.0986
  318TMC3     O 4835   4.225   3.313  13.361 -0.0411  0.3801  0.2562
  318TMC3     H 4836   4.250   3.006  13.160 -0.5030 -0.7335 -0.6398
  318TMC3    H1 4837   4.432   3.217  13.483  0.3557 -0.5547  1.2189
  318TMC3    H2 4838   4.589   2.837  13.393  3.1066  2.3166 -1.3380
  318TMC3    C7 4839   4.597   3.046  13.562  0.1876 -0.1895 -0.1624
  318TMC3    C8 4840   4.390   2.776  13.215 -0.2985 -0.0650  0.3348
  318TMC3    O1 4841   4.601   3.156  13.610 -0.4372 -0.4642  0.2375
  318TMC3    O2 4842   4.427   2.674  13.271 -0.4442 -0.2132  0.3365
  319MPD2     C 4843   4.590   4.686  16.482  0.7993  0.0707 -0.0287
  319MPD2    C1 4844   4.696   4.611  16.429 -0.2369 -0.1915  0.1491
  319MPD2    C2 4845   4.671   4.505  16.336  0.1262 -0.2331 -0.4957
  319MPD2    C3 4846   4.541   4.476  16.306 -0.8979 -0.0443 -0.2107
  319MPD2    C4 4847   4.433   4.532  16.383  0.3561  0.0193  0.0414
  319MPD2    C5 4848   4.464   4.637  16.472 -0.2100 -0.4060  1.5068
  319MPD2     H 4849   0.018   4.457  16.289 -0.6378  0.9492 -3.1183
  319MPD2    H1 4850   4.328   4.506  16.377  0.7216 -1.3139 -0.6566
  319MPD2    H2 4851   4.607   0.038  16.540  1.4086  0.1441 -0.3205
  319MPD2    H3 4852   4.380   4.685  16.521 -1.4794 -1.0029 -0.0808
  319MPD2     N 4853   4.505   4.390  16.197  0.2187  0.4147  0.1455
  319MPD2    H5 4854   4.410   4.389  16.163 -0.0502 -0.9983  0.9516
  319MPD2    N1 4855   0.092   4.654  16.453  0.5539  0.2900  0.5963
  319MPD2    H7 4856   0.158   4.582  16.425  1.9814  1.7243  0.3579
  320TMC3    C1 4857   4.546   4.270  16.007 -0.1777  0.0516 -0.5014
  320TMC3    C2 4858   4.458   4.355  15.958  0.0679  0.2578 -0.2530
  320TMC3    C3 4859   4.370   4.304  15.858  0.5170  0.3188  0.2606
  320TMC3    C4 4860   4.541   4.142  15.975 -0.4421 -0.8230 -0.2788
  320TMC3    C5 4861   4.459   4.091  15.878  0.1818  0.0250 -0.3069
  320TMC3    C6 4862   4.364   4.172  15.818 -0.5548  0.1787 -0.1469
  320TMC3     C 4863   4.599   4.315  16.133  0.3190  0.1603 -0.1440
  320TMC3     O 4864   4.699   4.254  16.174  0.1282  0.4497  0.2822
  320TMC3     H 4865   4.476   4.461  15.974  1.4019  0.1070 -0.6672
  320TMC3    H1 4866   4.618   4.076  16.014 -0.4810 -0.7891 -0.1463
  320TMC3    H2 4867   4.286   4.132  15.755  0.7631  1.7309 -2.7716
  320TMC3    C7 4868   4.446   3.952  15.864  0.4144 -0.4650  0.5026
  320TMC3    C8 4869   4.275   4.405  15.810 -0.3293  0.1214  0.3908
  320TMC3    O1 4870   4.403   3.910  15.757  0.4705  0.2612  0.0644
  320TMC3    O2 4871   4.276   4.507  15.878  0.5484  0.7776  0.3325
  321TMC3    C1 4872   0.275   0.071  16.483 -0.2503 -0.0908 -0.4565
  321TMC3    C2 4873   0.363   4.718  16.428 -0.0357 -0.1188  0.4746
  321TMC3    C3 4874   0.491   0.024  16.396  0.4087  0.3991 -1.0360
  321TMC3    C4 4875   0.310   0.199  16.518 -0.5979 -0.2988 -0.1174
  321TMC3    C5 4876   0.439   0.239  16.489  0.1556  0.7880  0.2232
  321TMC3    C6 4877   0.525   0.151  16.436  0.2826 -0.6602 -0.6916
  321TMC3     C 4878   0.132   0.036  16.500 -0.1392 -0.8342 -0.4256
  321TMC3     O 4879   0.068   0.140  16.527 -0.2745  1.1435  0.4733
  321TMC3     H 4880   0.335   4.618  16.400  0.5025 -0.1702  0.1101
  321TMC3    H1 4881   0.235   0.265  16.560  0.1093 -0.4499  1.3979
  321TMC3    H2 4882   0.621   0.189  16.404 -0.2484  0.4923 -0.9493
  321TMC3    C7 4883   0.512   0.294  16.604 -0.2153 -0.2491 -0.4634
  321TMC3    C8 4884   0.592   4.662  16.452  0.7095  0.2689  0.0219
  321TMC3    O1 4885   0.626   0.257  16.618 -0.3051  0.2815 -0.1249
  321TMC3    O2 4886   0.693   4.708  16.501 -0.0145 -0.0733 -0.0879
  322MPD2     C 4887   4.059   1.014  13.563  0.2256  0.1875  0.5259
  322MPD2    C1 4888   4.051   0.914  13.654  0.2490 -0.0614  0.3702
  322MPD2    C2 4889   4.047   0.782  13.606  0.2483  0.1535 -0.3098
  322MPD2    C3 4890   4.094   0.758  13.480  0.3137 -0.7364 -0.0895
  322MPD2    C4 4891   4.105   0.857  13.390  0.5895 -0.7725 -0.0283
  322MPD2    C5 4892   4.085   0.987  13.432 -0.2879 -1.0255 -0.3626
  322MPD2     H 4893   4.031   0.700  13.675 -1.3602  0.8371  0.1231
  322MPD2    H1 4894   4.135   0.842  13.287 -0.1194 -0.1121 -0.3334
  322MPD2    H2 4895   4.051   1.117  13.596  1.4299  0.9210 -1.4796
  322MPD2    H3 4896   4.102   1.067  13.361 -1.6546  1.2333  1.8981
  322MPD2     N 4897   4.118   0.618  13.444 -0.1491 -0.3292 -0.5144
  322MPD2    H5 4898   4.109   0.545  13.514 -0.4305  0.7710  0.6001
  322MPD2    N1 4899   4.027   0.944  13.789  0.3184 -0.2541  0.3025
  322MPD2    H7 4900   4.009   1.041  13.809 -1.1089 -0.2479 -0.9561
  323TMC3    C1 4901   4.023   0.910  14.022  0.6108 -0.4791  0.3841
  323TMC3    C2 4902   4.073   1.035  14.042 -0.1941 -0.1160 -0.4780
  323TMC3    C3 4903   4.078   1.086  14.172 -0.4414  0.3620 -0.3460
  323TMC3    C4 4904   3.982   0.823  14.118 -0.6447  0.0425 -0.0750
  323TMC3    C5 4905   3.991   0.876  14.246 -0.6957 -0.1892  0.4587
  323TMC3    C6 4906   4.027   1.010  14.276 -0.2695 -0.1784 -0.2180
  323TMC3     C 4907   4.041   0.854  13.894  0.2942  0.3648  0.1203
  323TMC3     O 4908   4.053   0.733  13.900  0.4130 -0.4914 -0.5228
  323TMC3     H 4909   4.114   1.097  13.964 -0.8757  0.2168 -0.5734
  323TMC3    H1 4910   3.950   0.724  14.089 -0.2926  0.1653 -0.8812
  323TMC3    H2 4911   4.013   1.049  14.377 -1.2742  0.5046 -0.6228
  323TMC3    C7 4912   3.994   0.769  14.350  0.2262 -0.1228 -0.7831
  323TMC3    C8 4913   4.151   1.212  14.190  0.2555  0.5284 -0.2516
  323TMC3    O1 4914   3.995   0.654  14.312 -0.7695 -0.0091 -0.3017
  323TMC3    O2 4915   4.191   1.277  14.087  0.0888 -0.0592 -0.0699
  324MPD2     C 4916   0.825   2.407  14.152  0.1993  0.6844 -0.2250
  324MPD2    C1 4917   0.800   2.276  14.124 -0.1242  0.4328  0.0798
  324MPD2    C2 4918   0.665   2.223  14.135  0.7783 -0.5033  0.2061
  324MPD2    C3 4919   0.558   2.308  14.171  0.0038 -0.2107  0.6912
  324MPD2    C4 4920   0.588   2.436  14.205  0.1832 -0.2123  0.0372
  324MPD2    C5 4921   0.714   2.485  14.195 -1.5278 -0.1162  0.1553
  324MPD2     H 4922   0.656   2.119  14.107  0.3949 -0.4148  0.0114
  324MPD2    H1 4923   0.508   2.499  14.243  0.1140  0.5761 -1.4360
  324MPD2    H2 4924   0.922   2.454  14.136  0.5984 -0.4870 -1.1465
  324MPD2    H3 4925   0.721   2.588  14.229 -0.5796 -0.2185  0.2844
  324MPD2     N 4926   0.423   2.269  14.171  0.4550 -0.3141  0.0059
  324MPD2    H5 4927   0.349   2.337  14.182 -0.4525 -1.2112 -0.5987
  324MPD2    N1 4928   0.895   2.188  14.065 -0.5689 -0.0595  0.3004
  324MPD2    H7 4929   0.882   2.091  14.040 -0.8864  0.0937 -0.1294
  325TMC3    C1 4930   0.240   2.134  14.126  0.3684 -0.4704 -0.3034
  325TMC3    C2 4931   0.192   2.034  14.044  0.4194  0.4065 -0.3769
  325TMC3    C3 4932   0.059   2.021  14.024 -0.6708  0.1330 -0.1895
  325TMC3    C4 4933   0.157   2.228  14.177  0.1248  0.0302 -0.1086
  325TMC3    C5 4934   0.021   2.218  14.148  0.3576  0.6309 -0.5152
  325TMC3    C6 4935   4.709   2.115  14.075 -0.3697  0.3558 -0.1313
  325TMC3     C 4936   0.382   2.142  14.143  0.2034  0.9443 -0.1715
  325TMC3     O 4937   0.445   2.056  14.081 -0.3070  0.0578  0.7289
  325TMC3     H 4938   0.262   1.955  14.017 -1.5266 -1.5370  0.2140
  325TMC3    H1 4939   0.190   2.297  14.254 -0.0605 -2.5081  2.2337
  325TMC3    H2 4940   4.606   2.110  14.040 -0.6204  0.5013  0.5905
  325TMC3    C7 4941   4.675   2.292  14.244 -0.3823 -0.1328  0.5942
  325TMC3    C8 4942   0.020   1.927  13.916  0.5266  0.2106 -0.6861
  325TMC3    O1 4943   4.733   2.381  14.302  0.3268  0.2982 -0.7284
  325TMC3    O2 4944   0.115   1.867  13.863 -0.0103 -0.4174 -0.2331
  326MPD2     C 4945   2.246   3.636  11.178  1.1504 -0.6684  0.1551
  326MPD2    C1 4946   2.324   3.549  11.102 -0.7577  0.2870 -1.0282
  326MPD2    C2 4947   2.459   3.568  11.092 -0.3725 -0.3155  0.1002
  326MPD2    C3 4948   2.524   3.679  11.150  0.3903  0.1546 -0.4178
  326MPD2    C4 4949   2.445   3.767  11.232 -0.7136  0.3556  0.0792
  326MPD2    C5 4950   2.309   3.739  11.236 -0.4551  0.4247 -0.4409
  326MPD2     H 4951   2.511   3.505  11.020 -0.0371  1.4038 -1.1817
  326MPD2    H1 4952   2.484   3.858  11.276 -1.4019  0.3599  0.6757
  326MPD2    H2 4953   2.139   3.628  11.194  1.4095 -3.0277  0.5639
  326MPD2    H3 4954   2.247   3.809  11.290 -1.6172 -0.9179 -0.0331
  326MPD2     N 4955   2.656   3.705  11.139  0.7585 -0.3051 -0.3036
  326MPD2    H5 4956   2.685   3.788  11.190  4.7900 -0.4185 -2.3829
  326MPD2    N1 4957   2.264   3.448  11.026  0.5609  0.8428  0.0031
  326MPD2    H7 4958   2.324   3.384  10.975  0.9809  0.8737  0.4489
  327TMC3    C1 4959   2.097   3.391  10.873 -0.1316  0.6496 -0.2092
  327TMC3    C2 4960   1.994   3.470  10.829 -0.4874 -0.7403 -0.6381
  327TMC3    C3 4961   2.002   3.529  10.711  0.8289 -0.0350 -0.1575
  327TMC3    C4 4962   2.207   3.391  10.794  0.4508 -0.0756 -0.0305
  327TMC3    C5 4963   2.219   3.466  10.679 -0.1765 -0.3468 -0.3668
  327TMC3    C6 4964   2.116   3.534  10.635 -0.0214  0.2313 -0.0700
  327TMC3     C 4965   2.129   3.439  11.009  0.5016 -0.5429  0.2154
  327TMC3     O 4966   2.041   3.516  11.043 -1.2158  0.4978  0.3086
  327TMC3     H 4967   1.899   3.452  10.877 -0.6414  2.1492  0.1333
  327TMC3    H1 4968   2.256   3.294  10.800 -1.3969 -0.9693  0.7339
  327TMC3    H2 4969   2.114   3.588  10.542 -0.3314 -0.4759 -0.4742
  327TMC3    C7 4970   2.332   3.441  10.588  0.2099  0.2639  0.0923
  327TMC3    C8 4971   1.901   3.632  10.679  0.2877  0.1203 -0.2251
  327TMC3    O1 4972   2.335   3.487  10.475  0.6145  0.0499 -0.4323
  327TMC3    O2 4973   1.908   3.688  10.568 -0.2120  0.0927 -0.5253
  328MPD2     C 4974   0.273   3.610  17.235  0.0240  0.2930  0.3428
  328MPD2    C1 4975   0.169   3.523  17.246  0.8707 -0.1157  0.0543
  328MPD2    C2 4976   0.108   3.482  17.132  0.3178  0.1331  0.9425
  328MPD2    C3 4977   0.158   3.511  17.006 -0.4557  0.1314  0.3359
  328MPD2    C4 4978   0.260   3.605  16.998 -0.2180 -0.5558  0.2530
  328MPD2    C5 4979   0.317   3.652  17.114 -0.0387 -0.2155  0.4895
  328MPD2     H 4980   0.017   3.423  17.140 -0.0587  0.5341 -0.4327
  328MPD2    H1 4981   0.288   3.662  16.911  2.3645  0.2058  1.6176
  328MPD2    H2 4982   0.316   3.653  17.324  1.7190 -1.3240  0.3122
  328MPD2    H3 4983   0.407   3.712  17.122  0.1511  0.2476 -4.9039
  328MPD2     N 4984   0.079   3.484  16.884 -0.1315  0.3924  0.0519
  328MPD2    H5 4985   0.097   3.521  16.791  0.2038 -1.4436 -0.6195
  328MPD2    N1 4986   0.128   3.487  17.376  0.2997 -0.7553 -0.1451
  328MPD2    H7 4987   0.170   3.537  17.453 -1.3392 -0.2474  0.4194
  329TMC3    C1 4988   0.017   3.370  17.552 -0.4858  0.0094  0.0639
  329TMC3    C2 4989   0.030   3.473  17.634 -0.4471  0.0032  0.9372
  329TMC3    C3 4990   4.682   3.481  17.737 -0.2133 -0.3428  0.5049
  329TMC3    C4 4991   4.666   3.264  17.569  0.0869  0.4438 -0.2721
  329TMC3    C5 4992   4.581   3.281  17.683  0.3691 -1.5682 -0.4890
  329TMC3    C6 4993   4.590   3.383   0.020  0.0461  0.1016  0.0652
  329TMC3     C 4994   0.050   3.379  17.411  0.2221 -0.1191 -0.3051
  329TMC3     O 4995   0.013   3.285  17.337  0.1824 -0.1000  0.0782
  329TMC3     H 4996   0.081   3.565  17.608  0.4238 -0.1516  2.0894
  329TMC3    H1 4997   4.673   3.175  17.508 -0.4346  0.3844 -0.2484
  329TMC3    H2 4998   4.521   3.397   0.102  2.7140 -0.3283  2.4100
  329TMC3    C7 4999   4.459   3.200  17.695  0.0473  0.2884 -0.2817
  329TMC3    C8 5000   4.716   3.570   0.101 -0.0169 -0.0805 -0.2568
  329TMC3    O1 5001   4.397   3.207   0.055  0.4399 -0.2940  0.2565
  329TMC3    O2 5002   0.089   3.616   0.103 -0.4276 -0.0034 -0.2787
  330TMC3    C1 5003   2.397   2.975   9.582  0.1250  0.1449 -0.8321
  330TMC3    C2 5004   2.267   2.943   9.552 -0.2714 -0.3020 -0.7070
  330TMC3    C3 5005   2.214   2.833   9.616  0.1185  0.0144 -0.8169
  330TMC3    C4 5006   2.482   2.896   9.660  0.0217  0.0531 -0.6912
  330TMC3    C5 5007   2.427   2.773   9.701 -0.9667 -0.2276 -0.1910
  330TMC3    C6 5008   2.294   2.748   9.695 -0.8207 -0.0765  1.0471
  330TMC3     C 5009   2.445   3.109   9.540 -0.6924 -0.0937  0.5462
  330TMC3     O 5010   2.554   3.145   9.585  0.2511 -0.5536 -0.3383
  330TMC3     H 5011   2.201   3.000   9.488  0.1216 -0.4904 -1.2772
  330TMC3    H1 5012   2.588   2.917   9.670 -0.0735 -0.3069  0.9875
  330TMC3    H2 5013   2.252   2.664   9.750  0.6809 -1.8699 -0.5507
  330TMC3    C7 5014   2.500   2.686   9.789  0.6190  0.0489 -0.5920
  330TMC3    C8 5015   2.076   2.790   9.591  0.6667 -0.3294 -0.2976
  330TMC3    O1 5016   2.453   2.578   9.822 -0.0976 -0.6858 -0.1966
  330TMC3    O2 5017   2.027   2.802   9.480 -0.3178 -0.0410  0.3328
  331MPD2     C 5018   0.984   1.499  12.708  0.3571  0.0563  0.2765
  331MPD2    C1 5019   0.872   1.575  12.704  1.0983 -1.1403  0.0585
  331MPD2    C2 5020   0.753   1.529  12.748  0.2056  0.7836  0.8754
  331MPD2    C3 5021   0.741   1.397  12.786  0.5177  0.1662  0.0255
  331MPD2    C4 5022   0.849   1.317  12.791  0.2685 -0.4332 -0.3136
  331MPD2    C5 5023   0.967   1.367  12.750  0.4780  0.0956  0.0788
  331MPD2     H 5024   0.663   1.588  12.734 -0.6146 -0.7284 -0.2928
  331MPD2    H1 5025   0.838   1.211  12.811  0.5004 -0.6645 -1.4163
  331MPD2    H2 5026   1.083   1.537  12.690  1.2236 -3.1369 -1.7578
  331MPD2    H3 5027   1.053   1.301  12.748 -1.0893 -1.8689 -3.3291
  331MPD2     N 5028   0.612   1.357  12.805  0.3972 -0.0399 -0.7597
  331MPD2    H5 5029   0.536   1.421  12.784  1.4947  1.7402  0.6510
  331MPD2    N1 5030   0.876   1.706  12.660  0.2710 -0.3848  0.4570
  331MPD2    H7 5031   0.794   1.766  12.663 -0.1454 -0.8976 -0.8477
  332TMC3    C1 5032   0.438   1.212  12.863  0.5230 -0.1963  0.4541
  332TMC3    C2 5033   0.377   1.240  12.736  0.3781 -0.3398 -0.6882
  332TMC3    C3 5034   0.319   1.135  12.669  0.2398  0.3913  0.6909
  332TMC3    C4 5035   0.422   1.090  12.924  0.7062 -0.0098  0.2718
  332TMC3    C5 5036   0.373   0.989  12.847  0.0695  0.0476  0.9605
  332TMC3    C6 5037   0.322   1.008  12.719 -0.3089 -0.7305  0.5142
  332TMC3     C 5038   0.578   1.244  12.875  0.2446 -0.1585  0.1859
  332TMC3     O 5039   0.641   1.161  12.940  0.1330 -0.1620 -0.1277
  332TMC3     H 5040   0.383   1.341  12.698 -0.4038 -0.1264 -0.2486
  332TMC3    H1 5041   0.465   1.068  13.021 -0.6664  1.4315  1.2128
  332TMC3    H2 5042   0.300   0.923  12.655  0.2346 -0.0135 -0.6016
  332TMC3    C7 5043   0.440   0.865  12.858 -0.6445  0.1716 -0.1021
  332TMC3    C8 5044   0.332   1.163  12.531 -0.4792 -0.0063 -0.8562
  332TMC3    O1 5045   0.379   0.760  12.837  0.6524  0.2945  0.1654
  332TMC3    O2 5046   0.398   1.257  12.502 -0.5011 -0.1044  0.1116
  333MPD2     C 5047   0.341   2.117  11.209  0.1543 -0.2603 -1.0379
  333MPD2    C1 5048   0.467   2.059  11.200  0.2487 -0.4520 -0.5609
  333MPD2    C2 5049   0.471   1.922  11.202 -0.0067  0.2000 -0.0533
  333MPD2    C3 5050   0.349   1.845  11.198  0.4760  0.4301  0.6790
  333MPD2    C4 5051   0.219   1.902  11.200 -1.2328 -0.1145  0.9411
  333MPD2    C5 5052   0.220   2.039  11.213  0.0387 -0.2842 -0.4505
  333MPD2     H 5053   0.566   1.870  11.209 -0.2661 -0.4102 -1.1817
  333MPD2    H1 5054   0.125   1.849  11.183 -1.2136 -0.6952  2.6050
  333MPD2    H2 5055   0.327   2.224  11.205 -0.0403 -0.2212  0.9851
  333MPD2    H3 5056   0.125   2.092  11.206 -0.0348 -0.5315 -1.3243
  333MPD2     N 5057   0.371   1.702  11.177  0.3067 -0.3537 -0.1587
  333MPD2    H5 5058   0.467   1.668  11.178  0.4386 -0.0064 -0.7782
  333MPD2    N1 5059   0.582   2.140  11.189  0.5827 -0.1857  0.9513
  333MPD2    H7 5060   0.577   2.239  11.211  3.2683  0.4070 -1.0837
  334TMC3    C1 5061   0.818   2.171  11.131 -0.1471  0.1655  0.8341
  334TMC3    C2 5062   0.925   2.087  11.118  0.4125  0.1535 -0.2375
  334TMC3    C3 5063   1.032   2.123  11.045 -0.0275 -0.1140 -0.3858
  334TMC3    C4 5064   0.814   2.289  11.057  0.3258  0.6148 -0.1321
  334TMC3    C5 5065   0.922   2.317  10.981 -0.2955 -0.0678 -0.6034
  334TMC3    C6 5066   1.036   2.238  10.979 -0.4980  0.4426 -0.4791
  334TMC3     C 5067   0.701   2.085  11.130 -0.5061 -0.3306 -0.0802
  334TMC3     O 5068   0.723   1.977  11.077  0.1111  0.0499  0.0393
  334TMC3     H 5069   0.919   1.999  11.182 -2.4204 -0.0440 -0.7517
  334TMC3    H1 5070   0.720   2.344  11.054  0.3322  0.6919  1.0218
  334TMC3    H2 5071   1.120   2.259  10.914  0.7910  0.2128  1.1143
  334TMC3    C7 5072   0.925   2.451  10.934 -0.3890 -0.0425 -0.1219
  334TMC3    C8 5073   1.149   2.048  11.079 -0.2249 -0.6087  0.1994
  334TMC3    O1 5074   1.037   2.496  10.915 -0.5971 -0.2202 -0.6569
  334TMC3    O2 5075   1.127   1.929  11.095  0.5901  0.3807  0.1141
  335TMC3    C1 5076   0.416   3.294  17.363  0.1160  0.3294 -0.8689
  335TMC3    C2 5077   0.335   3.246  17.266  0.0826 -0.3807 -0.6765
  335TMC3    C3 5078   0.392   3.255  17.140 -0.3564 -0.8816  0.1545
  335TMC3    C4 5079   0.528   3.365  17.337 -0.4458 -0.4689  0.4830
  335TMC3    C5 5080   0.577   3.378  17.209 -0.0905 -0.4747  0.3041
  335TMC3    C6 5081   0.511   3.318  17.108 -0.2129 -0.2499  0.0735
  335TMC3     C 5082   0.385   3.267  17.494 -0.9083  0.2453  0.2827
  335TMC3     O 5083   0.418   3.352  17.576 -0.8860 -0.1682  0.1678
  335TMC3     H 5084   0.235   3.204  17.274 -0.3589  0.2617 -2.8929
  335TMC3    H1 5085   0.590   3.386  17.423  1.1873  2.8064 -1.5048
  335TMC3    H2 5086   0.551   3.314  17.007 -0.3641 -0.1762  0.0101
  335TMC3    C7 5087   0.715   3.363  17.186 -0.4685  0.3566  0.1305
  335TMC3    C8 5088   0.317   3.205  17.023  0.2833 -0.3539  0.4850
  335TMC3    O1 5089   0.756   3.273  17.121  0.3295 -0.5186  0.1944
  335TMC3    O2 5090   0.347   3.247  16.908 -0.5248 -0.5183  0.0544
  336MPD2     C 5091   0.042   0.832  16.267 -0.3391  0.3656  0.0716
  336MPD2    C1 5092   0.073   0.765  16.141  0.5948  0.0905  0.5207
  336MPD2    C2 5093   0.107   0.626  16.142 -0.4160  0.4409 -0.8742
  336MPD2    C3 5094   0.115   0.558  16.261 -0.3164  0.4311 -0.1567
  336MPD2    C4 5095   0.082   0.624  16.381  0.1400 -0.2994 -0.0963
  336MPD2    C5 5096   0.044   0.759  16.380 -0.2320 -0.3234  0.2266
  336MPD2     H 5097   0.122   0.578  16.046  2.4597  2.3374 -1.3751
  336MPD2    H1 5098   0.087   0.574  16.477  0.7696 -0.6921 -0.3314
  336MPD2    H2 5099   0.022   0.937  16.281 -0.1324  0.3739  0.3082
  336MPD2    H3 5100   0.035   0.811  16.475 -1.1035 -0.9931  0.5171
  336MPD2     N 5101   0.153   0.422  16.267 -0.1663 -0.0943 -0.1050
  336MPD2    H5 5102   0.128   0.383  16.358  0.9512 -0.4795  0.0297
  336MPD2    N1 5103   0.065   0.834  16.023  0.6181 -0.5964 -0.0249
  336MPD2    H7 5104   0.065   0.775  15.941 -1.8053  1.4241 -1.4939
  337TMC3    C1 5105   0.027   1.005  15.871 -0.2862  0.0064 -0.2535
  337TMC3    C2 5106   4.667   0.941  15.795 -0.5726  0.3123 -0.4981
  337TMC3    C3 5107   4.616   1.016  15.689 -0.3011  0.0198 -0.2037
  337TMC3    C4 5108   0.052   1.139  15.850  0.0341 -0.7295 -0.0231
  337TMC3    C5 5109   4.737   1.205  15.743 -0.1327  1.0872 -0.3142
  337TMC3    C6 5110   4.651   1.147  15.659 -1.0763 -0.0566 -0.4496
  337TMC3     C 5111   0.035   0.963  16.009 -0.1143 -0.2316  0.0195
  337TMC3     O 5112   0.014   1.056  16.085  0.1912  0.6360 -0.3743
  337TMC3     H 5113   4.623   0.846  15.824  0.1662  0.5271  1.3171
  337TMC3    H1 5114   0.126   1.187  15.914 -2.0099  1.6594  0.5622
  337TMC3    H2 5115   4.619   1.202  15.571  0.9317  1.4809 -0.2129
  337TMC3    C7 5116   0.014   1.352  15.741 -0.2199  0.4695  0.3940
  337TMC3    C8 5117   4.486   0.969  15.640  0.2780  0.4976  0.5676
  337TMC3    O1 5118   0.018   1.411  15.635 -0.2839 -0.0901  0.2811
  337TMC3    O2 5119   4.459   0.851  15.649  0.1066  0.3930  0.0576
  338MPD2     C 5120   1.007   0.888   0.839  0.6153 -0.1424  0.3358
  338MPD2    C1 5121   0.899   0.854   0.763  0.0176  0.0663 -0.9856
  338MPD2    C2 5122   0.773   0.908   0.797  0.2405  0.5832 -0.0845
  338MPD2    C3 5123   0.760   0.995   0.901 -0.1377 -0.5955 -0.0066
  338MPD2    C4 5124   0.873   1.017   0.975 -0.4366  0.0172  0.5420
  338MPD2    C5 5125   0.994   0.981   0.939  0.1560 -0.2014 -0.0714
  338MPD2     H 5126   0.688   0.876   0.737 -1.1155  0.2028  2.0487
  338MPD2    H1 5127   0.861   1.086   1.058 -4.9140  1.3448 -1.1909
  338MPD2    H2 5128   1.107   0.852   0.817  0.3005 -0.3325 -0.8099
  338MPD2    H3 5129   1.081   1.011   0.996  0.0318  1.4510 -0.7489
  338MPD2     N 5130   0.629   1.024   0.943 -0.5839 -0.2459 -0.1155
  338MPD2    H5 5131   0.556   0.993   0.880 -1.7291 -0.2353  1.2055
  338MPD2    N1 5132   0.900   0.759   0.654  0.5718  0.1284 -0.1158
  338MPD2    H7 5133   0.807   0.743   0.615  0.3495 -2.6556  1.5364
  339TMC3    C1 5134   0.448   1.098   1.055  0.9507  0.0518  0.0747
  339TMC3    C2 5135   0.386   1.217   1.094  0.0550 -0.6023  0.6821
  339TMC3    C3 5136   0.248   1.221   1.073 -0.5578 -0.5270  0.4835
  339TMC3    C4 5137   0.372   0.987   1.018  0.2146  0.3884  0.3924
  339TMC3    C5 5138   0.238   0.994   1.016  0.5152  0.1537 -0.3944
  339TMC3    C6 5139   0.176   1.115   1.024  0.6391 -0.6995 -0.5996
  339TMC3     C 5140   0.594   1.097   1.049  0.1688 -0.4540  0.4327
  339TMC3     O 5141   0.661   1.178   1.115  0.2704  0.0980  0.3121
  339TMC3     H 5142   0.441   1.298   1.140  0.7222  0.3570 -1.7813
  339TMC3    H1 5143   0.427   0.896   0.999 -1.9101 -0.7254 -0.3551
  339TMC3    H2 5144   0.068   1.123   1.030  0.4328 -1.3655 -3.1929
  339TMC3    C7 5145   0.189   0.928   0.901 -0.2921  0.4118  0.5420
  339TMC3    C8 5146   0.190   1.350   1.097  0.8277  0.4502 -0.0621
  339TMC3    O1 5147   0.169   1.002   0.806 -0.0973  0.2876  0.0110
  339TMC3    O2 5148   0.275   1.436   1.109  0.5011  0.0033  0.1898
  340MPD2     C 5149   0.570   4.366   9.988  0.7258  0.0863 -0.0055
  340MPD2    C1 5150   0.600   4.246  10.050 -0.4798  0.3480  0.0786
  340MPD2    C2 5151   0.648   4.250  10.182  0.0755 -0.1995 -0.0761
  340MPD2    C3 5152   0.648   4.371  10.253  0.5325  0.1141  0.6092
  340MPD2    C4 5153   0.613   4.486  10.195  0.6145  0.4029  0.2114
  340MPD2    C5 5154   0.577   4.489  10.061  0.3355  0.4401  0.1598
  340MPD2     H 5155   0.680   4.161  10.234  0.1140 -1.0441 -1.5378
  340MPD2    H1 5156   0.621   4.576  10.254  0.3007  0.5212  0.0747
  340MPD2    H2 5157   0.542   4.374   9.884 -3.6353 -0.1859  1.1583
  340MPD2    H3 5158   0.568   4.588  10.017 -0.9611 -1.1609 -3.2476
  340MPD2     N 5159   0.690   4.386  10.384 -0.0514 -0.4799 -0.0534
  340MPD2    H5 5160   0.683   4.477  10.429  4.0892  0.0267 -0.4145
  340MPD2    N1 5161   0.594   4.125   9.977 -0.0711 -0.1795  0.3207
  340MPD2    H7 5162   0.581   4.130   9.876  0.1056  1.5467  0.3924
  341TMC3    C1 5163   0.600   3.905   9.940  0.3091 -0.4117  0.3401
  341TMC3    C2 5164   0.535   3.786   9.961 -0.0565  0.2026 -0.4990
  341TMC3    C3 5165   0.537   3.687   9.866  0.3691 -0.3548 -0.0651
  341TMC3    C4 5166   0.681   3.921   9.836  0.1205 -0.0225 -0.7558
  341TMC3    C5 5167   0.685   3.818   9.743  0.7874  0.1456  0.3070
  341TMC3    C6 5168   0.617   3.704   9.757 -0.1029  0.1840  0.7987
  341TMC3     C 5169   0.576   4.006  10.032 -0.0394 -0.3083 -0.2229
  341TMC3     O 5170   0.563   3.972  10.147 -0.5740 -0.1767 -0.0677
  341TMC3     H 5171   0.469   3.781  10.047  0.2164 -1.7469 -0.4096
  341TMC3    H1 5172   0.749   4.005   9.830 -0.3650  0.3717 -0.7240
  341TMC3    H2 5173   0.605   3.642   9.669 -0.9367  0.7300  0.5374
  341TMC3    C7 5174   0.816   3.793   9.676  0.0510 -0.5575 -0.0150
  341TMC3    C8 5175   0.425   3.588   9.856 -0.6342  0.0085  0.0858
  341TMC3    O1 5176   0.845   3.676   9.649  0.4327  0.3102 -0.7556
  341TMC3    O2 5177   0.387   3.564   9.741  0.1272 -0.6090  0.0140
  342MPD2     C 5178   2.992   1.463  17.534 -0.4401 -0.2712 -0.4234
  342MPD2    C1 5179   3.124   1.453  17.495  0.5644 -0.1053  0.1601
  342MPD2    C2 5180   3.199   1.566  17.480 -0.6323 -0.5594 -0.0451
  342MPD2    C3 5181   3.144   1.693  17.511  0.1709  0.3929  0.4671
  342MPD2    C4 5182   3.014   1.698  17.554  0.5858  0.0875 -0.0575
  342MPD2    C5 5183   2.941   1.584  17.557  0.3710 -0.1341  0.2366
  342MPD2     H 5184   3.305   1.569  17.458 -0.7838 -0.7295 -0.7817
  342MPD2    H1 5185   2.975   1.789  17.597  1.9912  1.0621 -0.8604
  342MPD2    H2 5186   2.923   1.380  17.540  0.3650 -0.8353  1.0966
  342MPD2    H3 5187   2.837   1.584  17.585 -0.1525  1.5707 -1.6420
  342MPD2     N 5188   3.223   1.813  17.528 -0.1647 -0.6487 -0.1330
  342MPD2    H5 5189   3.175   1.897  17.556  0.4785 -0.0379 -0.8407
  342MPD2    N1 5190   3.185   1.329  17.461 -0.8925 -0.0533  0.9207
  342MPD2    H7 5191   3.271   1.340  17.409 -0.3550 -0.3072  1.7399
  343TMC3    C1 5192   3.201   1.106  17.381 -0.0544 -0.2757  0.3751
  343TMC3    C2 5193   3.297   1.130  17.290 -0.2262  0.2915 -0.0071
  343TMC3    C3 5194   3.353   1.029  17.215  0.5269  0.9023  0.2718
  343TMC3    C4 5195   3.148   0.981  17.397 -0.7745 -0.3270 -0.3485
  343TMC3    C5 5196   3.201   0.884  17.307 -0.0514  0.5947  0.4850
  343TMC3    C6 5197   3.301   0.897  17.215 -0.4494 -0.3129 -0.0499
  343TMC3     C 5198   3.137   1.201  17.476  0.1575  1.2027 -0.2277
  343TMC3     O 5199   3.028   1.165  17.522  0.1622 -0.0749 -0.3874
  343TMC3     H 5200   3.334   1.230  17.270  1.3039 -0.7195 -2.2775
  343TMC3    H1 5201   3.079   0.950  17.474 -2.2602 -0.0676 -1.5762
  343TMC3    H2 5202   3.340   0.816  17.155  1.5159  0.0878  0.6783
  343TMC3    C7 5203   3.169   0.742  17.322 -0.5372  0.5484 -0.1352
  343TMC3    C8 5204   3.467   1.063  17.137 -0.4020 -0.5561  0.2541
  343TMC3    O1 5205   3.152   0.665  17.227 -0.2003  0.1648 -0.0197
  343TMC3    O2 5206   3.520   1.168  17.173 -0.2387 -0.3482  0.0019
  344MPD2     C 5207   4.201   0.471  10.878  0.2130 -0.3970  0.3807
  344MPD2    C1 5208   4.097   0.526  10.813  0.3527  0.1694 -0.0753
  344MPD2    C2 5209   4.125   0.641  10.737  0.3382 -0.3164 -0.0096
  344MPD2    C3 5210   4.253   0.691  10.727  0.1577  0.0391  0.6503
  344MPD2    C4 5211   4.355   0.623  10.790 -0.6409 -0.1382  0.0469
  344MPD2    C5 5212   4.333   0.516  10.861 -1.3347 -0.5913  0.4189
  344MPD2     H 5213   4.043   0.685  10.681 -0.2393 -1.4265 -0.0478
  344MPD2    H1 5214   4.457   0.658  10.777 -0.0529 -1.7465  0.3299
  344MPD2    H2 5215   4.191   0.375  10.929  2.1936 -1.3218 -0.9608
  344MPD2    H3 5216   4.420   0.465  10.900 -1.1164  0.1097  0.8438
  344MPD2     N 5217   4.289   0.812  10.664  0.0480  0.3834 -0.2961
  344MPD2    H5 5218   4.387   0.838  10.660 -0.5467  2.2893 -1.9784
  344MPD2    N1 5219   3.960   0.487  10.830  0.0353  0.5247 -0.2516
  344MPD2    H7 5220   3.896   0.535  10.767 -2.1338  0.4170  1.8677
  345TMC3    C1 5221   4.240   1.034  10.589  0.1220 -0.1933  0.2143
  345TMC3    C2 5222   4.348   1.075  10.661  0.0965  0.7514  0.1797
  345TMC3    C3 5223   4.384   1.212  10.649  0.1082 -0.4319  1.0501
  345TMC3    C4 5224   4.175   1.124  10.503 -0.3715  0.1236 -0.8127
  345TMC3    C5 5225   4.213   1.258  10.505 -0.0040 -0.3268  0.4418
  345TMC3    C6 5226   4.320   1.305  10.578  0.1446  0.3360 -0.9064
  345TMC3     C 5227   4.205   0.895  10.591 -0.2576  0.5314  0.1563
  345TMC3     O 5228   4.108   0.858  10.525  0.0584  0.0836  0.0734
  345TMC3     H 5229   4.402   1.008  10.727 -0.6117 -0.0037 -0.0013
  345TMC3    H1 5230   4.112   1.080  10.427 -1.2312  0.4226 -0.2676
  345TMC3    H2 5231   4.334   1.412  10.581 -0.9014  0.4817 -1.2058
  345TMC3    C7 5232   4.136   1.367  10.427 -0.4358 -0.3796  0.3441
  345TMC3    C8 5233   4.521   1.251  10.694  0.2632 -0.6192  0.2611
  345TMC3    O1 5234   4.211   1.460  10.407  0.0654 -0.3711 -0.4126
  345TMC3    O2 5235   4.584   1.188  10.776  0.5725  0.2454 -0.3632
  346MPD2     C 5236   3.689   1.842  13.891  0.1467  0.3819 -0.0905
  346MPD2    C1 5237   3.798   1.917  13.915 -0.3631 -0.3101  1.1884
  346MPD2    C2 5238   3.851   1.918  14.041 -0.5360 -0.4998  0.6818
  346MPD2    C3 5239   3.786   1.859  14.150  0.0190 -0.3857 -0.0687
  346MPD2    C4 5240   3.664   1.795  14.125 -0.0566 -0.1099  0.3637
  346MPD2    C5 5241   3.620   1.792  13.996  0.0135  0.6178  0.4400
  346MPD2     H 5242   3.949   1.957  14.066 -0.2946 -1.0503  0.5857
  346MPD2    H1 5243   3.594   1.752  14.195  0.6666 -0.6688  0.7463
  346MPD2    H2 5244   3.641   1.835  13.795 -0.8356  0.6684  0.3812
  346MPD2    H3 5245   3.521   1.755  13.971  0.0445 -0.0980  1.3925
  346MPD2     N 5246   3.847   1.867  14.282  0.3559  0.0077 -0.0984
  346MPD2    H5 5247   3.933   1.921  14.280  0.6096 -0.3868  0.3994
  346MPD2    N1 5248   3.869   1.991  13.819 -0.3383 -0.1343 -0.0943
  346MPD2    H7 5249   3.970   1.997  13.827 -0.6615  3.3433  1.5306
  347TMC3    C1 5250   3.898   1.829  14.507  0.3298 -0.1537 -0.2366
  347TMC3    C2 5251   3.930   1.958  14.525 -0.2558  0.1887 -1.2634
  347TMC3    C3 5252   4.010   1.986  14.627 -0.2978  0.2061 -0.6193
  347TMC3    C4 5253   3.943   1.719  14.586  0.2121 -0.2349 -0.1363
  347TMC3    C5 5254   4.037   1.758  14.674 -0.3634  0.2939  0.1795
  347TMC3    C6 5255   4.065   1.887  14.698  0.1221  0.1663  0.4194
  347TMC3     C 5256   3.816   1.791  14.393 -0.1535  0.4476  0.2043
  347TMC3     O 5257   3.731   1.703  14.415  0.0674  0.1487  0.3708
  347TMC3     H 5258   3.897   2.037  14.459  1.5390  1.8825 -0.1384
  347TMC3    H1 5259   3.915   1.615  14.573 -0.2391 -0.3101  1.4846
  347TMC3    H2 5260   4.139   1.919  14.770  0.7499 -1.0484  0.3037
  347TMC3    C7 5261   4.117   1.650  14.740  0.2288  0.3438  0.7892
  347TMC3    C8 5262   4.081   2.112  14.621  0.4103 -0.2252  0.8024
  347TMC3    O1 5263   4.063   1.542  14.758 -0.5682 -0.1860 -0.0018
  347TMC3    O2 5264   4.048   2.205  14.687  0.0661  0.0410  0.2891
  348MPD2     C 5265   3.439   2.248  11.711 -0.9421 -0.3197 -0.1044
  348MPD2    C1 5266   3.303   2.248  11.685  0.4213  0.0678 -0.5232
  348MPD2    C2 5267   3.256   2.328  11.584 -0.1922  0.5343 -0.4761
  348MPD2    C3 5268   3.341   2.402  11.505  0.1387  0.1456 -0.0419
  348MPD2    C4 5269   3.476   2.399  11.543  0.1321  0.1676 -0.2253
  348MPD2    C5 5270   3.532   2.322  11.642 -0.1908 -0.6774  0.0391
  348MPD2     H 5271   3.149   2.333  11.572 -0.2537 -0.1375 -0.1872
  348MPD2    H1 5272   3.543   2.447  11.473  0.5194  3.0760  2.1122
  348MPD2    H2 5273   3.476   2.184  11.791  0.3360 -0.4954 -0.8422
  348MPD2    H3 5274   3.638   2.311  11.662 -0.1108 -0.5997 -0.3257
  348MPD2     N 5275   3.295   2.465  11.384  0.4291  0.0948  0.8496
  348MPD2    H5 5276   3.197   2.453  11.361  0.9011 -1.9710 -0.0145
  348MPD2    N1 5277   3.204   2.174  11.752 -0.5530  0.1885 -0.2193
  348MPD2    H7 5278   3.106   2.192  11.732 -0.2630  1.6145 -0.3424
  349TMC3    C1 5279   3.110   1.981  11.847 -0.7219 -0.1935 -0.1742
  349TMC3    C2 5280   3.146   1.858  11.891  0.4452 -0.1484 -0.3261
  349TMC3    C3 5281   3.057   1.758  11.882 -0.6168 -0.1600 -0.5972
  349TMC3    C4 5282   2.991   2.004  11.784 -0.2756 -0.8676 -0.0066
  349TMC3    C5 5283   2.898   1.901  11.778 -0.1312  0.7005 -0.1384
  349TMC3    C6 5284   2.933   1.778  11.826 -0.1066 -0.4139 -0.9612
  349TMC3     C 5285   3.231   2.060  11.822  0.1651  0.1613 -0.1660
  349TMC3     O 5286   3.337   2.024  11.872 -0.1398  0.1872  0.4382
  349TMC3     H 5287   3.244   1.830  11.927  1.1689  0.9613 -1.4140
  349TMC3    H1 5288   2.973   2.098  11.733  0.2950 -1.8830 -2.0725
  349TMC3    H2 5289   2.853   1.704  11.824 -0.3252 -0.3170  4.2962
  349TMC3    C7 5290   2.759   1.944  11.778 -0.1621 -0.3925 -0.2305
  349TMC3    C8 5291   3.097   1.640  11.961 -0.1614  0.4014 -0.2728
  349TMC3    O1 5292   2.669   1.863  11.749  0.5354  0.7867 -0.4607
  349TMC3    O2 5293   3.219   1.632  11.988  0.1371  0.5125 -0.2438
  350MPD2     C 5294   1.732   1.057  10.297  0.4469  0.1464 -0.6391
  350MPD2    C1 5295   1.799   0.943  10.233 -0.2838  0.0694  0.2268
  350MPD2    C2 5296   1.935   0.925  10.264 -0.3502 -0.1311 -0.6339
  350MPD2    C3 5297   2.006   1.030  10.325 -0.8859 -0.9055  0.2213
  350MPD2    C4 5298   1.944   1.144  10.363 -0.1976 -0.1891 -0.4396
  350MPD2    C5 5299   1.809   1.157  10.348 -0.1441 -0.8417  0.2828
  350MPD2     H 5300   1.981   0.833  10.229 -1.1197 -1.7767  2.6143
  350MPD2    H1 5301   1.992   1.230  10.408  0.4815 -1.0973  0.5724
  350MPD2    H2 5302   1.625   1.069  10.292  0.5248  1.4275  0.8418
  350MPD2    H3 5303   1.750   1.244  10.373  1.1130 -0.3949  1.7037
  350MPD2     N 5304   2.139   1.001  10.363 -0.2849 -0.2381 -0.7052
  350MPD2    H5 5305   2.176   0.910  10.337 -0.1831  0.5554 -3.3890
  350MPD2    N1 5306   1.737   0.844  10.157  0.9422  0.2145 -0.1686
  350MPD2    H7 5307   1.800   0.775  10.118  2.3589  2.6269 -2.1155
  351TMC3    C1 5308   1.577   0.711  10.060 -0.6007  0.2700  0.5289
  351TMC3    C2 5309   1.674   0.633   9.997 -0.0312 -0.1335  1.4212
  351TMC3    C3 5310   1.637   0.509   9.949  0.5076  0.2549 -0.3991
  351TMC3    C4 5311   1.447   0.664  10.072  0.5448 -0.2477  0.7804
  351TMC3    C5 5312   1.414   0.548  10.020 -0.1691 -0.0881 -0.1560
  351TMC3    C6 5313   1.509   0.461   9.974 -0.2733 -0.5729 -0.7322
  351TMC3     C 5314   1.604   0.837  10.127  0.1795 -0.1409 -0.3440
  351TMC3     O 5315   1.506   0.900  10.169 -0.2471 -0.8933 -0.4836
  351TMC3     H 5316   1.766   0.683   9.968  0.0993 -0.0341  1.9952
  351TMC3    H1 5317   1.373   0.741  10.094 -0.7231 -1.0468 -0.6772
  351TMC3    H2 5318   1.478   0.367   9.929 -0.5844 -1.0295  0.4089
  351TMC3    C7 5319   1.277   0.496  10.018  0.5188  0.1398 -0.2864
  351TMC3    C8 5320   1.735   0.427   9.887  0.2518 -0.1303  0.0814
  351TMC3    O1 5321   1.210   0.517  10.121 -0.1434  0.2328 -0.1167
  351TMC3    O2 5322   1.835   0.477   9.841  0.4826  0.8650 -0.1360
  352MPD2     C 5323   0.887   3.010   0.752 -0.1201  0.2609  0.1715
  352MPD2    C1 5324   0.807   2.911   0.710 -0.4612  0.2284  0.1562
  352MPD2    C2 5325   0.859   2.790   0.669  0.1849 -0.3268 -0.3587
  352MPD2    C3 5326   0.993   2.768   0.669  0.1117 -0.2371 -0.0272
  352MPD2    C4 5327   1.076   2.866   0.724 -0.5866 -0.0612 -0.3199
  352MPD2    C5 5328   1.021   2.984   0.763  0.2234 -1.0296 -0.2575
  352MPD2     H 5329   0.791   2.706   0.658 -1.0543  0.8500 -1.7004
  352MPD2    H1 5330   1.184   2.851   0.729 -0.3727  1.7499  0.5261
  352MPD2    H2 5331   0.844   3.106   0.778  1.6534  0.6536  1.6645
  352MPD2    H3 5332   1.096   3.058   0.787 -2.5833  1.0605  1.8775
  352MPD2     N 5333   1.049   2.637   0.640 -0.1598  0.0117  0.9436
  352MPD2    H5 5334   1.147   2.617   0.659  0.5061  3.7100  1.4212
  352MPD2    N1 5335   0.668   2.942   0.699  0.3477  0.3177  0.3873
  352MPD2    H7 5336   0.643   3.036   0.725 -1.4763  0.5684 -2.2658
  353TMC3    C1 5337   1.036   2.404   0.588 -0.5788  0.2916 -0.3652
  353TMC3    C2 5338   1.157   2.404   0.662 -0.1032 -0.6317 -0.3046
  353TMC3    C3 5339   1.158   2.318   0.763  0.3042  0.2399  0.2779
  353TMC3    C4 5340   0.933   2.311   0.612 -0.8002  0.7237  0.5155
  353TMC3    C5 5341   0.946   2.234   0.717  0.0774 -0.5903 -0.2260
  353TMC3    C6 5342   1.054   2.235   0.798 -0.9480  0.5778 -0.4457
  353TMC3     C 5343   0.979   2.538   0.568  0.2615 -0.5764  0.0721
  353TMC3     O 5344   0.866   2.541   0.518 -0.1123 -0.1446 -0.0423
  353TMC3     H 5345   1.238   2.469   0.631 -0.5530 -1.1834 -2.6309
  353TMC3    H1 5346   0.833   2.324   0.570 -0.3899  2.4440  0.0362
  353TMC3    H2 5347   1.057   2.163   0.879 -1.9330  1.3787  0.3031
  353TMC3    C7 5348   0.830   2.156   0.752  0.0398 -0.2167 -0.2466
  353TMC3    C8 5349   1.289   2.277   0.804 -0.0973 -0.5237  1.0325
  353TMC3    O1 5350   0.749   2.136   0.664  0.1724  0.0315 -0.2507
  353TMC3    O2 5351   1.366   2.366   0.823  0.0675  0.1499  0.0687
  354TMC3    C1 5352   2.162   2.855  13.483  0.0593  0.6094  0.5392
  354TMC3    C2 5353   2.187   2.985  13.519  0.3084  0.2021  0.0592
  354TMC3    C3 5354   2.272   3.055  13.436 -0.2933  0.5444  0.4351
  354TMC3    C4 5355   2.230   2.795  13.382 -0.2113  0.4790  0.5266
  354TMC3    C5 5356   2.314   2.870  13.311  0.1489 -0.4840 -0.4086
  354TMC3    C6 5357   2.329   3.001  13.322 -0.2050  0.0522 -0.2967
  354TMC3     C 5358   2.138   2.759  13.592 -0.5352  0.5501 -0.4335
  354TMC3     O 5359   2.170   2.801  13.704  0.4570  0.3166 -0.7287
  354TMC3     H 5360   2.125   3.025  13.599 -1.3744 -0.7188 -0.7813
  354TMC3    H1 5361   2.225   2.687  13.372 -0.8496  0.5050  0.5264
  354TMC3    H2 5362   2.398   3.059  13.263 -1.1826  0.5463 -0.9480
  354TMC3    C7 5363   2.398   2.796  13.211 -0.1172 -0.0118 -0.2595
  354TMC3    C8 5364   2.260   3.196  13.452 -0.0176 -0.0448  0.7862
  354TMC3    O1 5365   2.412   2.676  13.230  0.2559  0.7677 -0.3189
  354TMC3    O2 5366   2.236   3.229  13.567  0.1402  0.1806  0.9136
  355MPD2     C 5367   1.814   4.037  11.691  0.2241 -0.0795  0.2324
  355MPD2    C1 5368   1.917   4.052  11.601  0.3629  0.1642  0.3627
  355MPD2    C2 5369   2.041   4.079  11.648  1.3992  0.4916  0.5658
  355MPD2    C3 5370   2.056   4.104  11.788 -0.1196 -0.0335 -0.5757
  355MPD2    C4 5371   1.947   4.109  11.868 -0.2991 -0.3648 -0.2103
  355MPD2    C5 5372   1.831   4.071  11.817  0.7242 -0.1476  0.1944
  355MPD2     H 5373   2.130   4.079  11.587  0.1849 -0.0229 -1.2187
  355MPD2    H1 5374   1.956   4.128  11.974 -0.8391  1.7500 -0.5252
  355MPD2    H2 5375   1.715   4.018  11.651  0.6724  0.3467 -1.0780
  355MPD2    H3 5376   1.740   4.082  11.876  1.7130  0.4924  1.6158
  355MPD2     N 5377   2.182   4.134  11.849  0.1435  0.5918 -0.4149
  355MPD2    H5 5378   2.177   4.161  11.947  0.3151  2.6916 -0.9928
  355MPD2    N1 5379   1.898   4.016  11.468 -0.2389 -0.1822 -0.8138
  355MPD2    H7 5380   1.815   3.964  11.439 -0.4375  0.0244 -0.6125
  356TMC3    C1 5381   2.397   4.231  11.825 -0.1886 -0.3608 -0.5010
  356TMC3    C2 5382   2.511   4.236  11.752 -0.0045 -0.5636 -0.5658
  356TMC3    C3 5383   2.579   4.350  11.735  0.1532 -0.2472  0.3906
  356TMC3    C4 5384   2.363   4.339  11.908 -0.4022 -0.8251  0.6098
  356TMC3    C5 5385   2.440   4.453  11.897  0.0233  0.7065 -0.2117
  356TMC3    C6 5386   2.546   4.459  11.809 -0.0605  0.0542 -0.7667
  356TMC3     C 5387   2.302   4.124  11.790  0.0058 -0.0987  0.5094
  356TMC3     O 5388   2.329   4.075  11.682 -0.1510  0.0931 -0.2131
  356TMC3     H 5389   2.527   4.157  11.680  0.1107  1.3824 -2.6745
  356TMC3    H1 5390   2.290   4.324  11.987 -1.6714 -1.0918 -0.6134
  356TMC3    H2 5391   2.592   4.555  11.789 -1.3318  0.3809 -2.1889
  356TMC3    C7 5392   2.462   4.523  12.020 -0.2731  0.5484  0.3918
  356TMC3    C8 5393   2.602   4.377  11.596  0.2032 -0.1962  0.9320
  356TMC3    O1 5394   2.383   4.497  12.110 -0.4318 -0.2260  0.2491
  356TMC3    O2 5395   2.562   4.297  11.516 -0.1812 -0.1097  0.1047
  357MPD2     C 5396   2.093   4.209   0.841  0.1460 -0.0739 -0.0337
  357MPD2    C1 5397   2.201   4.234   0.915  0.2333  0.2273  0.1390
  357MPD2    C2 5398   2.191   4.262   1.047 -0.1792 -0.0626 -0.0727
  357MPD2    C3 5399   2.065   4.260   1.103 -1.1548 -0.2404 -0.7495
  357MPD2    C4 5400   1.950   4.251   1.031  0.5325  0.5366  0.0572
  357MPD2    C5 5401   1.966   4.231   0.892  0.5143 -0.3185 -0.1215
  357MPD2     H 5402   2.282   4.256   1.105  0.4668 -0.3351 -1.1030
  357MPD2    H1 5403   1.853   4.263   1.078 -0.0363  0.7706 -1.1805
  357MPD2    H2 5404   2.103   4.188   0.735 -1.2059  0.1120 -0.2024
  357MPD2    H3 5405   1.873   4.218   0.837  0.2132 -1.9828  0.7682
  357MPD2     N 5406   2.051   4.271   1.242  0.3351  0.1866 -0.0293
  357MPD2    H5 5407   1.960   4.246   1.281 -0.0317 -1.6538 -2.1207
  357MPD2    N1 5408   2.328   4.223   0.854  0.0155  0.1575  0.4054
  357MPD2    H7 5409   2.328   4.159   0.775  0.9676 -0.1666  0.6659
  358TMC3    C1 5410   2.560   4.186   0.857 -0.2690 -0.7142 -0.1081
  358TMC3    C2 5411   2.562   4.119   0.734 -0.6469  0.0809  0.2907
  358TMC3    C3 5412   2.669   4.035   0.716  0.1181 -0.0939 -0.8782
  358TMC3    C4 5413   2.651   4.162   0.956 -0.2509 -0.3753 -0.2938
  358TMC3    C5 5414   2.758   4.077   0.926  0.0289 -0.0087 -0.1065
  358TMC3    C6 5415   2.775   4.026   0.800  0.1882  0.8436 -0.9241
  358TMC3     C 5416   2.452   4.271   0.895  0.3619  0.4558 -0.1840
  358TMC3     O 5417   2.477   4.357   0.977 -0.4037  0.3265  0.2923
  358TMC3     H 5418   2.493   4.142   0.654 -0.3778  0.7463  0.2514
  358TMC3    H1 5419   2.648   4.230   1.040 -0.8088 -0.9389  0.1395
  358TMC3    H2 5420   2.849   3.948   0.785 -0.5028  0.3746 -1.8351
  358TMC3    C7 5421   2.857   4.032   1.028  0.0967 -0.3207  0.0147
  358TMC3    C8 5422   2.691   4.002   0.581 -0.6031 -1.1267 -0.1592
  358TMC3    O1 5423   2.945   3.948   1.006 -0.3992  0.0431  0.1089
  358TMC3    O2 5424   2.595   3.978   0.511  0.0241 -0.2855 -0.0876
  359MPD2     C 5425   3.275   2.487  12.516  0.3320  0.3764  0.0479
  359MPD2    C1 5426   3.188   2.550  12.422  0.4346  0.8537  0.1017
  359MPD2    C2 5427   3.058   2.553  12.454  0.0019  0.1145 -0.6743
  359MPD2    C3 5428   3.014   2.498  12.568  1.2392 -0.1743 -0.4545
  359MPD2    C4 5429   3.102   2.435  12.664 -0.6289  0.3112  0.0213
  359MPD2    C5 5430   3.237   2.442  12.636  0.6272 -0.4243 -0.8800
  359MPD2     H 5431   2.987   2.588  12.380 -3.6458 -1.1658  2.1944
  359MPD2    H1 5432   3.062   2.404  12.760  0.1217 -2.0163 -0.4280
  359MPD2    H2 5433   3.380   2.482  12.490  0.1177 -2.0820 -0.3986
  359MPD2    H3 5434   3.310   2.405  12.707  2.2601  3.2971 -0.6007
  359MPD2     N 5435   2.877   2.506  12.600  0.4107 -0.0910 -0.7073
  359MPD2    H5 5436   2.844   2.452  12.680  1.5795  1.1727  0.6227
  359MPD2    N1 5437   3.228   2.608  12.301  0.1192 -0.0918  0.2048
  359MPD2    H7 5438   3.161   2.648  12.236 -0.1061 -1.2831 -0.2929
  360TMC3    C1 5439   3.354   2.661  12.114 -0.2929 -0.7972  0.4065
  360TMC3    C2 5440   3.445   2.763  12.075  0.1705  0.6400 -0.4131
  360TMC3    C3 5441   3.462   2.778  11.944 -0.6504  0.0118 -0.2481
  360TMC3    C4 5442   3.276   2.595  12.030  0.3000  0.5214  0.4056
  360TMC3    C5 5443   3.287   2.617  11.893  0.3888 -0.2502  0.3325
  360TMC3    C6 5444   3.386   2.701  11.851  0.0158  0.9089  0.0853
  360TMC3     C 5445   3.356   2.624  12.252  0.1408  0.1440  0.4739
  360TMC3     O 5446   3.463   2.606  12.310  0.1365 -0.6518 -0.1422
  360TMC3     H 5447   3.512   2.800  12.152  1.2009 -1.7210 -0.1723
  360TMC3    H1 5448   3.191   2.535  12.060  1.0545  0.4189  2.2911
  360TMC3    H2 5449   3.408   2.719  11.746 -0.3134 -1.5342 -0.3950
  360TMC3    C7 5450   3.178   2.599  11.805  0.0267 -0.2190 -0.4099
  360TMC3    C8 5451   3.570   2.867  11.915 -0.1511 -0.1512 -0.1587
  360TMC3    O1 5452   3.085   2.526  11.849  0.1244  0.1343  0.1560
  360TMC3    O2 5453   3.624   2.919  12.011 -0.3060 -0.7027 -0.4727
  361MPD2     C 5454   3.962   1.586  16.430  0.2128  0.8719  0.3321
  361MPD2    C1 5455   3.974   1.653  16.551  0.7618  0.3661  0.4945
  361MPD2    C2 5456   4.093   1.637  16.622 -0.2278  0.2006 -0.0333
  361MPD2    C3 5457   4.191   1.550  16.575  0.5437  0.4091  0.1747
  361MPD2    C4 5458   4.175   1.483  16.455 -0.6759  0.4920  0.7429
  361MPD2    C5 5459   4.055   1.495  16.389 -0.0825  0.6585  0.2314
  361MPD2     H 5460   4.107   1.688  16.717 -2.4691  0.4493  0.1439
  361MPD2    H1 5461   4.248   1.410  16.420  1.4753  1.9884  2.1753
  361MPD2    H2 5462   3.872   1.581  16.371 -0.0296  1.3959  0.6546
  361MPD2    H3 5463   4.041   1.437  16.298  2.1431 -0.4157  0.5716
  361MPD2     N 5464   4.302   1.509  16.652 -0.3766  0.1044  0.1256
  361MPD2    H5 5465   4.350   1.425  16.623  0.8287  1.0087 -0.4754
  361MPD2    N1 5466   3.870   1.746  16.601  0.9057  0.3483  0.1515
  361MPD2    H7 5467   3.904   1.801  16.680  2.8511 -0.6984  0.0322
  362TMC3    C1 5468   3.682   1.874  16.619  0.7201  0.5186 -0.8463
  362TMC3    C2 5469   3.724   1.892  16.744  0.1022 -0.5053  0.3009
  362TMC3    C3 5470   3.687   2.010  16.806 -0.1247  0.2706  0.1657
  362TMC3    C4 5471   3.603   1.970  16.551  0.0358  0.0353 -0.4519
  362TMC3    C5 5472   3.556   2.078  16.619 -0.1046 -0.4677  0.1055
  362TMC3    C6 5473   3.605   2.101  16.748 -0.4213 -0.4798  0.1689
  362TMC3     C 5474   3.748   1.771  16.548  0.0547  0.4790  0.2883
  362TMC3     O 5475   3.696   1.730  16.444 -0.7026 -0.2929  0.5110
  362TMC3     H 5476   3.765   1.809  16.799  1.1842 -0.2233 -0.0754
  362TMC3    H1 5477   3.589   1.939  16.448  1.2432  1.6294 -1.0931
  362TMC3    H2 5478   3.576   2.197  16.788 -2.7265 -0.9833 -0.3022
  362TMC3    C7 5479   3.542   2.198  16.541  0.0279 -0.0545 -0.0271
  362TMC3    C8 5480   3.739   2.034  16.939  0.2825 -0.2997 -0.4488
  362TMC3    O1 5481   3.557   2.306  16.591 -0.1020  0.2139  0.0308
  362TMC3    O2 5482   3.842   1.973  16.973 -0.0107  0.7841  0.5491
  363TMC3    C1 5483   2.915   4.188   9.421  0.8373 -0.2950  0.1994
  363TMC3    C2 5484   2.947   4.213   9.556 -0.1271 -0.3899 -0.5767
  363TMC3    C3 5485   2.903   4.331   9.602  0.7554  0.6081 -0.2019
  363TMC3    C4 5486   2.862   4.283   9.341 -0.4138  1.1049 -0.0383
  363TMC3    C5 5487   2.813   4.398   9.395  0.6991 -0.5885 -0.5024
  363TMC3    C6 5488   2.822   4.423   9.532 -0.3525 -0.7867  0.0168
  363TMC3     C 5489   2.926   4.049   9.370 -0.5314 -0.5306  0.2149
  363TMC3     O 5490   2.973   3.964   9.447  0.3661  0.3210  0.2501
  363TMC3     H 5491   3.007   4.141   9.611  0.5065  1.4125  1.0874
  363TMC3    H1 5492   2.859   4.278   9.233 -1.0551  0.6284 -0.0009
  363TMC3    H2 5493   2.761   4.495   9.584 -1.1933 -0.5781 -1.2441
  363TMC3    C7 5494   2.727   4.468   9.308 -0.1934  0.2507 -0.0494
  363TMC3    C8 5495   2.928   4.360   9.743 -0.2429 -0.9356  0.0791
  363TMC3    O1 5496   2.674   4.406   9.215  0.2993  0.1863 -0.3468
  363TMC3    O2 5497   2.852   4.439   9.798  0.0268  0.5346  0.6622
  364MPD2     C 5498   1.503   3.949  10.760  0.0391 -0.6499  0.0357
  364MPD2    C1 5499   1.607   3.949  10.668  0.5256 -0.0306 -0.0006
  364MPD2    C2 5500   1.702   3.849  10.665  0.3410 -0.5359  0.1557
  364MPD2    C3 5501   1.694   3.740  10.753 -0.4232  0.3021  0.0650
  364MPD2    C4 5502   1.588   3.737  10.844 -0.0722  0.0926 -0.1333
  364MPD2    C5 5503   1.499   3.840  10.852 -0.4816  0.0761  0.2406
  364MPD2     H 5504   1.786   3.857  10.597  0.9969  0.8241  1.1346
  364MPD2    H1 5505   1.564   3.651  10.906  1.9472  0.1111  0.6730
  364MPD2    H2 5506   1.422   4.020  10.765 -0.3608 -1.1353  0.5512
  364MPD2    H3 5507   1.416   3.833  10.920 -1.7090 -1.6749 -1.4243
  364MPD2     N 5508   1.791   3.643  10.762 -0.7518  0.1231  0.2731
  364MPD2    H5 5509   1.780   3.584  10.844  0.2810 -1.1992 -0.5289
  364MPD2    N1 5510   1.617   4.064  10.581  0.4277  0.5689 -0.6140
  364MPD2    H7 5511   1.554   4.141  10.599 -0.6799 -0.1186 -1.5491
  365TMC3    C1 5512   1.736   4.232  10.473  0.8708  0.1790 -0.1250
  365TMC3    C2 5513   1.758   4.271  10.349  0.2932  0.6310 -0.2050
  365TMC3    C3 5514   1.751   4.404  10.329  0.0361 -0.4921  0.3242
  365TMC3    C4 5515   1.708   4.314  10.578 -0.8165  0.6768 -0.3734
  365TMC3    C5 5516   1.674   4.446  10.544  0.5002  0.4806 -0.8045
  365TMC3    C6 5517   1.695   4.492  10.417  0.9148 -0.1328 -0.3976
  365TMC3     C 5518   1.726   4.090  10.495 -0.3419 -0.6428  0.4021
  365TMC3     O 5519   1.805   4.026  10.425 -0.1134  0.4286 -0.7907
  365TMC3     H 5520   1.766   4.197  10.270  2.0930  1.8975 -1.2035
  365TMC3    H1 5521   1.708   4.279  10.681 -0.7318 -1.4215 -1.0760
  365TMC3    H2 5522   1.668   4.592  10.387 -2.3224 -1.0502 -0.5649
  365TMC3    C7 5523   1.627   4.532  10.646  0.3856 -0.0471  0.2620
  365TMC3    C8 5524   1.742   4.431  10.187  0.4680 -0.3224 -0.4282
  365TMC3    O1 5525   1.661   4.650  10.643 -0.5444 -0.1246 -1.2296
  365TMC3    O2 5526   1.658   4.515  10.153  0.5390  0.2987 -1.3376
  366MPD2     C 5527   4.726   4.069  15.571 -0.6038  0.0525  0.5071
  366MPD2    C1 5528   4.728   4.174  15.476  0.1019 -0.1696  0.3984
  366MPD2    C2 5529   0.057   4.159  15.355  0.4931 -0.0772 -0.1516
  366MPD2    C3 5530   0.132   4.041  15.333  0.0047 -0.3819 -0.6150
  366MPD2    C4 5531   0.120   3.940  15.428  0.3754  0.9677  0.7113
  366MPD2    C5 5532   0.053   3.950  15.545 -0.3698  0.3189  0.0763
  366MPD2     H 5533   0.053   4.225  15.269  0.4782  1.3774  0.9488
  366MPD2    H1 5534   0.183   3.852  15.416  1.1669  1.6075  0.1257
  366MPD2    H2 5535   4.672   4.077  15.665 -0.5208 -0.1051  0.5679
  366MPD2    H3 5536   0.057   3.870  15.618  0.6390  1.9853  1.8596
  366MPD2     N 5537   0.201   4.016  15.218 -0.3328 -0.2138 -0.3008
  366MPD2    H5 5538   0.216   3.917  15.202  1.8091 -0.3341  2.4469
  366MPD2    N1 5539   4.658   4.293  15.491 -0.1190 -0.3026 -0.6338
  366MPD2    H7 5540   4.636   4.353  15.412  1.8506 -1.8637 -2.3625
  367TMC3    C1 5541   4.588   4.489  15.608 -0.2341  0.7006  0.2075
  367TMC3    C2 5542   4.640   4.563  15.708  0.6091 -0.2675  0.5495
  367TMC3    C3 5543   4.614   4.695  15.700 -0.9496  0.0252 -0.0921
  367TMC3    C4 5544   4.506   4.541  15.509 -0.9583 -0.2361 -0.1704
  367TMC3    C5 5545   4.483   4.675  15.510  0.1908  0.3510  0.3007
  367TMC3    C6 5546   4.529   0.020  15.606 -0.1546  0.8909  0.2358
  367TMC3     C 5547   4.639   4.350  15.614  0.3482 -0.6587 -1.1221
  367TMC3     O 5548   4.659   4.301  15.721 -0.3388 -0.4235 -0.0782
  367TMC3     H 5549   4.715   4.521  15.774 -0.7382 -0.5952  1.8674
  367TMC3    H1 5550   4.467   4.474  15.433  1.7174 -2.2868  0.2564
  367TMC3    H2 5551   4.500   0.124  15.602  0.2449  0.9621 -0.7686
  367TMC3    C7 5552   4.408   0.001  15.397 -0.5820 -0.2515 -0.7289
  367TMC3    C8 5553   0.005   0.025  15.731 -0.3402 -0.1099  0.1007
  367TMC3    O1 5554   4.431   0.120  15.383  0.2340 -0.8956 -0.3077
  367TMC3    O2 5555   0.104   4.694  15.738 -0.2432  0.1381  0.5144
  368MPD2     C 5556   1.111   1.813  12.865  0.0603  0.3813  0.3267
  368MPD2    C1 5557   1.103   1.951  12.845 -0.5429 -0.8399 -0.5425
  368MPD2    C2 5558   1.201   2.008  12.764  1.1462 -0.0903  0.7555
  368MPD2    C3 5559   1.309   1.935  12.706 -0.4953  0.2811 -0.0444
  368MPD2    C4 5560   1.317   1.803  12.739 -0.2830  0.2991 -0.4256
  368MPD2    C5 5561   1.224   1.748  12.820 -0.2482 -0.3927 -0.2077
  368MPD2     H 5562   1.189   2.112  12.733  0.8049  0.2923  2.1879
  368MPD2    H1 5563   1.399   1.741  12.703 -0.1779  0.5910 -0.6871
  368MPD2    H2 5564   1.041   1.767  12.934 -0.2906  1.6149  0.7918
  368MPD2    H3 5565   1.243   1.650  12.863  2.0526  0.5938  1.0420
  368MPD2     N 5566   1.421   1.992  12.635 -0.6004  0.4548 -0.5975
  368MPD2    H5 5567   1.503   1.935  12.614 -1.4837 -0.4392 -1.5831
  368MPD2    N1 5568   0.999   2.023  12.907  1.0156 -0.2480 -0.2924
  368MPD2    H7 5569   0.929   1.965  12.953 -0.0666 -0.9463 -2.8146
  369TMC3    C1 5570   0.860   2.207  12.967  0.5815 -0.7157 -0.0371
  369TMC3    C2 5571   0.872   2.336  12.993 -0.4226 -0.7923  0.1378
  369TMC3    C3 5572   0.767   2.417  12.993  0.1576 -0.6589 -0.1050
  369TMC3    C4 5573   0.740   2.145  12.937 -0.0222  0.4119  0.3319
  369TMC3    C5 5574   0.633   2.233  12.950  0.1435 -0.6539  0.0667
  369TMC3    C6 5575   0.643   2.366  12.970  0.1002 -0.0436  0.4028
  369TMC3     C 5576   0.981   2.159  12.906 -0.4688 -0.6105  0.2130
  369TMC3     O 5577   1.061   2.244  12.864 -0.6193  0.2558  0.0361
  369TMC3     H 5578   0.965   2.385  13.017  0.4442 -1.6968 -1.3679
  369TMC3    H1 5579   0.738   2.051  12.883 -0.0615  0.0568  0.9548
  369TMC3    H2 5580   0.553   2.426  12.975  1.1506  1.6038 -0.5262
  369TMC3    C7 5581   0.505   2.181  12.931 -0.1474 -0.5835 -0.0987
  369TMC3    C8 5582   0.778   2.561  12.991 -0.4088  0.2938 -0.1292
  369TMC3    O1 5583   0.410   2.259  12.930 -0.0589  0.2066 -0.1753
  369TMC3    O2 5584   0.886   2.608  12.952  0.2743  0.0174  0.6594
  370TMC3    C1 5585   0.456   2.496  16.230  0.1743 -0.0214 -0.3523
  370TMC3    C2 5586   0.350   2.451  16.310 -0.1630  0.1602 -0.1087
  370TMC3    C3 5587   0.295   2.332  16.276  0.3544 -0.5712  0.2886
  370TMC3    C4 5588   0.492   2.429  16.115  0.0656 -0.1508  0.4743
  370TMC3    C5 5589   0.441   2.306  16.092 -0.9425  0.2111 -0.2006
  370TMC3    C6 5590   0.343   2.257  16.179  0.7407  0.7455 -0.1278
  370TMC3     C 5591   0.559   2.555  16.308 -0.5710 -0.2556 -0.0223
  370TMC3     O 5592   0.552   2.557  16.429 -0.2489 -0.0387 -0.5481
  370TMC3     H 5593   0.331   2.512  16.397 -0.1551  1.7881 -1.2539
  370TMC3    H1 5594   0.576   2.458  16.053 -1.3227  1.3716 -0.6724
  370TMC3    H2 5595   0.308   2.156  16.161  0.4540  0.2757  3.0513
  370TMC3    C7 5596   0.485   2.244  15.969 -0.3094 -0.6676 -0.6307
  370TMC3    C8 5597   0.218   2.263  16.383  0.1992 -0.0290  0.2881
  370TMC3    O1 5598   0.511   2.325  15.877  0.0366  0.4265 -0.0924
  370TMC3    O2 5599   0.184   2.147  16.362  0.5203 -0.3914  0.2397
  371TMC3    C1 5600   1.791   0.631  15.610  0.0410 -0.2599 -0.1289
  371TMC3    C2 5601   1.682   0.656  15.683 -0.4542 -0.9878  0.5123
  371TMC3    C3 5602   1.588   0.748  15.653  0.0421 -0.0585  0.0709
  371TMC3    C4 5603   1.817   0.703  15.501  0.0085 -0.6601  0.6686
  371TMC3    C5 5604   1.723   0.805  15.479 -0.4187 -0.1379 -0.1550
  371TMC3    C6 5605   1.609   0.837  15.555 -0.2828  0.3300  0.4874
  371TMC3     C 5606   1.885   0.525  15.644 -0.6255  0.0350 -0.0624
  371TMC3     O 5607   1.998   0.523  15.594  0.6064  0.0899  0.1453
  371TMC3     H 5608   1.655   0.589  15.764 -1.8743 -0.6814  0.2930
  371TMC3    H1 5609   1.905   0.687  15.439  1.5939  1.5601  2.3278
  371TMC3    H2 5610   1.546   0.920  15.525  2.6531  2.8959  1.4094
  371TMC3    C7 5611   1.748   0.886  15.357 -0.0106  0.1946 -0.0144
  371TMC3    C8 5612   1.456   0.732  15.712 -0.5986 -0.4826 -0.1591
  371TMC3    O1 5613   1.693   0.996  15.376  0.1210 -0.2395 -0.9511
  371TMC3    O2 5614   1.415   0.621  15.747  0.2778  0.1163  0.5767
  372MPD2     C 5615   1.150   1.994  13.202  0.4290  0.5874 -0.1617
  372MPD2    C1 5616   1.198   1.868  13.239  0.1634  0.6258  0.2554
  372MPD2    C2 5617   1.109   1.796  13.319 -0.1485 -0.4062 -0.6389
  372MPD2    C3 5618   0.979   1.836  13.343 -1.1004 -0.4331 -0.2333
  372MPD2    C4 5619   0.939   1.969  13.311 -1.0382  0.0353  0.7096
  372MPD2    C5 5620   1.033   2.043  13.248  0.3535 -0.4395  0.6165
  372MPD2     H 5621   1.146   1.702  13.359 -0.4468 -0.7692 -1.2118
  372MPD2    H1 5622   0.847   2.015  13.344 -0.9671  1.1151 -0.5941
  372MPD2    H2 5623   1.210   2.071  13.156  1.8689  0.8462  2.1354
  372MPD2    H3 5624   1.018   2.146  13.218  0.4596 -0.5352  0.2377
  372MPD2     N 5625   0.897   1.757  13.418  0.1283  0.2138 -0.5056
  372MPD2    H5 5626   0.929   1.663  13.438  1.7430  0.8212 -0.1801
  372MPD2    N1 5627   1.325   1.819  13.205 -0.6049 -0.3260 -0.1476
  372MPD2    H7 5628   1.344   1.729  13.247  3.6635  0.9647  0.6723
  373TMC3    C1 5629   0.714   1.671  13.546 -0.2655 -0.0368 -0.3403
  373TMC3    C2 5630   0.647   1.699  13.655  0.3845  0.5186  0.2878
  373TMC3    C3 5631   0.581   1.593  13.719  0.8977  0.1874  0.6949
  373TMC3    C4 5632   0.758   1.544  13.525 -0.0595  0.3861  0.3282
  373TMC3    C5 5633   0.704   1.443  13.597  0.4363  1.1818  0.3926
  373TMC3    C6 5634   0.602   1.462  13.692 -0.0065  0.3427 -0.6026
  373TMC3     C 5635   0.784   1.788  13.482  0.0445 -1.0175  0.1202
  373TMC3     O 5636   0.732   1.896  13.505 -0.7970 -0.1117  0.1090
  373TMC3     H 5637   0.622   1.801  13.684  0.4207  0.5335  0.2658
  373TMC3    H1 5638   0.815   1.514  13.437  0.2309 -0.8835  0.9396
  373TMC3    H2 5639   0.572   1.388  13.764  1.1343 -1.5809 -2.1137
  373TMC3    C7 5640   0.807   1.354  13.640 -0.0807 -0.0530  0.7789
  373TMC3    C8 5641   0.570   1.595  13.861 -0.2356  0.2831 -0.2195
  373TMC3    O1 5642   0.911   1.376  13.582  0.1925 -0.3558  0.0007
  373TMC3    O2 5643   0.463   1.562  13.914 -0.4177 -0.0834  0.0724
  374TMC3    C1 5644   1.535   2.956   9.872  0.1686 -0.4151 -0.0327
  374TMC3    C2 5645   1.666   2.980   9.874 -0.4144 -0.2896  0.3628
  374TMC3    C3 5646   1.719   3.027   9.761 -0.1190 -0.4393  0.3620
  374TMC3    C4 5647   1.452   2.993   9.775 -0.2959  0.7277  0.7199
  374TMC3    C5 5648   1.507   3.053   9.664  0.0881  0.5473 -0.9054
  374TMC3    C6 5649   1.643   3.076   9.663 -0.0170  0.7105  0.0797
  374TMC3     C 5650   1.470   2.897   9.987  0.0819 -0.1291  0.7870
  374TMC3     O 5651   1.379   2.820   9.961 -0.4302  0.0966 -0.0661
  374TMC3     H 5652   1.723   2.937   9.955 -1.4800 -3.1396 -0.3879
  374TMC3    H1 5653   1.346   2.971   9.777 -0.0266 -0.5879  0.8056
  374TMC3    H2 5654   1.683   3.132   9.579 -0.3077 -1.6718 -1.6533
  374TMC3    C7 5655   1.418   3.107   9.566  0.8402 -0.4683  0.3870
  374TMC3    C8 5656   1.855   3.073   9.763  0.4093 -0.0649 -0.0125
  374TMC3    O1 5657   1.300   3.125   9.601 -0.3386  0.4958  0.0236
  374TMC3    O2 5658   1.872   3.142   9.666  0.0263  0.6276  0.2654
  375MPD2     C 5659   1.930   2.806  17.268  0.7385 -1.1993 -0.2366
  375MPD2    C1 5660   1.871   2.771  17.152 -0.0329  0.3860 -0.1640
  375MPD2    C2 5661   1.939   2.688  17.067  0.4898  0.5153  0.1084
  375MPD2    C3 5662   2.064   2.627  17.110 -0.1261 -0.2673 -0.4524
  375MPD2    C4 5663   2.115   2.660  17.231  0.8671 -0.6946 -0.0685
  375MPD2    C5 5664   2.044   2.743  17.307  0.0989 -0.2461 -0.1150
  375MPD2     H 5665   1.899   2.673  16.967 -2.8121 -1.0226  1.6571
  375MPD2    H1 5666   2.210   2.631  17.273  0.8601  0.0553  0.4791
  375MPD2    H2 5667   1.903   2.884  17.339 -1.9086 -0.5269 -1.9989
  375MPD2    H3 5668   2.077   2.772  17.407 -0.5088  2.4961 -0.7009
  375MPD2     N 5669   2.155   2.557  17.027 -0.5633  0.3818 -0.7736
  375MPD2    H5 5670   2.239   2.516  17.066 -1.1093  0.7014  0.7271
  375MPD2    N1 5671   1.757   2.837  17.108  0.0259 -0.8858  0.7598
  375MPD2    H7 5672   1.709   2.808  17.024  0.9429  1.0091 -0.4393
  376TMC3    C1 5673   2.267   2.492  16.826  0.0660  0.2803  1.2013
  376TMC3    C2 5674   2.394   2.513  16.878  0.5955 -0.1533  0.2614
  376TMC3    C3 5675   2.499   2.493  16.802  0.2465  0.1568  0.0021
  376TMC3    C4 5676   2.250   2.436  16.703 -0.6335 -0.6726  0.3179
  376TMC3    C5 5677   2.361   2.399  16.635 -0.4196 -0.1832 -0.5073
  376TMC3    C6 5678   2.489   2.436  16.682  0.5437  0.1545 -0.1840
  376TMC3     C 5679   2.150   2.544  16.889 -0.4779  0.2450  0.5877
  376TMC3     O 5680   2.054   2.570  16.818  0.1076 -0.1230  0.6670
  376TMC3     H 5681   2.415   2.560  16.974 -1.2790 -1.2571  1.2101
  376TMC3    H1 5682   2.150   2.410  16.671  0.3062 -1.5042 -1.9641
  376TMC3    H2 5683   2.581   2.402  16.636 -0.4890 -2.4260 -0.3571
  376TMC3    C7 5684   2.348   2.386  16.485 -0.0178 -0.4521 -0.0701
  376TMC3    C8 5685   2.623   2.539  16.857 -0.2979 -0.3946 -0.4913
  376TMC3    O1 5686   2.434   2.434  16.414 -0.3386 -0.0391 -0.2885
  376TMC3    O2 5687   2.640   2.527  16.978 -0.0284 -0.0073 -0.2119
  377MPD2     C 5688   0.096   2.273  12.850  0.2089 -0.4218 -0.1691
  377MPD2    C1 5689   0.023   2.311  12.741  0.3913  0.2052 -0.6554
  377MPD2    C2 5690   4.639   2.260  12.721  0.3080 -0.5344  0.1764
  377MPD2    C3 5691   4.583   2.173  12.805  0.0835  0.2192  0.6534
  377MPD2    C4 5692   4.650   2.137  12.919 -0.2873  0.3003 -0.8456
  377MPD2    C5 5693   0.035   2.188  12.943  0.8747 -0.7156  0.2098
  377MPD2     H 5694   4.575   2.302  12.645 -0.9146 -1.5452  0.6411
  377MPD2    H1 5695   4.593   2.088  12.997 -0.7617  2.3003  0.0776
  377MPD2    H2 5696   0.195   2.310  12.875  0.3379 -0.3859 -0.7505
  377MPD2    H3 5697   0.079   2.162  13.039 -2.9540  3.6399  3.1334
  377MPD2     N 5698   4.455   2.121  12.785  0.0264 -0.0411  0.0714
  377MPD2    H5 5699   4.417   2.067  12.862 -1.6354  0.6713 -0.2439
  377MPD2    N1 5700   0.081   2.402  12.651  0.0053  0.4749 -1.0344
  377MPD2    H7 5701   0.175   2.430  12.676 -0.4239  0.6941  0.3280
  378TMC3    C1 5702   0.238   2.583  12.265  0.3041  0.1201 -0.2200
  378TMC3    C2 5703   0.136   2.521  12.327 -0.6902  0.3817 -0.5749
  378TMC3    C3 5704   0.141   2.520  12.464  0.0814 -0.3193  0.1905
  378TMC3    C4 5705   0.352   2.633  12.328  0.5386 -0.8677 -0.0668
  378TMC3    C5 5706   0.350   2.633  12.466 -0.3166 -0.0094 -0.2112
  378TMC3    C6 5707   0.247   2.573  12.535  0.7248 -0.0777 -0.3374
  378TMC3     C 5708   0.207   2.614  12.126 -0.4302  0.5033  0.3473
  378TMC3     O 5709   0.129   2.541  12.066 -0.0158 -0.0104  0.0130
  378TMC3     H 5710   0.049   2.489  12.271 -0.4499 -1.5726  0.1789
  378TMC3    H1 5711   0.439   2.664  12.270  0.2387  1.1917  0.5715
  378TMC3    H2 5712   0.255   2.580  12.643  1.6410  1.3005 -0.5018
  378TMC3    C7 5713   0.481   2.577  12.522 -0.4464  0.5547 -0.0694
  378TMC3    C8 5714   0.046   2.432  12.521  0.2509 -0.7255  1.0658
  378TMC3    O1 5715   0.491   2.558  12.643  0.2516 -0.4937 -0.0827
  378TMC3    O2 5716   4.696   2.373  12.459 -0.1105  0.6223 -0.4105
  379MPD2     C 5717   1.141   0.535  16.042  0.3527  1.2695 -0.2755
  379MPD2    C1 5718   1.076   0.458  16.128  0.2996 -0.2267 -0.2855
  379MPD2    C2 5719   1.140   0.421  16.244 -0.2140 -0.3694  0.5089
  379MPD2    C3 5720   1.259   0.483  16.281 -0.4255  0.1382 -0.4213
  379MPD2    C4 5721   1.330   0.557  16.189  0.4306 -0.6272  0.7781
  379MPD2    C5 5722   1.269   0.585  16.074 -0.0248 -0.3093  0.0766
  379MPD2     H 5723   1.092   0.359  16.319 -0.6345 -0.6564 -0.0021
  379MPD2    H1 5724   1.425   0.608  16.204 -0.9602  2.1198  0.1050
  379MPD2    H2 5725   1.100   0.556  15.944 -1.3392 -2.1019 -0.2717
  379MPD2    H3 5726   1.305   0.661  16.007 -1.9027  0.3283 -0.2141
  379MPD2     N 5727   1.324   0.445  16.400  0.3482 -0.1588 -0.5055
  379MPD2    H5 5728   1.421   0.466  16.424 -0.0139  0.0446  0.7573
  379MPD2    N1 5729   0.947   0.405  16.087  0.0754 -0.0261 -0.1959
  379MPD2    H7 5730   0.919   0.414  15.989 -1.5357 -0.8180  0.1851
  380TMC3    C1 5731   0.780   0.242  16.075  0.9845 -0.7434  0.1043
  380TMC3    C2 5732   0.797   0.108  16.057  0.3811  0.0629  0.1501
  380TMC3    C3 5733   0.744   0.060  15.943 -0.3381 -0.6503  0.2592
  380TMC3    C4 5734   0.723   0.323  15.980  0.5489 -0.5311 -0.7064
  380TMC3    C5 5735   0.671   0.268  15.866  0.0122  0.1126 -0.5770
  380TMC3    C6 5736   0.681   0.130  15.847 -0.3299  0.2553  0.1630
  380TMC3     C 5737   0.877   0.311  16.154  0.3201  0.1497  0.6367
  380TMC3     O 5738   0.895   0.263  16.266 -0.1711 -0.2628 -0.1787
  380TMC3     H 5739   0.861   0.046  16.118  0.5616 -0.9301 -1.0653
  380TMC3    H1 5740   0.706   0.429  15.996 -0.3474 -0.8187  0.2241
  380TMC3    H2 5741   0.648   0.089  15.752  0.3021  1.9096 -0.7718
  380TMC3    C7 5742   0.566   0.346  15.805 -0.2769  0.6599  0.1782
  380TMC3    C8 5743   0.826   4.690  15.884  0.3835  0.7642 -0.1905
  380TMC3    O1 5744   0.578   0.470  15.806 -0.2389  0.4392  0.2008
  380TMC3    O2 5745   0.778   4.576  15.880 -0.7439  0.1100 -0.6854
  381TMC3    C1 5746   0.230   1.577  16.274 -0.4960 -0.1839  0.2758
  381TMC3    C2 5747   0.309   1.676  16.239 -0.1338 -0.0083 -0.3248
  381TMC3    C3 5748   0.295   1.791  16.308  0.3299  0.5405 -0.3019
  381TMC3    C4 5749   0.130   1.597  16.363  0.2792  0.7277  0.1759
  381TMC3    C5 5750   0.117   1.717  16.434  0.0694  0.0233 -0.1541
  381TMC3    C6 5751   0.209   1.813  16.411  0.4904 -0.4213  1.0108
  381TMC3     C 5752   0.253   1.445  16.239  0.2686 -0.1785 -0.4463
  381TMC3     O 5753   0.222   1.357  16.319 -0.6593  0.3616 -0.2447
  381TMC3     H 5754   0.383   1.660  16.161  0.0616  1.8269 -0.5213
  381TMC3    H1 5755   0.057   1.518  16.380  0.8395  0.2426  0.3112
  381TMC3    H2 5756   0.217   1.906  16.466 -3.2373  0.5290 -0.0851
  381TMC3    C7 5757   0.066   1.702  16.566 -0.1260  0.1245  0.7329
  381TMC3    C8 5758   0.403   1.883  16.280  0.8105 -0.2767  0.2432
  381TMC3    O1 5759   0.080   1.593  16.615 -0.2961 -0.0027  0.1133
  381TMC3    O2 5760   0.476   1.863  16.183  0.3911  0.1155  0.0802
  382MPD2     C 5761   0.187   4.410  16.708  0.3291  0.1719 -0.0777
  382MPD2    C1 5762   0.225   4.407  16.842  0.6835  0.1744  0.7075
  382MPD2    C2 5763   0.219   4.284  16.904  0.1336  0.1061 -0.0484
  382MPD2    C3 5764   0.164   4.166  16.843  0.1845  0.0766 -0.9536
  382MPD2    C4 5765   0.126   4.181  16.708 -0.3113 -0.0342 -0.1646
  382MPD2    C5 5766   0.131   4.302  16.646 -0.0067 -0.3766  0.4089
  382MPD2     H 5767   0.257   4.290  17.005  0.1496  1.1550 -0.1163
  382MPD2    H1 5768   0.067   4.109  16.652  0.5102 -0.2038 -0.8068
  382MPD2    H2 5769   0.191   4.501  16.649  0.4808  0.7885  0.8843
  382MPD2    H3 5770   0.104   4.313  16.541  1.1759  1.3012  0.2641
  382MPD2     N 5771   0.141   4.046  16.919 -0.6670 -0.1291  0.6553
  382MPD2    H5 5772   0.098   3.971  16.866  0.1141  0.0195 -0.2034
  382MPD2    N1 5773   0.279   4.515  16.914  0.2754  0.4406  0.1365
  382MPD2    H7 5774   0.298   4.498  17.012  1.2985  0.9099  0.0231
  383TMC3    C1 5775   0.106   3.937  17.129 -0.5099 -0.3371  0.2053
  383TMC3    C2 5776   4.736   3.871  17.076 -0.9548  0.2168 -0.1096
  383TMC3    C3 5777   4.652   3.793  17.162 -0.1711  0.7869 -0.0042
  383TMC3    C4 5778   0.124   3.940  17.269  0.3017 -0.1603  0.2856
  383TMC3    C5 5779   0.042   3.861  17.351  0.7220 -1.1371  0.1882
  383TMC3    C6 5780   4.669   3.787  17.302  0.5583  0.2170  0.1659
  383TMC3     C 5781   0.174   4.041  17.057 -0.0559  0.2705  0.2783
  383TMC3     O 5782   0.263   4.100  17.119 -0.1847  0.0291 -0.2328
  383TMC3     H 5783   4.727   3.865  16.968  0.2025  1.6478 -0.2858
  383TMC3    H1 5784   0.214   3.982  17.311  1.5156 -2.1015 -0.3760
  383TMC3    H2 5785   4.604   3.735  17.370 -0.3335  0.3036 -0.6243
  383TMC3    C7 5786   0.044   3.889  17.495 -0.2573  0.6272  0.1173
  383TMC3    C8 5787   4.547   3.714  17.100 -0.4761 -0.3949 -0.3775
  383TMC3    O1 5788   4.719   3.803  17.561  0.3864  0.4523 -0.0129
  383TMC3    O2 5789   4.513   3.741  16.985 -0.6016  0.3846  0.0967
  384MPD2     C 5790   1.256   0.271  12.516  0.2968  0.1399  0.5112
  384MPD2    C1 5791   1.253   0.154  12.584  0.1922 -0.4160  0.4376
  384MPD2    C2 5792   1.322   0.048  12.525  0.0551 -0.1219 -0.1980
  384MPD2    C3 5793   1.375   0.058  12.398 -0.1212  1.1339  0.2110
  384MPD2    C4 5794   1.380   0.182  12.336  0.2773 -0.0925 -0.1565
  384MPD2    C5 5795   1.323   0.290  12.397 -0.2748  0.5618  0.0974
  384MPD2     H 5796   1.325   4.695  12.585  1.2519 -0.5905 -0.9827
  384MPD2    H1 5797   1.425   0.198  12.238 -0.5062 -0.5025 -0.5851
  384MPD2    H2 5798   1.211   0.359  12.560 -1.8154 -0.4806 -0.3793
  384MPD2    H3 5799   1.333   0.390  12.357 -1.9558  0.2005 -1.2254
  384MPD2     N 5800   1.441   4.697  12.324  0.4423 -0.5570  0.7198
  384MPD2    H5 5801   1.501   4.717  12.244  1.9145 -1.1162  1.6846
  384MPD2    N1 5802   1.200   0.125  12.714  0.1680  0.1361 -0.3568
  384MPD2    H7 5803   1.205   0.029  12.746  0.7725  0.4969  0.6026
  385TMC3    C1 5804   1.556   4.499  12.302  0.4721 -0.8396 -0.3067
  385TMC3    C2 5805   1.528   4.392  12.227  0.1372  0.4767  0.3086
  385TMC3    C3 5806   1.601   4.274  12.251  0.6575 -0.8509 -0.5384
  385TMC3    C4 5807   1.649   4.491  12.400  0.3034 -0.1129 -0.9060
  385TMC3    C5 5808   1.714   4.375  12.427  0.3613 -0.9589 -0.3558
  385TMC3    C6 5809   1.687   4.263  12.355  0.5431 -0.0300  0.9994
  385TMC3     C 5810   1.445   4.566  12.359 -0.1930 -0.3515 -0.5651
  385TMC3     O 5811   1.404   4.510  12.460 -0.1213 -0.1426 -0.1102
  385TMC3     H 5812   1.447   4.400  12.156 -1.0395 -1.2984  1.4581
  385TMC3    H1 5813   1.665   4.585  12.452 -2.0506 -2.0562  3.3741
  385TMC3    H2 5814   1.739   4.171  12.378 -0.4974 -1.2731 -1.6861
  385TMC3    C7 5815   1.725   4.358  12.568  0.3306  0.6762  0.1666
  385TMC3    C8 5816   1.583   4.152  12.177 -0.0529  0.1324 -0.9400
  385TMC3    O1 5817   1.818   4.295  12.620 -0.4515 -0.4715 -0.9923
  385TMC3    O2 5818   1.637   4.048  12.211 -0.0401  0.1860 -0.7500
  386TMC3    C1 5819   1.709   2.564  11.891 -0.3718  0.2722 -0.1430
  386TMC3    C2 5820   1.720   2.650  11.784 -0.2312 -0.0534  0.7785
  386TMC3    C3 5821   1.649   2.769  11.797  0.4428  0.0121 -0.1746
  386TMC3    C4 5822   1.624   2.588  11.995  0.1472 -0.3194 -0.0999
  386TMC3    C5 5823   1.558   2.708  12.004  0.5611 -0.0876  0.1351
  386TMC3    C6 5824   1.566   2.798  11.903 -0.1403  0.0612  0.3719
  386TMC3     C 5825   1.743   2.430  11.879 -0.5284  0.1385 -0.0955
  386TMC3     O 5826   1.670   2.374  11.799 -0.5205  0.3022  0.0115
  386TMC3     H 5827   1.785   2.613  11.705 -0.1717 -2.1571  1.8077
  386TMC3    H1 5828   1.600   2.516  12.073 -0.3678 -0.7387 -0.6506
  386TMC3    H2 5829   1.520   2.895  11.914 -1.6587 -0.9440  2.8972
  386TMC3    C7 5830   1.425   2.701  12.061 -0.1684 -0.2094 -0.4530
  386TMC3    C8 5831   1.603   2.838  11.677 -0.0453  0.0183 -0.0091
  386TMC3    O1 5832   1.326   2.733  11.995  0.0247 -0.3489  0.3850
  386TMC3    O2 5833   1.511   2.919  11.688  0.5989 -0.5171  0.1311
  387MPD2     C 5834   3.802   2.908  10.203  0.2443  0.3319 -0.2901
  387MPD2    C1 5835   3.912   2.854  10.267 -0.3770 -0.2384 -0.2673
  387MPD2    C2 5836   3.924   2.719  10.271 -0.3488  0.4454 -0.4378
  387MPD2    C3 5837   3.838   2.629  10.223  0.4439  0.2131 -0.2184
  387MPD2    C4 5838   3.733   2.682  10.153  0.1780  0.4302 -0.6028
  387MPD2    C5 5839   3.712   2.819  10.147  0.2138 -0.0988 -0.4494
  387MPD2     H 5840   4.018   2.686  10.313 -0.2197 -1.1955 -2.0582
  387MPD2    H1 5841   3.660   2.622  10.100  0.9621 -1.1128  0.0557
  387MPD2    H2 5842   3.785   3.015  10.193 -0.8048  0.1295 -0.6600
  387MPD2    H3 5843   3.635   2.859  10.082  0.3378 -1.6620 -1.5611
  387MPD2     N 5844   3.886   2.496  10.228 -0.7069  0.2810  0.4001
  387MPD2    H5 5845   3.974   2.480  10.277 -0.7708 -0.6528  0.2227
  387MPD2    N1 5846   4.032   2.928  10.305 -0.5588 -0.3343 -0.1426
  387MPD2    H7 5847   4.106   2.871  10.344 -2.0922 -2.7887 -0.8522
  388TMC3    C1 5848   4.205   3.071  10.270  0.0273  0.7353 -0.8645
  388TMC3    C2 5849   4.254   3.190  10.292  0.5517  0.0217  0.6007
  388TMC3    C3 5850   4.388   3.210  10.284 -0.3857  0.1129 -0.3712
  388TMC3    C4 5851   4.277   2.965  10.219  0.4678 -0.2390 -0.0520
  388TMC3    C5 5852   4.412   2.991  10.202 -0.7716  0.3652  0.8435
  388TMC3    C6 5853   4.471   3.110  10.242 -0.0424  0.5303  0.1822
  388TMC3     C 5854   4.062   3.051  10.272 -0.3574  0.4601 -0.8617
  388TMC3     O 5855   3.986   3.140  10.241 -0.0710  0.0535  0.8307
  388TMC3     H 5856   4.194   3.276  10.323 -0.2381 -0.6041  0.7972
  388TMC3    H1 5857   4.225   2.882  10.175  1.9501 -1.8590  1.2448
  388TMC3    H2 5858   4.575   3.131  10.218 -0.3388 -0.3970 -1.9238
  388TMC3    C7 5859   4.500   2.883  10.185  0.4272  0.3788  0.7148
  388TMC3    C8 5860   4.437   3.350  10.301  0.4318  0.8104  0.7177
  388TMC3    O1 5861   4.619   2.890  10.203  0.1337  0.1473 -0.1311
  388TMC3    O2 5862   4.506   3.392  10.211 -0.2603  0.0344  0.1027
  389MPD2     C 5863   3.031   0.933  11.411 -0.8471  0.4133 -1.1004
  389MPD2    C1 5864   2.991   0.839  11.322 -0.7859 -0.0288  0.0310
  389MPD2    C2 5865   2.896   0.747  11.364 -0.5408  0.1750  0.6694
  389MPD2    C3 5866   2.849   0.759  11.497  0.2147 -0.5517  0.1896
  389MPD2    C4 5867   2.894   0.852  11.579  0.3798 -0.2470  0.2090
  389MPD2    C5 5868   2.985   0.939  11.540 -0.0637  0.0681 -0.3258
  389MPD2     H 5869   2.848   0.675  11.298 -3.0511  2.3714  0.1120
  389MPD2    H1 5870   2.859   0.850  11.682  2.5735  1.3212  0.9920
  389MPD2    H2 5871   3.108   1.007  11.393 -0.5122  0.6187  1.1462
  389MPD2    H3 5872   3.024   1.003  11.618 -0.0825 -2.2547  1.5777
  389MPD2     N 5873   2.748   0.673  11.546  0.2449 -0.6434 -0.2523
  389MPD2    H5 5874   2.717   0.696  11.640  1.4443 -1.8993  0.4429
  389MPD2    N1 5875   3.045   0.846  11.195 -0.5155 -0.0443  0.2402
  389MPD2    H7 5876   3.128   0.901  11.177 -0.5340 -0.3688 -0.8469
  390TMC3    C1 5877   2.616   0.495  11.594  0.0209 -0.0029 -0.0555
  390TMC3    C2 5878   2.630   0.364  11.628  0.0728 -0.0088 -0.6148
  390TMC3    C3 5879   2.529   0.311  11.699 -0.1772 -0.0450 -0.5192
  390TMC3    C4 5880   2.520   0.575  11.632 -0.2043  0.6484  0.4128
  390TMC3    C5 5881   2.429   0.527  11.714  0.0717 -0.0890 -0.0922
  390TMC3    C6 5882   2.428   0.398  11.742 -0.3115  0.3952  0.8456
  390TMC3     C 5883   2.706   0.553  11.489  0.1006 -0.2768  0.3188
  390TMC3     O 5884   2.734   0.484  11.392  0.4487  0.0697  0.0395
  390TMC3     H 5885   2.713   0.315  11.578 -0.7179 -0.5839 -1.3596
  390TMC3    H1 5886   2.516   0.679  11.600  2.8207  1.0179  1.1920
  390TMC3    H2 5887   2.371   0.375  11.831 -0.1096 -1.2943  0.5336
  390TMC3    C7 5888   2.298   0.594  11.699 -0.0539 -0.1477 -0.0282
  390TMC3    C8 5889   2.480   0.180  11.657 -0.2353  0.3158 -0.1309
  390TMC3    O1 5890   2.287   0.688  11.620  0.0610  0.1661 -0.0416
  390TMC3    O2 5891   2.509   0.147  11.543  0.4030  0.1154 -0.8183
  391MPD2     C 5892   2.957   2.359  10.682  0.4376 -0.0602 -0.4280
  391MPD2    C1 5893   2.999   2.486  10.697 -0.1671  0.3724  0.0684
  391MPD2    C2 5894   2.952   2.578  10.603 -0.0619 -0.5415 -0.3302
  391MPD2    C3 5895   2.859   2.547  10.503 -0.5004 -0.6108  0.2232
  391MPD2    C4 5896   2.831   2.417  10.486 -0.7054 -0.7933  0.1080
  391MPD2    C5 5897   2.876   2.319  10.576  0.6327 -0.0562  0.4447
  391MPD2     H 5898   2.982   2.681  10.612 -0.1897 -0.6708  1.4397
  391MPD2    H1 5899   2.765   2.385  10.407  0.5076  0.6924 -1.4957
  391MPD2    H2 5900   2.995   2.285  10.751  1.1968  1.5637  0.9088
  391MPD2    H3 5901   2.855   2.214  10.567  0.6217  0.0725 -1.0205
  391MPD2     N 5902   2.809   2.659  10.434  0.3427  0.1437 -0.1843
  391MPD2    H5 5903   2.854   2.749  10.447 -0.1132  0.2623  0.6316
  391MPD2    N1 5904   3.066   2.539  10.806  0.2438  0.3293  0.4333
  391MPD2    H7 5905   3.078   2.640  10.805 -2.4449  0.6431  0.5666
  392TMC3    C1 5906   2.711   2.768  10.254 -0.0188  0.0056  0.4877
  392TMC3    C2 5907   2.590   2.791  10.192 -0.1789  0.1329 -0.1305
  392TMC3    C3 5908   2.574   2.906  10.114  0.5989  0.6672  0.4646
  392TMC3    C4 5909   2.819   2.850  10.229  0.1029 -0.2826 -0.0006
  392TMC3    C5 5910   2.794   2.958  10.145 -1.0740  0.9535 -0.8978
  392TMC3    C6 5911   2.674   2.997  10.099 -0.2508 -0.0970 -0.3261
  392TMC3     C 5912   2.705   2.653  10.347  0.3410 -0.1319 -0.0653
  392TMC3     O 5913   2.624   2.561  10.329 -0.1638 -0.3279  0.3371
  392TMC3     H 5914   2.510   2.719  10.207  0.6502 -1.0036 -1.0731
  392TMC3    H1 5915   2.913   2.832  10.280 -0.0499 -2.0018 -0.3148
  392TMC3    H2 5916   2.655   3.101  10.071  2.4698  0.4241 -0.1562
  392TMC3    C7 5917   2.911   3.036  10.121  0.0024  1.1542 -0.4741
  392TMC3    C8 5918   2.437   2.925  10.067 -0.3821  0.7965  0.8364
  392TMC3    O1 5919   3.014   3.003  10.185 -0.2811 -0.0039  0.5771
  392TMC3    O2 5920   2.347   2.857  10.110 -0.5074 -0.1622 -0.0692
  393TMC3    C1 5921   1.403   0.701  10.536 -0.1553  0.1739  0.5873
  393TMC3    C2 5922   1.290   0.625  10.533  0.0733 -0.4665  0.8556
  393TMC3    C3 5923   1.287   0.508  10.468 -0.3179 -0.2992  0.1059
  393TMC3    C4 5924   1.518   0.652  10.486 -0.6204 -0.7006  0.4502
  393TMC3    C5 5925   1.517   0.538  10.411  0.1888 -0.2374 -0.5221
  393TMC3    C6 5926   1.398   0.459  10.410 -0.5193 -0.9981  0.6054
  393TMC3     C 5927   1.377   0.846  10.522 -0.0837  0.2655  0.1410
  393TMC3     O 5928   1.262   0.868  10.498  0.0684  0.4581 -0.5811
  393TMC3     H 5929   1.203   0.666  10.583 -0.1010 -1.4054  1.3272
  393TMC3    H1 5930   1.608   0.712  10.500 -2.3467  1.7127  1.1376
  393TMC3    H2 5931   1.404   0.354  10.384 -0.3727 -0.7527 -0.3490
  393TMC3    C7 5932   1.642   0.485  10.349  0.9934  0.6545  0.4196
  393TMC3    C8 5933   1.190   0.412  10.508 -0.0799  0.2168 -0.0679
  393TMC3    O1 5934   1.622   0.389  10.273 -0.5334 -0.5452  0.0115
  393TMC3    O2 5935   1.133   0.417  10.614  0.0311 -0.0814 -0.3796
  394TMC3    C1 5936   3.044   0.819  10.961 -0.0245  0.8644  0.5130
  394TMC3    C2 5937   2.975   0.828  10.846  0.6449 -0.4940 -0.7705
  394TMC3    C3 5938   3.034   0.833  10.728 -0.1499  0.4685  0.7925
  394TMC3    C4 5939   3.179   0.834  10.962 -0.0623 -0.1563  0.4379
  394TMC3    C5 5940   3.246   0.842  10.839 -0.5387  0.2662 -0.6516
  394TMC3    C6 5941   3.173   0.841  10.720  0.4025  0.2001  0.5571
  394TMC3     C 5942   2.976   0.793  11.081 -0.5641 -0.1058  0.1164
  394TMC3     O 5943   2.861   0.747  11.071  0.4083  0.2738  0.3669
  394TMC3     H 5944   2.867   0.833  10.838  0.5244  2.4840  2.6784
  394TMC3    H1 5945   3.242   0.808  11.046  0.3047  0.3309  0.3121
  394TMC3    H2 5946   3.231   0.872  10.634  0.7170 -0.8028  0.3964
  394TMC3    C7 5947   3.373   0.908  10.840  0.2837 -0.4256  0.5276
  394TMC3    C8 5948   2.952   0.863  10.611 -0.3596  0.7323 -0.1994
  394TMC3    O1 5949   3.384   0.994  10.927 -0.3176  0.0888  0.1223
  394TMC3    O2 5950   2.848   0.921  10.634  0.3311 -0.3281  0.2091
  395TMC3    C1 5951   3.051   2.694  14.907  0.0321  0.0834 -0.3468
  395TMC3    C2 5952   2.929   2.756  14.905  0.1816 -0.7546 -0.1146
  395TMC3    C3 5953   2.923   2.888  14.875 -0.1098  0.8179 -0.1974
  395TMC3    C4 5954   3.162   2.766  14.895  0.3837 -0.5713  0.0992
  395TMC3    C5 5955   3.160   2.899  14.886 -0.2190 -0.1929 -0.5432
  395TMC3    C6 5956   3.037   2.963  14.866 -0.3751  0.4799  0.2091
  395TMC3     C 5957   3.066   2.572  14.984 -0.8468  0.1180 -0.0627
  395TMC3     O 5958   3.165   2.505  14.955  0.3446  0.0726 -0.0060
  395TMC3     H 5959   2.845   2.691  14.888 -0.6335 -0.2119  1.8160
  395TMC3    H1 5960   3.261   2.722  14.896  0.8661  0.5616  1.6079
  395TMC3    H2 5961   3.030   3.071  14.853 -0.4266  0.3661 -0.7124
  395TMC3    C7 5962   3.279   2.980  14.904 -0.0058 -0.5134  0.3119
  395TMC3    C8 5963   2.799   2.961  14.854 -0.4280 -0.0818  0.1304
  395TMC3    O1 5964   3.266   3.098  14.887 -0.4922  0.3541  0.5724
  395TMC3    O2 5965   2.803   3.070  14.804  0.1613 -0.2209  0.0284
  396MPD2     C 5966   2.962   3.788  16.874 -0.2243  0.3485  0.9059
  396MPD2    C1 5967   3.077   3.857  16.913 -0.1984  0.1351  0.6841
  396MPD2    C2 5968   3.101   3.981  16.859  0.7689  0.3745  0.8743
  396MPD2    C3 5969   3.018   4.048  16.775  0.5831 -0.7171  1.2260
  396MPD2    C4 5970   2.908   3.973  16.729 -0.6096 -0.1278 -0.0559
  396MPD2    C5 5971   2.887   3.847  16.774  0.6637  0.2443 -0.2672
  396MPD2     H 5972   3.187   4.033  16.900  1.2256  0.7298 -0.5614
  396MPD2    H1 5973   2.827   4.011  16.667  0.9004 -0.4242 -2.1923
  396MPD2    H2 5974   2.941   3.689  16.913 -2.2141  0.3370 -0.2088
  396MPD2    H3 5975   2.791   3.806  16.744  1.5109  0.3899 -3.2424
  396MPD2     N 5976   3.057   4.178  16.737  0.2145  0.0872  0.2416
  396MPD2    H5 5977   3.134   4.221  16.788  0.3732  0.7025 -0.5236
  396MPD2    N1 5978   3.157   3.787  17.004  0.1296 -0.0369  0.1914
  396MPD2    H7 5979   3.128   3.696  17.039 -1.9370  2.1561  4.1547
  397TMC3    C1 5980   3.356   3.704  17.091 -0.0903  0.0955  0.5979
  397TMC3    C2 5981   3.387   3.628  16.979 -0.2443 -0.0539  0.0030
  397TMC3    C3 5982   3.348   3.495  16.966  0.3895 -0.9174 -0.2201
  397TMC3    C4 5983   3.280   3.643  17.187 -0.7004  0.1177  0.0690
  397TMC3    C5 5984   3.265   3.506  17.185  0.5227 -0.3169  0.2689
  397TMC3    C6 5985   3.287   3.432  17.070 -0.1918  0.2876  0.4118
  397TMC3     C 5986   3.285   3.819  17.041  0.4030 -0.5113  0.7678
  397TMC3     O 5987   3.354   3.918  17.013  0.2525 -0.2066  0.0912
  397TMC3     H 5988   3.407   3.682  16.887  1.2183 -0.1879  0.2458
  397TMC3    H1 5989   3.246   3.697  17.274 -0.9063 -0.1706  0.1671
  397TMC3    H2 5990   3.270   3.326  17.072 -0.5355  0.3428  0.2597
  397TMC3    C7 5991   3.147   3.453  17.254 -0.1098  0.1689 -0.5907
  397TMC3    C8 5992   3.256   3.498  16.851  0.1418  0.1494 -0.1822
  397TMC3    O1 5993   3.077   3.377  17.187 -0.0301 -0.4509 -0.1444
  397TMC3    O2 5994   3.291   3.560  16.751  0.4047 -0.2497  0.1095
  398MPD2     C 5995   1.051   0.616   0.140 -0.0049 -0.3507  0.0717
  398MPD2    C1 5996   1.150   0.526   0.174  0.2522  0.8140  0.0325
  398MPD2    C2 5997   1.286   0.571   0.182 -0.5434 -0.1723 -0.5517
  398MPD2    C3 5998   1.312   0.702   0.149 -0.2197 -0.5722  0.2758
  398MPD2    C4 5999   1.208   0.792   0.122  0.0248 -0.1271  0.4930
  398MPD2    C5 6000   1.081   0.750   0.122  0.2090  0.2072  0.2864
  398MPD2     H 6001   1.369   0.504   0.202  0.4943  1.1427 -0.4246
  398MPD2    H1 6002   1.221   0.899   0.110 -2.3899  0.0304 -0.7199
  398MPD2    H2 6003   0.946   0.588   0.134 -0.6370  2.1374 -0.4969
  398MPD2    H3 6004   1.004   0.821   0.094 -1.3485 -1.7594 -0.5068
  398MPD2     N 6005   1.448   0.738   0.151  0.3349  0.0008 -0.0413
  398MPD2    H5 6006   1.522   0.673   0.173  0.5889 -0.0102 -0.9197
  398MPD2    N1 6007   1.141   0.388   0.187 -0.5902 -0.2446  0.2002
  398MPD2    H7 6008   1.229   0.337   0.189 -1.8522 -2.4623 -0.6574
  399TMC3    C1 6009   1.041   0.169   0.211 -0.0401  1.0144  0.4653
  399TMC3    C2 6010   1.153   0.115   0.252  0.3826  0.0383 -0.5603
  399TMC3    C3 6011   1.147   4.720   0.287  0.0412  0.2346  0.5455
  399TMC3    C4 6012   0.930   0.094   0.190  0.1980 -0.3723 -0.4702
  399TMC3    C5 6013   0.929   4.701   0.225 -0.4530  0.0677 -0.1836
  399TMC3    C6 6014   1.036   4.643   0.282  0.5720 -0.5700 -0.0772
  399TMC3     C 6015   1.024   0.311   0.177 -0.3751 -0.6717 -0.2776
  399TMC3     O 6016   0.912   0.351   0.155 -0.3760  0.7845  0.7815
  399TMC3     H 6017   1.248   0.168   0.248  0.4551  0.0232  1.1986
  399TMC3    H1 6018   0.837   0.134   0.153  0.3065 -1.9387 -2.4581
  399TMC3    H2 6019   1.034   4.541   0.318  1.7805 -0.8461 -0.8129
  399TMC3    C7 6020   0.828   4.613   0.175 -0.4372  0.3033 -0.8922
  399TMC3    C8 6021   1.280   4.657   0.304 -0.7515  0.7245  0.0481
  399TMC3    O1 6022   0.807   4.507   0.235 -0.8909  0.4496  0.2423
  399TMC3    O2 6023   1.376   4.733   0.286 -0.0999 -0.0350 -0.5184
  400TMC3    C1 6024   4.615   3.416  16.795  0.3903 -0.3530  0.2518
  400TMC3    C2 6025   4.544   3.305  16.754 -0.0038  1.0414 -0.1092
  400TMC3    C3 6026   4.429   3.336  16.688 -0.4320 -0.2062 -0.1891
  400TMC3    C4 6027   4.581   3.547  16.764  0.0167 -0.2601 -0.1843
  400TMC3    C5 6028   4.472   3.571  16.693 -0.2763  0.4905  0.5739
  400TMC3    C6 6029   4.404   3.464  16.635 -0.2408 -0.7160 -0.3278
  400TMC3     C 6030   4.710   3.395  16.896 -0.9742  0.4661 -0.4113
  400TMC3     O 6031   4.695   3.296  16.966  0.2346  0.4803  0.1722
  400TMC3     H 6032   4.551   3.206  16.799 -1.0844  0.7166 -0.6529
  400TMC3    H1 6033   4.639   3.637  16.786 -1.0040  0.1169  0.9899
  400TMC3    H2 6034   4.312   3.492  16.585  0.6688 -1.1722 -2.2564
  400TMC3    C7 6035   4.465   3.701  16.630  0.9939 -0.3362 -0.4935
  400TMC3    C8 6036   4.323   3.240  16.702  0.1852  0.1123 -0.5406
  400TMC3    O1 6037   4.449   3.716  16.505 -0.5490 -0.2119  0.4516
  400TMC3    O2 6038   4.345   3.135  16.757  0.1723  0.1521  0.5455
  401MPD2     C 6039   3.204   2.372   1.357  0.1796 -0.8297 -0.0506
  401MPD2    C1 6040   3.283   2.335   1.251  0.0157  0.4417 -0.4725
  401MPD2    C2 6041   3.219   2.276   1.139 -0.0789 -0.3725  0.3179
  401MPD2    C3 6042   3.084   2.262   1.140  0.9045 -0.8211  0.7581
  401MPD2    C4 6043   3.005   2.310   1.245 -0.7330  0.2210 -0.4523
  401MPD2    C5 6044   3.069   2.361   1.355 -0.1733  0.2987  1.1177
  401MPD2     H 6045   3.278   2.246   1.053 -0.6258 -2.2104  0.5910
  401MPD2    H1 6046   2.898   2.305   1.232 -0.7698  1.3913 -0.6003
  401MPD2    H2 6047   3.255   2.414   1.444  0.2094  1.1648 -1.0443
  401MPD2    H3 6048   3.010   2.390   1.442 -1.8437 -0.3795  0.2210
  401MPD2     N 6049   3.018   2.189   1.044 -0.3625 -0.0250  0.1337
  401MPD2    H5 6050   2.918   2.179   1.054 -0.5134  1.7667  0.3925
  401MPD2    N1 6051   3.422   2.355   1.241 -0.0818  0.3854 -0.1386
  401MPD2    H7 6052   3.462   2.329   1.151 -1.1440  1.0295 -0.7995
  402TMC3    C1 6053   2.984   2.081   0.833 -0.3805  1.6995 -0.1963
  402TMC3    C2 6054   2.885   2.001   0.881  0.2307 -0.6291 -0.1847
  402TMC3    C3 6055   2.815   1.913   0.802  0.2059 -0.4111  0.1103
  402TMC3    C4 6056   3.014   2.075   0.699  0.2190 -0.3090 -0.0131
  402TMC3    C5 6057   2.956   1.979   0.625  0.0634 -0.1453 -0.1372
  402TMC3    C6 6058   2.847   1.898   0.667 -0.6954 -1.0677  0.2986
  402TMC3     C 6059   3.070   2.157   0.920 -0.3515  0.0641 -0.0262
  402TMC3     O 6060   3.181   2.181   0.871 -0.2092  0.3177  0.6934
  402TMC3     H 6061   2.863   2.001   0.987  1.7899  3.9975  0.1534
  402TMC3    H1 6062   3.104   2.122   0.660  0.7059 -1.6890 -0.5248
  402TMC3    H2 6063   2.800   1.822   0.605  0.7388 -0.5310 -1.4215
  402TMC3    C7 6064   3.015   1.959   0.492  0.2072 -0.6264  0.5483
  402TMC3    C8 6065   2.721   1.826   0.853  0.8732  0.4056  0.0209
  402TMC3    O1 6066   3.072   2.056   0.437  0.0943  0.5210 -0.4038
  402TMC3    O2 6067   2.749   1.779   0.959  0.4570  0.3301 -0.3441
  403MPD2     C 6068   1.124   3.898  13.422 -0.3434  0.5459  0.5524
  403MPD2    C1 6069   1.072   4.017  13.464  0.4960 -0.7090  0.1175
  403MPD2    C2 6070   1.119   4.070  13.580  0.5032 -0.0688  0.2795
  403MPD2    C3 6071   1.219   4.010  13.659 -0.4653 -0.1160  0.6038
  403MPD2    C4 6072   1.275   3.892  13.613  0.1587 -0.3298  0.4941
  403MPD2    C5 6073   1.221   3.838  13.500  0.1666  0.1593 -0.2740
  403MPD2     H 6074   1.080   4.165  13.615 -0.5385 -0.6739  0.7702
  403MPD2    H1 6075   1.353   3.841  13.668  0.3873  1.0336  1.4324
  403MPD2    H2 6076   1.086   3.842  13.337  0.7575 -0.7109  0.8856
  403MPD2    H3 6077   1.258   3.744  13.463 -1.6945  0.1616 -2.1672
  403MPD2     N 6078   1.249   4.075  13.779  0.6453 -0.5775  0.2164
  403MPD2    H5 6079   1.211   4.167  13.801 -1.3333 -1.2677 -0.4132
  403MPD2    N1 6080   0.963   4.074  13.392  0.3270  0.1121 -0.5823
  403MPD2    H7 6081   0.926   4.015  13.319 -2.3371 -0.6814  1.4242
  404TMC3    C1 6082   0.745   4.179  13.408  0.4441 -0.2262 -0.0657
  404TMC3    C2 6083   0.660   4.250  13.485  0.1171 -0.2700 -1.1618
  404TMC3    C3 6084   0.529   4.234  13.470  0.0079  0.0453 -0.1495
  404TMC3    C4 6085   0.699   4.110  13.302  0.6430  0.7196 -0.0930
  404TMC3    C5 6086   0.564   4.112  13.269  0.7813 -0.1633  1.0308
  404TMC3    C6 6087   0.484   4.154  13.363  0.7791  0.1485  0.1808
  404TMC3     C 6088   0.883   4.180  13.446  0.4900  0.2819  0.1487
  404TMC3     O 6089   0.920   4.274  13.513  0.1573 -0.0675 -0.0203
  404TMC3     H 6090   0.707   4.318  13.555  1.0980  0.6105 -2.6755
  404TMC3    H1 6091   0.776   4.066  13.239 -1.0118 -1.9897 -0.2182
  404TMC3    H2 6092   0.377   4.138  13.355  0.8414 -0.6131  0.8048
  404TMC3    C7 6093   0.508   3.994  13.221 -0.1364  0.6518  1.2623
  404TMC3    C8 6094   0.443   4.275  13.579 -0.4114 -0.1936 -0.0413
  404TMC3    O1 6095   0.524   3.896  13.293 -0.4542  0.1407 -0.1141
  404TMC3    O2 6096   0.495   4.287  13.688  0.3615  0.5154 -0.0352
  405MPD2     C 6097   1.148   0.694  15.030  0.9880 -0.2109 -0.1546
  405MPD2    C1 6098   1.066   0.636  14.938 -0.0659 -0.1879 -0.2157
  405MPD2    C2 6099   0.942   0.690  14.919  0.2716  0.3816  0.3927
  405MPD2    C3 6100   0.891   0.797  14.988 -0.4699  0.2919  1.0129
  405MPD2    C4 6101   0.970   0.863  15.076  0.4708 -0.6184  0.1466
  405MPD2    C5 6102   1.101   0.815  15.097  0.0690  0.3162 -0.4349
  405MPD2     H 6103   0.879   0.650  14.841 -1.0418  2.6521  0.3040
  405MPD2    H1 6104   0.946   0.950  15.137  0.2438 -1.5842  1.4339
  405MPD2    H2 6105   1.248   0.657  15.048  1.9882  2.2600 -0.6037
  405MPD2    H3 6106   1.174   0.871  15.155 -1.9754  2.9696 -0.4261
  405MPD2     N 6107   0.754   0.825  14.975  0.1010  0.2635  0.6752
  405MPD2    H5 6108   0.709   0.772  14.900 -0.5690  0.4706  0.9323
  405MPD2    N1 6109   1.110   0.507  14.886 -0.8536 -0.3996  0.7614
  405MPD2    H7 6110   1.204   0.476  14.909 -0.3420 -0.3027 -1.1498
  406TMC3    C1 6111   0.318   0.946  15.070 -0.0298 -0.2386  0.0073
  406TMC3    C2 6112   0.276   0.825  15.022  0.0551  0.0966 -0.3975
  406TMC3    C3 6113   0.369   0.722  15.000  0.2120 -0.2385  0.3153
  406TMC3    C4 6114   0.455   0.977  15.077 -0.1957  0.3532 -0.1170
  406TMC3    C5 6115   0.539   0.885  15.035 -0.3029 -0.4873 -0.1009
  406TMC3    C6 6116   0.503   0.754  15.002 -0.0485 -0.4554  0.0579
  406TMC3     C 6117   0.242   1.063  15.029  0.0698 -0.2819  0.4177
  406TMC3     O 6118   0.246   1.157  15.102 -0.6280  0.2317  0.1379
  406TMC3     H 6119   0.169   0.806  15.016  0.5545 -2.3779 -1.5034
  406TMC3    H1 6120   0.477   1.083  15.075 -0.7172  0.4625 -0.1686
  406TMC3    H2 6121   0.580   0.679  14.987  0.2012 -0.4448  1.3178
  406TMC3    C7 6122   0.685   0.915  15.055 -0.2969 -0.0810 -0.4492
  406TMC3    C8 6123   0.324   0.604  14.939  0.6381 -0.6463 -0.0602
  406TMC3    O1 6124   0.722   0.999  15.140 -0.2627 -0.0760 -0.5954
  406TMC3    O2 6125   0.208   0.572  14.927  0.1372 -0.0447 -0.6052
  407MPD2     C 6126   3.182   2.528  10.255 -0.0238  0.0588  0.3294
  407MPD2    C1 6127   3.314   2.492  10.253 -0.5812 -0.0033  0.1253
  407MPD2    C2 6128   3.403   2.593  10.294 -0.1853  0.4469 -0.1052
  407MPD2    C3 6129   3.367   2.727  10.323  0.0083 -0.1738  0.8388
  407MPD2    C4 6130   3.230   2.752  10.330  1.1456 -0.0023 -0.4240
  407MPD2    C5 6131   3.140   2.650  10.294 -0.6617 -0.3970  0.3677
  407MPD2     H 6132   3.509   2.577  10.279 -0.0497  0.2221  1.0945
  407MPD2    H1 6133   3.189   2.843  10.373 -1.6311 -1.4613  0.0369
  407MPD2    H2 6134   3.103   2.458  10.230 -0.4281  1.5349 -2.5670
  407MPD2    H3 6135   3.032   2.663  10.296 -0.6431  0.1525 -2.2566
  407MPD2     N 6136   3.461   2.828  10.355 -0.1008  0.0100 -0.1131
  407MPD2    H5 6137   3.552   2.791  10.382 -1.1056 -0.7189  2.2844
  407MPD2    N1 6138   3.363   2.370  10.209  0.1760  0.0853  0.0957
  407MPD2    H7 6139   3.462   2.360  10.188  0.3506  0.1271  0.8716
  408TMC3    C1 6140   3.354   2.196  10.049 -0.2602  0.3544  0.0831
  408TMC3    C2 6141   3.468   2.246   9.994 -0.0759  0.0316  0.1789
  408TMC3    C3 6142   3.538   2.162   9.915  0.1608 -0.1030 -0.6057
  408TMC3    C4 6143   3.302   2.078  10.020  0.0588 -0.4866  0.3605
  408TMC3    C5 6144   3.378   1.996   9.935 -0.3098 -0.2192 -0.1013
  408TMC3    C6 6145   3.493   2.040   9.879 -0.6269  0.0981  0.4671
  408TMC3     C 6146   3.283   2.276  10.144 -0.6475  0.5557  0.3665
  408TMC3     O 6147   3.165   2.242  10.158 -0.0159  0.6452 -0.6511
  408TMC3     H 6148   3.499   2.347  10.018  1.4118 -0.5573  0.6987
  408TMC3    H1 6149   3.206   2.039  10.053  0.3030 -2.5190 -1.3072
  408TMC3    H2 6150   3.566   1.982   9.823  1.0681  1.6709  1.0582
  408TMC3    C7 6151   3.344   1.852   9.921  0.0719 -0.5425  0.2342
  408TMC3    C8 6152   3.672   2.195   9.897 -0.3477  1.1398  0.2441
  408TMC3    O1 6153   3.225   1.825   9.948 -0.3521  0.4893  0.0803
  408TMC3    O2 6154   3.742   2.096   9.915  0.1061 -0.4585 -0.4516
  409MPD2     C 6155   3.237   3.048  16.932 -0.1159 -0.2808 -0.3894
  409MPD2    C1 6156   3.356   3.058  17.005  0.7335  0.4329 -0.8936
  409MPD2    C2 6157   3.461   3.130  16.949 -0.0421 -0.1653  0.5679
  409MPD2    C3 6158   3.456   3.204  16.833 -0.3086  0.2949  0.2719
  409MPD2    C4 6159   3.333   3.196  16.764 -0.6043 -0.9859  0.6149
  409MPD2    C5 6160   3.231   3.117  16.813  0.6692  0.2375 -0.0841
  409MPD2     H 6161   3.553   3.127  17.007  0.2475  0.3175  0.1379
  409MPD2    H1 6162   3.308   3.263  16.683 -1.2832 -1.3689  0.4992
  409MPD2    H2 6163   3.149   2.994  16.964 -0.6434  0.7199 -0.1617
  409MPD2    H3 6164   3.137   3.100  16.762  1.3107  1.6300 -1.7233
  409MPD2     N 6165   3.566   3.286  16.774  0.2120 -0.1682 -0.2095
  409MPD2    H5 6166   3.564   3.337  16.686  0.4665  0.9228  0.4185
  409MPD2    N1 6167   3.384   2.985  17.125 -0.1725 -0.6986 -0.2424
  409MPD2    H7 6168   3.477   3.002  17.161  0.6187  1.5608 -3.3784
  410TMC3    C1 6169   3.786   3.371  16.757 -0.7151 -0.1960  0.1847
  410TMC3    C2 6170   3.896   3.416  16.824 -0.5458 -0.0736  0.3136
  410TMC3    C3 6171   3.983   3.490  16.758 -0.2128 -0.8372  0.1358
  410TMC3    C4 6172   3.761   3.408  16.631  0.2012  0.4937 -0.0456
  410TMC3    C5 6173   3.847   3.495  16.568 -0.8769 -0.1975 -0.0966
  410TMC3    C6 6174   3.962   3.541  16.634 -0.8714 -1.0134  0.1979
  410TMC3     C 6175   3.689   3.297  16.837 -0.1764  0.1550 -0.2246
  410TMC3     O 6176   3.731   3.242  16.936  0.6419 -0.2656  0.5105
  410TMC3     H 6177   3.903   3.386  16.928  0.2424 -0.4426  0.1495
  410TMC3    H1 6178   3.683   3.359  16.573 -1.8973  1.6216  1.8610
  410TMC3    H2 6179   4.030   3.606  16.580 -0.8441 -2.0477 -1.0071
  410TMC3    C7 6180   3.828   3.518  16.425 -0.6406  0.1334  0.2830
  410TMC3    C8 6181   4.116   3.516  16.818  0.1452  0.1122 -0.1172
  410TMC3    O1 6182   3.787   3.430  16.352  0.2929  0.6217  0.2872
  410TMC3    O2 6183   4.182   3.604  16.772  0.2027 -0.0389  0.6775
  411MPD2     C 6184   3.831   3.695  14.502  0.4573 -0.0460  0.2402
  411MPD2    C1 6185   3.722   3.658  14.572 -0.5524  0.1041 -0.3912
  411MPD2    C2 6186   3.699   3.521  14.587 -0.0441 -0.6822 -0.1706
  411MPD2    C3 6187   3.789   3.428  14.554 -0.9801  0.0435 -0.0621
  411MPD2    C4 6188   3.914   3.474  14.512  0.2853 -1.0552 -0.2576
  411MPD2    C5 6189   3.928   3.601  14.472  0.4819  0.2343 -0.0302
  411MPD2     H 6190   3.598   3.490  14.614 -0.7671  1.5884 -0.2968
  411MPD2    H1 6191   3.990   3.402  14.482 -0.0012 -1.1106 -0.8568
  411MPD2    H2 6192   3.871   3.795  14.488 -1.3819  0.4684 -1.3333
  411MPD2    H3 6193   4.023   3.621  14.422 -1.1943  1.8229 -2.5978
  411MPD2     N 6194   3.763   3.290  14.552 -0.2931  0.3599 -0.0331
  411MPD2    H5 6195   3.839   3.229  14.524 -0.8215 -1.0586  1.5845
  411MPD2    N1 6196   3.627   3.752  14.599 -0.7084 -0.2915  0.2947
  411MPD2    H7 6197   3.622   3.830  14.535  1.7979 -2.3270 -2.3796
  412TMC3    C1 6198   3.638   3.098  14.516 -0.1015  0.5368  0.3677
  412TMC3    C2 6199   3.512   3.047  14.523  0.0809  0.1626  0.3204
  412TMC3    C3 6200   3.456   2.961  14.425 -0.0304 -0.4915  0.1574
  412TMC3    C4 6201   3.702   3.088  14.396 -0.2404 -0.1887 -0.0337
  412TMC3    C5 6202   3.636   3.024  14.297 -0.1361  0.1487  0.3551
  412TMC3    C6 6203   3.526   2.937  14.311  0.1878  0.1897  0.4328
  412TMC3     C 6204   3.638   3.232  14.569  0.1461  0.4992  0.0020
  412TMC3     O 6205   3.526   3.282  14.589  0.1499  0.1415 -0.0192
  412TMC3     H 6206   3.449   3.057  14.610 -1.7435  3.2300 -1.4009
  412TMC3    H1 6207   3.804   3.122  14.378 -1.3123  3.7233  1.3404
  412TMC3    H2 6208   3.479   2.900  14.221  1.5528 -0.3905 -0.0474
  412TMC3    C7 6209   3.603   3.110  14.189  0.6255 -0.1641  0.5575
  412TMC3    C8 6210   3.313   2.966  14.395  0.3776 -0.1550  0.4957
  412TMC3    O1 6211   3.548   3.065  14.089  0.0071  0.2041  0.3021
  412TMC3    O2 6212   3.275   3.082  14.378  0.2539 -0.1183 -0.1291
  413MPD2     C 6213   0.120   2.134  15.465  0.2479  0.5165  0.8814
  413MPD2    C1 6214   0.065   2.022  15.396  0.1088 -0.4293  0.8004
  413MPD2    C2 6215   0.144   1.924  15.341  0.1572  0.1858  0.3696
  413MPD2    C3 6216   0.281   1.933  15.353  0.7626 -0.3407 -0.0961
  413MPD2    C4 6217   0.338   2.036  15.422  0.6479  0.6894 -0.0687
  413MPD2    C5 6218   0.257   2.140  15.469  0.1418  0.2485 -0.3652
  413MPD2     H 6219   0.100   1.837  15.293  1.0926 -0.8361  1.3612
  413MPD2    H1 6220   0.445   2.044  15.438  0.2574  4.5531  0.6122
  413MPD2    H2 6221   0.056   2.207  15.514  0.5164  0.6921  0.9699
  413MPD2    H3 6222   0.296   2.227  15.521 -1.7904  1.0113 -0.1978
  413MPD2     N 6223   0.362   1.835  15.285  0.1610  0.4460  0.2736
  413MPD2    H5 6224   0.316   1.758  15.236  1.5682  0.4451 -1.0494
  413MPD2    N1 6225   4.663   2.027  15.376  0.6661  0.0961 -0.6714
  413MPD2    H7 6226   4.612   2.101  15.424  2.7464  0.5699  0.8255
  414TMC3    C1 6227   0.539   1.736  15.189 -0.4805 -0.0451  0.4051
  414TMC3    C2 6228   0.609   1.633  15.249  0.0282 -0.8466  0.4205
  414TMC3    C3 6229   0.593   1.501  15.210  0.0654 -0.6767  0.0184
  414TMC3    C4 6230   0.471   1.701  15.073  0.5461 -0.4496  0.0680
  414TMC3    C5 6231   0.456   1.569  15.033 -0.1828  0.4676 -0.0518
  414TMC3    C6 6232   0.502   1.468  15.110  0.3608 -0.4191 -0.7430
  414TMC3     C 6233   0.497   1.842  15.272  0.5092  0.3227  0.7152
  414TMC3     O 6234   0.582   1.892  15.344 -0.2357  0.5116 -1.0562
  414TMC3     H 6235   0.663   1.650  15.342 -0.1509 -1.0399  0.5611
  414TMC3    H1 6236   0.411   1.774  15.019  0.9439  0.5909  1.0218
  414TMC3    H2 6237   0.485   1.366  15.080 -2.6848  0.0930 -0.8035
  414TMC3    C7 6238   0.380   1.544  14.913 -0.2298  0.0659  0.5867
  414TMC3    C8 6239   0.644   1.390  15.295  0.7749  0.3735 -0.1272
  414TMC3    O1 6240   0.275   1.608  14.911 -0.2003  0.0449 -0.3621
  414TMC3    O2 6241   0.583   1.282  15.279 -0.3677 -0.0884 -0.4631
  415TMC3    C1 6242   0.756   0.708   9.848  0.5411 -0.9083 -0.3025
  415TMC3    C2 6243   0.877   0.662   9.798 -0.2571  0.3763  0.0098
  415TMC3    C3 6244   0.879   0.633   9.664  0.1855  1.0750 -0.0510
  415TMC3    C4 6245   0.653   0.719   9.764  0.2004 -0.8706  0.5267
  415TMC3    C5 6246   0.660   0.677   9.631  0.5892 -0.0193 -0.1017
  415TMC3    C6 6247   0.776   0.641   9.574 -0.4390 -0.8019 -0.1858
  415TMC3     C 6248   0.719   0.652   9.972 -0.5020  1.1336  0.1421
  415TMC3     O 6249   0.608   0.602   9.974  0.4050 -0.1160  0.0843
  415TMC3     H 6250   0.955   0.632   9.866  0.2950  1.0704 -0.3106
  415TMC3    H1 6251   0.559   0.757   9.803  0.6520 -0.9734  1.7043
  415TMC3    H2 6252   0.783   0.608   9.470  1.0786 -1.3193  0.0759
  415TMC3    C7 6253   0.533   0.636   9.575  0.1992  0.2859 -0.0841
  415TMC3    C8 6254   1.011   0.608   9.612 -0.2234  0.1410  0.1413
  415TMC3    O1 6255   0.450   0.611   9.663  0.4049  0.2728  0.2023
  415TMC3    O2 6256   1.025   0.554   9.502 -0.1452 -0.4104  0.3301
  416MPD2     C 6257   2.679   3.691  11.545 -0.1358  0.2384 -0.3362
  416MPD2    C1 6258   2.620   3.574  11.497 -0.8295  1.0124 -0.2877
  416MPD2    C2 6259   2.692   3.489  11.414  0.0393 -0.3538  0.2596
  416MPD2    C3 6260   2.828   3.512  11.393  0.2644 -0.0634  0.5938
  416MPD2    C4 6261   2.886   3.614  11.454  0.0076  0.3801  0.6680
  416MPD2    C5 6262   2.811   3.712  11.528  0.4389  0.4073  0.0124
  416MPD2     H 6263   2.641   3.409  11.362 -0.5804 -0.1899  0.6209
  416MPD2    H1 6264   2.987   3.643  11.429 -0.1480  0.8815  0.6111
  416MPD2    H2 6265   2.630   3.758  11.614  2.8433  1.8769  0.2265
  416MPD2    H3 6266   2.857   3.804  11.560  1.2803 -0.0500  0.1282
  416MPD2     N 6267   2.902   3.423  11.318 -0.2647 -0.4870  0.2791
  416MPD2    H5 6268   2.860   3.332  11.298  3.3531 -2.1869  0.3111
  416MPD2    N1 6269   2.492   3.542  11.538  0.0731  0.0842  0.2975
  416MPD2    H7 6270   2.445   3.618  11.584 -1.2236  0.1250 -1.0925
  417TMC3    C1 6271   2.286   3.445  11.571  0.9862  0.6644 -1.0969
  417TMC3    C2 6272   2.290   3.493  11.696 -0.0329  0.1612  0.1182
  417TMC3    C3 6273   2.177   3.533  11.759 -0.1477 -0.0378 -0.0850
  417TMC3    C4 6274   2.176   3.464  11.496 -0.2578 -0.4366  0.5218
  417TMC3    C5 6275   2.063   3.512  11.554  0.2886 -0.6005 -0.1131
  417TMC3    C6 6276   2.060   3.543  11.690 -1.2407 -0.4255  0.2017
  417TMC3     C 6277   2.405   3.439  11.495 -0.1458 -0.0083  0.1427
  417TMC3     O 6278   2.420   3.345  11.413 -0.3766  0.2160 -0.0657
  417TMC3     H 6279   2.386   3.496  11.747  1.5467 -3.6744 -2.6502
  417TMC3    H1 6280   2.183   3.450  11.388 -3.4265  2.7414 -0.0983
  417TMC3    H2 6281   1.968   3.570  11.740 -0.3211  2.0429  0.5393
  417TMC3    C7 6282   1.966   3.577  11.469  0.0390 -0.4779 -0.1803
  417TMC3    C8 6283   2.166   3.512  11.903  0.0628 -0.0158  0.4606
  417TMC3    O1 6284   1.996   3.584  11.354 -0.2760  0.4872 -0.0796
  417TMC3    O2 6285   2.065   3.566  11.951  0.0137 -0.7153 -0.0328
  418TMC3    C1 6286   1.830   0.859   0.022 -0.3238 -0.4089  0.1160
  418TMC3    C2 6287   1.710   0.912   0.047  0.0381 -0.3160  0.6870
  418TMC3    C3 6288   1.642   0.866   0.150  0.4655 -0.3482 -0.4427
  418TMC3    C4 6289   1.894   0.769   0.112  0.3208 -0.2353 -0.2795
  418TMC3    C5 6290   1.818   0.737   0.226 -0.7331 -0.0360 -0.0376
  418TMC3    C6 6291   1.691   0.777   0.239 -0.3775 -0.4003  0.1014
  418TMC3     C 6292   1.878   0.848  17.631  0.2344  0.1474  0.0265
  418TMC3     O 6293   1.824   0.906  17.543 -0.4745 -0.0401  0.5669
  418TMC3     H 6294   1.672   0.980  17.720 -0.8517 -0.9323  0.5785
  418TMC3    H1 6295   1.997   0.735   0.109  0.1257 -0.7897 -0.8062
  418TMC3    H2 6296   1.625   0.742   0.318 -0.9140  0.0553 -0.1431
  418TMC3    C7 6297   1.848   0.620   0.309 -0.0766  0.3331  1.2073
  418TMC3    C8 6298   1.500   0.863   0.126  0.0175 -0.2353  0.1769
  418TMC3    O1 6299   1.754   0.545   0.345 -0.1872  0.3175 -0.4826
  418TMC3    O2 6300   1.449   0.975   0.105 -0.4756 -0.1130 -0.0250
  419MPD2     C 6301   0.069   2.990  12.570 -0.1193 -0.2415 -0.3840
  419MPD2    C1 6302   4.696   3.051  12.514 -0.3433 -0.0000 -0.4970
  419MPD2    C2 6303   4.640   3.155  12.580  0.0544 -0.5015  0.2172
  419MPD2    C3 6304   4.693   3.207  12.694 -0.2766  0.1513 -0.3480
  419MPD2    C4 6305   0.066   3.148  12.749  0.6720  0.3018  0.8661
  419MPD2    C5 6306   0.126   3.035  12.688 -1.5125 -0.2087  0.5214
  419MPD2     H 6307   4.559   3.201  12.524  1.1760 -0.7108 -1.5721
  419MPD2    H1 6308   0.130   3.193  12.825  0.6589  1.0352  0.4477
  419MPD2    H2 6309   0.111   2.899  12.528  0.9832  0.9334 -1.8402
  419MPD2    H3 6310   0.211   2.989  12.736  0.0408 -0.3703 -2.3587
  419MPD2     N 6311   4.640   3.332  12.746 -0.0816 -0.4708 -0.0484
  419MPD2    H5 6312   4.561   3.360  12.689  0.5281  1.5991  0.1344
  419MPD2    N1 6313   4.655   3.015  12.378  0.0279 -0.2503  0.2134
  419MPD2    H7 6314   4.567   3.052  12.343  0.5560 -0.1141 -0.9690
  420TMC3    C1 6315   4.596   3.489  12.913  0.9369  0.5449 -0.3027
  420TMC3    C2 6316   4.496   3.546  12.834  0.1114  0.2326 -0.1744
  420TMC3    C3 6317   4.387   3.609  12.895  0.4058 -0.3041  1.1882
  420TMC3    C4 6318   4.589   3.506  13.053 -0.3422 -0.4944  0.4266
  420TMC3    C5 6319   4.485   3.572  13.104  0.0302  0.5416 -0.3167
  420TMC3    C6 6320   4.382   3.629  13.029 -0.4242 -0.4708 -0.0606
  420TMC3     C 6321   4.680   3.384  12.865  0.3757 -0.7914  0.3309
  420TMC3     O 6322   0.034   3.350  12.939  0.0372  0.0755  0.0256
  420TMC3     H 6323   4.511   3.547  12.727 -0.3142 -0.2377 -0.2426
  420TMC3    H1 6324   4.664   3.460  13.116  1.2832  0.2071 -1.0163
  420TMC3    H2 6325   4.293   3.676  13.069  0.4850 -0.7139  2.2735
  420TMC3    C7 6326   4.452   3.543  13.242  0.6201  0.2903 -0.1320
  420TMC3    C8 6327   4.305   3.688  12.803 -0.4493 -0.2294 -0.4853
  420TMC3    O1 6328   4.524   3.459  13.290  0.4476 -0.5788 -0.1446
  420TMC3    O2 6329   4.363   3.712  12.697 -0.3093  0.1466  0.0003
  421TMC3    C1 6330   1.347   4.126  13.991  0.5169  0.5503  0.0899
  421TMC3    C2 6331   1.266   4.238  14.003 -1.5435 -0.8106 -0.0938
  421TMC3    C3 6332   1.310   4.339  14.090  0.6602  0.0844  0.6024
  421TMC3    C4 6333   1.460   4.108  14.066 -0.7104 -0.3513  0.1958
  421TMC3    C5 6334   1.494   4.209  14.145 -0.3023 -0.4572 -0.2018
  421TMC3    C6 6335   1.420   4.320  14.156  0.4533 -0.2216 -0.2632
  421TMC3     C 6336   1.331   4.031  13.876 -0.4215  0.6509 -0.0236
  421TMC3     O 6337   1.361   3.913  13.886  0.0239 -0.3757  0.0134
  421TMC3     H 6338   1.172   4.253  13.952 -1.5672 -1.7328 -0.3088
  421TMC3    H1 6339   1.525   4.025  14.042 -1.0965 -1.4586  2.9400
  421TMC3    H2 6340   1.458   4.407  14.208  1.0766 -0.3415 -0.5163
  421TMC3    C7 6341   1.627   4.218  14.205 -0.5787  0.0544  0.0420
  421TMC3    C8 6342   1.248   4.473  14.093 -0.0256  0.3254  0.0754
  421TMC3    O1 6343   1.676   4.331  14.207  0.2292 -0.2107  0.0569
  421TMC3    O2 6344   1.309   4.557  14.159 -0.1929  0.4352 -0.3999
  422TMC3    C1 6345   3.317   1.836  12.235  0.7095  1.0441  0.6439
  422TMC3    C2 6346   3.394   1.950  12.203  0.3075  0.5534 -0.3441
  422TMC3    C3 6347   3.326   2.063  12.185 -0.2087  0.8966  0.5958
  422TMC3    C4 6348   3.177   1.844  12.247  0.2087 -0.5911 -0.4238
  422TMC3    C5 6349   3.113   1.964  12.225  0.2938 -0.1529  0.1407
  422TMC3    C6 6350   3.188   2.072  12.185 -0.4269  1.2320 -0.6735
  422TMC3     C 6351   3.382   1.704  12.258  0.4362  0.3711 -0.3390
  422TMC3     O 6352   3.322   1.614  12.315 -0.6001  0.2771  0.4615
  422TMC3     H 6353   3.502   1.942  12.208  0.2507  0.9789  1.4931
  422TMC3    H1 6354   3.126   1.751  12.269 -3.1015  1.7576  1.9992
  422TMC3    H2 6355   3.135   2.161  12.155 -2.3567  0.4999  0.5368
  422TMC3    C7 6356   2.976   1.956  12.188  0.4983 -0.3126 -0.3893
  422TMC3    C8 6357   3.400   2.185  12.159  0.3854 -0.2215  0.8589
  422TMC3    O1 6358   2.929   2.048  12.121 -0.3846 -0.4122 -0.0353
  422TMC3    O2 6359   3.348   2.288  12.193 -0.2993  0.0428 -0.5969
  423MPD2     C 6360   0.040   2.370   0.662  0.6050  0.1947 -0.3726
  423MPD2    C1 6361   0.090   2.466   0.581  0.1323  0.3471  0.1104
  423MPD2    C2 6362   0.062   2.458   0.444  0.7811 -0.7218 -0.2838
  423MPD2    C3 6363   4.712   2.359   0.392 -0.4645 -0.1202 -0.4695
  423MPD2    C4 6364   4.651   2.277   0.480  0.1894  0.7190  0.7294
  423MPD2    C5 6365   4.677   2.285   0.617  0.0767 -0.8694 -0.9547
  423MPD2     H 6366   0.111   2.530   0.379  0.6221  0.0915  0.5075
  423MPD2    H1 6367   4.582   2.200   0.448  1.8447 -0.3515 -0.2357
  423MPD2    H2 6368   0.061   2.363   0.768 -2.0978  0.9408  0.2048
  423MPD2    H3 6369   4.635   2.205   0.677 -0.2428 -0.0291 -0.0532
  423MPD2     N 6370   4.692   2.340   0.249 -0.2104 -0.1450  0.1284
  423MPD2    H5 6371   4.650   2.251   0.227 -1.0946  0.0605  1.0046
  423MPD2    N1 6372   0.168   2.573   0.624  0.0823 -0.2190 -0.0943
  423MPD2    H7 6373   0.217   2.630   0.556 -3.7071  0.7692 -1.9949
  424TMC3    C1 6374   0.255   2.742   0.774 -0.2758  0.5713  0.0633
  424TMC3    C2 6375   0.351   2.768   0.686  0.4431 -0.0761 -0.2412
  424TMC3    C3 6376   0.439   2.875   0.715  0.2098 -0.0469  0.4691
  424TMC3    C4 6377   0.232   2.814   0.890 -0.3472  0.3226  0.9691
  424TMC3    C5 6378   0.329   2.915   0.919 -0.3616  0.1269  0.0639
  424TMC3    C6 6379   0.434   2.945   0.829 -0.0714  0.6976  0.4418
  424TMC3     C 6380   0.173   2.621   0.752  0.5030  0.1671  0.5972
  424TMC3     O 6381   0.132   2.564   0.854 -0.0030  0.9445  0.0228
  424TMC3     H 6382   0.357   2.724   0.588 -1.5564 -2.7380  0.8363
  424TMC3    H1 6383   0.132   2.815   0.931 -0.9466 -2.1822 -0.3888
  424TMC3    H2 6384   0.497   3.028   0.856 -1.8114  2.2140 -0.1616
  424TMC3    C7 6385   0.326   2.976   1.053 -0.2867 -0.4907  0.5361
  424TMC3    C8 6386   0.574   2.850   0.666  0.1132  0.6214  0.3198
  424TMC3    O1 6387   0.397   3.077   1.062  0.2085  0.1100  0.8409
  424TMC3    O2 6388   0.571   2.737   0.620 -0.1605 -0.0649  0.1281
  425MPD2     C 6389   4.195   1.867  17.673  0.4058 -0.3443  0.5929
  425MPD2    C1 6390   4.126   1.816  17.568  0.3666 -0.1985  1.0018
  425MPD2    C2 6391   4.000   1.862  17.538 -0.3697  0.9243  0.2485
  425MPD2    C3 6392   3.943   1.963  17.621 -0.7791  0.4691  0.0556
  425MPD2    C4 6393   4.008   2.016  17.724 -0.3510 -0.3356  0.2004
  425MPD2    C5 6394   4.135   1.971  17.745  0.5123  0.1850  0.3268
  425MPD2     H 6395   3.938   1.819  17.461  1.2854 -0.5635 -0.2713
  425MPD2    H1 6396   3.966   2.095   0.035 -0.3056 -1.1552  1.3068
  425MPD2    H2 6397   4.298   1.836  17.687  0.3564 -1.3205 -1.0876
  425MPD2    H3 6398   4.200   2.016   0.070  1.2458 -1.0280  0.4211
  425MPD2     N 6399   3.823   2.009  17.575 -0.3362 -0.0680 -0.1180
  425MPD2    H5 6400   3.773   1.954  17.506 -0.2912 -1.5424  1.0206
  425MPD2    N1 6401   4.190   1.716  17.490  0.5449  1.3785 -0.0307
  425MPD2    H7 6402   4.278   1.683  17.527 -0.3941 -0.9547  0.1523
  426TMC3    C1 6403   4.210   1.553  17.331 -0.4934  0.1153 -0.0396
  426TMC3    C2 6404   4.199   1.520  17.196  0.0847 -0.2152 -0.2292
  426TMC3    C3 6405   4.234   1.392  17.149  1.2405  0.9179 -0.5622
  426TMC3    C4 6406   4.252   1.454  17.419  0.0778 -0.7721  0.3522
  426TMC3    C5 6407   4.295   1.337  17.367  0.0667 -0.7338 -0.2397
  426TMC3    C6 6408   4.294   1.310  17.234  0.0370  0.3189 -0.1797
  426TMC3     C 6409   4.138   1.670  17.375 -0.2242 -0.4941  0.8269
  426TMC3     O 6410   4.057   1.716  17.292  0.3431 -0.2725 -0.0913
  426TMC3     H 6411   4.185   1.594  17.119 -0.5083 -0.3007 -0.2000
  426TMC3    H1 6412   4.237   1.472  17.525  0.0923  1.0933  0.0417
  426TMC3    H2 6413   4.318   1.207  17.209  0.2044  0.5864 -1.1442
  426TMC3    C7 6414   4.328   1.230  17.455  0.3575  0.2003 -0.8758
  426TMC3    C8 6415   4.195   1.343  17.020 -0.3260 -0.4259 -0.0736
  426TMC3    O1 6416   4.428   1.167  17.422 -0.1024  0.0519  0.3445
  426TMC3    O2 6417   4.242   1.239  16.980  0.4911 -0.5172 -0.0553
  427MPD2     C 6418   2.442   3.995  15.392  0.1114  0.4617  0.2203
  427MPD2    C1 6419   2.431   3.864  15.421 -0.2016  0.2149 -0.2974
  427MPD2    C2 6420   2.307   3.810  15.404  0.7685  0.3006 -0.1968
  427MPD2    C3 6421   2.194   3.888  15.369  0.8984 -0.1221 -0.1236
  427MPD2    C4 6422   2.207   4.025  15.351 -0.5175 -0.2783  0.0870
  427MPD2    C5 6423   2.335   4.075  15.354 -0.1574  0.3440  0.2522
  427MPD2     H 6424   2.289   3.705  15.425 -2.7904  0.6441 -1.4873
  427MPD2    H1 6425   2.123   4.087  15.324  0.6009  1.5676  0.8886
  427MPD2    H2 6426   2.545   4.029  15.398 -0.1140  1.0934  0.5133
  427MPD2    H3 6427   2.358   4.181  15.346  0.7494  0.2823  2.1458
  427MPD2     N 6428   2.063   3.838  15.355  0.0841 -0.1065 -0.0927
  427MPD2    H5 6429   2.004   3.894  15.294  1.8978  0.9123 -0.9135
  427MPD2    N1 6430   2.546   3.778  15.453 -0.3571 -0.0395  0.4759
  427MPD2    H7 6431   2.528   3.679  15.443 -1.0104  0.1508 -0.2700
  428TMC3    C1 6432   2.769   3.727  15.523  0.0569  0.2724  0.3201
  428TMC3    C2 6433   2.746   3.589  15.540  0.2345  0.3612 -0.8044
  428TMC3    C3 6434   2.861   3.518  15.538 -0.0182 -0.0151 -0.2482
  428TMC3    C4 6435   2.894   3.769  15.484 -0.4062  0.7306 -0.3704
  428TMC3    C5 6436   3.009   3.693  15.490 -0.2120 -0.2054  0.1323
  428TMC3    C6 6437   2.991   3.562  15.524 -0.0684  0.0400 -1.1075
  428TMC3     C 6438   2.668   3.831  15.503  0.7802  0.4043  0.3651
  428TMC3     O 6439   2.701   3.942  15.537  0.0160 -0.8112  0.4036
  428TMC3     H 6440   2.654   3.541  15.573 -0.0233  1.5076  0.1372
  428TMC3    H1 6441   2.910   3.876  15.472  0.5819  0.6995  0.7302
  428TMC3    H2 6442   3.073   3.492  15.521  0.0209  0.1098 -0.4780
  428TMC3    C7 6443   3.135   3.760  15.512  0.4586 -0.2436 -0.5053
  428TMC3    C8 6444   2.852   3.379  15.594 -0.0974 -0.0133 -0.4462
  428TMC3    O1 6445   3.153   3.836  15.607 -0.2092  0.4863 -0.1081
  428TMC3    O2 6446   2.754   3.308  15.565  0.0809  0.1708  0.3166
  429MPD2     C 6447   3.828   4.043  17.507  0.2388  0.0176 -0.0388
  429MPD2    C1 6448   3.957   4.014  17.552  0.2670 -0.1113 -0.0230
  429MPD2    C2 6449   4.067   4.099  17.527 -0.7787 -0.2945 -0.5081
  429MPD2    C3 6450   4.044   4.212  17.452  0.9084 -0.4502 -0.2211
  429MPD2    C4 6451   3.919   4.236  17.407  0.1658  0.2908 -0.2265
  429MPD2    C5 6452   3.811   4.157  17.436 -0.6882  0.2042  0.3470
  429MPD2     H 6453   4.169   4.073  17.553 -1.2784 -0.4829  1.2632
  429MPD2    H1 6454   3.895   4.333  17.366 -0.3361  0.4827  0.5400
  429MPD2    H2 6455   3.743   3.977  17.527 -1.9231  2.2246 -1.9647
  429MPD2    H3 6456   3.712   4.179  17.397 -2.5098 -0.5814  4.4401
  429MPD2     N 6457   4.159   4.282  17.415  0.4330 -0.3387  0.1836
  429MPD2    H5 6458   4.246   4.243  17.448  0.6964 -0.2168 -0.3676
  429MPD2    N1 6459   3.989   3.901  17.629  0.1934  0.1092  0.1090
  429MPD2    H7 6460   4.080   3.905  17.674  0.7499 -0.4858 -0.9444
  430TMC3    C1 6461   4.302   4.418  17.289 -0.2778 -0.1478  0.1622
  430TMC3    C2 6462   4.331   4.541  17.241 -0.4250 -0.1417  0.3733
  430TMC3    C3 6463   4.418   4.551  17.139  0.1336 -0.4572  0.0252
  430TMC3    C4 6464   4.360   4.310  17.247  0.3366 -0.1681 -0.1818
  430TMC3    C5 6465   4.450   4.325  17.142  0.4022  0.8242 -0.6671
  430TMC3    C6 6466   4.485   4.440  17.090 -0.2562  0.6640 -0.0808
  430TMC3     C 6467   4.166   4.396  17.342  0.2563  0.4187 -0.4514
  430TMC3     O 6468   4.081   4.471  17.295  0.4694 -0.3905 -0.0540
  430TMC3     H 6469   4.273   4.627  17.272  2.4563  1.8790  0.2082
  430TMC3    H1 6470   4.334   4.209  17.273 -0.3017  1.0327  3.8555
  430TMC3    H2 6471   4.550   4.457  17.005 -4.6296  0.9461 -3.3567
  430TMC3    C7 6472   4.472   4.205  17.061 -0.8767  0.4578  0.7637
  430TMC3    C8 6473   4.378   4.646  17.039  0.2179  0.5703 -0.1807
  430TMC3    O1 6474   4.455   4.095  17.114 -0.2960  0.5330  0.0555
  430TMC3    O2 6475   4.371   0.026  17.073  0.6244 -0.4736 -0.7695
  431MPD2     C 6476   4.281   3.651  12.045 -0.9481 -0.4826 -0.6443
  431MPD2    C1 6477   4.355   3.603  12.149  0.1571 -0.3254 -0.2859
  431MPD2    C2 6478   4.380   3.465  12.143  0.1959  0.7498 -0.1841
  431MPD2    C3 6479   4.330   3.383  12.041  0.3011 -0.3542  0.4884
  431MPD2    C4 6480   4.261   3.435  11.935  0.4211 -0.0528  0.7352
  431MPD2    C5 6481   4.241   3.572  11.940 -0.2838  0.4668  0.0937
  431MPD2     H 6482   4.446   3.419  12.216 -0.8128 -0.1919  0.1312
  431MPD2    H1 6483   4.232   3.379  11.847  0.4836  2.2147 -0.7214
  431MPD2    H2 6484   4.253   3.756  12.047 -0.2809 -0.3154 -0.2205
  431MPD2    H3 6485   4.192   3.619  11.856  0.0907 -1.4890 -1.2033
  431MPD2     N 6486   4.361   3.240  12.039  0.2850  0.6361  0.7820
  431MPD2    H5 6487   4.341   3.199  11.948 -0.3332 -2.2825  2.2385
  431MPD2    N1 6488   4.419   3.696  12.239 -0.4109 -0.5735 -0.2742
  431MPD2    H7 6489   4.391   3.794  12.243 -2.7413 -1.2817  1.0415
  432TMC3    C1 6490   4.480   3.047  12.078  0.2026 -0.3525  0.6621
  432TMC3    C2 6491   4.563   3.085  11.975 -0.4739 -0.0541  0.2756
  432TMC3    C3 6492   4.689   3.040  11.981 -0.6829 -0.1825 -0.6412
  432TMC3    C4 6493   4.522   2.965  12.171 -0.6964  0.0345 -0.5402
  432TMC3    C5 6494   4.651   2.922  12.174  0.0952 -0.0644  1.3365
  432TMC3    C6 6495   4.737   2.946  12.071 -0.2148  0.1852  0.1322
  432TMC3     C 6496   4.416   3.162  12.135 -0.6797  0.1872  0.3884
  432TMC3     O 6497   4.413   3.176  12.257 -0.2560  0.1720  0.2198
  432TMC3     H 6498   4.536   3.165  11.908 -1.2197 -0.2897  0.2931
  432TMC3    H1 6499   4.454   2.915  12.240 -0.1286  0.8168  0.5883
  432TMC3    H2 6500   0.101   2.909  12.070 -0.8039 -1.4639  1.5734
  432TMC3    C7 6501   4.716   2.919  12.303  0.5611  0.0890  0.7911
  432TMC3    C8 6502   0.038   3.100  11.875 -0.4130 -0.0751  0.3206
  432TMC3    O1 6503   0.097   2.888  12.299  0.3191 -0.2097  0.1772
  432TMC3    O2 6504   4.714   3.105  11.770 -0.1531 -0.2699  0.1415
  433MPD2     C 6505   3.338   2.494  10.664 -0.2421 -0.2972  0.2500
  433MPD2    C1 6506   3.427   2.422  10.740 -0.1341  0.1494  0.2090
  433MPD2    C2 6507   3.528   2.492  10.803 -0.9366 -0.3183  0.3723
  433MPD2    C3 6508   3.542   2.622  10.790  0.5117 -0.0185 -0.1608
  433MPD2    C4 6509   3.451   2.699  10.718 -0.2134 -0.8111  0.0569
  433MPD2    C5 6510   3.346   2.632  10.661  0.0043 -0.2426  0.7845
  433MPD2     H 6511   3.598   2.436  10.864 -0.6094 -1.3787 -0.9751
  433MPD2    H1 6512   3.459   2.807  10.721 -0.4626 -0.8010  0.3517
  433MPD2    H2 6513   3.251   2.451  10.617 -0.1317  0.8810 -1.0410
  433MPD2    H3 6514   3.265   2.688  10.616 -1.5288 -1.9457  1.4041
  433MPD2     N 6515   3.642   2.685  10.870  0.3809  0.2172 -0.4878
  433MPD2    H5 6516   3.689   2.617  10.930 -1.1830  0.5363  1.1065
  433MPD2    N1 6517   3.408   2.284  10.758  0.6821  0.1405 -0.1653
  433MPD2    H7 6518   3.330   2.241  10.709  0.3770 -0.4688  0.8598
  434TMC3    C1 6519   3.424   2.068  10.844  0.3541  0.2925 -0.5143
  434TMC3    C2 6520   3.513   1.965  10.866 -0.2294 -0.6669 -0.3027
  434TMC3    C3 6521   3.472   1.837  10.829 -0.5521 -0.1302  0.0860
  434TMC3    C4 6522   3.295   2.043  10.787 -0.1474  0.9456 -0.4161
  434TMC3    C5 6523   3.259   1.916  10.749  0.1172 -1.2235  0.8166
  434TMC3    C6 6524   3.349   1.816  10.765 -0.4428 -0.5451 -0.5025
  434TMC3     C 6525   3.481   2.200  10.834  0.2953  0.1930 -0.9967
  434TMC3     O 6526   3.595   2.221  10.878  0.0004  0.2335  0.2995
  434TMC3     H 6527   3.610   1.983  10.911 -1.6874  2.2704  1.6646
  434TMC3    H1 6528   3.218   2.119  10.787 -2.4846 -1.4112  2.5461
  434TMC3    H2 6529   3.327   1.718  10.723  0.9180 -1.5349  1.1077
  434TMC3    C7 6530   3.120   1.888  10.714  0.5634  0.2872  0.3355
  434TMC3    C8 6531   3.536   1.716  10.876  0.2584 -0.5100 -0.3450
  434TMC3    O1 6532   3.058   1.976  10.657  0.6440  0.2237 -0.6888
  434TMC3    O2 6533   3.509   1.607  10.834 -0.0774  0.4680  0.0736
  435MPD2     C 6534   0.775   2.455  15.425  0.1218 -0.1965  0.7131
  435MPD2    C1 6535   0.700   2.435  15.541  0.4754  0.1468  0.0448
  435MPD2    C2 6536   0.759   2.360  15.638 -0.0425 -0.5552 -0.6800
  435MPD2    C3 6537   0.888   2.307  15.638  0.7426  0.0467 -0.6653
  435MPD2    C4 6538   0.959   2.323  15.517 -0.4083  0.2591  0.0584
  435MPD2    C5 6539   0.900   2.405  15.421  0.5596  0.4803  0.7385
  435MPD2     H 6540   0.705   2.341  15.730 -0.7560  1.0589 -0.7528
  435MPD2    H1 6541   1.056   2.281  15.491 -0.2310 -0.0323  1.1924
  435MPD2    H2 6542   0.747   2.530  15.351  0.5382 -1.1287 -0.3855
  435MPD2    H3 6543   0.961   2.436  15.338  0.8733 -3.2322 -0.4373
  435MPD2     N 6544   0.930   2.232  15.748  0.4854  0.3872 -0.3139
  435MPD2    H5 6545   0.866   2.244  15.826 -1.6587  0.6465 -2.0935
  435MPD2    N1 6546   0.577   2.503  15.573  0.1272  0.0098  0.1396
  435MPD2    H7 6547   0.534   2.482  15.662  0.5166 -0.0642  0.3087
  436TMC3    C1 6548   0.203   2.629  15.687  0.6146  0.1264 -0.2679
  436TMC3    C2 6549   0.333   2.605  15.651 -0.1905  0.4603  0.2085
  436TMC3    C3 6550   0.374   2.634  15.524 -0.3824  0.0395 -0.5263
  436TMC3    C4 6551   0.119   2.683  15.599 -0.1077 -0.0116 -0.0530
  436TMC3    C5 6552   0.161   2.720  15.478  0.1960 -0.3759  0.1324
  436TMC3    C6 6553   0.289   2.688  15.433  0.1840  0.3954 -0.0991
  436TMC3     C 6554   0.159   2.520  15.775  0.8697 -0.0959 -0.4868
  436TMC3     O 6555   0.227   2.416  15.781  0.2605  0.3216  0.1128
  436TMC3     H 6556   0.392   2.560  15.731  0.4827  1.0453  0.0370
  436TMC3    H1 6557   0.012   2.676  15.615 -0.3573 -1.4674 -2.2901
  436TMC3    H2 6558   0.331   2.708  15.335  0.4220  1.5092  0.2345
  436TMC3    C7 6559   0.063   2.778  15.392  0.4272  0.0777 -0.4807
  436TMC3    C8 6560   0.508   2.588  15.486 -0.1461 -0.1774 -0.6010
  436TMC3    O1 6561   4.687   2.791  15.431 -0.7903  0.8942  0.5990
  436TMC3    O2 6562   0.542   2.633  15.380  0.1427  0.8823  0.4172
  437TMC3    C1 6563   3.836   4.628  13.001 -0.1354  0.4155  0.1083
  437TMC3    C2 6564   3.747   4.735  13.001  0.7166  0.1674  0.2652
  437TMC3    C3 6565   3.768   0.092  12.907 -0.3826  0.1981  0.1143
  437TMC3    C4 6566   3.942   4.626  12.918 -0.0213 -0.0507 -0.0597
  437TMC3    C5 6567   3.971   4.736  12.835  0.4327 -0.1740 -0.9703
  437TMC3    C6 6568   3.883   0.098  12.827 -0.4609  0.2538 -0.1859
  437TMC3     C 6569   3.807   4.505  13.073  0.3055  0.5152 -0.4904
  437TMC3     O 6570   3.883   4.415  13.053  0.0329  0.3194  0.1731
  437TMC3     H 6571   3.658   0.001  13.062  1.2134 -2.9175  1.1673
  437TMC3    H1 6572   4.011   4.543  12.926 -0.5512 -0.4719  0.0510
  437TMC3    H2 6573   3.918   0.187  12.777  3.7787 -1.1585  0.2129
  437TMC3    C7 6574   4.079   4.732  12.735  0.2464  0.6949  0.4499
  437TMC3    C8 6575   3.678   0.208  12.893  0.7598 -0.5475  0.1734
  437TMC3    O1 6576   4.064   0.056  12.632 -0.0263  0.1243 -0.2336
  437TMC3    O2 6577   3.621   0.252  12.991 -0.2155  0.0930  1.1104
  438MPD2     C 6578   1.892   0.869  16.609  0.0926 -0.9956 -0.3575
  438MPD2    C1 6579   1.942   0.749  16.652  0.3948 -0.2068 -0.2006
  438MPD2    C2 6580   1.913   0.711  16.779  0.0145  0.0509  0.4080
  438MPD2    C3 6581   1.835   0.779  16.868 -0.4880  0.2958  0.3507
  438MPD2    C4 6582   1.788   0.900  16.825  0.4158 -0.1607 -0.2185
  438MPD2    C5 6583   1.811   0.941  16.695  0.4264 -0.4991  0.0244
  438MPD2     H 6584   1.951   0.612  16.800 -2.2018 -1.1792 -1.3502
  438MPD2    H1 6585   1.734   0.967  16.892  0.7800  1.3534 -1.4506
  438MPD2    H2 6586   1.907   0.898  16.506 -1.5578 -1.4334 -0.7279
  438MPD2    H3 6587   1.770   1.035  16.659  1.3625  0.5450  1.6916
  438MPD2     N 6588   1.799   0.731  16.995 -0.2787 -0.2283  0.0973
  438MPD2    H5 6589   1.744   0.797  17.050 -0.2670  0.3922 -0.6292
  438MPD2    N1 6590   2.005   0.652  16.580  0.2039 -0.0505 -0.3254
  438MPD2    H7 6591   2.004   0.564  16.631 -0.7701  1.1002  1.6451
  439TMC3    C1 6592   2.091   0.532  16.397  0.0732  0.1626 -0.2125
  439TMC3    C2 6593   2.088   0.506  16.264 -0.5849  0.1854 -0.2460
  439TMC3    C3 6594   2.136   0.383  16.221 -0.2765  0.6530  0.0683
  439TMC3    C4 6595   2.128   0.437  16.489 -0.2218 -0.1645  0.2382
  439TMC3    C5 6596   2.168   0.311  16.440 -0.2458 -0.2775  0.5711
  439TMC3    C6 6597   2.172   0.283  16.306  0.3672 -0.2805 -0.3911
  439TMC3     C 6598   2.040   0.659  16.450 -0.6614 -0.0863 -0.0194
  439TMC3     O 6599   2.029   0.749  16.366  0.6751  0.1526 -0.1206
  439TMC3     H 6600   2.071   0.592  16.199 -1.0946  0.6861  0.5401
  439TMC3    H1 6601   2.132   0.464  16.594 -0.9080 -1.9992  0.7318
  439TMC3    H2 6602   2.219   0.193  16.270  0.8829  0.1120 -0.7004
  439TMC3    C7 6603   2.257   0.242  16.528 -0.3155 -0.6855  0.3614
  439TMC3    C8 6604   2.189   0.373  16.082 -0.5036 -0.2899  0.6995
  439TMC3    O1 6605   2.292   0.293  16.635  0.2402  0.0699  0.1928
  439TMC3    O2 6606   2.266   0.281  16.066  0.3752  0.3761 -0.3219
  440MPD2     C 6607   0.082   0.684  15.315  0.2901 -0.2404 -0.1803
  440MPD2    C1 6608   0.160   0.786  15.353  0.2088 -0.4074  0.3892
  440MPD2    C2 6609   0.295   0.758  15.381 -0.4184 -0.3795 -0.0461
  440MPD2    C3 6610   0.356   0.633  15.341  0.4320 -0.2021  0.3835
  440MPD2    C4 6611   0.275   0.531  15.304 -0.2551  0.7586 -0.2324
  440MPD2    C5 6612   0.139   0.556  15.294 -0.1620  0.2137 -0.1640
  440MPD2     H 6613   0.350   0.834  15.435  0.5522 -0.9461 -0.2383
  440MPD2    H1 6614   0.309   0.429  15.289 -2.0270  0.2194 -0.6372
  440MPD2    H2 6615   4.715   0.688  15.289  0.8186 -0.2336 -2.2982
  440MPD2    H3 6616   0.075   0.475  15.262 -0.7118  1.1209 -1.3717
  440MPD2     N 6617   0.492   0.605  15.350  0.4605 -0.2510  0.4017
  440MPD2    H5 6618   0.512   0.512  15.314  0.8021 -0.3947  0.9765
  440MPD2    N1 6619   0.115   0.921  15.379 -0.4235  0.3307 -0.1130
  440MPD2    H7 6620   0.177   0.994  15.412 -1.7886  0.7766  1.5148
  441TMC3    C1 6621   0.717   0.637  15.370  0.1168  0.4687  0.4779
  441TMC3    C2 6622   0.808   0.728  15.343 -0.3958  0.1324  0.0362
  441TMC3    C3 6623   0.930   0.720  15.406 -0.4386  0.3246  0.0672
  441TMC3    C4 6624   0.741   0.534  15.452 -0.2427 -0.5071 -0.1418
  441TMC3    C5 6625   0.866   0.514  15.504 -0.3556 -0.3088 -0.3652
  441TMC3    C6 6626   0.963   0.611  15.483 -1.4571 -0.3291  0.1696
  441TMC3     C 6627   0.592   0.697  15.384 -0.0871 -0.4263 -0.4172
  441TMC3     O 6628   0.591   0.818  15.401 -0.5459  0.5774 -0.5574
  441TMC3     H 6629   0.786   0.807  15.273  0.8697  1.0483  0.6873
  441TMC3    H1 6630   0.663   0.460  15.469 -0.5817 -0.2112 -0.4093
  441TMC3    H2 6631   1.062   0.610  15.527 -1.3974  0.4152  0.0502
  441TMC3    C7 6632   0.895   0.402  15.596 -0.7311 -0.7289  0.8174
  441TMC3    C8 6633   0.995   0.842  15.435  0.0133 -0.1499  0.0895
  441TMC3    O1 6634   0.801   0.324  15.603 -0.0984  0.6108 -0.0717
  441TMC3    O2 6635   1.106   0.841  15.484  0.0891  0.0185  0.0251
  442MPD2     C 6636   3.283   1.711  16.182 -0.3451  0.6796  0.1839
  442MPD2    C1 6637   3.292   1.639  16.298  0.6201  0.1386  0.3479
  442MPD2    C2 6638   3.298   1.501  16.300 -0.2117  0.6312  0.4326
  442MPD2    C3 6639   3.323   1.433  16.182 -0.5760 -0.6827  0.2087
  442MPD2    C4 6640   3.325   1.514  16.065  0.1818  0.0612  0.4006
  442MPD2    C5 6641   3.292   1.646  16.059 -0.7085  0.5001 -0.7006
  442MPD2     H 6642   3.302   1.459  16.400  0.2074 -1.1741 -0.3299
  442MPD2    H1 6643   3.342   1.481  15.963  1.9708  0.5751  0.5341
  442MPD2    H2 6644   3.287   1.820  16.175 -2.1284  0.6092 -1.8201
  442MPD2    H3 6645   3.281   1.701  15.966 -1.0796  0.4232 -0.7027
  442MPD2     N 6646   3.371   1.304  16.177 -0.5064 -0.8218  0.0212
  442MPD2    H5 6647   3.395   1.274  16.083  2.4996  1.2247  0.1416
  442MPD2    N1 6648   3.274   1.704  16.419  0.0030 -0.0387  0.1970
  442MPD2    H7 6649   3.236   1.662  16.503  1.7254  1.6050  1.8256
  443TMC3    C1 6650   3.222   1.896  16.556  0.3180 -0.2538 -0.3424
  443TMC3    C2 6651   3.126   1.984  16.515  0.1379 -0.1577  0.4258
  443TMC3    C3 6652   3.002   1.976  16.564  0.6077  0.1265 -0.4346
  443TMC3    C4 6653   3.197   1.815  16.662  0.2277 -0.8782 -0.1698
  443TMC3    C5 6654   3.080   1.845  16.736  0.8154  0.8116  0.0231
  443TMC3    C6 6655   2.984   1.919  16.686 -0.0273 -0.3506 -0.1465
  443TMC3     C 6656   3.291   1.838  16.442  0.0847  0.0559 -0.4118
  443TMC3     O 6657   3.344   1.927  16.378 -0.1352  0.0650  0.2910
  443TMC3     H 6658   3.150   2.052  16.435  3.3518  0.5650  1.9840
  443TMC3    H1 6659   3.266   1.749  16.714 -0.7604 -0.5216  1.5683
  443TMC3    H2 6660   2.883   1.906  16.723  0.4595  0.4700  1.4378
  443TMC3    C7 6661   3.058   1.797  16.871 -0.0468  0.2682  0.8423
  443TMC3    C8 6662   2.935   1.890  16.468 -0.4238  0.0474 -0.1007
  443TMC3    O1 6663   3.123   1.699  16.904  0.2567  0.1460  0.4638
  443TMC3    O2 6664   2.877   1.787  16.509  0.5583 -0.8612  0.7420
  444MPD2     C 6665   3.720   1.082  16.964 -0.2319  0.5356  0.4427
  444MPD2    C1 6666   3.641   0.967  16.985  0.4844  0.0556  0.3543
  444MPD2    C2 6667   3.663   0.860  16.907 -0.0075  0.1786  0.5480
  444MPD2    C3 6668   3.770   0.846  16.822 -0.5372 -0.5050  0.1752
  444MPD2    C4 6669   3.852   0.959  16.805  0.2210  0.1436  0.1891
  444MPD2    C5 6670   3.821   1.070  16.877  0.2600 -0.7661 -0.1224
  444MPD2     H 6671   3.598   0.775  16.926  0.1613 -0.7359 -2.8835
  444MPD2    H1 6672   3.931   0.966  16.730 -0.1866 -2.0015 -0.4566
  444MPD2    H2 6673   3.700   1.178  17.010  0.8744  1.5574 -1.2067
  444MPD2    H3 6674   3.875   1.162  16.854  2.9600 -2.2636  0.1683
  444MPD2     N 6675   3.795   0.731  16.752 -0.1314 -0.2915 -0.2529
  444MPD2    H5 6676   3.724   0.658  16.761 -0.9805  0.5874  0.1538
  444MPD2    N1 6677   3.531   0.956  17.077 -0.1373  0.7761 -0.2825
  444MPD2    H7 6678   3.506   0.860  17.099  2.1805  0.2923  0.2279
  445TMC3    C1 6679   3.909   0.571  16.607  0.0728 -0.0623 -0.1035
  445TMC3    C2 6680   3.812   0.484  16.649 -0.4117 -0.0555 -0.3651
  445TMC3    C3 6681   3.817   0.362  16.596  0.0057 -0.5942  0.5931
  445TMC3    C4 6682   4.016   0.534  16.529  0.3134 -0.4927  0.4913
  445TMC3    C5 6683   4.018   0.406  16.491  0.3720 -0.6237 -0.9464
  445TMC3    C6 6684   3.920   0.319  16.517  0.1643 -0.3254 -0.4860
  445TMC3     C 6685   3.901   0.707  16.665  0.3638 -0.2879  0.2152
  445TMC3     O 6686   4.006   0.771  16.657  0.0690 -0.5366 -0.2164
  445TMC3     H 6687   3.730   0.503  16.716  0.9542 -2.1020  1.8790
  445TMC3    H1 6688   4.099   0.598  16.501  0.6039 -0.0937  2.2725
  445TMC3    H2 6689   3.909   0.218  16.480  0.3421 -0.1200 -1.0909
  445TMC3    C7 6690   4.122   0.363  16.397 -0.1351 -0.3081 -0.0847
  445TMC3    C8 6691   3.722   0.268  16.647 -0.1283 -0.1856 -0.3151
  445TMC3    O1 6692   4.235   0.410  16.404 -0.0158  0.2884 -0.1660
  445TMC3    O2 6693   3.610   0.312  16.675 -0.3540  0.4199 -0.0594
  446MPD2     C 6694   3.585   2.055  11.444  0.6679 -0.3453  0.1309
  446MPD2    C1 6695   3.507   2.077  11.332  0.0595 -0.1714  0.1804
  446MPD2    C2 6696   3.574   2.122  11.217  0.1237 -0.3114 -0.1024
  446MPD2    C3 6697   3.706   2.124  11.214  0.0237 -0.3183  0.0175
  446MPD2    C4 6698   3.778   2.098  11.325  0.0107 -0.3156  0.1784
  446MPD2    C5 6699   3.719   2.073  11.444  0.1174  0.1567  0.0235
  446MPD2     H 6700   3.514   2.123  11.127 -1.2957  2.6341  0.8777
  446MPD2    H1 6701   3.886   2.093  11.332  0.0602 -0.9230 -0.9804
  446MPD2    H2 6702   3.543   2.026  11.539  0.0040  0.1703 -0.0084
  446MPD2    H3 6703   3.777   2.075  11.535 -0.7192  0.3495  0.5542
  446MPD2     N 6704   3.764   2.152  11.089 -0.4964  0.7295  0.8023
  446MPD2    H5 6705   3.706   2.179  11.011  1.9118  0.8386 -0.9625
  446MPD2    N1 6706   3.367   2.062  11.330 -0.1226  0.0117  0.7368
  446MPD2    H7 6707   3.327   2.110  11.250  0.9448 -3.1596 -1.6891
  447TMC3    C1 6708   3.936   2.129  10.923  0.7430 -0.0611  0.3711
  447TMC3    C2 6709   3.921   2.264  10.901 -0.5987  0.1816  0.4962
  447TMC3    C3 6710   4.034   2.333  10.866 -0.1545 -0.5584  0.3819
  447TMC3    C4 6711   4.061   2.070  10.915  0.2074 -0.0053 -0.2640
  447TMC3    C5 6712   4.164   2.149  10.888 -0.1850 -0.5489  0.0235
  447TMC3    C6 6713   4.156   2.279  10.861  1.1072  0.4847  0.0718
  447TMC3     C 6714   3.888   2.103  11.059 -0.1575 -0.5708  0.3163
  447TMC3     O 6715   3.972   2.037  11.124 -0.4283 -0.6928 -0.4831
  447TMC3     H 6716   3.822   2.306  10.889 -0.5314  0.0055 -0.6926
  447TMC3    H1 6717   4.067   1.966  10.944  0.4887  0.5851  1.7995
  447TMC3    H2 6718   4.243   2.331  10.823  0.3926  0.8373 -1.0807
  447TMC3    C7 6719   4.297   2.093  10.883 -0.1525 -0.0895 -0.3182
  447TMC3    C8 6720   4.011   2.454  10.794 -0.3014  0.5240  0.3200
  447TMC3    O1 6721   4.390   2.173  10.891 -0.3605 -0.2876 -0.7533
  447TMC3    O2 6722   3.894   2.470  10.763  0.0461 -0.4584 -0.4157
  448TMC3    C1 6723   2.374   1.952  17.186  0.5685  0.3355 -0.1023
  448TMC3    C2 6724   2.279   1.879  17.120  0.1482  0.6535 -0.0289
  448TMC3    C3 6725   2.229   1.769  17.190 -0.6254  1.0386 -1.0697
  448TMC3    C4 6726   2.419   1.924  17.310 -0.1892 -0.5107 -0.3335
  448TMC3    C5 6727   2.374   1.809  17.366  0.2241 -0.3647 -0.2025
  448TMC3    C6 6728   2.273   1.727  17.316  0.6850  0.2534  0.7280
  448TMC3     C 6729   2.480   2.008  17.110 -0.2230  0.5211  0.3824
  448TMC3     O 6730   2.556   2.090  17.164 -0.1165 -0.2937 -0.1605
  448TMC3     H 6731   2.250   1.912  17.021  3.0658  0.9294 -0.7749
  448TMC3    H1 6732   2.486   1.990  17.364  0.5102 -0.6981 -0.9665
  448TMC3    H2 6733   2.245   1.631  17.358  1.4880 -1.4220 -2.6364
  448TMC3    C7 6734   2.390   1.802  17.509  0.8415  0.4416  0.3767
  448TMC3    C8 6735   2.135   1.675  17.128  0.1740 -0.5027  0.1521
  448TMC3    O1 6736   2.494   1.845  17.554  1.0836  0.0174  0.1187
  448TMC3    O2 6737   2.144   1.558  17.169  0.3676  0.2936  0.1492
  449MPD2     C 6738   3.293   0.355  13.956  0.1633 -0.1949  0.6393
  449MPD2    C1 6739   3.185   0.434  13.959 -0.1854 -0.4231  0.2996
  449MPD2    C2 6740   3.060   0.377  13.979  0.1996  0.6949  0.5425
  449MPD2    C3 6741   3.049   0.244  14.008  0.5031  0.2693 -0.3976
  449MPD2    C4 6742   3.165   0.166  14.021 -0.3484 -0.7547 -0.2804
  449MPD2    C5 6743   3.282   0.221  13.989 -0.1116  0.6476  0.7462
  449MPD2     H 6744   2.968   0.433  13.989 -0.3553 -0.2761  0.9325
  449MPD2    H1 6745   3.164   0.062  14.051 -0.2671 -0.6861 -0.0357
  449MPD2    H2 6746   3.391   0.396  13.934 -0.4586  0.8138 -0.2247
  449MPD2    H3 6747   3.375   0.165  13.994 -0.9886 -0.6978  1.7909
  449MPD2     N 6748   2.918   0.199  14.032 -0.5909 -0.2545  0.2261
  449MPD2    H5 6749   2.848   0.261  13.992  0.6733  0.8400 -0.3051
  449MPD2    N1 6750   3.185   0.575  13.944  0.1892  0.1546 -0.0401
  449MPD2    H7 6751   3.102   0.631  13.958  0.4636  0.4768  0.2830
  450TMC3    C1 6752   3.235   0.778  13.869  0.0184  0.3324 -0.2918
  450TMC3    C2 6753   3.219   0.812  13.737 -0.6840  0.2061 -0.0524
  450TMC3    C3 6754   3.120   0.888  13.694 -0.0513  0.1604 -0.2213
  450TMC3    C4 6755   3.134   0.812  13.955 -0.0631 -0.1969  0.8214
  450TMC3    C5 6756   3.028   0.885  13.918 -0.3246 -0.8235  0.5149
  450TMC3    C6 6757   3.025   0.929  13.784 -0.1395 -0.0289 -0.3085
  450TMC3     C 6758   3.289   0.643  13.893 -0.1503  0.3009 -0.5437
  450TMC3     O 6759   3.394   0.611  13.841 -0.2618  0.4795 -0.3951
  450TMC3     H 6760   3.291   0.768  13.669  0.1800  1.7707 -0.1441
  450TMC3    H1 6761   3.142   0.775  14.056 -0.6337 -0.3419  0.8112
  450TMC3    H2 6762   2.932   0.973  13.750 -1.0352 -0.2332  1.8510
  450TMC3    C7 6763   2.909   0.811  13.957  0.0396  0.6710 -0.9842
  450TMC3    C8 6764   3.094   0.919  13.552  0.2742 -0.4996 -0.3037
  450TMC3    O1 6765   2.934   0.694  13.990 -0.7182 -0.0261 -0.1490
  450TMC3    O2 6766   2.982   0.963  13.531 -0.1546  0.4010  0.2462
  451MPD2     C 6767   4.505   4.282   1.489  0.0610 -0.1849  0.1456
  451MPD2    C1 6768   4.593   4.308   1.384 -0.1379 -0.0958 -0.3944
  451MPD2    C2 6769   4.648   4.201   1.315 -0.3926  0.5296 -0.0384
  451MPD2    C3 6770   4.621   4.075   1.347  0.4923  0.3164 -0.0925
  451MPD2    C4 6771   4.546   4.048   1.460  0.1006  0.2427  0.1218
  451MPD2    C5 6772   4.490   4.145   1.534  0.5113  0.0393  0.1450
  451MPD2     H 6773   4.721   4.228   1.240  0.3201 -0.3630  0.3272
  451MPD2    H1 6774   4.538   3.944   1.490 -0.1015 -0.2486 -1.6418
  451MPD2    H2 6775   4.457   4.363   1.542 -1.3422 -0.1344 -1.1707
  451MPD2    H3 6776   4.422   4.118   1.614  1.2033  0.5124  0.9025
  451MPD2     N 6777   4.677   3.963   1.283 -0.4804 -0.4027  0.3173
  451MPD2    H5 6778   4.661   3.869   1.318 -1.3904 -1.1952 -2.3113
  451MPD2    N1 6779   4.602   4.448   1.348 -0.0052 -0.1760 -0.1930
  451MPD2    H7 6780   4.574   4.515   1.418  1.3421 -1.0485  1.2058
  452TMC3    C1 6781   0.064   3.841   1.137  0.6083  0.4643  0.9020
  452TMC3    C2 6782   0.064   3.739   1.233 -0.1403 -0.4416  0.3087
  452TMC3    C3 6783   0.107   3.617   1.183  0.3014  0.0180  0.5105
  452TMC3    C4 6784   0.103   3.824   1.008 -0.0519 -0.0400 -0.5332
  452TMC3    C5 6785   0.126   3.699   0.960 -0.1835 -0.2931  0.1260
  452TMC3    C6 6786   0.126   3.597   1.046 -0.0077 -0.0347 -0.6801
  452TMC3     C 6787   0.015   3.971   1.173 -0.0983  0.5075 -0.1177
  452TMC3     O 6788   0.046   4.071   1.108  0.0674  0.3225  0.2098
  452TMC3     H 6789   0.049   3.748   1.340  2.9678 -1.4135  0.8394
  452TMC3    H1 6790   0.112   3.914   0.948  1.0985  0.1043 -0.1478
  452TMC3    H2 6791   0.160   3.501   1.009 -1.3252 -1.1634  1.0760
  452TMC3    C7 6792   0.161   3.684   0.821 -0.2701 -0.1773  0.0011
  452TMC3    C8 6793   0.090   3.503   1.264 -0.0780  0.4159 -0.6529
  452TMC3    O1 6794   0.157   3.791   0.755  0.3839 -0.2586  0.7271
  452TMC3    O2 6795   0.155   3.407   1.228 -0.0728 -0.1619 -0.3126
  453TMC3    C1 6796   0.899   0.928  12.550  0.3047  0.1369 -0.2681
  453TMC3    C2 6797   0.827   0.821  12.599  0.0324  0.2221 -0.0183
  453TMC3    C3 6798   0.697   0.810  12.571 -0.0930 -0.3460 -0.0889
  453TMC3    C4 6799   0.839   1.005  12.450  0.0936  0.4957 -0.7488
  453TMC3    C5 6800   0.700   0.985  12.423 -0.2618 -0.0700  0.5262
  453TMC3    C6 6801   0.630   0.885  12.482 -0.5309  0.3856  0.1144
  453TMC3     C 6802   1.047   0.937  12.563 -0.0728 -0.5179  0.7303
  453TMC3     O 6803   1.104   1.024  12.500 -0.2671 -0.0771  0.3087
  453TMC3     H 6804   0.866   0.746  12.666 -2.0300 -0.9631 -0.1294
  453TMC3    H1 6805   0.896   1.083  12.401  3.1484 -1.9792 -1.1276
  453TMC3    H2 6806   0.530   0.873  12.443 -0.3244  1.8051 -0.8651
  453TMC3    C7 6807   0.660   1.013  12.287 -0.0455 -0.2767  0.3508
  453TMC3    C8 6808   0.623   0.694  12.602 -0.4650 -0.1417  0.7236
  453TMC3    O1 6809   0.610   0.922  12.219 -0.2473  0.2759  0.2047
  453TMC3    O2 6810   0.503   0.689  12.577 -0.1227  0.0886  0.1309
  454MPD2     C 6811   4.515   0.488  16.022  0.2188  0.3791  0.2396
  454MPD2    C1 6812   4.487   0.595  15.935  0.0055 -0.5914 -0.3354
  454MPD2    C2 6813   4.459   0.721  15.985 -0.0173  0.4958 -0.1686
  454MPD2    C3 6814   4.460   0.738  16.130  0.2018 -0.6526  0.0168
  454MPD2    C4 6815   4.492   0.632  16.217  0.0842  0.4062 -0.0428
  454MPD2    C5 6816   4.517   0.510  16.159  0.2306 -0.4752 -0.2490
  454MPD2     H 6817   4.419   0.791  15.912 -0.6595  1.4780  1.1205
  454MPD2    H1 6818   4.493   0.644  16.325 -1.9894 -1.6533  0.2129
  454MPD2    H2 6819   4.531   0.390  15.979 -1.1713  0.9044 -1.4450
  454MPD2    H3 6820   4.542   0.424  16.221 -1.4893 -0.5373  0.3600
  454MPD2     N 6821   4.420   0.858  16.196 -0.0713 -0.2235 -0.5156
  454MPD2    H5 6822   4.406   0.854  16.297 -2.8025  1.6787 -0.8034
  454MPD2    N1 6823   4.458   0.575  15.799  0.3787  0.4918 -0.0524
  454MPD2    H7 6824   4.428   0.660  15.752 -2.5012 -0.2643  0.4490
  455TMC3    C1 6825   4.282   1.038  16.189 -0.0778  0.4356 -0.0603
  455TMC3    C2 6826   4.291   1.067  16.317  0.1390 -0.1581  0.5041
  455TMC3    C3 6827   4.180   1.051  16.390 -0.0406  0.0154 -0.6916
  455TMC3    C4 6828   4.156   0.996  16.137 -0.0740  0.3638 -0.0302
  455TMC3    C5 6829   4.051   0.957  16.217 -0.7040 -0.4875 -0.0328
  455TMC3    C6 6830   4.064   0.989  16.346 -0.9650  0.1563 -0.3349
  455TMC3     C 6831   4.401   0.976  16.127 -0.3379 -0.2602  0.3801
  455TMC3     O 6832   4.405   0.996  16.008 -0.0663  1.2449  0.5717
  455TMC3     H 6833   4.380   1.109  16.364  0.8508 -1.2666  0.1480
  455TMC3    H1 6834   4.164   0.958  16.036  1.1938  3.0041 -0.9168
  455TMC3    H2 6835   4.015   0.932  16.425  0.6228  0.5463  0.9191
  455TMC3    C7 6836   4.005   0.823  16.187 -0.4373 -0.3046  0.0007
  455TMC3    C8 6837   4.170   1.138  16.510  0.7967 -0.0739  0.2705
  455TMC3    O1 6838   4.059   0.758  16.096  0.0336  0.0835  0.2814
  455TMC3    O2 6839   4.278   1.183  16.554  0.7670  0.1567 -0.3287
  456MPD2     C 6840   2.444   0.706  16.098  0.5925  0.3206  0.1507
  456MPD2    C1 6841   2.440   0.632  16.213  0.3629  0.4479 -0.7397
  456MPD2    C2 6842   2.399   0.690  16.327  0.8660 -1.0622  0.3272
  456MPD2    C3 6843   2.373   0.822  16.331 -0.1457  0.0933  0.1887
  456MPD2    C4 6844   2.362   0.891  16.211 -0.2813 -0.5306  0.2441
  456MPD2    C5 6845   2.401   0.832  16.095 -0.3227  0.1554 -0.2413
  456MPD2     H 6846   2.393   0.636  16.420 -0.2004 -0.4367  0.6189
  456MPD2    H1 6847   2.323   0.991  16.198  1.7102 -0.0470 -2.0958
  456MPD2    H2 6848   2.470   0.659  16.003  1.7800  0.9889  0.1483
  456MPD2    H3 6849   2.394   0.875  15.996  2.7017 -0.6768 -0.7957
  456MPD2     N 6850   2.339   0.877  16.460 -0.2484 -0.2409  0.0195
  456MPD2    H5 6851   2.327   0.809  16.535  0.4551 -1.2941 -0.8273
  456MPD2    N1 6852   2.475   0.496  16.201 -0.0442 -0.2423 -0.0878
  456MPD2    H7 6853   2.504   0.475  16.106 -0.8928  4.8249 -1.4707
  457TMC3    C1 6854   2.236   1.014  16.618 -0.1536  0.2355  0.4298
  457TMC3    C2 6855   2.141   1.114  16.634 -0.3430 -0.7063 -0.0525
  457TMC3    C3 6856   2.078   1.120  16.752  0.4569  0.2195 -0.7042
  457TMC3    C4 6857   2.264   0.919  16.722 -0.2055  0.2493 -0.1687
  457TMC3    C5 6858   2.204   0.936  16.840 -0.4500 -0.4566  0.1207
  457TMC3    C6 6859   2.107   1.033  16.855 -0.1173  0.9302 -0.2813
  457TMC3     C 6860   2.307   1.006  16.490 -0.1770  0.7762 -0.4034
  457TMC3     O 6861   2.293   1.102  16.415 -0.4578 -0.2647  0.3937
  457TMC3     H 6862   2.132   1.187  16.555  2.0611  0.7179  0.9863
  457TMC3    H1 6863   2.354   0.859  16.724  0.9355  1.9160 -1.4097
  457TMC3    H2 6864   2.041   1.025  16.940 -1.9363  0.4925 -1.7126
  457TMC3    C7 6865   2.254   0.871  16.961 -0.2057  0.0817  0.0050
  457TMC3    C8 6866   2.052   1.246  16.811  0.3420 -0.0990 -0.0861
  457TMC3    O1 6867   2.319   0.771  16.940 -0.0588 -0.3835  0.7571
  457TMC3    O2 6868   2.066   1.250  16.929  0.4923  0.6963 -0.7089
  458MPD2     C 6869   4.543   4.564  12.590  0.4647 -0.5380 -0.3247
  458MPD2    C1 6870   4.506   4.508  12.714 -1.0664  0.0511 -0.0106
  458MPD2    C2 6871   4.384   4.544  12.766  1.0243 -0.4004  0.0434
  458MPD2    C3 6872   4.295   4.623  12.705  0.2250 -0.0453 -0.0053
  458MPD2    C4 6873   4.323   4.677  12.582  0.1060  0.0941  0.6207
  458MPD2    C5 6874   4.445   4.647  12.527  0.4448 -1.0662  0.4985
  458MPD2     H 6875   4.361   4.510  12.866 -1.3783 -3.1148 -1.4391
  458MPD2    H1 6876   4.254   0.001  12.525  0.5453 -0.1258 -0.1472
  458MPD2    H2 6877   4.639   4.543  12.543  0.3305 -1.8223 -0.0187
  458MPD2    H3 6878   4.466   4.702  12.435 -3.0193 -0.6360 -0.0448
  458MPD2     N 6879   4.171   4.636  12.766 -0.7222  0.5043  0.6091
  458MPD2    H5 6880   4.146   4.576  12.844 -1.5179  2.1090  1.5955
  458MPD2    N1 6881   4.601   4.430  12.773 -0.2589  0.1005 -0.8541
  458MPD2    H7 6882   4.681   4.410  12.715 -0.2851 -1.7437 -0.2534
  459TMC3    C1 6883   4.713   4.314  12.934  0.0904 -0.5502 -0.1351
  459TMC3    C2 6884   0.077   4.403  12.924  0.0341 -0.3748 -1.1768
  459TMC3    C3 6885   0.181   4.389  13.009 -0.2382  0.3670  0.3841
  459TMC3    C4 6886   4.708   4.216  13.031  0.6391  0.4299 -0.0122
  459TMC3    C5 6887   0.087   4.194  13.100 -0.3256 -0.2996 -0.0827
  459TMC3    C6 6888   0.188   4.288  13.101  0.9821  0.1438 -0.0146
  459TMC3     C 6889   4.586   4.362  12.892 -0.1424 -0.3803 -0.2296
  459TMC3     O 6890   4.489   4.358  12.965  0.2273 -0.5268  0.1553
  459TMC3     H 6891   0.081   4.484  12.852  1.0126  0.7539  0.1586
  459TMC3    H1 6892   4.618   4.156  13.040  0.3172  1.3816  2.8633
  459TMC3    H2 6893   0.280   4.289  13.158 -0.7694  1.3640  2.8331
  459TMC3    C7 6894   0.089   4.127  13.227 -0.6708 -0.5328 -0.2634
  459TMC3    C8 6895   0.287   4.497  13.007  0.1465 -0.2876  0.4188
  459TMC3    O1 6896   0.162   4.178  13.307  0.2108 -0.2744 -0.3485
  459TMC3    O2 6897   0.389   4.462  13.065  0.0740 -0.2934 -0.5409
  460MPD2     C 6898   4.236   2.736  10.754 -0.5638  0.0688 -0.3514
  460MPD2    C1 6899   4.111   2.677  10.741  0.2238  0.3748  0.2800
  460MPD2    C2 6900   3.995   2.742  10.697  0.0318 -0.3095  0.3213
  460MPD2    C3 6901   4.007   2.873  10.663  0.5532  0.3837  0.0991
  460MPD2    C4 6902   4.132   2.939  10.691 -0.2508  0.4574  0.2535
  460MPD2    C5 6903   4.243   2.870  10.732  0.1902  1.0179 -0.0248
  460MPD2     H 6904   3.899   2.697  10.677 -0.2084 -0.4837  1.8498
  460MPD2    H1 6905   4.147   3.046  10.684  0.8948  0.3711  1.3994
  460MPD2    H2 6906   4.321   2.679  10.791 -1.0331 -0.2625  0.2120
  460MPD2    H3 6907   4.334   2.927  10.749  1.8556 -1.4832 -0.5409
  460MPD2     N 6908   3.888   2.940  10.619 -0.1213 -0.1070  0.5728
  460MPD2    H5 6909   3.803   2.885  10.615  0.8548 -1.5421 -0.3649
  460MPD2    N1 6910   4.116   2.542  10.785  0.2390 -0.4588 -0.1953
  460MPD2    H7 6911   4.201   2.506  10.828 -0.5117 -1.0414  0.8167
  461TMC3    C1 6912   3.765   3.097  10.489 -0.9772 -0.3380 -0.1855
  461TMC3    C2 6913   3.673   3.002  10.455 -0.6149  0.1177  0.6112
  461TMC3    C3 6914   3.565   3.046  10.381  0.0126 -0.2436 -0.1096
  461TMC3    C4 6915   3.765   3.221  10.441 -0.7170 -0.6114 -0.1034
  461TMC3    C5 6916   3.660   3.255  10.362 -0.1669  0.3663 -0.5170
  461TMC3    C6 6917   3.558   3.170  10.340  0.2419 -0.2277  0.1221
  461TMC3     C 6918   3.883   3.072  10.579  0.2177 -0.1799  0.7916
  461TMC3     O 6919   3.965   3.160  10.595  0.2804  0.0895 -0.1320
  461TMC3     H 6920   3.667   2.903  10.497  0.6904  0.1764  0.9231
  461TMC3    H1 6921   3.838   3.296  10.469  0.5813 -3.1200  3.2783
  461TMC3    H2 6922   3.484   3.217  10.276 -0.3405 -1.5849 -0.2186
  461TMC3    C7 6923   3.679   3.364  10.261 -0.0425 -0.1153 -0.6099
  461TMC3    C8 6924   3.443   2.963  10.362  0.6080 -1.2010 -0.1045
  461TMC3    O1 6925   3.588   3.428  10.217  0.1878 -0.6031 -0.2264
  461TMC3    O2 6926   3.341   3.019  10.331 -0.0816 -0.1986  0.7499
  462TMC3    C1 6927   4.027   4.114   0.635  0.5089 -1.0379  0.1679
  462TMC3    C2 6928   4.154   4.077   0.669  0.6314  0.3130 -0.1683
  462TMC3    C3 6929   4.189   3.947   0.643  0.1450 -0.6851 -0.3754
  462TMC3    C4 6930   3.922   4.037   0.595  0.0173  0.3212  0.2642
  462TMC3    C5 6931   3.966   3.906   0.578  0.2179  0.7296  0.5937
  462TMC3    C6 6932   4.093   3.864   0.600  0.3532 -0.0311  0.2811
  462TMC3     C 6933   3.986   4.253   0.640  0.4593 -0.1001  0.4157
  462TMC3     O 6934   3.874   4.277   0.599  0.4735  0.3425 -0.4892
  462TMC3     H 6935   4.232   4.146   0.698  0.8580 -0.5110  1.2405
  462TMC3    H1 6936   3.823   4.076   0.572  0.1377  1.5793  1.8501
  462TMC3    H2 6937   4.120   3.763   0.570  0.6796  0.4041 -0.8721
  462TMC3    C7 6938   3.883   3.807   0.519 -0.1676 -0.0751  0.1977
  462TMC3    C8 6939   4.329   3.927   0.611  0.2635  0.5876 -0.8511
  462TMC3    O1 6940   3.898   3.692   0.558  0.3044 -0.4315  0.0598
  462TMC3    O2 6941   4.412   3.977   0.684  0.1704 -0.3087 -0.7763
  463MPD2     C 6942   4.583   2.038   1.014  0.4730 -0.2557 -0.3856
  463MPD2    C1 6943   4.665   2.090   1.110  0.5870  0.2257  0.1658
  463MPD2    C2 6944   0.050   2.141   1.071  0.3855 -0.3435  0.1935
  463MPD2    C3 6945   0.099   2.130   0.937  0.0960  0.1123  0.3752
  463MPD2    C4 6946   0.017   2.060   0.846 -0.7272 -0.2094 -0.3875
  463MPD2    C5 6947   4.631   2.020   0.886  0.4999 -0.3460 -0.5759
  463MPD2     H 6948   0.111   2.191   1.145 -0.0327 -0.0049  0.3105
  463MPD2    H1 6949   0.052   2.051   0.744  0.3251 -2.0960  0.1352
  463MPD2    H2 6950   4.485   1.995   1.031  1.2001 -0.4679  3.1306
  463MPD2    H3 6951   4.555   1.978   0.821 -0.0576 -0.5550  0.2082
  463MPD2     N 6952   0.219   2.184   0.896 -0.3539 -0.6326  0.1854
  463MPD2    H5 6953   0.233   2.176   0.795 -0.9453  1.0445 -0.0157
  463MPD2    N1 6954   4.636   2.099   1.245 -0.5336  0.0779  0.5321
  463MPD2    H7 6955   4.708   2.129   1.311  0.6344 -0.7982 -0.3494
  464TMC3    C1 6956   4.493   2.112   1.435 -0.5225 -0.5618  0.1922
  464TMC3    C2 6957   4.520   2.241   1.474 -0.1832  0.3729 -0.3009
  464TMC3    C3 6958   4.457   2.302   1.575  0.3178  0.1499  0.5068
  464TMC3    C4 6959   4.385   2.050   1.490 -0.1320 -0.0323  0.7438
  464TMC3    C5 6960   4.321   2.112   1.596 -0.2664 -0.1568 -0.4149
  464TMC3    C6 6961   4.359   2.238   1.639  0.5590 -0.3492 -0.2812
  464TMC3     C 6962   4.514   2.066   1.296 -0.2984  0.0289  0.2837
  464TMC3     O 6963   4.409   2.035   1.240 -0.1899  1.0608 -0.0013
  464TMC3     H 6964   4.611   2.276   1.427  0.0674 -2.1386 -1.7165
  464TMC3    H1 6965   4.345   1.953   1.461  1.8024 -0.5570 -0.1352
  464TMC3    H2 6966   4.304   2.288   1.718 -0.5741 -0.2490 -1.1367
  464TMC3    C7 6967   4.189   2.066   1.634  0.4784  0.0015  1.1325
  464TMC3    C8 6968   4.473   2.442   1.580 -0.1667  0.0307  0.0443
  464TMC3    O1 6969   4.165   2.065   1.753 -0.6134  0.4567  0.8450
  464TMC3    O2 6970   4.551   2.496   1.507  0.2913  0.5658  0.3123
  465MPD2     C 6971   1.486   0.744  16.651 -0.1610  0.2405  0.2650
  465MPD2    C1 6972   1.352   0.714  16.684 -0.0416  0.1968 -0.2569
  465MPD2    C2 6973   1.249   0.729  16.591  0.4939  0.4712 -0.1066
  465MPD2    C3 6974   1.274   0.777  16.458  0.0936 -0.0870  0.4389
  465MPD2    C4 6975   1.410   0.816  16.432 -0.0039  0.4904  0.0810
  465MPD2    C5 6976   1.509   0.789  16.523 -0.1566 -0.2826 -0.0976
  465MPD2     H 6977   1.155   0.682  16.618  0.7247  0.6884  1.0935
  465MPD2    H1 6978   1.433   0.855  16.334 -0.6205 -0.3242 -0.3918
  465MPD2    H2 6979   1.572   0.725  16.712  0.0060  0.5632  0.1321
  465MPD2    H3 6980   1.612   0.813  16.500  0.7974 -2.6916  1.7279
  465MPD2     N 6981   1.166   0.791  16.372  0.0978 -0.5716 -0.1288
  465MPD2    H5 6982   1.078   0.768  16.417 -0.2200 -0.9961 -0.9687
  465MPD2    N1 6983   1.327   0.667  16.811 -0.4767  0.0134  0.3563
  465MPD2    H7 6984   1.235   0.681  16.851 -0.2096 -0.5899  1.1728
  466TMC3    C1 6985   0.814   0.798  16.179 -0.3840 -0.4059 -0.1616
  466TMC3    C2 6986   0.761   0.925  16.197 -0.8956  0.1865 -0.1125
  466TMC3    C3 6987   0.846   1.027  16.207 -0.7031 -0.3805  0.7358
  466TMC3    C4 6988   0.951   0.775  16.194  0.2064 -0.2564 -0.0925
  466TMC3    C5 6989   1.034   0.886  16.201  0.4597 -0.0175  0.0522
  466TMC3    C6 6990   0.979   1.012  16.199 -0.2775 -0.1689 -0.2596
  466TMC3     C 6991   0.734   0.680  16.127  0.5751 -0.0134 -0.4489
  466TMC3     O 6992   0.755   0.658  16.011  0.0213  0.2975 -0.4154
  466TMC3     H 6993   0.654   0.942  16.196 -0.5862  2.2082  2.0286
  466TMC3    H1 6994   0.992   0.675  16.190  1.4369  0.2772 -1.0469
  466TMC3    H2 6995   1.047   1.095  16.216  0.2589 -0.9867  1.6462
  466TMC3    C7 6996   1.163   0.875  16.266  0.2652 -0.3176  0.2206
  466TMC3    C8 6997   0.802   1.164  16.194  0.2616 -0.0300  0.1361
  466TMC3    O1 6998   1.243   0.957  16.226 -0.6538  0.6510  0.3518
  466TMC3    O2 6999   0.892   1.243  16.181  0.8049 -0.4828  0.2374
  467TMC3    C1 7000   2.326   3.953  13.975 -0.3714  0.1817 -0.9582
  467TMC3    C2 7001   2.354   4.081  13.952  0.3106 -0.3651  0.3071
  467TMC3    C3 7002   2.257   4.152  13.895 -0.2081 -1.0965 -0.2008
  467TMC3    C4 7003   2.205   3.892  13.940  0.0326  0.8467  0.6612
  467TMC3    C5 7004   2.102   3.972  13.894 -0.3952 -0.3844  0.5607
  467TMC3    C6 7005   2.130   4.106  13.881 -0.3044  0.2334 -0.0482
  467TMC3     C 7006   2.440   3.880  14.021 -0.5103  0.1660 -0.4612
  467TMC3     O 7007   2.507   3.951  14.092  0.0167 -0.2416 -0.3765
  467TMC3     H 7008   2.456   4.118  13.962  0.5927 -0.1644 -3.2528
  467TMC3    H1 7009   2.194   3.784  13.945  0.3970  0.7491 -0.5739
  467TMC3    H2 7010   2.057   4.169  13.832 -0.6921 -1.1737 -1.3058
  467TMC3    C7 7011   1.982   3.914  13.848  0.1610 -0.6015  0.0650
  467TMC3    C8 7012   2.292   4.289  13.844  0.8200 -0.3887 -0.2058
  467TMC3    O1 7013   1.918   3.981  13.767  0.1152  0.0333 -0.0828
  467TMC3    O2 7014   2.199   4.364  13.852  0.4038  0.0941  0.0278
  468MPD2     C 7015   0.706   2.885  10.804  0.4264 -0.4472 -0.2343
  468MPD2    C1 7016   0.833   2.857  10.857  0.3947 -0.0666  0.1882
  468MPD2    C2 7017   0.865   2.725  10.861 -0.1382 -0.0522 -1.4416
  468MPD2    C3 7018   0.781   2.625  10.837 -0.4080 -0.1199 -0.9193
  468MPD2    C4 7019   0.657   2.652  10.781  0.0664  0.6518 -0.2770
  468MPD2    C5 7020   0.625   2.786  10.757 -0.1972 -0.6246 -0.2799
  468MPD2     H 7021   0.965   2.708  10.898  0.3912  0.9837 -2.3869
  468MPD2    H1 7022   0.586   2.571  10.772 -0.1365  0.9333 -1.2090
  468MPD2    H2 7023   0.678   2.990  10.801  0.7380 -0.3942 -1.0691
  468MPD2    H3 7024   0.524   2.803  10.722 -0.0158 -0.6374 -0.8076
  468MPD2     N 7025   0.809   2.490  10.872 -0.1407  0.2563 -0.0238
  468MPD2    H5 7026   0.735   2.422  10.858 -0.0697 -0.4512  2.9059
  468MPD2    N1 7027   0.917   2.942  10.928 -0.4344 -0.1308  0.3764
  468MPD2    H7 7028   0.990   2.901  10.986  0.7521  0.5666 -0.6246
  469TMC3    C1 7029   0.986   3.137  11.038  0.5368 -0.2024 -0.8448
  469TMC3    C2 7030   1.122   3.095  11.039  0.4086  0.2624  0.4000
  469TMC3    C3 7031   1.196   3.112  11.152  0.9210 -0.1106 -0.1544
  469TMC3    C4 7032   0.933   3.197  11.153  0.2741 -0.6203  0.0126
  469TMC3    C5 7033   1.011   3.209  11.266 -0.5970  0.1611 -0.2827
  469TMC3    C6 7034   1.141   3.167  11.265  0.7409  0.5992 -0.2044
  469TMC3     C 7035   0.893   3.077  10.952 -0.8172 -0.0061 -0.5425
  469TMC3     O 7036   0.795   3.142  10.925 -0.8002 -0.0004 -0.4364
  469TMC3     H 7037   1.167   3.034  10.961 -1.3644 -1.0154  0.3812
  469TMC3    H1 7038   0.826   3.210  11.164  0.3653  0.9092 -0.9825
  469TMC3    H2 7039   1.211   3.168  11.347  1.1446 -0.6429 -0.5337
  469TMC3    C7 7040   0.950   3.249  11.394  0.3394  0.1312 -0.3984
  469TMC3    C8 7041   1.340   3.079  11.142  0.7366 -0.6984  0.6656
  469TMC3    O1 7042   0.844   3.308  11.384  0.0705  0.3779  0.9750
  469TMC3    O2 7043   1.388   3.090  11.031  0.3171  0.0795  0.7758
  470TMC3    C1 7044   3.422   3.540   0.787  0.2182 -0.2911 -0.2812
  470TMC3    C2 7045   3.461   3.662   0.833 -0.2755  0.0250  0.4167
  470TMC3    C3 7046   3.596   3.684   0.830  0.4668 -0.2984 -0.3135
  470TMC3    C4 7047   3.504   3.445   0.743  0.3549 -0.0501 -0.3358
  470TMC3    C5 7048   3.640   3.469   0.743 -0.0570 -0.0110  0.0948
  470TMC3    C6 7049   3.690   3.591   0.786 -0.4567 -0.0966  0.1785
  470TMC3     C 7050   3.283   3.510   0.820 -0.1576 -0.6226  0.3530
  470TMC3     O 7051   3.230   3.584   0.902 -0.3593  0.3036  0.0900
  470TMC3     H 7052   3.389   3.741   0.850 -0.1052  0.2297  0.1964
  470TMC3    H1 7053   3.476   3.345   0.711  2.4938  0.6409 -4.3636
  470TMC3    H2 7054   3.791   3.619   0.757  0.3263 -3.6343 -0.5515
  470TMC3    C7 7055   3.727   3.359   0.756 -0.2463  0.5371  0.4665
  470TMC3    C8 7056   3.642   3.814   0.869 -0.0531  0.2599  0.4927
  470TMC3    O1 7057   3.686   3.250   0.715 -0.5265  0.1639 -0.1606
  470TMC3    O2 7058   3.553   3.880   0.920 -0.5006  0.1205 -0.5199
  471MPD2     C 7059   4.133   0.037  16.597 -0.1891 -0.3068 -0.4382
  471MPD2    C1 7060   4.100   4.644  16.626 -0.6370 -0.7664  0.2780
  471MPD2    C2 7061   4.152   4.589  16.743  0.2727  0.5049  0.3328
  471MPD2    C3 7062   4.241   4.661  16.827  0.3626 -0.2596 -0.3012
  471MPD2    C4 7063   4.271   0.055  16.800  0.5858  0.2610  0.6426
  471MPD2    C5 7064   4.227   0.103  16.676  0.8076 -0.1366  0.6020
  471MPD2     H 7065   4.119   4.490  16.773  0.3153  1.3268  3.1324
  471MPD2    H1 7066   4.340   0.107  16.866  1.1941 -0.3593  0.4853
  471MPD2    H2 7067   4.114   0.074  16.497  0.8399  2.3713  0.3679
  471MPD2    H3 7068   4.242   0.207  16.650 -0.0940 -0.4162 -0.9906
  471MPD2     N 7069   4.300   4.587  16.934  0.8615 -0.0674 -0.1807
  471MPD2    H5 7070   4.272   4.490  16.942  0.2212  0.0602 -0.9858
  471MPD2    N1 7071   4.020   4.561  16.536  0.1551 -0.9413 -0.8523
  471MPD2    H7 7072   4.020   4.462  16.558  0.2531 -0.9919 -1.0795
  472TMC3    C1 7073   3.864   4.516  16.362  0.6335  0.0289  0.3114
  472TMC3    C2 7074   3.757   4.549  16.294  0.7816  0.1157 -0.2089
  472TMC3    C3 7075   3.673   4.453  16.258  0.1477 -0.0537 -0.2224
  472TMC3    C4 7076   3.907   4.385  16.356  0.8496 -0.5311 -0.8692
  472TMC3    C5 7077   3.824   4.289  16.295 -0.0670 -0.4935  0.4752
  472TMC3    C6 7078   3.698   4.317  16.251 -0.1528  0.1227  0.1224
  472TMC3     C 7079   3.934   4.615  16.442 -0.6096  0.5812  0.4775
  472TMC3     O 7080   3.906   4.732  16.414 -0.5131  0.7304  0.7076
  472TMC3     H 7081   3.732   4.654  16.290 -0.4421 -0.1379  0.6539
  472TMC3    H1 7082   3.999   4.353  16.403  1.0156  1.7081  0.3181
  472TMC3    H2 7083   3.626   4.245  16.214 -2.2045  1.9784  0.4393
  472TMC3    C7 7084   3.870   4.154  16.291  0.1291  0.4964 -0.3620
  472TMC3    C8 7085   3.547   4.493  16.197  0.0763 -0.1017 -0.1216
  472TMC3    O1 7086   3.949   4.115  16.373 -0.2134  0.6871  0.1943
  472TMC3    O2 7087   3.544   4.595  16.131 -0.5750 -1.0092 -0.2454
  473MPD2     C 7088   3.198   1.248  13.121 -0.3980  0.0963 -0.4297
  473MPD2    C1 7089   3.131   1.362  13.094 -0.1327  0.1876  0.6481
  473MPD2    C2 7090   3.125   1.463  13.191 -0.1220 -0.3721  1.1083
  473MPD2    C3 7091   3.179   1.457  13.318 -0.3363 -0.5898  0.3669
  473MPD2    C4 7092   3.238   1.336  13.346  0.4392  0.6057 -0.2146
  473MPD2    C5 7093   3.241   1.241  13.255  0.5897  0.8885 -0.0302
  473MPD2     H 7094   3.078   1.555  13.159 -0.0329 -0.4176  0.8448
  473MPD2    H1 7095   3.295   1.323  13.437  1.2935 -0.7132 -0.9445
  473MPD2    H2 7096   3.213   1.158  13.063  3.7638  0.8367 -0.4689
  473MPD2    H3 7097   3.271   1.143  13.290 -1.0754 -0.1568 -1.4856
  473MPD2     N 7098   3.204   1.565  13.398 -0.2749 -0.5294  0.3687
  473MPD2    H5 7099   3.245   1.550  13.489  0.6098  0.1185  0.0791
  473MPD2    N1 7100   3.082   1.379  12.966  0.0891  0.0420  0.0297
  473MPD2    H7 7101   3.022   1.460  12.957  0.0038  0.1942  1.9101
  474TMC3    C1 7102   3.220   1.793  13.459  0.1439 -0.5960 -0.9759
  474TMC3    C2 7103   3.208   1.927  13.421 -0.2485 -0.5869 -0.2883
  474TMC3    C3 7104   3.238   2.024  13.508 -0.2486 -0.1775 -0.1063
  474TMC3    C4 7105   3.244   1.760  13.592 -0.2552 -0.2068 -0.6319
  474TMC3    C5 7106   3.261   1.865  13.678 -0.1847  0.4103  0.3611
  474TMC3    C6 7107   3.261   1.997  13.645 -0.3519  0.8515  0.5165
  474TMC3     C 7108   3.176   1.700  13.363  1.0572  0.6474 -0.4651
  474TMC3     O 7109   3.114   1.738  13.263 -0.2781  0.6388  0.9207
  474TMC3     H 7110   3.193   1.950  13.316 -1.1355 -1.8637 -0.4297
  474TMC3    H1 7111   3.210   1.663  13.628  1.4453  0.0549  1.6862
  474TMC3    H2 7112   3.275   2.070  13.724  0.6932 -0.5022  1.5813
  474TMC3    C7 7113   3.217   1.829  13.810 -0.0176  0.0622  0.9153
  474TMC3    C8 7114   3.292   2.147  13.453 -0.3188 -0.0686  0.0952
  474TMC3    O1 7115   3.155   1.725  13.821 -0.0161  0.1102  0.0027
  474TMC3    O2 7116   3.274   2.158  13.335 -0.1111  0.2989  0.2949
  475MPD2     C 7117   2.140   0.530  10.202 -0.5884 -0.1592 -0.2773
  475MPD2    C1 7118   2.119   0.597  10.319 -0.2289  0.2411 -0.0341
  475MPD2    C2 7119   1.993   0.598  10.382 -0.8722  0.0063  0.0830
  475MPD2    C3 7120   1.884   0.538  10.324  0.4085  0.0256 -0.2813
  475MPD2    C4 7121   1.908   0.473  10.209 -0.2165  0.4895 -0.6127
  475MPD2    C5 7122   2.031   0.469  10.149  0.1409 -0.1035 -0.5330
  475MPD2     H 7123   1.974   0.657  10.470 -3.0476 -0.2686 -0.2226
  475MPD2    H1 7124   1.824   0.423  10.161 -1.4330  1.6980  0.2325
  475MPD2    H2 7125   2.236   0.528  10.152 -0.9293 -2.9662 -0.8251
  475MPD2    H3 7126   2.042   0.428  10.049 -0.4987 -0.2502 -0.5394
  475MPD2     N 7127   1.754   0.561  10.379 -0.3069  0.4304 -0.5721
  475MPD2    H5 7128   1.740   0.628  10.454  0.5412 -1.6504  1.4412
  475MPD2    N1 7129   2.226   0.666  10.382 -0.0727  0.1043 -0.3644
  475MPD2    H7 7130   2.225   0.678  10.483 -2.0173 -2.9323 -0.0072
  476TMC3    C1 7131   2.394   0.803  10.408  0.1329 -0.1255  0.0854
  476TMC3    C2 7132   2.373   0.934  10.376 -0.3633  0.2219 -1.1123
  476TMC3    C3 7133   2.337   1.015  10.478 -0.1227  0.4523  0.4486
  476TMC3    C4 7134   2.391   0.759  10.541 -0.7073 -0.0819  0.3931
  476TMC3    C5 7135   2.365   0.848  10.638  0.0220  0.0550 -0.5212
  476TMC3    C6 7136   2.343   0.977  10.613  1.2383 -0.3768 -0.4220
  476TMC3     C 7137   2.332   0.716  10.317 -0.8132  0.0501 -0.1600
  476TMC3     O 7138   2.350   0.749  10.203  0.0241 -0.1929  0.3984
  476TMC3     H 7139   2.374   0.972  10.275  1.6124 -2.5343 -2.1471
  476TMC3    H1 7140   2.407   0.655  10.568 -0.6345 -0.5413 -1.4234
  476TMC3    H2 7141   2.305   1.046  10.689 -2.7992 -2.7018 -0.3285
  476TMC3    C7 7142   2.309   0.779  10.751  0.8183  0.0932 -0.8653
  476TMC3    C8 7143   2.208   1.079  10.453 -0.1376  0.4307 -0.0940
  476TMC3    O1 7144   2.238   0.680  10.728  0.7179 -0.1148  0.4729
  476TMC3    O2 7145   2.178   1.168  10.530  0.6087  0.1614 -1.0842
  477MPD2     C 7146   4.715   1.775  11.810 -0.3372 -0.0682  0.3680
  477MPD2    C1 7147   4.619   1.695  11.745  0.5131 -0.0365 -0.4564
  477MPD2    C2 7148   4.604   1.562  11.796 -0.3812 -0.3149 -0.1444
  477MPD2    C3 7149   4.673   1.520  11.901  0.6334  0.4940  0.2774
  477MPD2    C4 7150   0.025   1.605  11.962  0.5792 -0.2612  0.3427
  477MPD2    C5 7151   0.048   1.728  11.914 -0.0976 -0.4318  0.3880
  477MPD2     H 7152   4.542   1.491  11.742 -2.0162  1.5515 -0.7157
  477MPD2    H1 7153   0.067   1.576  12.058 -0.5773 -3.3004 -0.0727
  477MPD2    H2 7154   0.004   1.876  11.778 -0.5347 -0.8840 -2.4156
  477MPD2    H3 7155   0.106   1.801  11.969  1.4567 -1.8251  0.5926
  477MPD2     N 7156   4.648   1.383  11.935 -0.0465 -0.0315 -0.1752
  477MPD2    H5 7157   4.585   1.340  11.869 -0.6298 -1.6606  1.4617
  477MPD2    N1 7158   4.558   1.743  11.630  0.8813  0.7574 -0.0562
  477MPD2    H7 7159   4.562   1.844  11.615  1.4504  0.7970  0.3717
  478TMC3    C1 7160   4.394   1.754  11.460 -0.2558 -0.3425  0.0701
  478TMC3    C2 7161   4.384   1.890  11.474 -0.5428 -0.3353  0.5125
  478TMC3    C3 7162   4.309   1.962  11.381  0.2751 -0.3393  0.4096
  478TMC3    C4 7163   4.344   1.688  11.358 -0.6546  0.6113  0.0542
  478TMC3    C5 7164   4.271   1.761  11.267 -0.2328  0.1928 -0.0040
  478TMC3    C6 7165   4.251   1.901  11.276  0.1042  0.9826  0.1898
  478TMC3     C 7166   4.457   1.677  11.561  0.3911  0.3196  0.0034
  478TMC3     O 7167   4.428   1.555  11.565 -0.3724 -0.1011 -0.4350
  478TMC3     H 7168   4.431   1.938  11.559  1.5168 -1.7475  0.1683
  478TMC3    H1 7169   4.345   1.580  11.351  0.3473  0.5871  0.6388
  478TMC3    H2 7170   4.195   1.964  11.209  0.1933 -0.2840 -1.0721
  478TMC3    C7 7171   4.211   1.688  11.160  0.4441  0.0345 -0.3663
  478TMC3    C8 7172   4.235   2.055  11.459 -0.6417 -0.3009  0.0975
  478TMC3    O1 7173   4.253   1.580  11.119  0.2839  0.0358 -0.5012
  478TMC3    O2 7174   4.217   2.028  11.575  0.8667 -0.7072 -0.1342
  479MPD2     C 7175   3.388   3.807  15.250 -0.3619  0.2791  0.4882
  479MPD2    C1 7176   3.342   3.804  15.380  0.6063  0.0232  0.2924
  479MPD2    C2 7177   3.418   3.873  15.477  0.3082 -0.5514  1.1365
  479MPD2    C3 7178   3.533   3.942  15.448 -0.2960 -0.7210  0.0796
  479MPD2    C4 7179   3.572   3.940  15.312 -0.5332 -0.2790 -0.3114
  479MPD2    C5 7180   3.499   3.876  15.216 -0.1373  0.0074  0.1968
  479MPD2     H 7181   3.384   3.861  15.579 -1.8825 -0.1354  0.4745
  479MPD2    H1 7182   3.663   3.994  15.289 -0.9407 -0.1421 -1.5891
  479MPD2    H2 7183   3.335   3.761  15.168  0.1430  0.1404  0.2363
  479MPD2    H3 7184   3.529   3.868  15.113  1.2417 -3.3360  0.8781
  479MPD2     N 7185   3.627   3.982  15.546  0.1031 -0.2913 -0.2958
  479MPD2    H5 7186   3.722   4.002  15.516 -0.2789  0.6320 -0.8868
  479MPD2    N1 7187   3.218   3.742  15.400  0.3049 -0.5228  0.1306
  479MPD2    H7 7188   3.187   3.687  15.321  0.4193 -0.7301  0.2317
  480TMC3    C1 7189   3.303   4.000  15.887  0.4575 -0.0116 -0.3165
  480TMC3    C2 7190   3.215   4.073  15.819  0.5072 -0.2790 -0.4061
  480TMC3    C3 7191   3.250   4.133  15.702 -0.1425 -0.8499  0.6048
  480TMC3    C4 7192   3.433   3.984  15.846  0.5135 -0.0114  0.4471
  480TMC3    C5 7193   3.471   4.038  15.727  0.4673 -0.4314  0.5251
  480TMC3    C6 7194   3.381   4.117  15.658  1.0522  1.0891 -0.2082
  480TMC3     C 7195   3.257   3.879  15.952 -0.7741 -0.5097 -0.7044
  480TMC3     O 7196   3.311   3.851  16.054  0.2420  0.3656  0.6675
  480TMC3     H 7197   3.110   4.088  15.843  1.2421 -0.0811  2.6609
  480TMC3    H1 7198   3.493   3.910  15.898  0.7531 -0.9600 -1.1929
  480TMC3    H2 7199   3.417   4.160  15.565  0.0680  1.9725 -0.1884
  480TMC3    C7 7200   3.602   4.008  15.679 -0.2578  0.1598 -0.0891
  480TMC3    C8 7201   3.143   4.152  15.603 -0.5883 -0.7279 -0.2676
  480TMC3    O1 7202   3.688   4.017  15.764 -0.1900  0.3714 -0.1026
  480TMC3    O2 7203   3.031   4.180  15.639 -0.2270 -0.5335  0.7496
  481MPD2     C 7204   0.129   3.191  14.278 -0.3622 -0.3546 -0.1000
  481MPD2    C1 7205   0.042   3.086  14.249  0.2257  0.6186  0.4008
  481MPD2    C2 7206   0.021   2.986  14.341 -0.5584  0.4109  0.0100
  481MPD2    C3 7207   0.082   2.998  14.464  0.2474  0.1813  0.6162
  481MPD2    C4 7208   0.174   3.101  14.489  0.2681  0.0048  0.5197
  481MPD2    C5 7209   0.199   3.190  14.394 -0.0040  0.2882  0.5932
  481MPD2     H 7210   4.697   2.898  14.328  2.0779 -1.5353  0.5811
  481MPD2    H1 7211   0.235   3.094  14.578  0.8652 -2.4557 -0.0638
  481MPD2    H2 7212   0.123   3.282  14.218 -1.8707  1.4825  2.8248
  481MPD2    H3 7213   0.270   3.267  14.420  0.4682 -0.1288  0.5425
  481MPD2     N 7214   0.038   2.928  14.583  0.5238 -0.4303 -0.1796
  481MPD2    H5 7215   0.095   2.934  14.667  2.0442  1.0971 -1.3251
  481MPD2    N1 7216   4.706   3.100  14.133  0.2971  0.0138 -0.0567
  481MPD2    H7 7217   4.726   3.183  14.078  0.7375 -0.3335 -0.4225
  482TMC3    C1 7218   4.548   3.070  13.962  0.0415 -0.4660 -0.3330
  482TMC3    C2 7219   4.483   2.980  13.887  0.3779 -0.3921  0.1941
  482TMC3    C3 7220   4.379   3.021  13.808 -0.0355  0.3674  0.2639
  482TMC3    C4 7221   4.517   3.203  13.968 -0.5931  1.0034 -0.1969
  482TMC3    C5 7222   4.414   3.235  13.884 -0.1768 -1.0489  0.3263
  482TMC3    C6 7223   4.340   3.145  13.807  1.3066  0.1211 -0.5998
  482TMC3     C 7224   4.615   3.014  14.081  0.0247 -0.2345 -0.1219
  482TMC3     O 7225   4.599   2.898  14.117 -1.1222  0.3704 -0.0134
  482TMC3     H 7226   4.503   2.875  13.901  0.0418 -0.3384  1.0796
  482TMC3    H1 7227   4.566   3.272  14.037 -0.1443  0.6597 -0.1727
  482TMC3    H2 7228   4.235   3.159  13.786  0.7570 -1.1641  1.2638
  482TMC3    C7 7229   4.406   3.379  13.860  0.6422 -0.0638 -0.5424
  482TMC3    C8 7230   4.306   2.926  13.727  0.5375 -0.3212 -0.1424
  482TMC3    O1 7231   4.439   3.458  13.947  0.1518 -0.2424 -0.1234
  482TMC3    O2 7232   4.340   2.809  13.746 -0.0730 -0.0324  0.4668
  483TMC3    C1 7233   3.645   2.391   1.294  0.6857 -0.0055  0.2329
  483TMC3    C2 7234   3.673   2.496   1.214 -0.1215 -0.4518  0.1949
  483TMC3    C3 7235   3.738   2.482   1.098 -0.4417 -0.1177 -0.9188
  483TMC3    C4 7236   3.652   2.262   1.245 -0.2174  0.4146 -0.5127
  483TMC3    C5 7237   3.723   2.246   1.126  0.9265  0.5899 -0.1824
  483TMC3    C6 7238   3.770   2.354   1.058 -0.5843 -0.5112 -0.2178
  483TMC3     C 7239   3.503   2.409   1.333 -0.7429  0.4326 -0.3897
  483TMC3     O 7240   3.475   2.468   1.431  0.2007 -0.2177  0.6477
  483TMC3     H 7241   3.633   2.593   1.240 -0.2579 -0.9781  1.9177
  483TMC3    H1 7242   3.624   2.187   1.318 -1.2800  0.0897 -1.2509
  483TMC3    H2 7243   3.804   2.343   0.955  2.8750 -2.2312  1.1064
  483TMC3    C7 7244   3.676   2.148   1.038 -0.4146  0.1073  0.7733
  483TMC3    C8 7245   3.743   2.594   1.006  0.1887  0.0463 -0.1476
  483TMC3    O1 7246   3.722   2.148   0.921  0.2191  0.0544 -0.1530
  483TMC3    O2 7247   3.657   2.680   1.017  0.1717  0.0386 -0.0422
  484MPD2     C 7248   0.280   0.121  12.992 -0.5612  0.5580 -0.1601
  484MPD2    C1 7249   0.330   4.736  12.970  0.5081 -0.0528 -0.0523
  484MPD2    C2 7250   0.466   4.724  12.957 -0.7556 -0.1021  0.3848
  484MPD2    C3 7251   0.558   0.090  12.964 -0.5178  0.2681  0.8154
  484MPD2    C4 7252   0.502   0.217  12.988  0.4663 -0.0643  0.2961
  484MPD2    C5 7253   0.367   0.233  12.995 -0.3042  0.0943 -0.7787
  484MPD2     H 7254   0.505   4.626  12.931 -0.3292  0.6232 -1.7288
  484MPD2    H1 7255   0.557   0.308  13.006 -0.2443  0.2861  0.7234
  484MPD2    H2 7256   0.174   0.133  13.008 -0.3496  0.8671  1.0400
  484MPD2    H3 7257   0.327   0.331  13.020  0.2536 -0.4813  2.3546
  484MPD2     N 7258   0.696   0.085  12.960 -0.1222  0.0134 -0.2611
  484MPD2    H5 7259   0.744   0.174  12.968 -1.5867  0.6788  1.2182
  484MPD2    N1 7260   0.240   4.625  12.972 -1.1630 -0.4848 -0.3472
  484MPD2    H7 7261   0.140   4.634  12.957 -1.2928 -1.9240 -0.4386
  485TMC3    C1 7262   0.915   0.008  12.949  0.2311  0.1583 -0.4294
  485TMC3    C2 7263   1.005   4.644  12.979 -1.2617  0.0949 -1.2908
  485TMC3    C3 7264   1.142   4.681  12.997 -0.6290 -0.2551  0.6368
  485TMC3    C4 7265   0.956   0.130  12.918  0.7102  0.9191 -0.0599
  485TMC3    C5 7266   1.093   0.150  12.923  0.7534  0.3828  0.1324
  485TMC3    C6 7267   1.192   0.068  12.979  0.3641 -0.7126  0.2083
  485TMC3     C 7268   0.773   4.708  12.955 -0.3447  0.1582 -0.8595
  485TMC3     O 7269   0.728   4.594  12.968 -0.0931 -0.6095 -0.6324
  485TMC3     H 7270   0.971   4.542  12.971  0.4351 -0.3523 -2.7383
  485TMC3    H1 7271   0.882   0.203  12.889  0.0836  0.0434 -0.6686
  485TMC3    H2 7272   1.296   0.079  12.953  1.1022 -0.3282  3.3864
  485TMC3    C7 7273   1.132   0.211  12.796 -0.1787 -0.0243 -0.3318
  485TMC3    C8 7274   1.221   4.597  12.915  0.5381  0.1923 -0.1380
  485TMC3    O1 7275   1.082   0.323  12.772  0.0329 -0.0398 -0.4278
  485TMC3    O2 7276   1.182   4.570  12.802  0.1792 -0.0617 -0.2338
  486MPD2     C 7277   2.607   3.532  12.231 -0.2352 -0.0725 -0.3141
  486MPD2    C1 7278   2.637   3.575  12.359 -0.9061 -0.5858  0.4042
  486MPD2    C2 7279   2.587   3.698  12.401  0.6106  0.6429 -0.5030
  486MPD2    C3 7280   2.506   3.772  12.316  0.0535  0.5412  0.1669
  486MPD2    C4 7281   2.471   3.717  12.192 -0.2343  0.0147  0.4346
  486MPD2    C5 7282   2.527   3.609  12.145 -0.4936 -0.8255 -0.6784
  486MPD2     H 7283   2.615   3.748  12.493 -0.2789  0.7481 -0.2849
  486MPD2    H1 7284   2.407   3.774  12.126  1.1929  0.7554 -0.3207
  486MPD2    H2 7285   2.643   3.434  12.202  1.9930  1.3419 -2.3681
  486MPD2    H3 7286   2.508   3.563  12.049  0.3760 -0.7815 -0.8697
  486MPD2     N 7287   2.457   3.906  12.344  0.1148 -0.3480  0.3893
  486MPD2    H5 7288   2.415   3.962  12.270  1.6824  1.4707  0.8750
  486MPD2    N1 7289   2.703   3.495  12.455  0.3001  0.4494  0.3168
  486MPD2    H7 7290   2.735   3.403  12.427  0.1515  0.0395  1.4926
  487TMC3    C1 7291   2.777   3.399  12.643  0.4561 -0.1726  0.1735
  487TMC3    C2 7292   2.724   3.281  12.605 -0.8318  0.0536  0.2077
  487TMC3    C3 7293   2.777   3.166  12.655  0.0096 -0.8583 -0.3436
  487TMC3    C4 7294   2.879   3.408  12.734  0.0098 -0.6420 -0.0063
  487TMC3    C5 7295   2.929   3.297  12.791 -0.3827  0.4251 -0.1214
  487TMC3    C6 7296   2.884   3.174  12.743 -0.2778  0.2565  0.0607
  487TMC3     C 7297   2.722   3.520  12.588 -0.7419 -0.7703  0.7520
  487TMC3     O 7298   2.714   3.625  12.654  0.1476  0.4548  0.6825
  487TMC3     H 7299   2.642   3.270  12.536 -0.8892 -1.5139  0.5242
  487TMC3    H1 7300   2.898   3.505  12.779 -0.4046 -0.4967 -0.1387
  487TMC3    H2 7301   2.913   3.088  12.804  0.9690  1.3522  1.0175
  487TMC3    C7 7302   2.962   3.294  12.932  0.0157  0.6514  0.4420
  487TMC3    C8 7303   2.684   3.057  12.675 -1.0652  0.1561 -0.1071
  487TMC3    O1 7304   2.881   3.344  13.007 -0.5434  0.2112  0.4505
  487TMC3    O2 7305   2.568   3.089  12.672 -0.2844  0.0134  0.5841
  488MPD2     C 7306   3.027   0.792  16.614 -0.3348 -0.0018  0.8028
  488MPD2    C1 7307   3.018   0.927  16.614  0.0202  0.6971  0.3877
  488MPD2    C2 7308   2.998   0.996  16.727 -0.0849  0.0170  0.7293
  488MPD2    C3 7309   2.980   0.926  16.847 -0.6935  0.7475  0.1584
  488MPD2    C4 7310   3.009   0.789  16.850 -0.2132 -1.3931  0.0120
  488MPD2    C5 7311   3.037   0.729  16.727  0.1212  0.2715  0.1630
  488MPD2     H 7312   3.002   1.104  16.720  0.2017  0.0978  2.0391
  488MPD2    H1 7313   3.026   0.737  16.944  1.9274 -2.9725 -1.2556
  488MPD2    H2 7314   3.039   0.732  16.525 -0.7529 -0.7901  1.2772
  488MPD2    H3 7315   3.056   0.623  16.720 -1.3707  0.0241 -0.0068
  488MPD2     N 7316   2.941   1.007  16.961  0.9341  0.1866 -0.6618
  488MPD2    H5 7317   2.921   1.105  16.945 -0.2246  0.3660  1.8685
  488MPD2    N1 7318   3.033   1.007  16.506  0.0689 -0.2591  0.2584
  488MPD2    H7 7319   3.026   1.107  16.522 -1.1713 -0.2025 -0.5872
  489TMC3    C1 7320   2.878   1.054  17.181 -0.0270 -0.5829  0.3622
  489TMC3    C2 7321   2.926   1.182  17.167  0.5508  0.3578 -0.3323
  489TMC3    C3 7322   2.865   1.282  17.238 -0.4082 -0.1098 -0.7749
  489TMC3    C4 7323   2.797   1.018  17.281 -0.1074  0.0884  0.5116
  489TMC3    C5 7324   2.757   1.122  17.361  0.1824 -0.2466  0.5949
  489TMC3    C6 7325   2.778   1.256  17.336 -0.0265  0.8423 -0.0352
  489TMC3     C 7326   2.905   0.952  17.083  0.1117 -0.9869  0.0466
  489TMC3     O 7327   2.894   0.836  17.117  0.0227  0.2546 -0.4259
  489TMC3     H 7328   3.002   1.210  17.095  1.5532 -3.5826 -0.8150
  489TMC3    H1 7329   2.763   0.915  17.281 -0.7539  0.3001 -1.6142
  489TMC3    H2 7330   2.740   1.329  17.406 -2.2697 -1.3761  1.0698
  489TMC3    C7 7331   2.714   1.087  17.494 -0.1675 -0.1275 -1.1180
  489TMC3    C8 7332   2.910   1.418  17.210 -0.2296  0.0840  0.2984
  489TMC3    O1 7333   2.641   1.163  17.551  0.0284 -0.1478 -0.1027
  489TMC3    O2 7334   3.017   1.430  17.151  0.1463 -0.2033  0.2091
  490MPD2     C 7335   3.810   0.798  17.285  0.6160 -0.2626 -0.1739
  490MPD2    C1 7336   3.801   0.689  17.367  0.1584  0.2102  0.8122
  490MPD2    C2 7337   3.916   0.657  17.443 -0.2851  0.2539 -0.4183
  490MPD2    C3 7338   4.031   0.731  17.437 -0.2497  0.4997 -0.2431
  490MPD2    C4 7339   4.029   0.844  17.357  0.6648  0.5405  0.1127
  490MPD2    C5 7340   3.923   0.880  17.286 -0.2404 -0.4350 -0.5378
  490MPD2     H 7341   3.907   0.568  17.503 -0.2523  0.2816 -0.3730
  490MPD2    H1 7342   4.112   0.914  17.350 -1.2671  2.9735  1.8540
  490MPD2    H2 7343   3.726   0.819  17.220  1.0603  1.4452 -0.2036
  490MPD2    H3 7344   3.920   0.979  17.241 -0.2273  0.1861  0.8490
  490MPD2     N 7345   4.148   0.704  17.501 -0.3653  0.0226  0.2676
  490MPD2    H5 7346   4.235   0.751  17.476 -1.3011 -0.0996 -3.1497
  490MPD2    N1 7347   3.696   0.592  17.371 -0.7681 -0.6809  0.0971
  490MPD2    H7 7348   3.705   0.507  17.426 -1.3215 -0.2932  0.7817
  491TMC3    C1 7349   3.490   0.478  17.340 -0.3300 -0.3991  0.6924
  491TMC3    C2 7350   3.527   0.386  17.430 -0.2310 -1.2100 -0.0046
  491TMC3    C3 7351   3.433   0.292  17.457 -0.1556  0.1062 -0.8793
  491TMC3    C4 7352   3.381   0.462  17.258 -0.2884 -0.6531  0.6797
  491TMC3    C5 7353   3.288   0.370  17.299  0.1704  0.4592 -0.1820
  491TMC3    C6 7354   3.307   0.296  17.407 -0.7132  0.2517  0.7670
  491TMC3     C 7355   3.577   0.590  17.298 -0.1420 -0.8776  0.4154
  491TMC3     O 7356   3.537   0.680  17.221 -0.1298  0.1658  0.6105
  491TMC3     H 7357   3.623   0.381  17.481 -2.2007 -0.6156  3.7612
  491TMC3    H1 7358   3.359   0.517  17.168  0.8924 -0.2019  0.6629
  491TMC3    H2 7359   3.237   0.215  17.427 -1.6589  0.8774  0.0265
  491TMC3    C7 7360   3.212   0.308  17.192  0.4501 -0.0430 -0.1416
  491TMC3    C8 7361   3.462   0.192  17.562 -0.1998 -0.0616 -0.0091
  491TMC3    O1 7362   3.201   0.187  17.194  0.0542 -0.1376  0.0673
  491TMC3    O2 7363   3.368   0.129  17.613  0.0477  0.7709 -0.1138
  492MPD2     C 7364   3.263   4.654  10.994 -0.5031  0.2613 -0.0552
  492MPD2    C1 7365   3.339   4.728  11.074  0.1730  0.0624  0.4893
  492MPD2    C2 7366   3.334   4.719  11.212 -0.0434  0.6686 -0.6703
  492MPD2    C3 7367   3.231   4.643  11.269 -0.2603  0.3421 -0.1786
  492MPD2    C4 7368   3.152   4.565  11.182  0.5982  0.1057 -0.0218
  492MPD2    C5 7369   3.164   4.578  11.044  0.6829 -0.6579  0.3327
  492MPD2     H 7370   3.399   0.038  11.278 -1.8155  0.9903  0.8195
  492MPD2    H1 7371   3.069   4.503  11.215  0.7327  0.1587  0.4140
  492MPD2    H2 7372   3.280   4.658  10.887 -0.0282  0.4499  0.0266
  492MPD2    H3 7373   3.093   4.527  10.980  1.2931 -0.1542 -0.7371
  492MPD2     N 7374   3.205   4.628  11.407 -0.0795  0.3433  0.3419
  492MPD2    H5 7375   3.130   4.564  11.430  0.8753 -0.8568  0.1214
  492MPD2    N1 7376   3.429   0.081  11.010  0.2864 -0.6657 -0.0146
  492MPD2    H7 7377   3.421   0.109  10.913 -1.6916  0.5696  0.5018
  493TMC3    C1 7378   3.590   0.232  10.982 -0.2432  0.7018 -0.0356
  493TMC3    C2 7379   3.724   0.254  10.976 -0.1793  0.4208 -0.0993
  493TMC3    C3 7380   3.773   0.363  10.907 -0.6226  0.2844 -0.0440
  493TMC3    C4 7381   3.502   0.320  10.924  0.6061 -0.1118  0.2958
  493TMC3    C5 7382   3.553   0.429  10.863 -0.0138  0.0023  0.0396
  493TMC3    C6 7383   3.683   0.443  10.841 -0.2164  0.3386 -0.4581
  493TMC3     C 7384   3.535   0.139  11.072  0.5655  0.1106 -0.1169
  493TMC3     O 7385   3.608   0.098  11.161 -0.0617  0.2969  0.0147
  493TMC3     H 7386   3.790   0.191  11.034 -1.3288 -0.1130  0.6267
  493TMC3    H1 7387   3.396   0.295  10.921  0.4937  0.6018 -1.5872
  493TMC3    H2 7388   3.715   0.516  10.767 -0.3280  0.4611 -0.3856
  493TMC3    C7 7389   3.463   0.508  10.786 -0.0491  0.2481 -0.4368
  493TMC3    C8 7390   3.920   0.387  10.915  0.3856  0.3451  1.0227
  493TMC3    O1 7391   3.496   0.548  10.677  0.3152  0.0514 -0.1374
  493TMC3    O2 7392   3.989   0.302  10.968 -0.2518 -0.1366 -0.0188
  494TMC3    C1 7393   4.316   2.406   0.533 -0.7442 -0.1578 -0.9016
  494TMC3    C2 7394   4.295   2.276   0.556  0.5178 -0.5809 -0.1703
  494TMC3    C3 7395   4.289   2.195   0.443  0.4459  0.4229 -0.0464
  494TMC3    C4 7396   4.327   2.451   0.405 -0.1108  0.1965  0.2092
  494TMC3    C5 7397   4.307   2.372   0.294  0.1858 -0.6680 -0.1589
  494TMC3    C6 7398   4.296   2.240   0.313  0.3751  0.0064  0.0589
  494TMC3     C 7399   4.356   2.491   0.641  0.6544 -0.1425 -0.2631
  494TMC3     O 7400   4.371   2.611   0.615  0.1502  0.2284 -0.1722
  494TMC3     H 7401   4.288   2.240   0.659 -2.7513  1.4790  0.2895
  494TMC3    H1 7402   4.361   2.554   0.393 -1.2974  0.4067 -1.3225
  494TMC3    H2 7403   4.297   2.184   0.220 -0.6633 -2.8685  1.7781
  494TMC3    C7 7404   4.315   2.434   0.164 -0.3323  0.2485 -0.3348
  494TMC3    C8 7405   4.331   2.059   0.479  0.3295 -0.0462  0.2999
  494TMC3    O1 7406   4.336   2.354   0.077 -0.7607  0.0755 -0.3487
  494TMC3    O2 7407   4.414   2.002   0.408  0.2135 -0.1662  0.3529
  495TMC3    C1 7408   3.459   3.851  14.711  0.2571  0.6151 -0.5559
  495TMC3    C2 7409   3.364   3.839  14.611  0.5734 -0.0377 -0.5831
  495TMC3    C3 7410   3.236   3.872  14.645  0.8164  0.4473  0.1447
  495TMC3    C4 7411   3.424   3.904  14.832  0.5382  0.9791  0.1522
  495TMC3    C5 7412   3.298   3.949  14.846 -0.0263 -0.7749  0.5527
  495TMC3    C6 7413   3.196   3.944  14.754  0.4205 -0.4645 -0.1277
  495TMC3     C 7414   3.555   3.741  14.715 -0.4052  0.4641 -0.1234
  495TMC3     O 7415   3.553   3.666  14.811 -0.0806  0.3011 -0.0600
  495TMC3     H 7416   3.385   3.786  14.519  0.8197 -1.1385  0.1044
  495TMC3    H1 7417   3.494   3.929  14.911  0.7328 -1.3550  0.7241
  495TMC3    H2 7418   3.095   3.979  14.772  0.8952  0.3990  0.8892
  495TMC3    C7 7419   3.268   4.023  14.968 -0.1632 -0.0839 -0.3837
  495TMC3    C8 7420   3.127   3.814  14.568  0.1397  0.4368 -0.6522
  495TMC3    O1 7421   3.363   4.070  15.029 -0.2988 -0.1334 -0.5164
  495TMC3    O2 7422   3.022   3.875  14.573  0.0089 -0.2177  0.2083
  496MPD2     C 7423   1.056   3.826  15.682  0.6105 -0.6280 -0.0323
  496MPD2    C1 7424   0.949   3.739  15.686  0.1252 -0.1339  0.3503
  496MPD2    C2 7425   0.841   3.775  15.766  0.6261 -0.2613 -0.1610
  496MPD2    C3 7426   0.837   3.898  15.827 -0.2933  0.8747  0.0165
  496MPD2    C4 7427   0.941   3.977  15.814  0.2773 -0.3205  0.3364
  496MPD2    C5 7428   1.057   3.941  15.752 -0.6398 -0.0820  0.0018
  496MPD2     H 7429   0.757   3.708  15.774  0.3290  0.1906  0.4606
  496MPD2    H1 7430   0.940   4.071  15.868  1.2430 -1.7505  2.8388
  496MPD2    H2 7431   1.147   3.804  15.627  0.4162  2.8142 -1.7772
  496MPD2    H3 7432   1.145   4.004  15.752 -0.4996 -0.2778 -2.0256
  496MPD2     N 7433   0.720   3.947  15.886 -0.2308  0.4304  0.1900
  496MPD2    H5 7434   0.719   4.032  15.941 -0.1306 -0.7640  2.0568
  496MPD2    N1 7435   0.957   3.621  15.612  0.1772  0.6820  0.2509
  496MPD2    H7 7436   1.042   3.611  15.557  0.4145 -2.5820  1.1645
  497TMC3    C1 7437   0.493   3.971  15.939 -0.3382 -0.8803 -0.5121
  497TMC3    C2 7438   0.375   3.968  15.874  0.0805 -0.1298  0.0773
  497TMC3    C3 7439   0.257   3.964  15.941  0.0663 -0.1664  0.1635
  497TMC3    C4 7440   0.500   3.990  16.073  0.4523  0.3868  0.5491
  497TMC3    C5 7441   0.380   3.984  16.143 -0.1597 -0.1169  0.3693
  497TMC3    C6 7442   0.259   3.971  16.079  0.2330 -0.2427  0.0023
  497TMC3     C 7443   0.596   3.897  15.869  0.1739 -0.2034  0.6534
  497TMC3     O 7444   0.549   3.807  15.801  0.7858 -0.4333  0.3916
  497TMC3     H 7445   0.373   3.968  15.765 -2.2575 -0.0844  0.1136
  497TMC3    H1 7446   0.599   3.983  16.119 -0.2556  0.2273  2.0552
  497TMC3    H2 7447   0.166   3.974  16.134 -0.7350 -2.5973 -1.5041
  497TMC3    C7 7448   0.358   3.956  16.293 -0.4126  0.2574  0.7693
  497TMC3    C8 7449   0.178   3.860  15.885 -0.1100  0.6335 -0.4699
  497TMC3    O1 7450   0.252   3.914  16.338 -0.1564 -0.9538 -0.1303
  497TMC3    O2 7451   0.057   3.868  15.905  0.0113  0.2854  0.0341
  498MPD2     C 7452   1.508   0.758   9.589  0.1009 -0.0246 -0.1274
  498MPD2    C1 7453   1.454   0.806   9.707  0.3896  0.0963 -1.5233
  498MPD2    C2 7454   1.319   0.786   9.733  0.7960 -0.0342  0.5566
  498MPD2    C3 7455   1.239   0.710   9.643  0.7284  0.5407 -0.0570
  498MPD2    C4 7456   1.297   0.657   9.528  0.2350  0.5668 -0.1978
  498MPD2    C5 7457   1.424   0.687   9.499  0.4056  0.5413  0.6444
  498MPD2     H 7458   1.262   0.833   9.812 -0.1097  0.7042 -0.5363
  498MPD2    H1 7459   1.240   0.614   9.447 -0.7583  0.9436  0.2980
  498MPD2    H2 7460   1.608   0.783   9.555  0.4426 -1.0503  0.1075
  498MPD2    H3 7461   1.473   0.654   9.408 -2.0398 -1.4858  0.0869
  498MPD2     N 7462   1.101   0.687   9.679 -0.6765 -0.1994  0.2901
  498MPD2    H5 7463   1.076   0.740   9.761 -2.5759  1.1366 -1.1338
  498MPD2    N1 7464   1.530   0.885   9.796  0.4283 -0.0631  0.5413
  498MPD2    H7 7465   1.470   0.927   9.867  1.5262 -0.6361  1.8025
  499TMC3    C1 7466   1.687   1.039   9.870  0.3234 -0.0059 -0.1096
  499TMC3    C2 7467   1.816   1.068   9.915  0.6156 -0.6339 -1.0807
  499TMC3    C3 7468   1.832   1.183   9.981  0.2645 -0.7475  0.1715
  499TMC3    C4 7469   1.581   1.121   9.884 -0.6652 -0.9954 -0.1058
  499TMC3    C5 7470   1.608   1.238   9.951 -0.2195 -0.5902  0.2099
  499TMC3    C6 7471   1.735   1.270   9.996  0.2930  0.0227  0.4238
  499TMC3     C 7472   1.666   0.927   9.788 -0.2973  0.6995 -0.3466
  499TMC3     O 7473   1.756   0.876   9.724  0.1510  0.4801  0.7058
  499TMC3     H 7474   1.896   0.997   9.896  0.9530 -0.1544 -1.4505
  499TMC3    H1 7475   1.489   1.116   9.827 -0.8370 -1.7084  0.2359
  499TMC3    H2 7476   1.751   1.352  10.066  0.2748  1.1045 -0.8235
  499TMC3    C7 7477   1.506   1.342   9.984 -0.7730 -0.5763 -0.2771
  499TMC3    C8 7478   1.966   1.230  10.037 -0.1861 -0.1517  0.4286
  499TMC3    O1 7479   1.557   1.445  10.028  0.1976  0.0117 -0.3688
  499TMC3    O2 7480   1.968   1.337  10.103 -0.1124 -0.1335  0.1303
  500MPD2     C 7481   2.814   2.155  10.966  0.2240 -0.4678 -0.1188
  500MPD2    C1 7482   2.746   2.038  10.970 -0.5346  0.7551 -0.1640
  500MPD2    C2 7483   2.617   2.041  10.904 -0.3366  0.0243 -0.9163
  500MPD2    C3 7484   2.566   2.156  10.836  0.0042 -0.0985 -0.0435
  500MPD2    C4 7485   2.641   2.270  10.839 -0.4503  0.1741  0.2450
  500MPD2    C5 7486   2.760   2.264  10.909 -0.2726 -0.3151  0.6164
  500MPD2     H 7487   2.560   1.949  10.895 -2.6999  1.3498  0.5855
  500MPD2    H1 7488   2.614   2.365  10.794 -0.1088  0.2977  0.3017
  500MPD2    H2 7489   2.909   2.165  11.016  0.2673 -0.4626 -0.2028
  500MPD2    H3 7490   2.808   2.359  10.930  0.4098 -0.4332 -0.3940
  500MPD2     N 7491   2.437   2.151  10.774 -0.0202  0.2197 -0.7894
  500MPD2    H5 7492   2.419   2.233  10.716 -0.9435  0.2504 -0.4584
  500MPD2    N1 7493   2.786   1.922  11.041  0.4021 -0.0740 -0.0293
  500MPD2    H7 7494   2.714   1.852  11.052 -0.0470  0.3465 -0.2788
  501TMC3    C1 7495   2.935   1.752  11.122 -0.7811  0.1552 -0.3862
  501TMC3    C2 7496   2.832   1.658  11.112 -0.1842 -0.3376 -0.4136
  501TMC3    C3 7497   2.871   1.527  11.119 -1.1736  0.6034 -0.0554
  501TMC3    C4 7498   3.065   1.711  11.151 -0.5957 -0.5681 -0.2015
  501TMC3    C5 7499   3.093   1.578  11.184  0.6379  0.1678  0.4402
  501TMC3    C6 7500   2.991   1.488  11.149 -0.5636 -0.0526 -0.8480
  501TMC3     C 7501   2.912   1.894  11.082 -0.1967  0.2059 -0.3258
  501TMC3     O 7502   3.007   1.970  11.083  0.1011 -0.5374 -0.1993
  501TMC3     H 7503   2.732   1.684  11.079 -0.5711  0.1716  1.1703
  501TMC3    H1 7504   3.138   1.786  11.177  0.1695 -0.4907 -2.5420
  501TMC3    H2 7505   3.011   1.382  11.157 -1.5533 -0.2545 -1.0607
  501TMC3    C7 7506   3.230   1.529  11.188  0.0983  0.3891  0.3849
  501TMC3    C8 7507   2.790   1.430  11.049 -0.0049 -0.0472  0.6532
  501TMC3    O1 7508   3.248   1.420  11.135 -0.0096  0.3589  0.2769
  501TMC3    O2 7509   2.761   1.339  11.126  0.8013  0.7070 -0.2709
  502TMC3    C1 7510   2.581   4.603  14.738 -0.0028  0.0213 -0.2782
  502TMC3    C2 7511   2.521   4.709  14.682  0.3096  0.1831 -0.0363
  502TMC3    C3 7512   2.444   0.047  14.764 -1.0439 -0.1886 -0.7616
  502TMC3    C4 7513   2.517   4.543  14.841  0.3707 -0.3004 -0.6079
  502TMC3    C5 7514   2.409   4.598  14.902  0.4106 -0.1464  0.3009
  502TMC3    C6 7515   2.370   4.725  14.866  0.3974 -0.4230  0.5837
  502TMC3     C 7516   2.718   4.635  14.774  0.4472  0.3930 -0.2431
  502TMC3     O 7517   2.774   4.704  14.689 -0.1597  0.0920  0.0462
  502TMC3     H 7518   2.566   0.012  14.592  0.0936 -1.8198 -1.0470
  502TMC3    H1 7519   2.561   4.449  14.872  0.4217 -0.4578 -1.1554
  502TMC3    H2 7520   2.313   0.046  14.937 -0.2184 -0.7158  0.3323
  502TMC3    C7 7521   2.377   4.551  15.035  0.1276 -0.2908  0.0795
  502TMC3    C8 7522   2.487   0.187  14.779  0.5192  0.3690  0.4020
  502TMC3    O1 7523   2.477   4.508  15.092  0.5911 -0.5664  0.4661
  502TMC3    O2 7524   2.443   0.259  14.868  0.2233 -0.2356 -0.6337
  503MPD2     C 7525   0.047   0.928  16.770 -0.5066 -0.6801  0.2599
  503MPD2    C1 7526   0.062   1.012  16.881  0.2547 -0.2769  0.4050
  503MPD2    C2 7527   0.158   0.977  16.977 -0.2328  0.4323 -0.1244
  503MPD2    C3 7528   0.247   0.873  16.957  0.7876  0.2004  0.0204
  503MPD2    C4 7529   0.238   0.797  16.841 -0.8711 -0.8531  0.1039
  503MPD2    C5 7530   0.138   0.827  16.745  0.5084  0.2470  0.1769
  503MPD2     H 7531   0.178   1.038  17.065 -2.6854 -0.5588  1.1219
  503MPD2    H1 7532   0.298   0.707  16.828  1.4086  0.5617  0.7715
  503MPD2    H2 7533   4.712   0.949  16.693 -0.8635  1.6371  1.2158
  503MPD2    H3 7534   0.141   0.767  16.654 -1.4222 -2.0772  1.6380
  503MPD2     N 7535   0.346   0.845  17.051  0.4305 -0.3810 -0.0560
  503MPD2    H5 7536   0.340   0.899  17.137  1.2094 -0.1412 -0.1504
  503MPD2    N1 7537   4.730   1.131  16.899 -0.5250 -0.4476  0.5300
  503MPD2    H7 7538   0.024   1.195  16.971  1.2055  0.9120 -1.4270
  504TMC3    C1 7539   0.528   0.739  17.146 -0.0687 -0.3652  0.1654
  504TMC3    C2 7540   0.453   0.708  17.259  0.0063  0.1349  0.5464
  504TMC3    C3 7541   0.514   0.633  17.355 -0.1371  0.5996 -0.0190
  504TMC3    C4 7542   0.659   0.705  17.133 -0.7237  0.1747 -0.2970
  504TMC3    C5 7543   0.715   0.623  17.229  0.6018  0.8037 -0.9856
  504TMC3    C6 7544   0.641   0.589  17.342 -0.0517 -0.2121 -0.8469
  504TMC3     C 7545   0.460   0.774  17.025  1.1347 -0.1750  0.3009
  504TMC3     O 7546   0.518   0.750  16.923 -0.0723  0.2138  0.1175
  504TMC3     H 7547   0.347   0.730  17.258  0.0922  0.4322 -1.7490
  504TMC3    H1 7548   0.711   0.729  17.041 -2.2663 -0.8361 -1.4350
  504TMC3    H2 7549   0.688   0.525  17.415  2.1203  2.2661 -0.0412
  504TMC3    C7 7550   0.840   0.564  17.189 -0.0064 -0.1157  0.2916
  504TMC3    C8 7551   0.432   0.567  17.454  0.4578 -0.4849 -0.1839
  504TMC3    O1 7552   0.898   0.609  17.092 -0.3221 -0.1283  0.6695
  504TMC3    O2 7553   0.317   0.545  17.435  0.0097 -0.5331  0.0643
  505MPD2     C 7554   4.598   0.582   9.945 -0.5895 -0.0418 -0.2199
  505MPD2    C1 7555   4.633   0.449   9.929  0.5372 -0.3145 -0.3312
  505MPD2    C2 7556   4.701   0.394  10.035  0.0559  0.5325 -0.1881
  505MPD2    C3 7557   0.002   0.465  10.146 -0.0659 -0.2342  0.2118
  505MPD2    C4 7558   4.692   0.596  10.164  0.0798 -0.2706 -0.3861
  505MPD2    C5 7559   4.629   0.656  10.061 -0.1360  0.1130  0.0560
  505MPD2     H 7560   4.720   0.288  10.031  0.3979  0.6522 -1.8423
  505MPD2    H1 7561   4.711   0.646  10.259  0.4112  0.0594 -0.6271
  505MPD2    H2 7562   4.549   0.625   9.859 -2.3306  0.9682  1.2703
  505MPD2    H3 7563   4.601   0.760  10.073 -1.0187 -0.0548 -0.5151
  505MPD2     N 7564   0.070   0.390  10.246 -0.3028 -0.5003 -0.0006
  505MPD2    H5 7565   0.076   0.290  10.229  0.8414 -0.4212 -0.0759
  505MPD2    N1 7566   4.593   0.378   9.810 -0.1236  0.0601 -0.4610
  505MPD2    H7 7567   4.555   0.430   9.732 -0.3139 -0.2828 -0.5949
  506TMC3    C1 7568   4.579   0.193   9.658  0.4812  0.2163  0.0281
  506TMC3    C2 7569   4.650   0.253   9.556 -0.8214  0.3885  0.4034
  506TMC3    C3 7570   4.710   0.172   9.468 -0.6166 -0.0591 -1.0446
  506TMC3    C4 7571   4.565   0.059   9.658  0.5163 -0.0895 -0.0059
  506TMC3    C5 7572   4.634   4.718   9.570  0.3315  0.4246  0.7516
  506TMC3    C6 7573   4.723   0.036   9.482 -0.8955  0.1325 -0.9293
  506TMC3     C 7574   4.596   0.242   9.791  0.3724 -0.0056 -0.3897
  506TMC3     O 7575   4.615   0.152   9.870 -0.3219  0.5859 -0.9066
  506TMC3     H 7576   4.667   0.360   9.554  3.1889 -0.2448  0.5584
  506TMC3    H1 7577   4.501   0.017   9.735  2.2611 -4.2351 -0.7649
  506TMC3    H2 7578   0.044   4.728   9.404 -2.6492 -3.2996 -0.1892
  506TMC3    C7 7579   4.690   4.606   9.637 -0.2659  0.9563 -0.2429
  506TMC3    C8 7580   0.055   0.232   9.372  0.1962  0.3470 -0.2605
  506TMC3    O1 7581   4.724   4.509   9.566 -0.2108  0.1314 -0.1899
  506TMC3    O2 7582   0.068   0.179   9.262  0.5984  0.0683 -0.4800
  507TMC3    C1 7583   1.103   0.128  14.937  0.0962  0.5388 -0.5454
  507TMC3    C2 7584   1.005   0.055  14.873  1.1397  0.5310  0.7464
  507TMC3    C3 7585   0.950   0.115  14.763 -0.0262 -0.7034  0.4687
  507TMC3    C4 7586   1.146   0.247  14.886  0.3338  0.4135  0.0312
  507TMC3    C5 7587   1.092   0.303  14.772 -0.3697  0.3957 -0.6210
  507TMC3    C6 7588   0.992   0.233  14.714 -0.9831  0.9070 -0.5709
  507TMC3     C 7589   1.129   0.117  15.082 -0.0174  0.6884  0.3713
  507TMC3     O 7590   1.228   0.173  15.125 -0.8790 -0.3417  0.0238
  507TMC3     H 7591   0.966   4.699  14.913  1.4041 -0.5579 -1.5156
  507TMC3    H1 7592   1.221   0.300  14.944  2.6856 -0.4477 -2.2495
  507TMC3    H2 7593   0.956   0.280  14.623 -2.3389  1.0741  0.0545
  507TMC3    C7 7594   1.056   0.444  14.777 -0.4025  0.0153  0.6416
  507TMC3    C8 7595   0.811   0.098  14.780 -0.5599  0.5601  0.3029
  507TMC3    O1 7596   0.973   0.482  14.701 -0.3093  0.0144  0.1336
  507TMC3    O2 7597   0.763   4.733  14.836  0.0544  0.0056  0.4461
  508MPD2     C 7598   2.031   2.305  16.325 -0.0031  0.3445  0.1700
  508MPD2    C1 7599   2.157   2.346  16.333  0.2659 -0.5742  0.1218
  508MPD2    C2 7600   2.219   2.402  16.223 -0.1522  0.0544  0.2584
  508MPD2    C3 7601   2.157   2.407  16.101 -0.5638  0.1376  0.4762
  508MPD2    C4 7602   2.031   2.362  16.090  0.4104 -0.3582 -0.5078
  508MPD2    C5 7603   1.966   2.310  16.203 -0.4723  0.1438  0.4412
  508MPD2     H 7604   2.316   2.450  16.229 -0.9942  1.9358 -1.4390
  508MPD2    H1 7605   1.975   2.366  15.997  1.4612 -0.1648 -1.1276
  508MPD2    H2 7606   1.971   2.260  16.404 -0.8394  1.0029 -0.0865
  508MPD2    H3 7607   1.863   2.279  16.186 -0.4995  0.7048 -0.4163
  508MPD2     N 7608   2.232   2.467  16.001  0.0135  0.1307  0.1442
  508MPD2    H5 7609   2.327   2.500  16.014  0.1893  0.7308 -2.5703
  508MPD2    N1 7610   2.224   2.340  16.455 -1.0463 -0.2836  0.7311
  508MPD2    H7 7611   2.180   2.291  16.532 -0.9557 -1.2592  0.1611
  509TMC3    C1 7612   2.208   2.747  15.633  0.1319  0.4231 -0.4424
  509TMC3    C2 7613   2.274   2.848  15.699 -0.4559 -0.1108 -0.1694
  509TMC3    C3 7614   2.342   2.810  15.813  0.2401 -0.3535  0.1120
  509TMC3    C4 7615   2.205   2.612  15.672 -0.6847  0.0763 -0.4191
  509TMC3    C5 7616   2.258   2.584  15.797 -1.0198  0.2216  0.5188
  509TMC3    C6 7617   2.325   2.686  15.865 -1.2110  0.6910  0.8270
  509TMC3     C 7618   2.155   2.774  15.502  1.0923  0.1400  0.3985
  509TMC3     O 7619   2.149   2.669  15.436 -0.5067  0.0531 -0.8879
  509TMC3     H 7620   2.282   2.941  15.644 -2.2362  0.7947  1.1090
  509TMC3    H1 7621   2.163   2.531  15.613 -0.2728 -0.5558  0.1552
  509TMC3    H2 7622   2.352   2.673  15.970  2.7749 -0.6222 -0.3320
  509TMC3    C7 7623   2.192   2.478  15.869 -0.2508 -0.0038  0.0220
  509TMC3    C8 7624   2.401   2.917  15.887 -0.1953  0.5705 -0.5509
  509TMC3    O1 7625   2.112   2.409  15.814 -0.0676 -0.1119  0.1487
  509TMC3    O2 7626   2.459   2.882  15.990  0.2280 -0.2602 -0.6561
  510MPD2     C 7627   4.099   4.373  14.717  0.2388 -0.1436 -0.1876
  510MPD2    C1 7628   4.199   4.302  14.786  0.4675 -0.4117 -0.8797
  510MPD2    C2 7629   4.324   4.323  14.730  0.4159 -0.2454 -0.0119
  510MPD2    C3 7630   4.348   4.382  14.605 -0.0750 -0.6114 -0.2391
  510MPD2    C4 7631   4.242   4.422  14.532  0.7439  0.2506  0.1623
  510MPD2    C5 7632   4.119   4.424  14.590 -0.6444 -0.2819 -0.0137
  510MPD2     H 7633   4.415   4.281  14.773 -0.5215 -0.0042  2.1713
  510MPD2    H1 7634   4.249   4.451  14.427 -0.8335  0.5068  0.1232
  510MPD2    H2 7635   3.997   4.352  14.748  0.5475 -1.3780  0.0099
  510MPD2    H3 7636   4.032   4.456  14.534 -0.1132 -0.9135 -1.2012
  510MPD2     N 7637   4.486   4.383  14.565  0.1592 -0.2490  0.1837
  510MPD2    H5 7638   4.553   4.343  14.630 -2.8726 -2.1417  2.1496
  510MPD2    N1 7639   4.182   4.232  14.912  1.2924 -0.3529  0.5197
  510MPD2    H7 7640   4.264   4.187  14.950  1.8243 -1.2503 -1.6986
  511TMC3    C1 7641   4.084   4.128  15.098 -0.6276  0.2377  0.3252
  511TMC3    C2 7642   3.989   4.135  15.201 -0.5087 -0.6667 -0.5228
  511TMC3    C3 7643   3.998   4.044  15.308  0.0982 -0.8045 -0.4410
  511TMC3    C4 7644   4.170   4.020  15.096 -0.8809  0.8166 -0.1069
  511TMC3    C5 7645   4.161   3.930  15.201 -1.0696  0.1761  0.2790
  511TMC3    C6 7646   4.079   3.936  15.309 -0.0635  0.3347  0.1878
  511TMC3     C 7647   4.062   4.209  14.975  0.1833  0.6042 -0.4872
  511TMC3     O 7648   3.948   4.263  14.960 -0.2501 -0.1961  0.0352
  511TMC3     H 7649   3.927   4.224  15.198 -0.0815 -0.2990  1.7918
  511TMC3    H1 7650   4.235   4.003  15.012 -0.9085 -1.0692  0.2522
  511TMC3    H2 7651   4.074   3.863  15.389 -4.6206  2.1700  1.5803
  511TMC3    C7 7652   4.222   3.807  15.172  0.6783  0.3208 -0.2019
  511TMC3    C8 7653   3.938   4.089  15.435  0.4044 -0.6716 -0.0623
  511TMC3    O1 7654   4.316   3.812  15.095 -0.0147 -0.0435 -0.0445
  511TMC3    O2 7655   3.835   4.152  15.415 -0.0480  0.8236 -0.5569
  512TMC3    C1 7656   3.237   3.509  13.231 -0.9400  0.1723  0.1319
  512TMC3    C2 7657   3.355   3.522  13.293 -0.4046  0.4193 -0.0237
  512TMC3    C3 7658   3.461   3.513  13.212 -0.3206 -0.0057  0.3740
  512TMC3    C4 7659   3.223   3.493  13.097  0.5437  0.0243  0.8805
  512TMC3    C5 7660   3.339   3.480  13.021  0.1767  0.1791 -0.4201
  512TMC3    C6 7661   3.459   3.478  13.078  0.4633  0.4511  0.3113
  512TMC3     C 7662   3.121   3.529  13.311 -0.1824 -0.3999 -0.6202
  512TMC3     O 7663   3.138   3.500  13.428 -0.0117  0.6934 -0.2997
  512TMC3     H 7664   3.360   3.537  13.400 -0.4103  1.1995 -0.1310
  512TMC3    H1 7665   3.129   3.493  13.042  0.6630  0.5790  0.6792
  512TMC3    H2 7666   3.553   3.451  13.032  0.8981  1.6324  0.4882
  512TMC3    C7 7667   3.322   3.464  12.877  0.0667  0.0617  0.4461
  512TMC3    C8 7668   3.592   3.521  13.272  0.1069  0.6772  0.0762
  512TMC3    O1 7669   3.241   3.530  12.815 -0.1898  0.1979 -0.5120
  512TMC3    O2 7670   3.678   3.439  13.240 -0.8621  0.4674  0.1185
  513MPD2     C 7671   0.595   3.321  13.569  0.5329 -0.0716 -0.0750
  513MPD2    C1 7672   0.711   3.289  13.501  0.3033 -0.2506 -0.3559
  513MPD2    C2 7673   0.831   3.343  13.545 -0.0098  0.6433 -0.2051
  513MPD2    C3 7674   0.833   3.419  13.664 -0.1956  0.6341  0.2616
  513MPD2    C4 7675   0.721   3.445  13.736  1.0590  0.7688 -0.7154
  513MPD2    C5 7676   0.603   3.400  13.683  0.1489  0.5189 -0.2982
  513MPD2     H 7677   0.923   3.337  13.487  1.2844  0.8262  1.8537
  513MPD2    H1 7678   0.722   3.509  13.824  1.3426  1.1307 -0.9799
  513MPD2    H2 7679   0.503   3.275  13.534 -0.3740  1.2055  0.6114
  513MPD2    H3 7680   0.512   3.412  13.740 -1.0252 -0.1158 -2.0363
  513MPD2     N 7681   0.960   3.468  13.707 -0.2909  0.2299 -0.0822
  513MPD2    H5 7682   1.043   3.462  13.650 -0.9525  1.5468 -1.1878
  513MPD2    N1 7683   0.701   3.213  13.388 -0.0556 -0.0784  0.2943
  513MPD2    H7 7684   0.607   3.190  13.359 -0.2789 -0.8747  1.6760
  514TMC3    C1 7685   0.791   3.091  13.200  1.7369 -0.0635  0.6290
  514TMC3    C2 7686   0.702   3.174  13.132 -0.1253  0.0204 -0.1676
  514TMC3    C3 7687   0.732   3.210  13.002 -0.2745  0.3811 -0.9159
  514TMC3    C4 7688   0.916   3.070  13.147 -0.2472 -0.1487  0.1883
  514TMC3    C5 7689   0.948   3.120  13.028 -0.2792  0.2863  0.2143
  514TMC3    C6 7690   0.863   3.197  12.955  0.0086 -0.2208  0.5835
  514TMC3     C 7691   0.813   3.150  13.330  0.2413  0.4043  0.4389
  514TMC3     O 7692   0.926   3.144  13.369 -0.6813  0.3174  0.1302
  514TMC3     H 7693   0.600   3.188  13.165 -0.0582  1.3109 -0.4949
  514TMC3    H1 7694   0.981   2.995  13.190 -2.4517 -3.0438 -1.5066
  514TMC3    H2 7695   0.906   3.251  12.872 -0.5285 -0.0594  0.4129
  514TMC3    C7 7696   1.084   3.150  13.024 -0.2555 -0.4488  0.7618
  514TMC3    C8 7697   0.637   3.304  12.951 -0.1837 -0.1491 -0.7671
  514TMC3    O1 7698   1.145   3.147  12.917  0.2343  0.4663 -0.2189
  514TMC3    O2 7699   0.559   3.357  13.026  0.1935  0.0201  0.3373
  515MPD2     C 7700   3.338   0.768  14.690 -0.6678  0.3877 -0.0295
  515MPD2    C1 7701   3.407   0.652  14.647 -0.3584 -0.3669 -0.3046
  515MPD2    C2 7702   3.517   0.609  14.724 -0.1777  0.4287  0.2517
  515MPD2    C3 7703   3.551   0.681  14.834  0.8114  0.5705  0.5034
  515MPD2    C4 7704   3.471   0.783  14.872  0.4289  0.2269 -0.1812
  515MPD2    C5 7705   3.371   0.833  14.804 -0.8951  0.1284 -0.4888
  515MPD2     H 7706   3.573   0.521  14.696  0.7862  1.1032  0.0582
  515MPD2    H1 7707   3.487   0.840  14.963 -0.9854  1.2795 -0.5966
  515MPD2    H2 7708   3.262   0.816  14.629 -0.6461 -0.1676 -0.5011
  515MPD2    H3 7709   3.315   0.921  14.832 -0.5070  0.4280 -0.6574
  515MPD2     N 7710   3.664   0.644  14.916  0.1813  0.0134  0.1984
  515MPD2    H5 7711   3.671   0.687  15.008 -1.3250 -1.5243  1.0375
  515MPD2    N1 7712   3.378   0.578  14.526 -0.1921  0.0091 -0.2305
  515MPD2    H7 7713   3.421   0.491  14.495  0.6981  0.4093 -0.1126
  516TMC3    C1 7714   3.255   0.495  14.358 -0.4706  0.3987 -0.0961
  516TMC3    C2 7715   3.145   0.526  14.291  0.1178  0.3574  0.7117
  516TMC3    C3 7716   3.039   0.441  14.305  0.2912 -0.0610  0.3051
  516TMC3    C4 7717   3.275   0.369  14.416  0.5093  0.1817 -0.0704
  516TMC3    C5 7718   3.169   0.284  14.406 -0.6659  0.9431  0.8694
  516TMC3    C6 7719   3.053   0.316  14.348  0.1711 -0.5274 -0.5591
  516TMC3     C 7720   3.275   0.604  14.440 -0.4927  0.4690 -0.5605
  516TMC3     O 7721   3.184   0.686  14.450  0.1967 -0.0170 -0.4471
  516TMC3     H 7722   3.136   0.624  14.244  1.6808 -0.3905 -1.1302
  516TMC3    H1 7723   3.368   0.348  14.467  1.5442  0.7294 -1.7112
  516TMC3    H2 7724   2.964   0.255  14.355  0.1912 -0.3146  1.5415
  516TMC3    C7 7725   3.182   0.165  14.481 -0.2946  0.3841  0.6079
  516TMC3    C8 7726   2.906   0.503  14.303 -0.3017 -0.4995 -0.2283
  516TMC3    O1 7727   3.256   0.175  14.581 -0.0865  0.5192 -0.2133
  516TMC3    O2 7728   2.813   0.429  14.315 -0.3424  0.4863 -0.0702
  517MPD2     C 7729   3.224   2.602  17.606 -0.7509  0.8218  0.5971
  517MPD2    C1 7730   3.323   2.558  17.682  0.6909  0.2442  0.1641
  517MPD2    C2 7731   3.378   2.661   0.017 -0.4533  0.5703 -0.3650
  517MPD2    C3 7732   3.342   2.795   0.014 -0.4242 -0.1325  0.1361
  517MPD2    C4 7733   3.246   2.831  17.676  0.5261  0.0323 -0.2406
  517MPD2    C5 7734   3.181   2.733  17.604  0.6509 -0.3007 -0.4914
  517MPD2     H 7735   3.435   2.607   0.092 -2.3437 -1.6917 -0.5372
  517MPD2    H1 7736   3.205   2.930  17.664  2.9639  1.0094 -0.6184
  517MPD2    H2 7737   3.173   2.538  17.536  3.1162  0.0911 -1.5527
  517MPD2    H3 7738   3.101   2.760  17.536  0.9641  0.5007 -0.5527
  517MPD2     N 7739   3.394   2.889   0.109  0.4626 -0.2697  0.3510
  517MPD2    H5 7740   3.351   2.981   0.106  0.7580 -0.1110  0.8358
  517MPD2    N1 7741   3.370   2.423  17.664 -0.0708  0.3032  0.1830
  517MPD2    H7 7742   3.452   2.397  17.718 -0.4855 -0.9637  0.2195
  518TMC3    C1 7743   3.397   2.193  17.597  0.3516  0.4014  0.3595
  518TMC3    C2 7744   3.330   2.072  17.571 -0.4736 -0.0396  0.5357
  518TMC3    C3 7745   3.411   1.960  17.564  0.5932  0.0655  0.0059
  518TMC3    C4 7746   3.528   2.208  17.610 -0.2590 -0.1283  0.6135
  518TMC3    C5 7747   3.603   2.091  17.609 -0.0541 -1.3143 -0.2870
  518TMC3    C6 7748   3.546   1.970  17.590 -0.1723  0.7064 -0.1293
  518TMC3     C 7749   3.309   2.314  17.606  0.3303  0.5887 -0.2165
  518TMC3     O 7750   3.187   2.305  17.584  0.3963  0.0978  0.0702
  518TMC3     H 7751   3.224   2.063  17.552 -0.5616 -1.5340  1.7113
  518TMC3    H1 7752   3.581   2.301  17.620 -0.6761  0.2599 -0.7426
  518TMC3    H2 7753   3.611   1.885  17.609  0.0058  0.5547 -1.3957
  518TMC3    C7 7754   3.745   2.103  17.632 -0.9179  0.1840  0.5291
  518TMC3    C8 7755   3.358   1.823  17.529  1.1595 -0.5292  0.1773
  518TMC3    O1 7756   3.776   2.200  17.700  0.1580 -0.0379  0.1774
  518TMC3    O2 7757   3.447   1.743  17.531 -0.3674 -0.5257 -0.3529
  519MPD2     C 7758   0.139   0.369  14.556  0.0606 -0.4104  0.2854
  519MPD2    C1 7759   0.060   0.327  14.455  0.6334 -0.1862  0.3190
  519MPD2    C2 7760   0.106   0.240  14.354 -0.2166 -0.1888  0.3795
  519MPD2    C3 7761   0.238   0.196  14.354 -0.1113 -0.4282  0.8138
  519MPD2    C4 7762   0.323   0.249  14.453 -0.1277 -0.9123 -0.6834
  519MPD2    C5 7763   0.276   0.326  14.555 -0.6703  0.0852 -0.0245
  519MPD2     H 7764   0.034   0.214  14.277 -0.3053  3.6639 -0.8723
  519MPD2    H1 7765   0.422   0.207  14.465  0.6049  0.4176 -2.0205
  519MPD2    H2 7766   0.114   0.424  14.646  1.5921  2.1971 -0.8841
  519MPD2    H3 7767   0.349   0.366  14.623 -0.4326  1.9605 -1.3973
  519MPD2     N 7768   0.291   0.117  14.250  0.0891 -0.0906  0.1025
  519MPD2    H5 7769   0.388   0.091  14.261 -0.3052 -2.2361 -1.4770
  519MPD2    N1 7770   4.671   0.383  14.456 -0.3682  0.2545 -0.2169
  519MPD2    H7 7771   4.636   0.430  14.539 -0.4113  0.6950 -0.4814
  520TMC3    C1 7772   0.315   4.728  14.055 -0.2092 -0.1441  1.2932
  520TMC3    C2 7773   0.279   4.738  13.925  0.4446 -0.0945  0.2241
  520TMC3    C3 7774   0.346   4.657  13.835 -0.1482  0.4046  0.1649
  520TMC3    C4 7775   0.416   4.650  14.101 -0.0014  0.0566 -0.3504
  520TMC3    C5 7776   0.492   4.591  14.004 -0.2978  0.7599 -0.0109
  520TMC3    C6 7777   0.453   4.587  13.870  0.0568  0.4511  0.5945
  520TMC3     C 7778   0.224   0.055  14.144  0.1956  0.4610 -0.0842
  520TMC3     O 7779   0.108   0.078  14.105 -0.1205 -0.5295 -0.0250
  520TMC3     H 7780   0.190   0.057  13.900 -0.1647 -0.6293  1.1307
  520TMC3    H1 7781   0.451   4.656  14.203  1.2521 -3.2122 -0.5730
  520TMC3    H2 7782   0.523   4.542  13.800  0.7048  0.9225  0.9385
  520TMC3    C7 7783   0.599   4.505  14.060 -0.5170  0.3742 -0.3144
  520TMC3    C8 7784   0.315   4.662  13.694  0.0644 -0.1706  0.6763
  520TMC3    O1 7785   0.637   4.520  14.173 -0.1149  0.0450 -0.2043
  520TMC3    O2 7786   0.397   4.616  13.616 -0.2271 -0.4427 -0.1146
  521MPD2     C 7787   0.993   3.577  17.299 -0.2322  0.1167 -0.3647
  521MPD2    C1 7788   0.932   3.470  17.234 -0.0804  0.3690  0.2238
  521MPD2    C2 7789   1.016   3.381  17.171  0.7363  0.1395  0.1526
  521MPD2    C3 7790   1.154   3.387  17.178  0.2680  0.3031 -0.5373
  521MPD2    C4 7791   1.211   3.493  17.243  0.0831 -0.7075  0.0380
  521MPD2    C5 7792   1.133   3.585  17.295 -0.2650  0.4696  0.1604
  521MPD2     H 7793   0.978   3.288  17.132 -0.7048  0.2330  1.3356
  521MPD2    H1 7794   1.318   3.509  17.251 -0.2774  1.3099  0.9915
  521MPD2    H2 7795   0.932   3.651  17.351  0.9356  2.0685 -1.7721
  521MPD2    H3 7796   1.170   3.677  17.338  1.0650 -0.0627  0.1350
  521MPD2     N 7797   1.233   3.287  17.114 -0.0046 -0.6245  0.1880
  521MPD2    H5 7798   1.190   3.199  17.089 -3.0700  1.2615 -1.1149
  521MPD2    N1 7799   0.789   3.463  17.245 -0.4764  0.4469 -0.0005
  521MPD2    H7 7800   0.729   3.523  17.300  2.2152  3.8853 -0.8698
  522TMC3    C1 7801   1.428   3.165  17.050 -0.1759  0.3305 -0.1588
  522TMC3    C2 7802   1.549   3.129  17.107 -0.1464 -0.7803 -0.0666
  522TMC3    C3 7803   1.587   2.995  17.089 -0.1808 -0.3539  0.1053
  522TMC3    C4 7804   1.336   3.071  16.997 -0.0229  0.4370  0.1012
  522TMC3    C5 7805   1.385   2.940  16.981 -0.0588  0.7992  0.4578
  522TMC3    C6 7806   1.504   2.894  17.032  0.5361  0.0392  0.6945
  522TMC3     C 7807   1.369   3.294  17.092 -1.2761  0.3242  0.4336
  522TMC3     O 7808   1.446   3.383  17.118 -0.3831  0.0621  0.8506
  522TMC3     H 7809   1.621   3.201  17.144 -2.0677  0.5554  1.0095
  522TMC3    H1 7810   1.240   3.102  16.956 -0.3776 -3.7357 -2.2248
  522TMC3    H2 7811   1.516   2.792  17.066 -0.6507  0.5025  2.5425
  522TMC3    C7 7812   1.287   2.836  16.947  0.2205  0.2721  0.4838
  522TMC3    C8 7813   1.708   2.952  17.159 -0.1426 -0.6849 -0.4497
  522TMC3    O1 7814   1.287   2.734  17.018 -0.1709  0.5982 -0.4093
  522TMC3    O2 7815   1.736   3.026  17.250  0.1377 -0.8140  0.1064
  523MPD2     C 7816   4.022   3.449  10.134  0.3089  0.1083  0.2325
  523MPD2    C1 7817   3.890   3.474  10.172 -0.1016 -0.2434  0.5377
  523MPD2    C2 7818   3.834   3.601  10.145  0.4547  0.1772 -0.4968
  523MPD2    C3 7819   3.917   3.705  10.108  0.4053  0.9575  0.2472
  523MPD2    C4 7820   4.045   3.675  10.063  0.2758 -0.0936  0.2216
  523MPD2    C5 7821   4.092   3.549  10.072  0.3525  0.0645 -0.0985
  523MPD2     H 7822   3.729   3.627  10.151  0.5293  0.1671  0.8453
  523MPD2    H1 7823   4.107   3.758  10.031  1.3736 -1.5415 -1.3790
  523MPD2    H2 7824   4.075   3.354  10.139  0.6021  0.1672 -2.1100
  523MPD2    H3 7825   4.195   3.522  10.052  0.2840 -1.0661  1.0410
  523MPD2     N 7826   3.885   3.845  10.112 -0.0854  0.2465  0.0749
  523MPD2    H5 7827   3.963   3.907  10.094 -0.8849  1.4993  0.9193
  523MPD2    N1 7828   3.815   3.370  10.231  0.5222  0.4624  0.0587
  523MPD2    H7 7829   3.872   3.289  10.251  0.0785 -0.2385 -1.4894
  524TMC3    C1 7830   3.765   4.044  10.128 -0.5916  0.6869 -0.2036
  524TMC3    C2 7831   3.884   4.095  10.181 -0.0240 -0.2066 -0.0914
  524TMC3    C3 7832   3.884   4.224  10.214  0.2728 -0.0032  0.0372
  524TMC3    C4 7833   3.656   4.114  10.088  0.5308 -0.7271  1.1639
  524TMC3    C5 7834   3.669   4.246  10.121 -0.0444  0.1549 -0.1587
  524TMC3    C6 7835   3.771   4.301  10.189 -0.0032 -0.0642 -0.3671
  524TMC3     C 7836   3.760   3.896  10.122 -0.2406 -0.4149 -0.3764
  524TMC3     O 7837   3.646   3.840  10.123 -0.2680  0.7704  0.0409
  524TMC3     H 7838   3.966   4.039  10.224  1.0820  1.6829  0.2733
  524TMC3    H1 7839   3.564   4.063  10.062 -0.3632  1.9553 -0.8637
  524TMC3    H2 7840   3.771   4.408  10.208 -2.7021  0.0167 -0.8991
  524TMC3    C7 7841   3.551   4.321  10.131  0.2917  0.2191 -0.8809
  524TMC3    C8 7842   3.995   4.284  10.286  0.4589 -0.2597  0.4395
  524TMC3    O1 7843   3.542   4.406  10.220 -0.0713 -0.2736  0.6901
  524TMC3    O2 7844   3.979   4.380  10.362 -0.0368  0.3180 -0.1166
  525MPD2     C 7845   1.433   4.386  14.541  0.9109 -0.2821 -0.4079
  525MPD2    C1 7846   1.552   4.400  14.614 -0.3299  0.0790 -0.2324
  525MPD2    C2 7847   1.620   4.514  14.577  0.0674 -0.1084  0.4488
  525MPD2    C3 7848   1.575   4.608  14.488 -0.3838  0.2646  0.0376
  525MPD2    C4 7849   1.455   4.583  14.422  0.2962  0.4557  0.4268
  525MPD2    C5 7850   1.383   4.468  14.446 -0.3525 -0.6192 -0.2281
  525MPD2     H 7851   1.715   4.528  14.626  0.0352 -0.9233  0.7347
  525MPD2    H1 7852   1.416   4.657  14.353 -1.4161 -0.9217 -0.0638
  525MPD2    H2 7853   1.367   4.302  14.561  0.5648 -0.1650 -1.0718
  525MPD2    H3 7854   1.292   4.447  14.391 -0.6192  1.8513 -0.7325
  525MPD2     N 7855   1.631   4.734  14.468 -0.2185 -0.5686  0.3160
  525MPD2    H5 7856   1.571   0.059  14.416  1.4799  0.6964 -0.1165
  525MPD2    N1 7857   1.607   4.310  14.706  0.1344 -0.0377  0.8948
  525MPD2    H7 7858   1.700   4.331  14.740  0.5743  0.7033 -0.7619
  526TMC3    C1 7859   1.592   4.140  14.876  0.2861 -0.0036  0.9119
  526TMC3    C2 7860   1.512   4.119  14.984  0.3865 -0.2653  0.3841
  526TMC3    C3 7861   1.576   4.110  15.109 -1.0899  0.0823 -0.3134
  526TMC3    C4 7862   1.726   4.125  14.879 -0.1535 -0.1781  0.4346
  526TMC3    C5 7863   1.787   4.120  14.998 -0.1941  0.3649 -0.9853
  526TMC3    C6 7864   1.710   4.114  15.118 -0.0999 -0.5097 -0.0898
  526TMC3     C 7865   1.529   4.224  14.776  0.9333 -0.0721  0.3988
  526TMC3     O 7866   1.411   4.199  14.764 -0.5741 -0.2708 -0.3077
  526TMC3     H 7867   1.407   4.141  14.975 -0.1942 -2.1525  2.3435
  526TMC3    H1 7868   1.785   4.143  14.790 -0.5539  2.9760  0.8177
  526TMC3    H2 7869   1.759   4.091  15.213  1.7509 -1.2404 -1.2202
  526TMC3    C7 7870   1.927   4.076  15.011 -0.5819  0.6378 -0.2151
  526TMC3    C8 7871   1.483   4.128  15.222 -0.0065  0.2843 -0.0564
  526TMC3    O1 7872   1.956   4.040  15.121 -0.1353  0.1701 -0.0609
  526TMC3    O2 7873   1.541   4.182  15.313 -0.3764 -0.2005  0.4001
  527MPD2     C 7874   0.325   2.969   1.562 -0.2581 -0.2262 -0.1131
  527MPD2    C1 7875   0.277   2.846   1.524 -0.1219 -0.0791 -0.9880
  527MPD2    C2 7876   0.265   2.823   1.390  0.3011 -0.0052  0.4577
  527MPD2    C3 7877   0.287   2.918   1.288  0.4156  0.6056 -0.4055
  527MPD2    C4 7878   0.320   3.044   1.335 -0.0073 -0.4131  0.1972
  527MPD2    C5 7879   0.337   3.067   1.468 -0.2828  0.7832 -0.1904
  527MPD2     H 7880   0.238   2.723   1.357  0.5864 -0.5612  1.9375
  527MPD2    H1 7881   0.353   3.129   1.276 -1.0278 -0.6016 -0.6441
  527MPD2    H2 7882   0.342   3.000   1.664 -1.8588 -1.0824  0.4258
  527MPD2    H3 7883   0.361   3.166   1.505  2.0251  0.4377 -0.7450
  527MPD2     N 7884   0.271   2.895   1.149  0.1624 -0.4729 -0.1461
  527MPD2    H5 7885   0.250   2.801   1.118  1.2282 -0.4496 -0.9403
  527MPD2    N1 7886   0.232   2.747   1.614 -0.0783 -0.0854  0.7317
  527MPD2    H7 7887   0.177   2.667   1.584  0.0463  0.5333 -1.1452
  528TMC3    C1 7888   0.120   2.696   1.818  0.5388 -0.4827  0.0361
  528TMC3    C2 7889   0.060   2.749   1.920  1.2059  0.4307 -0.3190
  528TMC3    C3 7890   4.703   2.682   1.992 -0.3574 -0.3035 -0.0153
  528TMC3    C4 7891   0.091   2.563   1.784  0.2953  0.2643 -0.1084
  528TMC3    C5 7892   4.727   2.500   1.850 -0.2798 -0.3345  0.3569
  528TMC3    C6 7893   4.655   2.563   1.945 -0.2773  0.3235 -0.0634
  528TMC3     C 7894   0.211   2.777   1.746 -0.1333  0.6536  0.1791
  528TMC3     O 7895   0.247   2.874   1.803  0.0652  0.4393  0.5101
  528TMC3     H 7896   0.083   2.853   1.939 -0.9294  1.0589 -1.1425
  528TMC3    H1 7897   0.154   2.519   1.708 -0.3705  0.3789 -0.7277
  528TMC3    H2 7898   4.554   2.532   1.971  0.0369 -1.1316 -0.6026
  528TMC3    C7 7899   4.701   2.356   1.828  0.5814 -0.2611 -0.6206
  528TMC3    C8 7900   4.624   2.774   2.077  0.0545 -0.9014 -0.5872
  528TMC3    O1 7901   0.015   2.310   1.726 -0.2603 -0.6475  0.8215
  528TMC3    O2 7902   4.674   2.884   2.106  0.1547  0.0666  0.4465
  529MPD2     C 7903   1.368   0.767   0.539 -0.7831 -0.0326 -0.4778
  529MPD2    C1 7904   1.499   0.809   0.555 -0.3222 -0.0631 -0.1570
  529MPD2    C2 7905   1.542   0.930   0.510 -0.1739  0.1874  1.0521
  529MPD2    C3 7906   1.461   1.013   0.431 -0.0722 -0.0527  0.1692
  529MPD2    C4 7907   1.331   0.962   0.414  0.5391 -0.3288 -0.2808
  529MPD2    C5 7908   1.288   0.852   0.466 -0.1127  0.0653  0.3689
  529MPD2     H 7909   1.642   0.961   0.539  0.1948 -0.3625  0.3812
  529MPD2    H1 7910   1.263   1.026   0.359  0.0321  1.0997  2.0432
  529MPD2    H2 7911   1.325   0.675   0.576  2.0517 -1.1261  0.0983
  529MPD2    H3 7912   1.183   0.830   0.454  0.5343 -2.1389 -1.3303
  529MPD2     N 7913   1.499   1.133   0.362 -0.0475  0.0094 -0.0111
  529MPD2    H5 7914   1.438   1.184   0.298  1.4444  1.1685 -0.5275
  529MPD2    N1 7915   1.589   0.734   0.627 -0.0359 -0.2289 -0.5384
  529MPD2    H7 7916   1.684   0.770   0.632 -1.0163  2.4467 -1.2454
  530TMC3    C1 7917   1.686   0.537   0.730 -0.3451  0.3208 -0.1561
  530TMC3    C2 7918   1.803   0.593   0.706  0.4935 -0.2807 -0.5765
  530TMC3    C3 7919   1.913   0.537   0.772 -0.4478  0.0794 -0.5547
  530TMC3    C4 7920   1.671   0.415   0.796  0.1220 -0.1350  0.0570
  530TMC3    C5 7921   1.779   0.356   0.857  0.0173  0.4834 -0.3091
  530TMC3    C6 7922   1.903   0.425   0.857  0.2058 -0.0824 -0.3383
  530TMC3     C 7923   1.566   0.601   0.674  0.1977 -0.3853 -0.4143
  530TMC3     O 7924   1.462   0.536   0.668 -0.4523  0.6838 -0.4762
  530TMC3     H 7925   1.819   0.685   0.652  0.1575  0.3509  0.4086
  530TMC3    H1 7926   1.574   0.369   0.808 -0.3387  0.2765 -1.9538
  530TMC3    H2 7927   1.983   0.397   0.923 -0.1735 -1.1891 -0.3581
  530TMC3    C7 7928   1.760   0.288   0.980 -0.1677 -0.6920  0.3949
  530TMC3    C8 7929   2.021   0.625   0.795 -0.5631 -0.1702  0.6921
  530TMC3    O1 7930   1.847   0.210   1.019  0.7948  0.3473  0.0928
  530TMC3    O2 7931   1.987   0.738   0.772 -0.1535  0.4387 -0.2845
  531MPD2     C 7932   1.487   3.333  13.281 -0.5552 -0.0356  0.3193
  531MPD2    C1 7933   1.378   3.331  13.366  0.2258  0.3035 -0.6546
  531MPD2    C2 7934   1.255   3.283  13.317 -0.7343 -0.3465  0.0208
  531MPD2    C3 7935   1.242   3.244  13.190 -0.2215  0.4507 -0.3738
  531MPD2    C4 7936   1.351   3.262  13.103  0.3035  0.4071 -0.0053
  531MPD2    C5 7937   1.472   3.306  13.152  0.1933 -0.2988  0.2258
  531MPD2     H 7938   1.160   3.280  13.370 -2.3948  0.8257 -2.9276
  531MPD2    H1 7939   1.332   3.248  12.998  2.3026 -1.4549 -0.1071
  531MPD2    H2 7940   1.580   3.358  13.332  0.4178  1.4146 -2.1574
  531MPD2    H3 7941   1.556   3.339  13.091  0.2068 -0.8435 -0.0502
  531MPD2     N 7942   1.111   3.199  13.148  0.0147  0.2252 -0.4439
  531MPD2    H5 7943   1.037   3.191  13.216 -0.4882 -1.9443 -1.2293
  531MPD2    N1 7944   1.388   3.373  13.496 -0.4652  0.1920 -0.2144
  531MPD2    H7 7945   1.482   3.377  13.534 -0.7621 -0.2405  0.5577
  532TMC3    C1 7946   1.295   3.473  13.691 -0.4385 -0.1243  0.6812
  532TMC3    C2 7947   1.189   3.547  13.726  0.1080  0.0523 -0.0739
  532TMC3    C3 7948   1.130   3.538  13.844  0.5414 -1.0634  0.4616
  532TMC3    C4 7949   1.341   3.378  13.776  0.6881  0.0490 -0.2559
  532TMC3    C5 7950   1.290   3.376  13.901  0.1443 -0.2110  0.0075
  532TMC3    C6 7951   1.185   3.456  13.942 -0.1534  0.2990  0.2023
  532TMC3     C 7952   1.272   3.429  13.555  0.3368 -0.0440 -1.1203
  532TMC3     O 7953   1.163   3.467  13.508  0.3369  0.1297  0.5283
  532TMC3     H 7954   1.146   3.617  13.655 -0.5742 -1.1060 -0.7944
  532TMC3    H1 7955   1.417   3.306  13.748  0.2794 -0.1172 -0.9432
  532TMC3    H2 7956   1.141   3.453  14.041 -0.9313  0.6981 -0.1271
  532TMC3    C7 7957   1.362   3.303  14.001  0.1307 -0.2305 -0.4428
  532TMC3    C8 7958   0.989   3.519  13.832  0.1956  0.0254 -0.1168
  532TMC3    O1 7959   1.355   3.341  14.116 -0.0622 -0.0357 -0.1590
  532TMC3    O2 7960   0.917   3.544  13.929 -0.5472  0.1298  0.5379
  533TMC3    C1 7961   1.730   0.189  14.547  0.7470  0.5201 -0.6145
  533TMC3    C2 7962   1.839   0.269  14.528 -0.1396 -0.2436  0.1090
  533TMC3    C3 7963   1.827   0.399  14.581  0.0334  0.6150  0.3404
  533TMC3    C4 7964   1.611   0.234  14.603 -0.6420 -0.2350  0.8058
  533TMC3    C5 7965   1.606   0.359  14.658 -0.0330 -0.1834  0.2903
  533TMC3    C6 7966   1.710   0.443  14.647 -0.7494  0.1369 -0.2568
  533TMC3     C 7967   1.736   0.044  14.533 -0.0287  0.2425  0.4079
  533TMC3     O 7968   1.838   4.727  14.570  0.0503 -0.2094 -0.5181
  533TMC3     H 7969   1.932   0.221  14.498 -0.1537  0.5535 -1.1959
  533TMC3    H1 7970   1.528   0.165  14.596 -0.6400 -0.1760  0.1957
  533TMC3    H2 7971   1.719   0.535  14.704 -2.8543 -0.0367  0.3397
  533TMC3    C7 7972   1.519   0.370  14.770  0.6331  0.3467 -0.1156
  533TMC3    C8 7973   1.930   0.499  14.571 -0.1495  0.0603 -0.1002
  533TMC3    O1 7974   1.446   0.277  14.786  0.0760  0.2663  0.1980
  533TMC3    O2 7975   2.049   0.471  14.562  0.2310  0.3176  0.2418
  534MPD2     C 7976   3.943   1.914   1.663  0.3051 -0.1373  0.1254
  534MPD2    C1 7977   4.008   1.929   1.542 -0.1664 -0.3476  0.1691
  534MPD2    C2 7978   3.941   1.895   1.425 -0.1582  0.1124 -0.4431
  534MPD2    C3 7979   3.818   1.826   1.436  0.1719  0.2792  0.2554
  534MPD2    C4 7980   3.758   1.811   1.563  0.5348  0.0763 -0.2701
  534MPD2    C5 7981   3.817   1.860   1.674  0.3963 -0.3901  0.4446
  534MPD2     H 7982   3.995   1.914   1.333 -0.0600 -1.4660 -0.7158
  534MPD2    H1 7983   3.667   1.752   1.571 -0.3877  1.6907  1.1734
  534MPD2    H2 7984   3.987   1.944   1.757  1.2973 -2.1683  0.3064
  534MPD2    H3 7985   3.785   1.837   1.775  0.5091 -0.3427  0.4911
  534MPD2     N 7986   3.750   1.763   1.334 -0.9290 -0.2370  0.1921
  534MPD2    H5 7987   3.653   1.738   1.346 -0.0542 -4.6839 -2.3887
  534MPD2    N1 7988   4.122   2.004   1.528  0.2069  0.4842  0.5909
  534MPD2    H7 7989   4.161   2.024   1.437  0.3038  0.0844  0.5422
  535TMC3    C1 7990   3.711   1.690   1.109  0.1196 -0.4691 -1.0242
  535TMC3    C2 7991   3.585   1.642   1.146 -0.0543 -0.6851  0.5469
  535TMC3    C3 7992   3.490   1.618   1.052 -0.0678  0.1549 -0.2978
  535TMC3    C4 7993   3.738   1.718   0.980  0.4558 -0.1742 -0.1489
  535TMC3    C5 7994   3.644   1.682   0.888  0.5915 -0.3000  0.0457
  535TMC3    C6 7995   3.519   1.634   0.922  0.5476 -0.2930 -0.6659
  535TMC3     C 7996   3.800   1.759   1.207  0.4236  0.2001 -0.2076
  535TMC3     O 7997   3.911   1.790   1.158 -0.1162 -0.6195  0.0293
  535TMC3     H 7998   3.582   1.598   1.245 -1.4573 -0.6262  0.5271
  535TMC3    H1 7999   3.829   1.768   0.948 -0.6569  0.7284 -1.9352
  535TMC3    H2 8000   3.443   1.607   0.850  0.2046 -0.3538 -0.2776
  535TMC3    C7 8001   3.678   1.661   0.747 -1.0396  0.4408  0.2963
  535TMC3    C8 8002   3.366   1.552   1.082  0.6879 -0.5702  0.6879
  535TMC3    O1 8003   3.584   1.637   0.676 -0.0477  0.2924  0.4687
  535TMC3    O2 8004   3.296   1.513   0.990 -0.7646 -0.3465  0.1685
  536MPD2     C 8005   3.229   0.160  16.222  0.4584  0.5199  0.4187
  536MPD2    C1 8006   3.141   0.059  16.216  0.5744 -0.1197  0.1400
  536MPD2    C2 8007   3.068   0.037  16.103 -0.1647 -0.4133 -0.5227
  536MPD2    C3 8008   3.096   0.112  15.995  0.9301 -0.0628  0.1488
  536MPD2    C4 8009   3.193   0.207  15.999  0.2768  0.2153 -0.3061
  536MPD2    C5 8010   3.260   0.235  16.112  0.0784  0.1616 -0.4200
  536MPD2     H 8011   3.001   4.691  16.093 -1.8789  0.8637  0.3420
  536MPD2    H1 8012   3.230   0.251  15.907 -0.3347 -0.1524 -0.7278
  536MPD2    H2 8013   3.284   0.179  16.313  0.1786  1.3474  0.4149
  536MPD2    H3 8014   3.324   0.322  16.117  1.4541 -0.8134 -0.8863
  536MPD2     N 8015   3.036   0.098  15.871  0.4565 -0.3027 -0.3271
  536MPD2    H5 8016   3.083   0.150  15.798  1.1954  0.8451  0.9487
  536MPD2    N1 8017   3.127   4.728  16.334 -0.0548  0.4241 -0.0675
  536MPD2    H7 8018   3.185   0.014  16.414  2.1310 -0.2309 -1.4447
  537TMC3    C1 8019   3.071   4.562  16.492  0.5234 -0.3443 -0.1077
  537TMC3    C2 8020   3.054   4.655  16.596  0.6784  0.2373 -0.4960
  537TMC3    C3 8021   3.014   4.603  16.709  0.0986  0.0941  0.0444
  537TMC3    C4 8022   3.050   4.432  16.507 -0.5897 -0.1331  0.1058
  537TMC3    C5 8023   3.036   4.383  16.634  0.2162  0.1420 -0.1145
  537TMC3    C6 8024   3.013   4.467  16.739 -0.3877 -0.5918 -0.2296
  537TMC3     C 8025   3.057   4.614  16.352 -0.6682  0.1692  0.2506
  537TMC3     O 8026   2.980   4.556  16.275 -0.2299  0.2636  0.3883
  537TMC3     H 8027   3.081   0.021  16.578  2.4802 -0.2671 -0.6785
  537TMC3    H1 8028   3.064   4.359  16.428 -0.7636  0.1244 -0.1613
  537TMC3    H2 8029   3.002   4.436  16.843 -0.9575  2.5025  0.6341
  537TMC3    C7 8030   2.994   4.247  16.638  0.6200  0.4474  0.2945
  537TMC3    C8 8031   3.011   4.702  16.821  0.1669 -0.1420 -0.3923
  537TMC3    O1 8032   2.922   4.191  16.557 -0.1617  0.2077 -0.2600
  537TMC3    O2 8033   3.035   4.671  16.936 -0.4642  0.5062  0.5338
  538TMC3    C1 8034   4.197   3.272  11.157 -0.0641 -0.5528  0.1209
  538TMC3    C2 8035   4.323   3.269  11.101  0.1899 -1.0488  0.1660
  538TMC3    C3 8036   4.340   3.367  11.013  0.3184  1.3585  0.3753
  538TMC3    C4 8037   4.105   3.376  11.129 -0.0938  0.3222  0.2184
  538TMC3    C5 8038   4.138   3.475  11.039 -0.0179  0.3829 -0.1102
  538TMC3    C6 8039   4.257   3.464  10.974 -0.0387 -0.0078  0.0238
  538TMC3     C 8040   4.153   3.163  11.239 -0.0668  0.4277  0.9667
  538TMC3     O 8041   4.040   3.168  11.285 -0.1776  0.0338 -0.4414
  538TMC3     H 8042   4.402   3.196  11.117 -0.4232 -1.8694 -0.5553
  538TMC3    H1 8043   4.007   3.379  11.174 -0.1855 -1.7539  0.1829
  538TMC3    H2 8044   4.288   3.531  10.895  2.4985 -0.7850  0.3883
  538TMC3    C7 8045   4.022   3.523  10.962 -0.0376 -0.5163  0.3825
  538TMC3    C8 8046   4.454   3.358  10.935  0.0681  0.8891 -0.7039
  538TMC3    O1 8047   3.913   3.467  10.976  0.0478  0.8014  0.2659
  538TMC3    O2 8048   4.530   3.453  10.914  0.2953 -0.3734  1.0136
  539MPD2     C 8049   4.034   2.253  11.550 -0.2705  0.3611 -0.6846
  539MPD2    C1 8050   4.104   2.265  11.436  0.0670  0.1033  0.2883
  539MPD2    C2 8051   4.086   2.382  11.359 -0.7503  0.2361  0.3278
  539MPD2    C3 8052   3.990   2.481  11.396 -0.2328 -0.3155 -1.0427
  539MPD2    C4 8053   3.921   2.456  11.510 -0.2582  0.4710  0.0388
  539MPD2    C5 8054   3.950   2.351  11.589  0.0738 -0.4218  0.0880
  539MPD2     H 8055   4.139   2.395  11.265  1.0875  2.2223  1.6438
  539MPD2    H1 8056   3.848   2.526  11.547 -0.7012 -1.0821  2.0865
  539MPD2    H2 8057   4.038   2.161  11.606 -0.1342  0.9489  0.2737
  539MPD2    H3 8058   3.900   2.343  11.685  2.1383 -2.3706  1.0109
  539MPD2     N 8059   3.952   2.594  11.320  0.1386 -0.6711 -0.0375
  539MPD2    H5 8060   3.877   2.648  11.361  0.0247 -0.5457 -0.4096
  539MPD2    N1 8061   4.183   2.158  11.380 -0.3505  0.9524  0.1647
  539MPD2    H7 8062   4.209   2.162  11.282 -1.0507  1.6062  0.0088
  540TMC3    C1 8063   3.925   2.752  11.140 -0.0520 -0.3935 -0.9778
  540TMC3    C2 8064   3.859   2.740  11.022  0.2352  0.4118 -0.2556
  540TMC3    C3 8065   3.776   2.844  10.983  0.2432 -0.3862  0.0800
  540TMC3    C4 8066   3.893   2.851  11.223 -0.0275 -0.4696 -0.3911
  540TMC3    C5 8067   3.814   2.956  11.189 -0.1252 -0.2653  0.0535
  540TMC3    C6 8068   3.753   2.948  11.069  0.5138  0.2737 -0.6119
  540TMC3     C 8069   3.993   2.634  11.191 -0.2987 -0.0565  0.0571
  540TMC3     O 8070   4.057   2.561  11.114 -0.5685 -0.1704  0.1596
  540TMC3     H 8071   3.875   2.642  10.979 -1.7407 -1.2835  2.8560
  540TMC3    H1 8072   3.929   2.842  11.325 -0.7182 -1.1902 -0.2075
  540TMC3    H2 8073   3.662   3.006  11.052  1.3490  2.6177  2.9219
  540TMC3    C7 8074   3.731   2.990  11.297  0.4418 -0.2829 -0.0331
  540TMC3    C8 8075   3.680   2.819  10.873  0.6317 -0.2052  0.5990
  540TMC3    O1 8076   3.640   2.912  11.311  0.7501 -0.7264  0.0678
  540TMC3    O2 8077   3.617   2.916  10.829 -0.9787 -0.2702  0.4214
  541MPD2     C 8078   2.245   3.497  13.404 -0.2570 -0.2363  0.8629
  541MPD2    C1 8079   2.227   3.400  13.313  0.5705  0.3408 -0.3199
  541MPD2    C2 8080   2.187   3.442  13.188  0.2306  0.2543 -0.0875
  541MPD2    C3 8081   2.158   3.575  13.168  0.6021  0.5678  0.2889
  541MPD2    C4 8082   2.165   3.669  13.272  0.6751 -0.1166  0.5378
  541MPD2    C5 8083   2.220   3.627  13.387 -0.4393 -0.2174  0.9359
  541MPD2     H 8084   2.172   3.372  13.106  2.9845  0.5386 -0.8292
  541MPD2    H1 8085   2.152   3.775  13.253  1.8360 -0.3210 -1.4001
  541MPD2    H2 8086   2.278   3.467  13.503  1.4136 -0.4930  0.2284
  541MPD2    H3 8087   2.243   3.690  13.472 -1.7374  0.8935  0.4726
  541MPD2     N 8088   2.130   3.627  13.038  0.2191 -0.5212  0.5976
  541MPD2    H5 8089   2.084   3.718  13.038  0.6455 -0.3065 -0.4659
  541MPD2    N1 8090   2.249   3.258  13.334 -0.4630  0.6447 -0.6876
  541MPD2    H7 8091   2.245   3.206  13.246 -1.4860 -0.3686 -0.0418
  542TMC3    C1 8092   2.114   3.641  12.803 -0.2566 -0.3318 -0.1885
  542TMC3    C2 8093   2.164   3.602  12.684  0.1475  0.1766 -0.3861
  542TMC3    C3 8094   2.116   3.648  12.572 -0.1429 -0.0783  1.2488
  542TMC3    C4 8095   2.006   3.724  12.822  0.1759  0.3625  0.1927
  542TMC3    C5 8096   1.952   3.769  12.702  0.4803  0.5675 -0.4158
  542TMC3    C6 8097   2.003   3.727  12.580 -0.3728 -0.4026  0.2349
  542TMC3     C 8098   2.160   3.562  12.918  0.1246 -0.5089 -0.5432
  542TMC3     O 8099   2.234   3.467  12.903  0.3097  0.3177 -0.0640
  542TMC3     H 8100   2.251   3.537  12.691 -0.0506 -0.1695 -1.2249
  542TMC3    H1 8101   1.962   3.755  12.916 -1.2615  0.4742 -0.5298
  542TMC3    H2 8102   1.965   3.772  12.489  0.3896  0.6565  0.4400
  542TMC3    C7 8103   1.838   3.853  12.712 -0.1129 -0.2587 -0.0375
  542TMC3    C8 8104   2.135   3.587  12.438 -0.1459 -0.0515  0.3032
  542TMC3    O1 8105   1.818   3.925  12.816 -0.5052  0.4132  0.0711
  542TMC3    O2 8106   2.071   3.629  12.344  0.0338 -0.0756  0.8055
  543TMC3    C1 8107   1.754   0.576  17.176  0.9571 -0.4625 -0.3339
  543TMC3    C2 8108   1.781   0.448  17.220  0.2641  0.2514  1.0206
  543TMC3    C3 8109   1.762   0.411  17.349 -0.1003  0.2635 -0.4218
  543TMC3    C4 8110   1.696   0.666  17.262  0.0019 -0.3988  0.1678
  543TMC3    C5 8111   1.669   0.620  17.390 -0.3869  0.0326 -0.2558
  543TMC3    C6 8112   1.706   0.501  17.440  0.7014 -0.1000  0.5202
  543TMC3     C 8113   1.809   0.598  17.040  0.1981 -0.0174 -0.6463
  543TMC3     O 8114   1.847   0.502  16.981 -0.4352 -0.6795  0.4141
  543TMC3     H 8115   1.826   0.373  17.155 -3.2227 -0.5276 -0.4856
  543TMC3    H1 8116   1.669   0.766  17.229 -0.7156 -0.2118  1.3146
  543TMC3    H2 8117   1.665   0.463  17.533 -1.1003 -0.5928 -0.4694
  543TMC3    C7 8118   1.556   0.679  17.458 -0.6263 -0.5130  0.0219
  543TMC3    C8 8119   1.766   0.264  17.373  0.1445  0.1636 -0.2496
  543TMC3    O1 8120   1.498   0.614  17.547  0.4939 -0.7984  0.4618
  543TMC3    O2 8121   1.757   0.194  17.275  0.3719 -0.0429  0.2905
  544MPD2     C 8122   1.776   4.564  17.654 -0.2173  0.5904  0.5161
  544MPD2    C1 8123   1.757   4.575  17.522  0.8243 -0.3655  0.3422
  544MPD2    C2 8124   1.754   4.710  17.475  0.1213  0.0152 -0.4997
  544MPD2    C3 8125   1.763   0.086  17.555  0.3031  0.1968 -0.3772
  544MPD2    C4 8126   1.781   0.062  17.692 -0.1346  0.1472 -0.5855
  544MPD2    C5 8127   1.791   4.671  17.739  0.1297 -0.1663  0.2336
  544MPD2     H 8128   1.743   4.723  17.368 -0.9768  0.6830 -0.3030
  544MPD2    H1 8129   1.787   0.150   0.005 -0.4469 -0.0763 -0.2415
  544MPD2    H2 8130   1.760   4.464  17.694  2.4191 -0.0114  0.0067
  544MPD2    H3 8131   1.799   4.655   0.096  1.0597 -0.8145  0.0681
  544MPD2     N 8132   1.769   0.226  17.508  0.0357  0.5180  0.1080
  544MPD2    H5 8133   1.775   0.293  17.584 -0.0337 -0.7554  1.2468
  544MPD2    N1 8134   1.761   4.463  17.442 -0.0005 -0.1657 -0.6649
  544MPD2    H7 8135   1.767   4.373  17.490 -1.5723 -0.1315 -0.3963
  545TMC3    C1 8136   1.769   4.324  17.258  0.4145 -0.2380  0.5871
  545TMC3    C2 8137   1.855   4.305  17.152  0.1225  0.2223  0.0514
  545TMC3    C3 8138   1.894   4.180  17.124  0.3721  0.6995  0.1639
  545TMC3    C4 8139   1.713   4.219  17.329 -0.4067  0.1424  0.2382
  545TMC3    C5 8140   1.752   4.093  17.291 -0.4308 -0.0276 -0.4037
  545TMC3    C6 8141   1.845   4.078  17.193  0.3791 -0.1746 -0.5502
  545TMC3     C 8142   1.762   4.463  17.306 -0.2965 -0.4072 -0.3629
  545TMC3     O 8143   1.770   4.559  17.225 -0.1696  0.4246  0.3485
  545TMC3     H 8144   1.904   4.393  17.112  0.8438 -1.1580 -2.0955
  545TMC3    H1 8145   1.642   4.236  17.409 -0.4227  1.2793 -0.0116
  545TMC3    H2 8146   1.865   3.977  17.160 -0.1725 -1.0863  1.8885
  545TMC3    C7 8147   1.750   3.993  17.395  0.0715  0.6285  0.8751
  545TMC3    C8 8148   2.007   4.159  17.034 -0.0178  0.7318  1.4362
  545TMC3    O1 8149   1.650   3.977  17.467 -0.3441  1.0175  0.0826
  545TMC3    O2 8150   2.045   4.043  17.027 -0.3513 -0.5300 -0.1959
  546MPD2     C 8151   3.003   0.347  17.623 -0.3084 -0.3046 -0.2887
  546MPD2    C1 8152   2.981   0.363  17.490 -0.1910  0.2665 -0.1468
  546MPD2    C2 8153   3.029   0.485  17.431  0.1630 -0.0772  0.4180
  546MPD2    C3 8154   3.105   0.578  17.503 -0.3434 -0.2545  0.4929
  546MPD2    C4 8155   3.126   0.551  17.636  0.4250  0.0648  0.0381
  546MPD2    C5 8156   3.076   0.440  17.692 -0.4720  0.4519  0.0526
  546MPD2     H 8157   3.012   0.505  17.325  0.0584  1.4624  0.7298
  546MPD2    H1 8158   3.190   0.610  17.700  1.1806  1.6110 -2.1233
  546MPD2    H2 8159   2.987   0.253  17.675 -3.4509 -0.4263 -1.4429
  546MPD2    H3 8160   3.109   0.409   0.041  1.8083 -2.4980 -1.6417
  546MPD2     N 8161   3.154   0.709  17.458  0.1545 -0.8884  0.1547
  546MPD2    H5 8162   3.191   0.766  17.533  1.4829 -0.0962 -1.1143
  546MPD2    N1 8163   2.918   0.262  17.413 -0.0320  0.5730  0.4111
  546MPD2    H7 8164   2.918   0.168  17.451 -0.7914  0.3500 -0.1471
  547TMC3    C1 8165   2.827   0.182  17.204  0.4109 -0.4575 -0.4374
  547TMC3    C2 8166   2.740   0.204  17.098  0.1828 -0.1241 -0.2041
  547TMC3    C3 8167   2.683   0.095  17.037 -0.5801  0.3022 -0.2390
  547TMC3    C4 8168   2.863   0.054  17.241  0.2424 -0.1549  0.5179
  547TMC3    C5 8169   2.809   4.685  17.178 -0.6619  0.0209  0.1024
  547TMC3    C6 8170   2.720   4.704  17.073 -0.4699  0.1471 -0.1508
  547TMC3     C 8171   2.848   0.297  17.300 -0.2354  0.7252  0.5640
  547TMC3     O 8172   2.796   0.410  17.274  0.1534  0.3017 -0.1790
  547TMC3     H 8173   2.724   0.304  17.060  0.7136 -0.7301 -2.0387
  547TMC3    H1 8174   2.932   0.041  17.324 -2.2690  0.1003  2.6550
  547TMC3    H2 8175   2.659   4.624  17.034  1.1543 -0.4305 -1.5383
  547TMC3    C7 8176   2.828   4.549  17.239  0.0389  0.0049 -0.2090
  547TMC3    C8 8177   2.617   0.115  16.907  0.3728  0.9038 -0.0214
  547TMC3    O1 8178   2.816   4.536  17.360 -0.1467  0.4167 -0.4483
  547TMC3    O2 8179   2.567   0.220  16.880  0.6320 -0.0412  0.3051
  548MPD2     C 8180   2.987   0.816  12.771 -0.5160 -0.0699 -0.1291
  548MPD2    C1 8181   2.937   0.689  12.752 -0.3763 -0.2672  0.0339
  548MPD2    C2 8182   2.959   0.620  12.635 -0.6283  0.0394  0.1695
  548MPD2    C3 8183   3.027   0.682  12.532 -0.5914 -0.2635 -0.2220
  548MPD2    C4 8184   3.073   0.810  12.546 -0.4455 -0.1794 -0.0620
  548MPD2    C5 8185   3.051   0.881  12.668 -0.1917  0.2149 -0.1065
  548MPD2     H 8186   2.925   0.517  12.631 -3.9215  1.1604 -0.7895
  548MPD2    H1 8187   3.123   0.866  12.469  0.5537 -3.2177 -1.5975
  548MPD2    H2 8188   2.958   0.873  12.858 -1.3789  2.3602 -1.9856
  548MPD2    H3 8189   3.084   0.983  12.680  0.4280  0.1367 -1.1514
  548MPD2     N 8190   3.050   0.601  12.418  0.3443 -0.0391  0.1246
  548MPD2    H5 8191   3.030   0.502  12.428 -3.4097  0.7641  0.5694
  548MPD2    N1 8192   2.874   0.637  12.866  0.3176 -0.0128 -0.1833
  548MPD2    H7 8193   2.842   0.699  12.939  0.7785  0.3903 -0.3318
  549TMC3    C1 8194   2.721   0.484  12.974 -0.0051  0.1275  0.6950
  549TMC3    C2 8195   2.624   0.574  12.950 -0.6989  0.2622 -0.1555
  549TMC3    C3 8196   2.499   0.530  12.913  0.4113 -0.1909  0.5833
  549TMC3    C4 8197   2.696   0.349  12.976  0.3104 -0.1516  0.5721
  549TMC3    C5 8198   2.577   0.308  12.929 -0.6876 -0.0132 -0.0318
  549TMC3    C6 8199   2.471   0.394  12.904 -0.0652 -0.1807 -0.2009
  549TMC3     C 8200   2.841   0.505  12.893  0.4865  0.1825  1.0322
  549TMC3     O 8201   2.883   0.407  12.834 -0.4142  1.0629 -0.1901
  549TMC3     H 8202   2.652   0.677  12.973  0.6630  0.3668 -2.2686
  549TMC3    H1 8203   2.776   0.277  12.986  0.0334 -0.3655  1.2460
  549TMC3    H2 8204   2.371   0.368  12.871 -0.7099 -0.4295  1.9630
  549TMC3    C7 8205   2.559   0.174  12.870 -1.1419 -0.5549  0.6571
  549TMC3    C8 8206   2.421   0.618  12.833  0.2738  0.1689 -0.7076
  549TMC3    O1 8207   2.503   0.163  12.757  0.5354  0.0459 -0.7265
  549TMC3    O2 8208   2.301   0.594  12.829  0.2465  0.0984  0.3957
  550TMC3    C1 8209   1.835   3.266  12.388  0.5235  0.4274  0.2447
  550TMC3    C2 8210   1.843   3.296  12.525 -0.4191 -0.0947 -0.3101
  550TMC3    C3 8211   1.741   3.373  12.570 -0.9165 -0.8603  0.3641
  550TMC3    C4 8212   1.730   3.300  12.309  0.9030 -0.1050 -0.5635
  550TMC3    C5 8213   1.627   3.369  12.361 -0.7918 -0.8648 -0.6711
  550TMC3    C6 8214   1.631   3.403  12.491 -0.0809 -0.1021 -0.3345
  550TMC3     C 8215   1.943   3.182  12.333 -0.3004 -0.2131  0.3834
  550TMC3     O 8216   2.012   3.125  12.413 -0.3456  0.1154  0.1971
  550TMC3     H 8217   1.938   3.281  12.574 -0.7250 -2.0288 -0.3127
  550TMC3    H1 8218   1.725   3.273  12.204 -2.9785  0.4752 -0.5346
  550TMC3    H2 8219   1.553   3.466  12.531 -0.1374 -1.6072  1.9407
  550TMC3    C7 8220   1.509   3.409  12.286  0.5444  0.1085 -0.3228
  550TMC3    C8 8221   1.757   3.454  12.693  0.1421  0.2376 -0.5148
  550TMC3    O1 8222   1.418   3.437  12.363 -0.5136 -0.1108  0.0904
  550TMC3    O2 8223   1.715   3.567  12.684 -0.2510  0.0499 -0.4084
  551TMC3    C1 8224   3.593   1.641  13.536  0.1196 -0.0425  0.1958
  551TMC3    C2 8225   3.723   1.694  13.513  0.0368 -0.3948 -0.3600
  551TMC3    C3 8226   3.819   1.647  13.602  0.0771  0.4362 -0.4016
  551TMC3    C4 8227   3.570   1.557  13.645 -0.4676  0.0228  0.5775
  551TMC3    C5 8228   3.671   1.523  13.727  0.6709 -0.1196  0.6337
  551TMC3    C6 8229   3.794   1.574  13.714 -0.4310  0.1186  0.2556
  551TMC3     C 8230   3.547   1.604  13.407 -0.3656 -0.6035  1.6306
  551TMC3     O 8231   3.535   1.483  13.396 -0.3701 -0.0389 -0.1575
  551TMC3     H 8232   3.735   1.763  13.430  0.6193 -0.5185 -0.3800
  551TMC3    H1 8233   3.467   1.529  13.663 -0.2503 -1.6358 -0.6654
  551TMC3    H2 8234   3.879   1.532  13.767 -0.9063 -0.2695  0.7053
  551TMC3    C7 8235   3.648   1.473  13.857 -1.0621  0.1860 -0.0734
  551TMC3    C8 8236   3.952   1.699  13.579 -0.5696  0.1975  0.3952
  551TMC3    O1 8237   3.744   1.457  13.930 -0.6496 -0.5493  0.0106
  551TMC3    O2 8238   4.045   1.678  13.656 -0.8607 -0.1281 -0.6923
  552MPD2     C 8239   0.880   3.173  14.070 -0.0020 -0.5398 -0.4032
  552MPD2    C1 8240   0.947   3.060  14.113  0.7396  0.4095 -0.9189
  552MPD2    C2 8241   1.046   3.064  14.209  0.0089  0.3405  0.4980
  552MPD2    C3 8242   1.088   3.180  14.266 -0.1529  0.1397 -0.0886
  552MPD2    C4 8243   1.023   3.299  14.221 -0.5865 -0.3303  0.5883
  552MPD2    C5 8244   0.921   3.294  14.129  0.2669 -0.1725 -0.7769
  552MPD2     H 8245   1.096   2.972  14.239 -2.2073 -0.8194  0.6524
  552MPD2    H1 8246   1.049   3.392  14.270 -1.7808  1.5742 -2.3597
  552MPD2    H2 8247   0.814   3.173  13.984 -1.0975  0.5483  0.4424
  552MPD2    H3 8248   0.881   3.388  14.094 -1.3669 -0.6699 -0.2765
  552MPD2     N 8249   1.192   3.182  14.363  0.2169  0.1697 -0.3767
  552MPD2    H5 8250   1.235   3.274  14.376 -3.0669  1.4309  1.5198
  552MPD2    N1 8251   0.933   2.939  14.047  0.3033  0.2463  0.6301
  552MPD2    H7 8252   0.981   2.859  14.089  2.9395  1.3226 -0.3576
  553TMC3    C1 8253   0.932   2.778  13.899  0.2871  0.5685 -0.3182
  553TMC3    C2 8254   1.014   2.780  13.792  0.1179 -0.7436 -0.1457
  553TMC3    C3 8255   1.149   2.739  13.813 -0.1143  0.2596 -0.3033
  553TMC3    C4 8256   0.971   2.706  14.009  0.1352  0.2002  0.4964
  553TMC3    C5 8257   1.100   2.661  14.025  0.7138  0.5447  0.6599
  553TMC3    C6 8258   1.199   2.683  13.928  0.3751 -0.3388  0.1781
  553TMC3     C 8259   0.876   2.905  13.930 -0.3454 -0.0587  0.0343
  553TMC3     O 8260   0.835   2.977  13.842 -0.0136  0.1186 -0.2484
  553TMC3     H 8261   0.981   2.827  13.701 -0.7236  0.2333  0.6616
  553TMC3    H1 8262   0.896   2.698  14.087 -1.5523  0.7059 -1.0676
  553TMC3    H2 8263   1.300   2.647  13.943  0.8389  0.9416  0.1235
  553TMC3    C7 8264   1.140   2.671  14.165  0.5299  0.2477  0.3337
  553TMC3    C8 8265   1.247   2.709  13.702 -0.7033 -0.3707 -0.1599
  553TMC3    O1 8266   1.068   2.742  14.235  0.1154  0.0151  0.7938
  553TMC3    O2 8267   1.368   2.702  13.731  0.3069  0.2622  0.3415
  554TMC3    C1 8268   3.300   2.614  11.204 -0.4043 -0.0880  0.3913
  554TMC3    C2 8269   3.215   2.538  11.132  0.9293  0.7419  0.4188
  554TMC3    C3 8270   3.177   2.577  11.003  0.1391  0.0811  0.8455
  554TMC3    C4 8271   3.346   2.736  11.159  0.1978 -0.2007 -0.3476
  554TMC3    C5 8272   3.304   2.779  11.038 -0.4327 -0.2621 -0.5473
  554TMC3    C6 8273   3.223   2.702  10.954 -0.1622  0.6375 -0.0916
  554TMC3     C 8274   3.363   2.564  11.319 -0.1283  0.0180  0.2668
  554TMC3     O 8275   3.465   2.621  11.356  0.4178 -0.3833 -0.2815
  554TMC3     H 8276   3.205   2.432  11.154 -0.9566  1.1017  1.2816
  554TMC3    H1 8277   3.426   2.783  11.215  0.1138 -1.0964  0.5187
  554TMC3    H2 8278   3.185   2.753  10.866 -0.9834 -3.3294 -2.0285
  554TMC3    C7 8279   3.326   2.920  11.004 -0.8350 -0.2411 -0.7896
  554TMC3    C8 8280   3.115   2.472  10.915  0.0114  0.1499 -0.0443
  554TMC3    O1 8281   3.276   2.959  10.899 -0.1368  0.0326  0.1261
  554TMC3    O2 8282   3.132   2.351  10.935  0.3161  0.1438 -0.5547
  555TMC3    C1 8283   1.684   1.531  14.743  0.0501  0.8280 -0.0091
  555TMC3    C2 8284   1.651   1.650  14.799 -0.8683  0.2164  0.9457
  555TMC3    C3 8285   1.654   1.649  14.937 -0.0421 -0.1677  0.0008
  555TMC3    C4 8286   1.719   1.418  14.804  0.2051 -0.0837 -0.1244
  555TMC3    C5 8287   1.724   1.423  14.941 -0.1576  1.2244 -0.2206
  555TMC3    C6 8288   1.673   1.530  15.009  0.7689 -0.3727 -0.0505
  555TMC3     C 8289   1.712   1.531  14.597 -0.0358 -0.1850  0.1633
  555TMC3     O 8290   1.805   1.456  14.561 -0.0967 -0.1613  0.2153
  555TMC3     H 8291   1.633   1.742  14.745 -1.4921 -0.5056 -0.0779
  555TMC3    H1 8292   1.745   1.333  14.742 -0.0727 -0.3473  0.1183
  555TMC3    H2 8293   1.664   1.529  15.117  2.5844  0.4545  0.1181
  555TMC3    C7 8294   1.758   1.311  15.024  0.2324  0.1057 -0.1587
  555TMC3    C8 8295   1.617   1.769  15.005  0.7187 -0.4474  0.2538
  555TMC3    O1 8296   1.730   1.307  15.144  0.5517  0.5493  0.2712
  555TMC3    O2 8297   1.532   1.841  14.955  0.2494 -0.7609 -0.0705
  556MPD2     C 8298   4.697   4.295  10.774  0.2974  0.0332 -0.7090
  556MPD2    C1 8299   4.645   4.173  10.819 -0.2455  0.1546  1.0463
  556MPD2    C2 8300   4.675   4.057  10.740 -0.1288 -0.0029  0.4027
  556MPD2    C3 8301   0.006   4.076  10.616  0.5589 -0.3485  0.5221
  556MPD2    C4 8302   0.049   4.202  10.574  0.5262 -0.0975 -0.5655
  556MPD2    C5 8303   0.026   4.306  10.656  0.0271  0.5056  0.0647
  556MPD2     H 8304   4.645   3.955  10.759 -1.1070  0.1281 -0.4567
  556MPD2    H1 8305   0.092   4.222  10.477  0.8538  0.5766 -0.2790
  556MPD2    H2 8306   4.676   4.392  10.818  0.2837 -0.2391 -0.1215
  556MPD2    H3 8307   0.064   4.405  10.636  1.3755 -0.3350 -1.5365
  556MPD2     N 8308   0.011   3.965  10.532  0.1020  0.2246 -0.2592
  556MPD2    H5 8309   4.711   3.877  10.565 -1.6732  1.1831  0.2434
  556MPD2    N1 8310   4.578   4.168  10.943 -0.2078  0.3002  0.1146
  556MPD2    H7 8311   4.591   4.083  10.996 -0.3767  0.3080  0.1666
  557TMC3    C1 8312   0.094   3.828  10.353  0.4288 -0.3050  0.2199
  557TMC3    C2 8313   0.061   3.806  10.222 -0.4139 -0.4352  0.8046
  557TMC3    C3 8314   0.014   3.681  10.174 -0.1580  0.0508  0.8137
  557TMC3    C4 8315   0.079   3.726  10.446  0.1405 -0.6469  0.5747
  557TMC3    C5 8316   0.033   3.605  10.391 -0.2901 -0.3276 -0.2014
  557TMC3    C6 8317   0.001   3.575  10.258 -0.2099 -0.3045  0.7316
  557TMC3     C 8318   0.075   3.962  10.409  0.2098  0.7597  0.2778
  557TMC3     O 8319   0.125   4.053  10.340 -0.3286 -0.3036  0.7149
  557TMC3     H 8320   0.053   3.893  10.158 -0.0946 -1.5280 -0.7362
  557TMC3    H1 8321   0.112   3.740  10.548 -1.0561 -2.6629  1.2535
  557TMC3    H2 8322   4.709   3.475  10.230 -0.7789  0.2911 -0.7815
  557TMC3    C7 8323   0.005   3.518  10.504 -0.6688 -0.8793 -0.7392
  557TMC3    C8 8324   4.702   3.683  10.033  0.9419  0.3610 -0.2452
  557TMC3    O1 8325   4.718   3.569  10.610 -0.6616  0.2830  0.2128
  557TMC3    O2 8326   4.709   3.791   9.976 -0.1223 -0.3864 -0.0616
  558TMC3    C1 8327   2.202   2.077  10.738  0.1208  0.2836  0.6086
  558TMC3    C2 8328   2.105   2.009  10.803 -0.7268 -0.0905  0.3639
  558TMC3    C3 8329   1.991   1.982  10.742 -0.8461  0.1292  0.2669
  558TMC3    C4 8330   2.189   2.115  10.605 -0.1317 -0.3751 -0.4530
  558TMC3    C5 8331   2.075   2.071  10.543 -0.4527  0.4107  0.5191
  558TMC3    C6 8332   1.975   2.007  10.611 -0.7382  0.6340  0.5448
  558TMC3     C 8333   2.339   2.052  10.796  0.7357  0.3335 -0.0348
  558TMC3     O 8334   2.335   1.964  10.883  0.4285  0.1191  0.4399
  558TMC3     H 8335   2.117   2.000  10.911  2.3970  0.6320  0.0799
  558TMC3    H1 8336   2.257   2.190  10.567 -0.8923  0.2933 -0.5082
  558TMC3    H2 8337   1.892   1.956  10.563 -1.0415  1.2739  0.3934
  558TMC3    C7 8338   2.057   2.117  10.409 -0.0795 -0.3923  0.2720
  558TMC3    C8 8339   1.916   1.865  10.784  0.5149 -0.0328  0.5706
  558TMC3    O1 8340   2.151   2.179  10.357 -0.4139  0.0683  0.7585
  558TMC3    O2 8341   1.807   1.845  10.731  0.4094 -0.1433 -0.0048
  559MPD2     C 8342   2.576   2.575  11.058  0.3726 -0.1795 -0.6991
  559MPD2    C1 8343   2.522   2.471  11.116  0.4467  0.7142 -0.3584
  559MPD2    C2 8344   2.590   2.391  11.195 -0.8911 -0.1035  0.0016
  559MPD2    C3 8345   2.726   2.399  11.207  0.3240  0.5341  0.3148
  559MPD2    C4 8346   2.786   2.512  11.152  0.2103 -0.3398 -0.1385
  559MPD2    C5 8347   2.709   2.598  11.079 -0.1136 -0.6010  0.2154
  559MPD2     H 8348   2.535   2.314  11.249 -1.6978 -0.0359 -0.7215
  559MPD2    H1 8349   2.893   2.529  11.163 -0.2288  1.5228  1.2609
  559MPD2    H2 8350   2.520   2.640  10.992  0.0166 -0.8952 -1.1030
  559MPD2    H3 8351   2.751   2.676  11.017 -2.1420  0.0997 -0.2586
  559MPD2     N 8352   2.796   2.298  11.278 -0.5497  0.0321 -0.5644
  559MPD2    H5 8353   2.737   2.219  11.298 -1.6323  0.7201 -1.0330
  559MPD2    N1 8354   2.384   2.449  11.081 -0.3713 -0.9820  0.3657
  559MPD2    H7 8355   2.334   2.525  11.036  1.1437  0.0757  0.4403
  560TMC3    C1 8356   2.975   2.156  11.337 -0.3801  0.5348  0.3517
  560TMC3    C2 8357   2.882   2.057  11.376 -0.2580 -0.0704 -0.1763
  560TMC3    C3 8358   2.932   1.946  11.438  0.5648 -0.2719 -0.0503
  560TMC3    C4 8359   3.109   2.138  11.347  0.5133 -0.4165  0.5943
  560TMC3    C5 8360   3.153   2.020  11.409 -0.1465 -0.5830  0.4868
  560TMC3    C6 8361   3.067   1.927  11.456  0.0546  0.8127 -0.0988
  560TMC3     C 8362   2.931   2.288  11.290  0.4203  0.7072 -0.2112
  560TMC3     O 8363   3.020   2.376  11.290 -0.0827 -0.6018 -0.0959
  560TMC3     H 8364   2.776   2.059  11.353  0.0102 -1.4957 -1.4949
  560TMC3    H1 8365   3.179   2.214  11.315 -1.2245  0.1088 -1.9671
  560TMC3    H2 8366   3.112   1.852  11.520  1.0008 -0.0698 -1.8355
  560TMC3    C7 8367   3.297   1.997  11.431  0.4130 -0.2448  1.1506
  560TMC3    C8 8368   2.836   1.835  11.456 -0.4487 -0.0335 -0.1986
  560TMC3    O1 8369   3.331   1.918  11.520  0.5377  0.4789  0.4614
  560TMC3    O2 8370   2.727   1.853  11.411  0.2250 -0.0209 -0.2777
  561TMC3    C1 8371   0.489   1.321  11.044  0.4300  0.0450 -0.0379
  561TMC3    C2 8372   0.394   1.223  11.036 -0.8386 -0.0707 -0.4233
  561TMC3    C3 8373   0.263   1.252  11.083 -0.9510  0.7748  0.1027
  561TMC3    C4 8374   0.451   1.450  11.088  0.7020  0.7315 -0.0534
  561TMC3    C5 8375   0.321   1.474  11.121  0.1468  0.5175  0.1020
  561TMC3    C6 8376   0.225   1.375  11.123  0.2990 -0.2337  0.4763
  561TMC3     C 8377   0.618   1.268  11.075 -0.1607  0.5787 -0.8806
  561TMC3     O 8378   0.660   1.174  11.003 -0.2186  0.2028 -0.1339
  561TMC3     H 8379   0.427   1.124  11.004  0.9376 -0.0186  1.2476
  561TMC3    H1 8380   0.521   1.532  11.079  0.9561  0.7001  1.5401
  561TMC3    H2 8381   0.131   1.385  11.177 -0.0830 -0.3806 -0.1642
  561TMC3    C7 8382   0.274   1.612  11.143  0.6104  0.3638 -0.5880
  561TMC3    C8 8383   0.196   1.138  11.139 -0.2300  0.5281  0.3944
  561TMC3    O1 8384   0.161   1.627  11.113  0.7912 -0.0342  0.0324
  561TMC3    O2 8385   0.209   1.040  11.068 -0.6815 -0.4478  0.1735
  562TMC3    C1 8386   1.734   1.967  16.156 -0.4005  0.1931 -0.5448
  562TMC3    C2 8387   1.628   2.045  16.127  0.6357  0.1516  0.4193
  562TMC3    C3 8388   1.556   2.020  16.018 -0.3248  0.0205  0.0791
  562TMC3    C4 8389   1.777   1.871  16.072  0.4293  0.1766  0.9366
  562TMC3    C5 8390   1.703   1.846  15.959 -0.6764 -1.1970 -0.2340
  562TMC3    C6 8391   1.588   1.919  15.934  0.0299  0.3514 -0.0856
  562TMC3     C 8392   1.805   2.015  16.273  0.1214  0.3623 -0.0523
  562TMC3     O 8393   1.763   2.112  16.334  0.0142  0.5871 -0.4767
  562TMC3     H 8394   1.599   2.128  16.192 -1.6153  1.3289 -2.1309
  562TMC3    H1 8395   1.860   1.809  16.104  0.2775  0.6468  2.2776
  562TMC3    H2 8396   1.516   1.896  15.857  1.3228 -2.3331 -0.4939
  562TMC3    C7 8397   1.735   1.733  15.867  0.4017 -0.5231 -0.3433
  562TMC3    C8 8398   1.453   2.111  15.977 -0.2779 -0.6657 -0.0978
  562TMC3    O1 8399   1.682   1.731  15.754  0.0330 -0.1004 -0.5457
  562TMC3    O2 8400   1.420   2.121  15.861  0.3522  0.7846  0.0179
  563MPD2     C 8401   4.478   3.728  15.516  0.5971 -0.7057  0.1635
  563MPD2    C1 8402   4.354   3.668  15.514 -0.2728  0.1057  0.3872
  563MPD2    C2 8403   4.338   3.546  15.457 -0.7628  0.1212 -1.0516
  563MPD2    C3 8404   4.444   3.477  15.409  0.5336  0.0708  0.8325
  563MPD2    C4 8405   4.572   3.535  15.414 -0.6877 -0.3096 -0.1895
  563MPD2    C5 8406   4.585   3.658  15.464 -0.5877 -0.3327  1.2848
  563MPD2     H 8407   4.240   3.500  15.448  0.2643 -1.8827 -1.8089
  563MPD2    H1 8408   4.660   3.471  15.406 -0.0297  0.6037 -0.2528
  563MPD2    H2 8409   4.494   3.831  15.547  3.0061 -1.2022  0.5193
  563MPD2    H3 8410   4.686   3.695  15.475 -0.9314  0.9626  0.0590
  563MPD2     N 8411   4.426   3.335  15.388  0.1279 -0.6207 -0.0339
  563MPD2    H5 8412   4.339   3.295  15.421  0.6271 -0.2098  1.7920
  563MPD2    N1 8413   4.255   3.730  15.588 -0.5604  0.8285 -0.5535
  563MPD2    H7 8414   4.294   3.806  15.641 -0.5916 -0.3045  1.0908
  564TMC3    C1 8415   4.075   3.728  15.728  0.1101  0.4233 -0.6249
  564TMC3    C2 8416   3.943   3.737  15.735  0.6367 -0.1526  0.3902
  564TMC3    C3 8417   3.876   3.690  15.845  1.2816  0.9747 -0.6389
  564TMC3    C4 8418   4.149   3.683  15.842  0.4416  0.0551 -0.2235
  564TMC3    C5 8419   4.084   3.655  15.962  0.4501 -0.4079 -0.4356
  564TMC3    C6 8420   3.945   3.662  15.966  0.2749 -0.2925  0.3368
  564TMC3     C 8421   4.126   3.685  15.602  0.0970  0.3383 -0.0933
  564TMC3     O 8422   4.053   3.628  15.519  0.3336  0.2087 -0.4792
  564TMC3     H 8423   3.893   3.769  15.644  1.7436 -1.6510 -0.7333
  564TMC3    H1 8424   4.257   3.682  15.831  0.3504  0.0676 -1.1378
  564TMC3    H2 8425   3.901   3.614  16.052 -0.2861 -1.1993 -0.4575
  564TMC3    C7 8426   4.127   3.531  16.022  0.3558  0.4627  0.6210
  564TMC3    C8 8427   3.807   3.566  15.811  0.8603 -0.0154  0.5846
  564TMC3    O1 8428   4.072   3.495  16.129  0.2393 -0.2833 -0.4269
  564TMC3    O2 8429   3.740   3.519  15.902  0.3258 -0.3751  0.5313
  565TMC3    C1 8430   0.133   1.388  10.288 -0.7252 -0.4875  0.1126
  565TMC3    C2 8431   0.015   1.330  10.327  0.0838 -0.0880 -0.3385
  565TMC3    C3 8432   4.644   1.345  10.243 -0.4070  0.4868 -0.1305
  565TMC3    C4 8433   0.141   1.455  10.173 -0.6433 -0.2413 -0.0846
  565TMC3    C5 8434   0.037   1.469  10.089 -0.5161 -0.1227 -0.2997
  565TMC3    C6 8435   4.652   1.411  10.119  0.3812  0.7773  0.0584
  565TMC3     C 8436   0.260   1.358  10.355 -0.8256 -0.1574 -0.0162
  565TMC3     O 8437   0.358   1.408  10.300 -0.0274  0.3325 -0.1611
  565TMC3     H 8438   0.007   1.269  10.417  0.2375  0.4781  0.0583
  565TMC3    H1 8439   0.236   1.492  10.135 -0.9153  0.0325 -0.5031
  565TMC3    H2 8440   4.564   1.434  10.060 -0.7273  1.0825  1.8560
  565TMC3    C7 8441   0.055   1.555   9.972 -0.2614  0.3117 -0.5346
  565TMC3    C8 8442   4.528   1.260  10.265 -0.4863 -0.0220  0.7444
  565TMC3    O1 8443   0.159   1.615   9.960  0.4857  0.1913  0.0212
  565TMC3    O2 8444   4.539   1.169  10.346  0.0784 -0.4959 -0.2680
  566MPD2     C 8445   0.838   1.424  14.237  0.3095  0.3917  0.2568
  566MPD2    C1 8446   0.930   1.473  14.147 -0.1477  0.0399  0.1172
  566MPD2    C2 8447   0.878   1.546  14.040 -0.4037  0.1307  0.3574
  566MPD2    C3 8448   0.745   1.573  14.028  0.2483 -0.5328 -0.5765
  566MPD2    C4 8449   0.665   1.543  14.128 -0.0443 -0.3965 -0.1479
  566MPD2    C5 8450   0.710   1.471  14.236 -0.0598  0.4302  0.6698
  566MPD2     H 8451   0.943   1.549  13.953 -1.4991 -0.5137 -0.4912
  566MPD2    H1 8452   0.559   1.566  14.129  0.4654  1.9562  0.9634
  566MPD2    H2 8453   0.869   1.363  14.321 -0.1179 -0.9881 -0.5815
  566MPD2    H3 8454   0.642   1.442  14.315  0.5305  2.4837  1.9341
  566MPD2     N 8455   0.695   1.622  13.905  0.2210 -0.2010 -0.1313
  566MPD2    H5 8456   0.765   1.643  13.834  2.6462 -0.0773  2.2940
  566MPD2    N1 8457   1.065   1.434  14.161 -0.1093 -0.1474  0.0765
  566MPD2    H7 8458   1.079   1.358  14.226 -0.0784 -0.8272 -0.7172
  567TMC3    C1 8459   1.286   1.390  14.086 -0.0057  0.1598  0.2205
  567TMC3    C2 8460   1.340   1.378  13.960  0.1211 -0.4897 -0.2233
  567TMC3    C3 8461   1.473   1.344  13.954  0.7928 -0.6810  0.2643
  567TMC3    C4 8462   1.354   1.378  14.207 -0.0546  0.3831  0.8476
  567TMC3    C5 8463   1.485   1.346  14.188 -0.2394  0.0340  0.0989
  567TMC3    C6 8464   1.547   1.335  14.069 -0.5421  0.0935  0.5424
  567TMC3     C 8465   1.166   1.468  14.073  0.2395  0.6753  0.1913
  567TMC3     O 8466   1.167   1.555  13.987 -0.3044 -0.0341  0.0643
  567TMC3     H 8467   1.278   1.382  13.871 -1.6049  0.8698  1.0490
  567TMC3    H1 8468   1.302   1.384  14.301 -0.6905 -0.6274  0.5687
  567TMC3    H2 8469   1.654   1.319  14.071 -0.4326  0.4428 -2.0409
  567TMC3    C7 8470   1.571   1.296  14.296  0.8644  0.5132 -0.0624
  567TMC3    C8 8471   1.523   1.379  13.824 -0.2095  0.3077 -0.4128
  567TMC3    O1 8472   1.684   1.252  14.274  0.7807  0.2046  0.6956
  567TMC3    O2 8473   1.448   1.436  13.748 -0.4035 -0.1399 -0.0860
  568MPD2     C 8474   3.415   2.193  16.199  0.3108 -0.0865  0.2981
  568MPD2    C1 8475   3.473   2.249  16.306  0.6329 -0.0247 -0.1419
  568MPD2    C2 8476   3.502   2.382  16.307  0.0939 -0.1715  0.5607
  568MPD2    C3 8477   3.488   2.455  16.192  0.0704  0.6075 -0.4069
  568MPD2    C4 8478   3.422   2.401  16.085  0.7729  0.0364  0.3442
  568MPD2    C5 8479   3.392   2.269  16.089 -0.2058  0.3788 -0.2722
  568MPD2     H 8480   3.537   2.434  16.396  0.1989 -2.6905  1.9904
  568MPD2    H1 8481   3.417   2.445  15.986  3.6405 -0.1864  0.1093
  568MPD2    H2 8482   3.390   2.088  16.195  0.9736 -0.2088 -0.6084
  568MPD2    H3 8483   3.344   2.225  16.002 -0.7276 -0.0388  0.2272
  568MPD2     N 8484   3.527   2.589  16.199 -0.3180 -0.3796 -0.4055
  568MPD2    H5 8485   3.570   2.628  16.282 -1.1587  1.0012 -0.6299
  568MPD2    N1 8486   3.489   2.166  16.418  0.0900  0.5110  0.3543
  568MPD2    H7 8487   3.456   2.070  16.407  2.4621 -0.2009 -0.7171
  569TMC3    C1 8488   3.620   2.777  16.112  0.1988  0.3693 -0.3761
  569TMC3    C2 8489   3.609   2.855  16.225  0.1273  0.5590  0.5334
  569TMC3    C3 8490   3.692   2.964  16.239 -0.6890 -0.1384 -0.1350
  569TMC3    C4 8491   3.703   2.791  16.009  0.1249  0.0147  0.3640
  569TMC3    C5 8492   3.798   2.883  16.035 -0.8217  0.9048 -0.1224
  569TMC3    C6 8493   3.796   2.968  16.146  0.2447 -0.3962 -0.5362
  569TMC3     C 8494   3.524   2.679  16.091 -0.3968  0.2658  1.6965
  569TMC3     O 8495   3.482   2.662  15.977 -0.7026  0.5186  0.0679
  569TMC3     H 8496   3.526   2.836  16.292  0.5782  0.3640  1.0402
  569TMC3    H1 8497   3.696   2.740  15.914  2.5965  0.9598 -0.3480
  569TMC3    H2 8498   3.879   3.036  16.160  1.6437 -2.2622  0.2036
  569TMC3    C7 8499   3.857   2.931  15.915 -0.8026  0.6005 -0.3238
  569TMC3    C8 8500   3.711   3.011  16.374 -0.5373 -0.0561  0.3103
  569TMC3    O1 8501   3.898   2.850  15.836 -0.0579 -0.7445 -0.2197
  569TMC3    O2 8502   3.631   2.959  16.455 -0.0392 -0.2720  0.0760
  570TMC3    C1 8503   3.055   1.064  16.274 -0.2125 -0.6023 -0.3020
  570TMC3    C2 8504   3.120   1.020  16.160 -0.0078 -0.3028  0.2238
  570TMC3    C3 8505   3.115   1.116  16.066 -0.0835  0.1937  0.4799
  570TMC3    C4 8506   3.003   1.186  16.292 -0.4142 -0.0141  0.5443
  570TMC3    C5 8507   3.000   1.270  16.188 -0.3744 -1.0585  0.1326
  570TMC3    C6 8508   3.058   1.240  16.071 -0.5003 -0.5939  0.2372
  570TMC3     C 8509   3.045   0.960  16.375 -0.8378  0.4860 -0.1793
  570TMC3     O 8510   3.059   0.848  16.329  0.2685  0.5156 -0.4162
  570TMC3     H 8511   3.170   0.924  16.150  2.6287  1.0200  0.7000
  570TMC3    H1 8512   2.943   1.215  16.377  0.2057  2.2676  0.2250
  570TMC3    H2 8513   3.063   1.301  15.982 -0.0270  0.5590  1.0447
  570TMC3    C7 8514   2.952   1.407  16.210 -0.2179  0.1066 -0.4755
  570TMC3    C8 8515   3.191   1.106  15.942 -0.7705 -0.1350 -0.2315
  570TMC3    O1 8516   2.947   1.438  16.325 -0.1661  0.1749 -0.6284
  570TMC3    O2 8517   3.262   1.204  15.923 -0.1104 -0.1000  0.0757
  571MPD2     C 8518   0.744   3.168  17.594 -0.3197  0.2314 -0.2940
  571MPD2    C1 8519   0.693   3.199  17.718 -0.6027  0.3985 -0.8566
  571MPD2    C2 8520   0.701   3.323   0.025 -0.2061  0.2722 -0.1980
  571MPD2    C3 8521   0.763   3.422  17.706  0.3200  0.1832  0.2658
  571MPD2    C4 8522   0.813   3.396  17.585 -0.0059 -0.2224  0.2117
  571MPD2    C5 8523   0.808   3.271  17.533 -0.3062  0.0971 -0.2499
  571MPD2     H 8524   0.677   3.341   0.129 -1.0454 -0.1162 -0.3318
  571MPD2    H1 8525   0.866   3.459  17.514 -1.2476 -0.7727 -1.2098
  571MPD2    H2 8526   0.762   3.069  17.553  2.7336  1.7322 -2.5869
  571MPD2    H3 8527   0.853   3.253  17.436 -0.5965 -0.4709 -0.2758
  571MPD2     N 8528   0.788   3.546   0.023  0.0379  0.0546  0.0834
  571MPD2    H5 8529   0.872   3.600   0.002 -0.1267 -0.5087 -2.0860
  571MPD2    N1 8530   0.613   3.094   0.017 -0.1757 -0.1064  0.3066
  571MPD2    H7 8531   0.619   3.007  17.714 -0.9309  0.7967 -1.2917
  572TMC3    C1 8532   0.779   3.712   0.194 -0.1426  0.1810  1.0021
  572TMC3    C2 8533   0.751   3.740   0.325  0.1056 -0.0715 -0.1877
  572TMC3    C3 8534   0.756   3.877   0.362 -0.0820  0.1010 -0.3288
  572TMC3    C4 8535   0.824   3.813   0.105  0.4647  0.2494  0.2190
  572TMC3    C5 8536   0.847   3.934   0.154  0.0725 -0.2717 -0.0407
  572TMC3    C6 8537   0.823   3.967   0.284  0.9349 -0.3494  0.4147
  572TMC3     C 8538   0.717   3.601   0.130  0.3518 -0.1107 -0.8626
  572TMC3     O 8539   0.614   3.564   0.186  0.1722  0.5009 -0.2036
  572TMC3     H 8540   0.687   3.670   0.377  1.2522 -2.2435 -1.7089
  572TMC3    H1 8541   0.865   3.791   0.007 -0.5251  1.1793 -0.4087
  572TMC3    H2 8542   0.821   4.073   0.308 -2.3547 -0.1077 -0.9382
  572TMC3    C7 8543   0.883   4.032   0.056  0.8874  0.0579  0.1077
  572TMC3    C8 8544   0.717   3.922   0.495 -0.6801 -0.0904 -0.9148
  572TMC3    O1 8545   0.855   4.010  17.688 -0.1453 -0.3591  0.3853
  572TMC3    O2 8546   0.753   4.037   0.526  0.0260 -0.0647  0.1702
  573MPD2     C 8547   3.018   3.965   0.416  0.3213  1.3075 -0.4843
  573MPD2    C1 8548   2.880   3.952   0.426  0.5275 -0.1840  0.1244
  573MPD2    C2 8549   2.805   3.891   0.331 -0.0038  0.4947 -0.5627
  573MPD2    C3 8550   2.867   3.850   0.212  0.1818 -0.3178  0.6917
  573MPD2    C4 8551   3.002   3.853   0.200 -0.0051 -0.5546 -0.1112
  573MPD2    C5 8552   3.074   3.907   0.302  0.2120  0.2805  0.0741
  573MPD2     H 8553   2.701   3.871   0.350  0.3457 -0.5388  0.2741
  573MPD2    H1 8554   3.053   3.810   0.115  4.1128 -0.7969  2.5157
  573MPD2    H2 8555   3.087   4.017   0.481  0.5516  2.4504 -1.6445
  573MPD2    H3 8556   3.181   3.911   0.283 -0.1210 -0.3282 -1.9408
  573MPD2     N 8557   2.795   3.783   0.104 -0.3179 -1.3580 -0.1046
  573MPD2    H5 8558   2.858   3.753   0.030  1.7976 -0.9588  1.5604
  573MPD2    N1 8559   2.823   4.006   0.545 -0.8677  0.9088  0.2120
  573MPD2    H7 8560   2.883   4.047   0.615  2.6559 -1.0571 -1.6558
  574TMC3    C1 8561   2.604   3.689  17.730  0.3609 -0.4732 -0.6936
  574TMC3    C2 8562   2.489   3.616   0.001  0.2385  0.1695 -0.1984
  574TMC3    C3 8563   2.421   3.579  17.641  0.4086  0.1969  0.2319
  574TMC3    C4 8564   2.661   3.697  17.607 -0.4684 -0.1747  0.0067
  574TMC3    C5 8565   2.596   3.645  17.498  0.3172  0.1055 -0.2152
  574TMC3    C6 8566   2.471   3.594  17.515  0.2062  0.3251 -0.3252
  574TMC3     C 8567   2.657   3.758   0.094  0.3474 -0.0560 -0.0724
  574TMC3     O 8568   2.566   3.793   0.171 -0.4338  0.9647  0.1650
  574TMC3     H 8569   2.429   3.613   0.092 -2.0668  3.1169 -1.6243
  574TMC3    H1 8570   2.749   3.759  17.592 -0.3284 -0.0492  1.3314
  574TMC3    H2 8571   2.409   3.560  17.433  0.7210  0.6218 -0.8422
  574TMC3    C7 8572   2.632   3.684  17.365 -0.2612  0.0271 -0.4589
  574TMC3    C8 8573   2.275   3.587  17.668  0.1756  0.8878  0.2415
  574TMC3    O1 8574   2.706   3.779  17.356 -0.0263  0.1205  0.0779
  574TMC3    O2 8575   2.226   3.536   0.022  0.1715  0.4265 -0.3256
  575TMC3    C1 8576   4.365   0.419  10.250  0.1524 -0.2544 -0.4807
  575TMC3    C2 8577   4.312   0.364  10.135  0.0043  0.4571  0.7895
  575TMC3    C3 8578   4.272   0.454  10.037 -0.3890  0.5668 -0.8321
  575TMC3    C4 8579   4.350   0.549  10.281 -0.8010  0.0993  0.2228
  575TMC3    C5 8580   4.302   0.639  10.183  0.3664 -0.0389 -0.0035
  575TMC3    C6 8581   4.280   0.589  10.056 -0.8249 -0.5895  0.2123
  575TMC3     C 8582   4.391   0.325  10.360 -0.3905 -0.1248  0.2751
  575TMC3     O 8583   4.330   0.217  10.366  0.3288 -0.1884  0.6520
  575TMC3     H 8584   4.328   0.257  10.124  3.3921  0.9040  1.2542
  575TMC3    H1 8585   4.371   0.586  10.381 -1.9490  0.1523  0.4435
  575TMC3    H2 8586   4.239   0.650   9.976  0.7346 -0.3431 -0.4084
  575TMC3    C7 8587   4.332   0.780  10.206  0.0669 -0.4902 -0.7435
  575TMC3    C8 8588   4.264   0.404   9.899 -0.1905 -0.2676  0.6732
  575TMC3    O1 8589   4.404   0.813  10.308 -0.2546  0.7121  0.2214
  575TMC3    O2 8590   4.265   0.486   9.807 -0.2471  0.2623 -0.3876
  576MPD2     C 8591   4.682   0.885  12.573 -0.3604  1.1170 -0.9479
  576MPD2    C1 8592   4.606   0.985  12.523  0.0317 -0.4774 -0.2004
  576MPD2    C2 8593   4.539   1.074  12.609 -0.6386 -0.6307  0.5374
  576MPD2    C3 8594   4.548   1.061  12.747  0.5376 -0.5999  0.3376
  576MPD2    C4 8595   4.618   0.955  12.799  0.0031  0.3962 -0.0218
  576MPD2    C5 8596   4.687   0.868  12.715  0.0495  0.9094  0.4174
  576MPD2     H 8597   4.475   1.157  12.582  1.6507  1.7325  2.3467
  576MPD2    H1 8598   4.639   0.945  12.905  0.4090 -0.9613 -0.2223
  576MPD2    H2 8599   4.720   0.804  12.513  1.9262  0.6028  1.2401
  576MPD2    H3 8600   4.736   0.787  12.767  0.0886 -0.9264 -2.4958
  576MPD2     N 8601   4.486   1.165  12.816 -0.9863  0.2560  0.1617
  576MPD2    H5 8602   4.439   1.237  12.762 -1.0317  1.4360  1.7646
  576MPD2    N1 8603   4.610   1.007  12.386 -0.2543 -0.1392  0.1329
  576MPD2    H7 8604   4.567   1.092  12.350 -1.1061 -0.8627 -0.5630
  577TMC3    C1 8605   4.655   0.982  12.161 -0.2908 -0.5962  0.0169
  577TMC3    C2 8606   4.641   0.902  12.044  0.1213 -0.1036 -0.0070
  577TMC3    C3 8607   4.660   0.974  11.923 -0.4411  0.1805 -0.6550
  577TMC3    C4 8608   4.668   1.119  12.158 -0.7787  0.6685  0.2686
  577TMC3    C5 8609   4.673   1.182  12.037 -0.8112 -0.1853  0.6782
  577TMC3    C6 8610   4.670   1.116  11.918 -0.2578  0.2723 -0.1935
  577TMC3     C 8611   4.654   0.917  12.289 -0.1564 -0.3106  0.4035
  577TMC3     O 8612   4.678   0.798  12.283 -0.2109 -0.3753  0.0267
  577TMC3     H 8613   4.625   0.797  12.062 -3.5346  0.6584  1.0600
  577TMC3    H1 8614   4.690   1.175  12.248 -1.7765 -0.4925  1.2391
  577TMC3    H2 8615   4.667   1.175  11.828  1.5821  0.7930  0.0964
  577TMC3    C7 8616   4.702   1.320  12.040  0.4798  0.3778 -0.1596
  577TMC3    C8 8617   4.680   0.907  11.801  0.1800 -0.2481  0.1634
  577TMC3    O1 8618   0.035   1.361  12.131 -0.1301 -0.1479 -0.2222
  577TMC3    O2 8619   4.652   0.787  11.797 -0.8339 -0.2234  0.5433
  578MPD2     C 8620   2.410   1.698   0.704  0.0177  0.3875 -0.0044
  578MPD2    C1 8621   2.521   1.700   0.784 -0.7598 -0.2754  0.3457
  578MPD2    C2 8622   2.556   1.591   0.856  0.0660 -0.5879  0.5661
  578MPD2    C3 8623   2.479   1.478   0.862 -0.2899 -0.0249  0.8808
  578MPD2    C4 8624   2.366   1.469   0.778 -0.1518  0.0734 -0.1384
  578MPD2    C5 8625   2.335   1.579   0.699 -0.8072  0.2966  0.3716
  578MPD2     H 8626   2.647   1.576   0.913 -0.2774  0.5844  1.4140
  578MPD2    H1 8627   2.299   1.385   0.762  0.5148 -0.5422  0.2960
  578MPD2    H2 8628   2.378   1.782   0.643  1.0124  0.8937  0.1701
  578MPD2    H3 8629   2.247   1.584   0.636  0.3329 -1.3637 -1.3367
  578MPD2     N 8630   2.534   1.369   0.937 -0.8952 -0.3474  0.1436
  578MPD2    H5 8631   2.625   1.382   0.981 -0.3098 -0.4510 -1.0567
  578MPD2    N1 8632   2.617   1.805   0.770 -0.0173  0.0307 -0.2918
  578MPD2    H7 8633   2.611   1.858   0.683  2.2340  0.5912 -0.1036
  579TMC3    C1 8634   2.570   1.163   1.022 -0.0410 -0.2196  0.5473
  579TMC3    C2 8635   2.635   1.209   1.134  0.6757 -0.5991 -0.1371
  579TMC3    C3 8636   2.762   1.161   1.156 -0.6637 -0.7748  0.2433
  579TMC3    C4 8637   2.618   1.063   0.946  0.7640  0.1229 -0.6127
  579TMC3    C5 8638   2.743   1.016   0.983 -0.4255 -0.0975  0.2099
  579TMC3    C6 8639   2.820   1.067   1.081  0.3664 -0.7131  0.2039
  579TMC3     C 8640   2.474   1.248   0.956  1.1264  0.5546  0.2408
  579TMC3     O 8641   2.366   1.202   0.921 -0.3828 -0.0410  0.4416
  579TMC3     H 8642   2.593   1.292   1.189 -1.0061 -2.7151  1.7434
  579TMC3    H1 8643   2.559   1.016   0.869 -0.2981 -0.7927  0.7495
  579TMC3    H2 8644   2.919   1.041   1.116  1.3340 -0.3964 -2.2636
  579TMC3    C7 8645   2.797   0.889   0.921 -1.5052 -0.7874  0.1863
  579TMC3    C8 8646   2.829   1.232   1.261  0.1115 -0.1223  0.1369
  579TMC3    O1 8647   2.895   0.846   0.981  0.2318  0.0747  0.5529
  579TMC3    O2 8648   2.766   1.274   1.358  0.0759  0.9610  0.3641
  580TMC3    C1 8649   1.708   0.447  12.366 -0.2274  0.5111 -0.7934
  580TMC3    C2 8650   1.608   0.462  12.273  0.1036 -0.5867 -0.0979
  580TMC3    C3 8651   1.631   0.389  12.160 -0.0010  0.1378  0.4781
  580TMC3    C4 8652   1.781   0.325  12.372 -0.9069  0.8251 -1.2962
  580TMC3    C5 8653   1.780   0.240  12.264  0.4978  0.1709  0.0166
  580TMC3    C6 8654   1.703   0.271  12.152  0.3416  0.4940 -0.3650
  580TMC3     C 8655   1.801   0.555  12.347  0.3972 -0.0478 -0.1167
  580TMC3     O 8656   1.755   0.655  12.297 -0.4323  0.0543  0.3220
  580TMC3     H 8657   1.565   0.559  12.252 -1.1890 -0.5970  2.5942
  580TMC3    H1 8658   1.834   0.292  12.461 -0.9766 -0.6891 -1.8143
  580TMC3    H2 8659   1.717   0.223  12.056  0.9507 -0.6091  0.2807
  580TMC3    C7 8660   1.831   0.109  12.280  0.3575  0.0793  0.5427
  580TMC3    C8 8661   1.657   0.466  12.043  0.3163 -0.2085 -0.7126
  580TMC3    O1 8662   1.895   0.081  12.378  0.5644  0.2055 -0.1553
  580TMC3    O2 8663   1.577   0.553  12.010 -0.0384 -0.0406  0.4216
  581MPD2     C 8664   0.272   4.551  14.622  0.3676  0.0781  0.2941
  581MPD2    C1 8665   0.191   4.573  14.728 -0.3654  0.7418  0.1208
  581MPD2    C2 8666   0.071   4.636  14.707 -0.2478 -0.5687 -1.0966
  581MPD2    C3 8667   0.029   4.675  14.585 -0.7325  0.5089 -0.5124
  581MPD2    C4 8668   0.119   4.659  14.476 -0.0154 -0.3215 -0.0825
  581MPD2    C5 8669   0.235   4.584  14.494  0.0071  0.0730 -0.6167
  581MPD2     H 8670   0.009   4.638  14.796  0.5568  0.0203 -0.5435
  581MPD2    H1 8671   0.106   4.714  14.384  2.1000  0.3302  0.0111
  581MPD2    H2 8672   0.369   4.509  14.645  0.6716 -0.4187 -1.8320
  581MPD2    H3 8673   0.306   4.562  14.415  0.1998 -2.4748  0.2750
  581MPD2     N 8674   4.641   4.733  14.572  0.2017  0.4828 -0.1487
  581MPD2    H5 8675   4.587   4.730  14.658  2.5845 -1.4099  1.3154
  581MPD2    N1 8676   0.218   4.508  14.854 -0.2705 -0.2101 -0.4939
  581MPD2    H7 8677   0.279   4.427  14.847 -1.8970 -1.3101 -1.7665
  582TMC3    C1 8678   0.198   4.453  15.075  0.3496  0.9708  1.3756
  582TMC3    C2 8679   0.240   4.495  15.196  0.3843  0.0007  0.4245
  582TMC3    C3 8680   0.295   4.403  15.279  0.0558  0.0951 -0.6421
  582TMC3    C4 8681   0.207   4.320  15.039  0.2991 -0.0775  0.5289
  582TMC3    C5 8682   0.260   4.231  15.130 -0.6076 -0.1345  0.1765
  582TMC3    C6 8683   0.308   4.271  15.252  0.1744  0.8190  0.3384
  582TMC3     C 8684   0.163   4.544  14.974  0.1342  0.5622 -0.7128
  582TMC3     O 8685   0.102   4.648  15.003 -0.3260  0.3625  0.0667
  582TMC3     H 8686   0.226   4.600  15.220 -0.2884 -0.3235  1.4291
  582TMC3    H1 8687   0.159   4.274  14.954 -1.8908 -0.3775  1.9090
  582TMC3    H2 8688   0.358   4.206  15.323 -0.8529  0.7500  1.0016
  582TMC3    C7 8689   0.230   4.094  15.105  1.0252 -0.7126  0.2051
  582TMC3    C8 8690   0.319   4.458  15.415  0.0582 -0.6223  0.2429
  582TMC3    O1 8691   0.249   4.060  14.991 -0.8055  0.2946  0.2631
  582TMC3    O2 8692   0.280   4.575  15.431  0.2571  0.3679 -0.4688
  583MPD2     C 8693   0.030   1.730  16.856  0.4675  0.2074  0.6429
  583MPD2    C1 8694   0.001   1.829  16.770  0.0912 -0.2874  0.1534
  583MPD2    C2 8695   4.685   1.948  16.817 -0.2160  0.3105  0.1590
  583MPD2    C3 8696   4.671   1.970  16.954  0.0055  0.2471 -0.2184
  583MPD2    C4 8697   4.697   1.867  17.040  0.1278  0.4570  0.6794
  583MPD2    C5 8698   0.015   1.750  16.988  0.0362 -0.0169 -0.1225
  583MPD2     H 8699   4.669   2.027  16.745  0.5045  0.0119 -0.3278
  583MPD2    H1 8700   4.691   1.874  17.148  1.4793  1.2122  0.6991
  583MPD2    H2 8701   0.077   1.637  16.828  2.3639  1.1877  0.5169
  583MPD2    H3 8702   0.045   1.667  17.051 -0.7039 -0.9851 -1.0334
  583MPD2     N 8703   4.626   2.102  16.996  0.1500  0.0879  0.0709
  583MPD2    H5 8704   4.595   2.161  16.919 -2.1612  0.9014  1.6521
  583MPD2    N1 8705   0.027   1.815  16.630 -0.7614 -0.2993 -0.7282
  583MPD2    H7 8706   0.016   1.898  16.573  2.4653 -0.6779 -1.9090
  584TMC3    C1 8707   4.575   2.283  17.136 -0.5526 -0.1138  0.7289
  584TMC3    C2 8708   4.616   2.372  17.039 -0.9627 -0.0795 -0.2614
  584TMC3    C3 8709   4.607   2.509  17.077 -0.5795  0.5034 -0.6235
  584TMC3    C4 8710   4.535   2.319  17.260 -0.5268  0.0965  0.2027
  584TMC3    C5 8711   4.536   2.454  17.290  0.5195 -0.6153 -0.0763
  584TMC3    C6 8712   4.570   2.552  17.199 -0.2929 -0.2473 -0.0505
  584TMC3     C 8713   4.606   2.138  17.131 -0.0033 -0.9687 -0.0485
  584TMC3     O 8714   4.652   2.090  17.233  0.6594  0.0073  0.6309
  584TMC3     H 8715   4.644   2.337  16.941  0.9732  0.6347  0.0237
  584TMC3    H1 8716   4.491   2.240  17.320 -1.3718  1.2275  1.0539
  584TMC3    H2 8717   4.576   2.657  17.226 -1.2779 -0.3797  0.6823
  584TMC3    C7 8718   4.465   2.491  17.404  0.3142  0.2484 -0.5106
  584TMC3    C8 8719   4.643   2.606  16.968 -0.1805  0.2360  0.0051
  584TMC3    O1 8720   4.366   2.424  17.428  0.1498  0.2698  0.6408
  584TMC3    O2 8721   4.612   2.582  16.852 -0.0280  0.7854  0.1306
  585MPD2     C 8722   4.544   0.852   0.623  0.3907  0.1142 -0.2740
  585MPD2    C1 8723   4.551   0.930   0.507  0.0630  0.6712 -0.1727
  585MPD2    C2 8724   4.538   0.872   0.382 -0.5640 -0.2717  0.1896
  585MPD2    C3 8725   4.536   0.733   0.380  0.0174  0.0571 -0.4404
  585MPD2    C4 8726   4.520   0.653   0.495 -0.5316  0.5831  0.2215
  585MPD2    C5 8727   4.532   0.720   0.617 -0.3700  0.2398  0.0688
  585MPD2     H 8728   4.534   0.930   0.291  3.9016  1.8219  1.3342
  585MPD2    H1 8729   4.504   0.546   0.496 -0.5577  0.6250  3.9137
  585MPD2    H2 8730   4.568   0.892   0.721  2.7681 -1.2775 -0.2801
  585MPD2    H3 8731   4.521   0.668   0.711  0.7943  1.1659  0.7032
  585MPD2     N 8732   4.540   0.682   0.251  0.2688  0.2314 -0.1472
  585MPD2    H5 8733   4.560   0.742   0.172  0.3299 -0.6927 -0.8377
  585MPD2    N1 8734   4.553   1.071   0.525 -0.4682  0.5688 -0.2683
  585MPD2    H7 8735   4.556   1.093   0.624  2.9091 -0.2775 -0.2145
  586TMC3    C1 8736   4.433   0.588   0.067  0.3502 -0.0913  0.7310
  586TMC3    C2 8737   4.528   0.641  17.739  0.0014 -0.0885  0.8606
  586TMC3    C3 8738   4.495   0.667  17.607 -0.0681  0.4995  0.5399
  586TMC3    C4 8739   4.311   0.560   0.021  0.2517  0.4449  0.4658
  586TMC3    C5 8740   4.285   0.583  17.642 -0.5628  0.2679  0.8202
  586TMC3    C6 8741   4.372   0.631  17.557 -0.0467 -0.0584  0.2073
  586TMC3     C 8742   4.470   0.572   0.215 -0.8792  0.3211 -0.0227
  586TMC3     O 8743   4.408   0.489   0.281 -0.4151 -0.2378  0.2184
  586TMC3     H 8744   4.632   0.646   0.021  0.1336 -1.9454  0.6899
  586TMC3    H1 8745   4.230   0.551   0.093  0.8881 -0.0518  1.1111
  586TMC3    H2 8746   4.360   0.629  17.450 -0.8601 -0.5371  0.3027
  586TMC3    C7 8747   4.150   0.607  17.600 -0.4505 -0.2562 -0.2197
  586TMC3    C8 8748   4.604   0.656  17.511 -0.0089 -0.4548 -0.0406
  586TMC3    O1 8749   4.064   0.551  17.664 -0.8161 -0.0120 -0.4282
  586TMC3    O2 8750   4.696   0.584  17.544  0.4533  0.0552 -0.0113
  587TMC3    C1 8751   1.948   4.086  16.209  0.2752 -0.2848 -0.3010
  587TMC3    C2 8752   1.924   4.219  16.195 -0.1853 -0.6359 -0.5050
  587TMC3    C3 8753   2.016   4.303  16.146 -0.1475  1.0966  0.0722
  587TMC3    C4 8754   2.070   4.038  16.179 -0.0666  0.2232  0.0533
  587TMC3    C5 8755   2.169   4.125  16.141 -0.4272  0.0722  0.8525
  587TMC3    C6 8756   2.147   4.258  16.125 -0.0834 -0.3692 -0.3154
  587TMC3     C 8757   1.877   3.999  16.293  0.3816 -0.1983  0.2316
  587TMC3     O 8758   1.926   3.889  16.316  0.5752  0.1759 -0.5864
  587TMC3     H 8759   1.822   4.254  16.206  0.1778  0.4137 -0.4655
  587TMC3    H1 8760   2.096   3.933  16.192 -1.4023 -0.0905  0.1862
  587TMC3    H2 8761   2.232   4.324  16.111 -1.2265  1.2516  0.5067
  587TMC3    C7 8762   2.304   4.066  16.114 -0.2399 -1.1760  0.1280
  587TMC3    C8 8763   1.995   4.447  16.136  0.0712 -0.6078 -0.4360
  587TMC3    O1 8764   2.306   3.945  16.125  0.3375  0.1963 -0.3215
  587TMC3    O2 8765   2.068   4.504  16.055 -0.7770 -0.1853 -0.7368
  588TMC3    C1 8766   3.902   2.271  10.200  0.1133  0.7347  0.0793
  588TMC3    C2 8767   3.846   2.149  10.217  0.1542  1.0571 -0.0050
  588TMC3    C3 8768   3.929   2.037  10.206 -0.1461  0.0990 -0.2379
  588TMC3    C4 8769   4.036   2.286  10.181  0.0612  0.9134  0.1549
  588TMC3    C5 8770   4.117   2.180  10.163  0.6163 -0.0746  0.0170
  588TMC3    C6 8771   4.071   2.051  10.176 -0.3382 -0.9618  0.8633
  588TMC3     C 8772   3.814   2.387  10.193 -0.7089 -0.4591 -0.6692
  588TMC3     O 8773   3.693   2.372  10.188  0.3099 -0.0350 -0.4264
  588TMC3     H 8774   3.741   2.145  10.243  0.6083 -0.0594  1.6479
  588TMC3    H1 8775   4.069   2.387  10.160 -2.6660  1.6865 -0.3999
  588TMC3    H2 8776   4.129   1.962  10.156 -0.9431 -1.5305  1.6547
  588TMC3    C7 8777   4.266   2.202  10.142  0.0257  0.4282 -0.1731
  588TMC3    C8 8778   3.863   1.913  10.208  0.6840 -0.5381 -0.3113
  588TMC3    O1 8779   4.348   2.126  10.196 -0.1142  0.5714 -0.3165
  588TMC3    O2 8780   3.741   1.928  10.200 -0.7480  0.5058  0.3640
  589TMC3    C1 8781   3.478   4.665   0.985  0.5484  0.8163  0.3472
  589TMC3    C2 8782   3.567   0.024   0.994  0.0276  0.1263  0.0405
  589TMC3    C3 8783   3.682   4.735   0.931 -0.3795 -0.5691 -0.3494
  589TMC3    C4 8784   3.501   4.535   0.949  0.9751 -0.3019  0.5854
  589TMC3    C5 8785   3.629   4.511   0.898 -0.3166 -0.6192 -0.0188
  589TMC3    C6 8786   3.722   4.615   0.884  0.3085 -0.3806  0.0593
  589TMC3     C 8787   3.345   4.692   1.035 -0.0431 -0.4215 -0.0712
  589TMC3     O 8788   3.251   4.629   0.982  0.3442  0.1967 -0.3195
  589TMC3     H 8789   3.549   0.126   1.024  0.0251  0.0906  0.1630
  589TMC3    H1 8790   3.427   4.456   0.960  0.5609 -0.0800 -0.6565
  589TMC3    H2 8791   3.813   4.603   0.826  0.1284  0.1726 -0.3352
  589TMC3    C7 8792   3.659   4.368   0.868 -0.4533  0.2480 -0.0795
  589TMC3    C8 8793   3.780   0.108   0.938  0.3960 -0.5444  0.5318
  589TMC3    O1 8794   3.566   4.291   0.863  0.1907 -0.5489  0.1910
  589TMC3    O2 8795   3.724   0.217   0.936  0.2667  0.2108  0.5487
  590MPD2     C 8796   2.919   2.623  16.888  0.4200 -0.3192 -0.3678
  590MPD2    C1 8797   2.832   2.662  16.787  0.8000 -0.1596  0.0035
  590MPD2    C2 8798   2.868   2.758  16.699 -0.3118  0.3262 -0.1770
  590MPD2    C3 8799   2.999   2.809  16.710  1.4822 -0.1150  0.1638
  590MPD2    C4 8800   3.081   2.770  16.812 -0.1483 -0.1644 -0.0242
  590MPD2    C5 8801   3.040   2.678  16.905 -0.0504  0.3378 -0.7402
  590MPD2     H 8802   2.798   2.785  16.621 -1.9921 -1.0700  0.8635
  590MPD2    H1 8803   3.180   2.813  16.825 -0.0815 -0.1802 -0.4897
  590MPD2    H2 8804   2.886   2.553  16.963 -0.1309  1.2188  0.8089
  590MPD2    H3 8805   3.104   2.671  16.992  1.5255 -0.4984 -1.9756
  590MPD2     N 8806   3.046   2.906  16.621 -0.0295 -1.0976  0.3524
  590MPD2    H5 8807   3.146   2.921  16.617 -0.4521  1.6868  0.2840
  590MPD2    N1 8808   2.704   2.604  16.763  0.2515 -0.4557  0.2152
  590MPD2    H7 8809   2.649   2.633  16.683  2.2572  0.1081 -0.9366
  591TMC3    C1 8810   3.062   3.068  16.454 -0.2983 -0.0001 -0.1440
  591TMC3    C2 8811   3.189   3.036  16.426  0.4007  0.0225 -0.4081
  591TMC3    C3 8812   3.270   3.120  16.352 -0.2958 -0.2286  0.5560
  591TMC3    C4 8813   3.007   3.185  16.415  0.1313 -0.0512 -0.4126
  591TMC3    C5 8814   3.087   3.262  16.342 -0.5564  0.2739 -0.1429
  591TMC3    C6 8815   3.217   3.237  16.315 -0.2622  0.0864 -0.2723
  591TMC3     C 8816   2.975   2.979  16.528  0.8878 -0.4647  0.0076
  591TMC3     O 8817   2.856   2.986  16.508 -0.5840 -0.0171 -0.0884
  591TMC3     H 8818   3.229   2.937  16.446 -0.7269 -0.6038 -1.2382
  591TMC3    H1 8819   2.900   3.201  16.425  0.4066  1.0942  0.6692
  591TMC3    H2 8820   3.273   3.303  16.249  0.5215 -2.0059 -1.7025
  591TMC3    C7 8821   3.015   3.342  16.243 -0.4679  0.3791 -0.3555
  591TMC3    C8 8822   3.318   3.063  16.235  0.1977 -0.1811 -0.1706
  591TMC3    O1 8823   2.894   3.322  16.228  0.3739  0.0458  0.0651
  591TMC3    O2 8824   3.262   2.961  16.199 -0.0709 -0.7564  0.1000
  592MPD2     C 8825   2.818   4.666  11.229  0.1290 -0.2491  0.2497
  592MPD2    C1 8826   2.833   4.726  11.350  0.4299 -0.1395  0.0308
  592MPD2    C2 8827   2.795   4.656  11.464 -0.2655 -0.4794  0.7092
  592MPD2    C3 8828   2.719   4.543  11.454 -0.0691  0.2989 -0.7555
  592MPD2    C4 8829   2.696   4.487  11.328 -0.1180  0.2483 -0.1453
  592MPD2    C5 8830   2.750   4.542  11.219  0.4381 -0.0336  0.5296
  592MPD2     H 8831   2.819   4.693  11.563  3.9134 -2.9679  0.6261
  592MPD2    H1 8832   2.634   4.398  11.326  0.8582 -0.4437  0.5874
  592MPD2    H2 8833   2.859   4.702  11.135 -0.1539 -0.5757  0.0029
  592MPD2    H3 8834   2.739   4.500  11.119  1.4369  0.8339  0.0552
  592MPD2     N 8835   2.683   4.483  11.577  0.5116  0.7611 -0.4659
  592MPD2    H5 8836   2.736   4.515  11.657  0.8088 -1.0601  0.0597
  592MPD2    N1 8837   2.917   0.106  11.350  0.0680 -0.5433  0.6167
  592MPD2    H7 8838   2.930   0.152  11.261 -2.3045 -1.6698 -0.3015
  593TMC3    C1 8839   3.040   0.284  11.434 -0.2735  0.3287 -0.8849
  593TMC3    C2 8840   3.032   0.374  11.536  1.0208  0.1246 -0.0080
  593TMC3    C3 8841   3.095   0.494  11.527 -0.3378  0.2720  0.0948
  593TMC3    C4 8842   3.128   0.307  11.337 -0.0975 -0.5863 -0.0094
  593TMC3    C5 8843   3.182   0.436  11.322  0.0416  0.4355 -0.2021
  593TMC3    C6 8844   3.179   0.534  11.422  0.0863 -0.3019  0.8087
  593TMC3     C 8845   2.969   0.166  11.456  0.1820  0.1560 -0.1158
  593TMC3     O 8846   2.966   0.126  11.574 -0.0339  0.1326  0.1368
  593TMC3     H 8847   2.973   0.355  11.625  1.2279  1.1319  0.3458
  593TMC3    H1 8848   3.139   0.237  11.255 -2.3520 -0.1507 -0.6914
  593TMC3    H2 8849   3.212   0.636  11.407  2.0444 -0.6458  2.8549
  593TMC3    C7 8850   3.302   0.444  11.249  0.5386  0.2257  0.3124
  593TMC3    C8 8851   3.102   0.570  11.652  0.2161 -0.2175  0.1565
  593TMC3    O1 8852   3.309   0.510  11.148 -0.0663 -0.2635 -0.2282
  593TMC3    O2 8853   3.013   0.541  11.740 -0.0138  0.1059 -0.3620
  594MPD2     C 8854   1.991   2.965  14.501 -0.0634 -0.4189  0.4118
  594MPD2    C1 8855   1.917   3.075  14.490  0.5585 -0.3989 -0.6835
  594MPD2    C2 8856   1.971   3.191  14.437 -0.3527 -0.1947  0.4798
  594MPD2    C3 8857   2.110   3.204  14.407  0.0526  0.8330  0.3484
  594MPD2    C4 8858   2.185   3.089  14.419  0.0507  0.0478  0.1629
  594MPD2    C5 8859   2.123   2.977  14.467  0.3316 -0.1435 -0.1904
  594MPD2     H 8860   1.911   3.280  14.424  1.9012  1.2382 -0.0190
  594MPD2    H1 8861   2.289   3.082  14.391 -0.1380 -0.5219 -0.3876
  594MPD2    H2 8862   1.943   2.870  14.522  0.6747 -0.6021  1.2665
  594MPD2    H3 8863   2.195   2.896  14.468  1.3600  0.7814  1.3379
  594MPD2     N 8864   2.158   3.329  14.361  0.2096 -0.6949  0.1398
  594MPD2    H5 8865   2.094   3.404  14.383  1.0774 -0.5147  2.1125
  594MPD2    N1 8866   1.783   3.071  14.530 -0.1053 -0.2667 -0.3268
  594MPD2    H7 8867   1.752   2.993  14.588  1.7144  0.1840  1.2412
  595TMC3    C1 8868   2.508   3.647  14.326 -0.3023 -0.6081 -0.6599
  595TMC3    C2 8869   2.460   3.521  14.284  0.6175  0.8074  0.5254
  595TMC3    C3 8870   2.335   3.482  14.331 -0.1905 -0.3223 -0.4961
  595TMC3    C4 8871   2.429   3.733  14.398 -0.2344 -0.3056  0.0929
  595TMC3    C5 8872   2.310   3.692  14.441  0.0643  0.3703  0.7078
  595TMC3    C6 8873   2.269   3.566  14.417 -0.4520 -0.1727 -0.2716
  595TMC3     C 8874   2.654   3.664  14.351  0.5273  0.8790  0.0949
  595TMC3     O 8875   2.683   3.778  14.392 -0.0223 -0.0848  0.1626
  595TMC3     H 8876   2.524   3.443  14.245  2.5678  2.3585  0.6248
  595TMC3    H1 8877   2.466   3.831  14.426  0.8405 -0.6636 -0.0555
  595TMC3    H2 8878   2.197   3.523  14.486  1.1189  0.8046  1.9754
  595TMC3    C7 8879   2.243   3.759  14.548 -0.3096 -0.4056  0.6560
  595TMC3    C8 8880   2.291   3.348  14.329 -0.0206  0.4628 -0.4853
  595TMC3    O1 8881   2.123   3.729  14.558  0.3518 -0.4437 -0.1212
  595TMC3    O2 8882   2.371   3.265  14.288 -0.1471 -0.1616  0.2925
  596MPD2     C 8883   0.840   1.474  16.741 -0.0881 -0.2055  0.0162
  596MPD2    C1 8884   0.883   1.593  16.681 -0.0905  1.1091 -0.6474
  596MPD2    C2 8885   0.933   1.589  16.557 -0.2647  0.0105  0.2409
  596MPD2    C3 8886   0.937   1.468  16.487 -0.1948  0.5789  0.1399
  596MPD2    C4 8887   0.887   1.358  16.541  0.3143  0.1548 -0.1695
  596MPD2    C5 8888   0.838   1.363  16.667  0.6924  0.5742  0.0967
  596MPD2     H 8889   0.960   1.683  16.510  2.3346 -1.7895 -1.8609
  596MPD2    H1 8890   0.869   1.272  16.478 -0.3198  0.8966 -1.0070
  596MPD2    H2 8891   0.788   1.478  16.836  0.5286  1.5621  0.2677
  596MPD2    H3 8892   0.786   1.276  16.707  1.5222  0.0751  0.0943
  596MPD2     N 8893   0.983   1.457  16.355 -0.6961  0.2807 -0.1385
  596MPD2    H5 8894   0.967   1.376  16.297 -1.7515  0.1537  0.3329
  596MPD2    N1 8895   0.860   1.728  16.737 -0.0397 -0.4162  0.1104
  596MPD2    H7 8896   0.894   1.801  16.675  1.0564 -0.6272  0.4596
  597TMC3    C1 8897   0.789   1.908  16.885 -0.5557 -0.0195  0.4640
  597TMC3    C2 8898   0.860   1.996  16.808 -0.0500  0.1810  0.4159
  597TMC3    C3 8899   0.809   2.121  16.792 -0.1345  0.0822  0.0566
  597TMC3    C4 8900   0.674   1.951  16.949  0.1367  0.2555  0.2637
  597TMC3    C5 8901   0.629   2.083  16.940  0.0519  0.8255  0.5026
  597TMC3    C6 8902   0.701   2.168  16.864 -0.3995 -0.4236 -0.6668
  597TMC3     C 8903   0.806   1.764  16.864 -0.0793 -0.0569 -0.1822
  597TMC3     O 8904   0.768   1.686  16.950 -0.6019  0.1090  0.0209
  597TMC3     H 8905   0.948   1.964  16.754 -0.7404  0.4524 -0.8888
  597TMC3    H1 8906   0.615   1.881  17.007 -0.1725 -0.9182 -1.5021
  597TMC3    H2 8907   0.663   2.267  16.846 -0.2119 -0.1537  0.4033
  597TMC3    C7 8908   0.528   2.134  17.030  1.0763 -0.0837  0.8445
  597TMC3    C8 8909   0.891   2.221  16.726  0.3351  0.4267 -0.1613
  597TMC3    O1 8910   0.506   2.059  17.124 -0.4188  0.0840  0.4760
  597TMC3    O2 8911   0.868   2.338  16.757 -0.0823 -0.2331  0.1944
  598TMC3    C1 8912   3.764   2.827  15.216 -0.3649  0.5218 -0.1511
  598TMC3    C2 8913   3.649   2.878  15.259  0.8024 -0.4137  0.3618
  598TMC3    C3 8914   3.631   3.014  15.260  0.8116  0.0260  0.8587
  598TMC3    C4 8915   3.872   2.909  15.205  0.0874  0.1533  0.4062
  598TMC3    C5 8916   3.852   3.046  15.204  0.3763 -0.2275 -0.6564
  598TMC3    C6 8917   3.735   3.104  15.242 -0.5027  0.6636 -0.1970
  598TMC3     C 8918   3.767   2.687  15.166 -0.6706  0.2916  0.1925
  598TMC3     O 8919   3.666   2.624  15.186  0.0127  0.0400  0.5132
  598TMC3     H 8920   3.560   2.816  15.249  0.3844  0.6450 -2.7269
  598TMC3    H1 8921   3.970   2.864  15.198 -0.7572 -0.9955 -4.0567
  598TMC3    H2 8922   3.718   3.211  15.247  0.4783  0.8790 -1.3350
  598TMC3    C7 8923   3.969   3.122  15.162  0.5438  0.9207 -0.3145
  598TMC3    C8 8924   3.500   3.071  15.241  0.1012 -0.3154 -0.0034
  598TMC3    O1 8925   4.043   3.056  15.092 -0.2226  0.8470 -0.6057
  598TMC3    O2 8926   3.498   3.182  15.181 -0.2147  0.0010 -0.1777
  599MPD2     C 8927   4.083   1.027  15.789  0.5818  0.3874  0.1114
  599MPD2    C1 8928   4.013   0.914  15.779  0.0921  0.2579  0.0926
  599MPD2    C2 8929   3.883   0.904  15.841 -0.3308  0.2300 -0.0093
  599MPD2    C3 8930   3.834   1.013  15.911 -0.4999 -0.0092 -0.4167
  599MPD2    C4 8931   3.898   1.130  15.903  0.1811 -0.1343  0.3036
  599MPD2    C5 8932   4.024   1.136  15.845 -0.8255  0.1168 -0.3149
  599MPD2     H 8933   3.833   0.808  15.844  0.9939 -0.4182  1.6670
  599MPD2    H1 8934   3.860   1.213  15.961 -1.0917  1.2931 -2.6130
  599MPD2    H2 8935   4.186   1.039  15.757  1.3314 -0.9017  2.0518
  599MPD2    H3 8936   4.085   1.225  15.853 -0.5799  0.0166 -1.0404
  599MPD2     N 8937   3.712   1.004  15.982  0.2251 -0.6580 -0.1052
  599MPD2    H5 8938   3.681   1.089  16.029 -0.1177 -0.6160 -0.4028
  599MPD2    N1 8939   4.078   0.809  15.718 -1.2446  0.4937  0.0626
  599MPD2    H7 8940   4.168   0.838  15.681 -1.1964 -1.5058 -1.3618
  600TMC3    C1 8941   3.522   0.934  16.092  0.0397 -0.2224  0.4900
  600TMC3    C2 8942   3.488   0.835  16.182  0.0835  1.0189 -0.4869
  600TMC3    C3 8943   3.449   0.868  16.312 -0.2936 -0.2159  0.0651
  600TMC3    C4 8944   3.484   1.061  16.125 -1.0936 -0.3996  0.1350
  600TMC3    C5 8945   3.434   1.094  16.252  0.4990 -0.4578 -0.1246
  600TMC3    C6 8946   3.424   0.996  16.349  0.0093  0.2162 -0.8815
  600TMC3     C 8947   3.625   0.899  15.991 -0.2041 -0.2959  0.0384
  600TMC3     O 8948   3.640   0.785  15.954  1.0609  0.3106  0.4738
  600TMC3     H 8949   3.506   0.730  16.164  0.4287  1.0358 -0.2400
  600TMC3    H1 8950   3.499   1.130  16.043 -1.0461  1.1945  1.5032
  600TMC3    H2 8951   3.390   1.020  16.449  2.8547 -0.2442  0.1900
  600TMC3    C7 8952   3.395   1.227  16.289 -0.5588  0.4671  0.2466
  600TMC3    C8 8953   3.414   0.766  16.407 -0.6519  0.5121 -0.1266
  600TMC3    O1 8954   3.372   1.237  16.411  0.1109  0.0097 -0.7062
  600TMC3    O2 8955   3.447   0.782  16.524 -0.8606  0.5016 -0.0859
  601MPD2     C 8956   1.127   4.453  17.669  0.1176 -1.1938 -0.5742
  601MPD2    C1 8957   1.022   4.386  17.607 -0.2690 -0.1028 -0.9025
  601MPD2    C2 8958   0.973   4.274  17.669  0.8657  0.2430 -0.8140
  601MPD2    C3 8959   1.023   4.234   0.043 -0.0220 -0.1190  0.2021
  601MPD2    C4 8960   1.134   4.299   0.093  0.4446  0.1287 -0.1130
  601MPD2    C5 8961   1.188   4.409   0.032 -0.3468  0.1978  0.9915
  601MPD2     H 8962   0.881   4.239  17.624 -1.1518  2.0542  1.8745
  601MPD2    H1 8963   1.185   4.263   0.182  2.3544  0.3175 -1.1374
  601MPD2    H2 8964   1.161   4.550  17.635 -1.1592 -1.1779 -1.7819
  601MPD2    H3 8965   1.273   4.459   0.078  1.0683  1.1830 -2.7293
  601MPD2     N 8966   0.972   4.128   0.110  0.3919 -1.1488  0.2904
  601MPD2    H5 8967   1.002   4.113   0.206  2.4600 -2.2036 -0.5299
  601MPD2    N1 8968   0.952   4.433  17.497 -0.6400  0.1064 -0.3125
  601MPD2    H7 8969   0.885   4.367  17.459 -1.7134 -0.2585  2.2560
  602TMC3    C1 8970   0.886   4.592  17.328  0.6908  0.1925  0.0201
  602TMC3    C2 8971   0.839   4.724  17.319  0.2933 -0.0033 -0.4954
  602TMC3    C3 8972   0.753   0.020  17.221 -0.0707 -0.2109 -0.5312
  602TMC3    C4 8973   0.845   4.491  17.241 -0.2591  0.2170 -0.1188
  602TMC3    C5 8974   0.754   4.526  17.147  0.4856  0.1842 -0.8817
  602TMC3    C6 8975   0.712   4.659  17.132 -0.5789 -0.0695 -0.1842
  602TMC3     C 8976   0.972   4.556  17.440 -0.8145  0.6177  0.5136
  602TMC3     O 8977   1.041   4.651  17.481 -0.2674 -0.7079  0.2149
  602TMC3     H 8978   0.882   0.069  17.373 -1.8346 -0.9566  2.6451
  602TMC3    H1 8979   0.881   4.389  17.246 -2.9198 -0.6993  0.5122
  602TMC3    H2 8980   0.630   4.684  17.067 -0.9529  0.0395  0.3237
  602TMC3    C7 8981   0.733   4.425  17.045  0.5246 -0.6466 -0.2900
  602TMC3    C8 8982   0.689   0.150  17.215 -0.8037  0.2487  1.1153
  602TMC3    O1 8983   0.722   4.312  17.084  0.3522 -0.2719  0.2545
  602TMC3    O2 8984   0.664   0.205  17.322 -0.4098  0.0722 -0.4480
  603TMC3    C1 8985   3.816   4.333  10.938  0.5921  0.7147  0.1380
  603TMC3    C2 8986   3.832   4.374  11.070  0.6059 -0.5972  0.2720
  603TMC3    C3 8987   3.746   4.464  11.122 -0.3556  0.4433 -1.0275
  603TMC3    C4 8988   3.722   4.392  10.859  0.0795 -0.0346  0.8506
  603TMC3    C5 8989   3.642   4.484  10.915 -0.2989  0.2441 -0.5663
  603TMC3    C6 8990   3.642   4.516  11.052  0.0140  0.2603 -0.2074
  603TMC3     C 8991   3.927   4.262  10.874  0.0513  0.3063 -0.8757
  603TMC3     O 8992   3.952   4.289  10.759  0.5634 -0.6121  0.2571
  603TMC3     H 8993   3.916   4.345  11.132 -0.6134 -0.9298  1.7657
  603TMC3    H1 8994   3.720   4.376  10.752  1.7883 -2.3170  1.1598
  603TMC3    H2 8995   3.585   4.602  11.086  1.8561  1.0400  0.8779
  603TMC3    C7 8996   3.643   4.602  10.836 -0.0097  0.3393 -0.6237
  603TMC3    C8 8997   3.753   4.464  11.270  0.0782 -0.1802  0.6096
  603TMC3    O1 8998   3.733   4.679  10.870  0.2602 -0.2926  0.2065
  603TMC3    O2 8999   3.807   4.369  11.320 -0.0944 -0.5457  0.1802
  604MPD2     C 9000   4.641   2.369  16.202  0.2023  0.7817  0.1794
  604MPD2    C1 9001   4.592   2.495  16.163 -0.4708  0.6611  0.0415
  604MPD2    C2 9002   4.647   2.557  16.054 -0.0106  0.1920 -1.3672
  604MPD2    C3 9003   0.008   2.494  15.975 -0.1465  0.2373 -0.1251
  604MPD2    C4 9004   0.052   2.367  16.013  0.0297 -0.1450  1.0815
  604MPD2    C5 9005   0.001   2.305  16.127  0.3195  0.2223  1.0155
  604MPD2     H 9006   4.603   2.651  16.025  0.3388  1.6951  3.0227
  604MPD2    H1 9007   0.129   2.311  15.960 -0.4168  0.2960 -0.0277
  604MPD2    H2 9008   4.601   2.297  16.272 -1.9706 -0.9286 -2.8420
  604MPD2    H3 9009   0.036   2.211  16.169 -3.2585 -0.3007  2.8125
  604MPD2     N 9010   0.060   2.563  15.859  0.4554 -0.0945  0.1210
  604MPD2    H5 9011   0.028   2.656  15.833 -0.6943 -0.3795  0.5179
  604MPD2    N1 9012   4.483   2.545  16.243 -0.5075  0.6241 -0.2675
  604MPD2    H7 9013   4.457   2.490  16.325 -0.2401  0.5892 -0.2072
  605TMC3    C1 9014   4.346   2.714  16.340 -0.2454  0.0465 -1.0457
  605TMC3    C2 9015   4.434   2.752  16.439  0.4638  1.1915  0.5768
  605TMC3    C3 9016   4.426   2.877  16.500  0.3670 -0.2161 -0.1073
  605TMC3    C4 9017   4.254   2.803  16.300 -0.3485 -0.2187  0.3941
  605TMC3    C5 9018   4.248   2.925  16.350  0.0145  0.1971 -0.2957
  605TMC3    C6 9019   4.322   2.963  16.464  0.8947  0.6731 -0.3815
  605TMC3     C 9020   4.415   2.668  16.223 -0.5825 -0.2248 -0.1525
  605TMC3     O 9021   4.410   2.743  16.122  0.0458  0.1354  0.5162
  605TMC3     H 9022   4.517   2.685  16.457  0.3299  1.2578  1.4291
  605TMC3    H1 9023   4.188   2.771  16.220 -0.1158 -1.9231  0.8969
  605TMC3    H2 9024   4.295   3.058  16.509 -1.2187  0.5702 -1.4323
  605TMC3    C7 9025   4.241   3.035  16.266  0.5060  0.3943 -0.1260
  605TMC3    C8 9026   4.557   2.943  16.494 -0.3102  0.0330 -0.4517
  605TMC3    O1 9027   4.282   3.145  16.308  0.2348 -0.3728 -0.6544
  605TMC3    O2 9028   4.660   2.875  16.481  0.4227 -0.2062 -0.1954
  606TMC3    C1 9029   1.069   2.040  17.181 -0.2964 -0.0592  0.7640
  606TMC3    C2 9030   1.101   1.959  17.286 -0.1979 -0.0010  0.3205
  606TMC3    C3 9031   1.184   1.847  17.265 -0.0544 -0.4795 -0.0328
  606TMC3    C4 9032   1.129   2.018  17.059  0.3588 -0.0782  0.5204
  606TMC3    C5 9033   1.210   1.905  17.042 -0.2779 -0.5133  0.5886
  606TMC3    C6 9034   1.231   1.816  17.144  0.0144 -0.0933 -0.3972
  606TMC3     C 9035   0.953   2.123  17.194  0.2228 -0.7628  0.4304
  606TMC3     O 9036   0.905   2.165  17.091  0.3202  0.3010  0.0095
  606TMC3     H 9037   1.055   1.964  17.383 -0.3146  2.3070  0.1449
  606TMC3    H1 9038   1.111   2.092  16.982  1.5701  1.1762  1.4412
  606TMC3    H2 9039   1.292   1.728  17.124 -1.3376 -1.1940  0.3288
  606TMC3    C7 9040   1.191   1.847  16.915 -0.1391  0.4188  0.1954
  606TMC3    C8 9041   1.221   1.761  17.379  0.5394 -0.6021 -0.8856
  606TMC3    O1 9042   1.206   1.922  16.819  0.0806 -0.0765 -0.0477
  606TMC3    O2 9043   1.340   1.750  17.398  0.4004  0.1244  0.0420
  607MPD2     C 9044   2.776   4.352  12.034 -0.2697  0.7323 -0.0864
  607MPD2    C1 9045   2.877   4.439  12.068  0.3278  0.1707 -0.6084
  607MPD2    C2 9046   2.888   4.472  12.197 -0.2128  0.2823  0.2492
  607MPD2    C3 9047   2.813   4.412  12.290 -0.5134 -0.0949  0.3216
  607MPD2    C4 9048   2.720   4.316  12.259 -0.4696  0.0583 -0.0997
  607MPD2    C5 9049   2.702   4.287  12.124  0.7929 -0.1396  0.7925
  607MPD2     H 9050   2.980   4.526  12.216  0.1046  0.0071 -0.5063
  607MPD2    H1 9051   2.663   4.261  12.332 -0.8280  0.3409 -0.1698
  607MPD2    H2 9052   2.767   4.329  11.928 -2.0859 -1.4913  0.5555
  607MPD2    H3 9053   2.612   4.233  12.096  2.7077 -1.5649 -2.6255
  607MPD2     N 9054   2.849   4.440  12.422 -0.4399 -0.0386  0.2337
  607MPD2    H5 9055   2.903   4.524  12.440 -1.3295  0.8295 -1.1760
  607MPD2    N1 9056   2.968   4.482  11.972 -0.4271  0.4227 -0.3039
  607MPD2    H7 9057   3.051   4.523  12.014 -0.0939 -0.0348 -0.5274
  608TMC3    C1 9058   3.054   4.605  11.799 -0.5074  0.1911  0.3366
  608TMC3    C2 9059   3.107   4.680  11.896 -0.1943  0.3850 -0.3182
  608TMC3    C3 9060   3.220   0.017  11.863 -0.0936 -0.5794  0.2077
  608TMC3    C4 9061   3.110   4.592  11.674 -1.0910  0.0371  0.3604
  608TMC3    C5 9062   3.221   4.660  11.646  0.3003  0.7441  0.3890
  608TMC3    C6 9063   3.279   0.006  11.737 -0.5306 -0.0699  0.3055
  608TMC3     C 9064   2.948   4.511  11.839  0.0412 -0.9450 -0.2362
  608TMC3     O 9065   2.871   4.470  11.757  0.4260  0.3943 -0.6223
  608TMC3     H 9066   3.045   4.711  11.979  1.0392  0.2400  0.6537
  608TMC3    H1 9067   3.063   4.529  11.599 -1.1184  0.4766  0.0080
  608TMC3    H2 9068   3.373   0.053  11.710  0.5918 -0.6272  3.1387
  608TMC3    C7 9069   3.261   4.697  11.510 -0.0190 -0.0927 -0.0729
  608TMC3    C8 9070   3.287   0.100  11.960  0.1898 -0.9024  0.5987
  608TMC3    O1 9071   3.341   0.053  11.499  0.3810  0.3651 -0.1390
  608TMC3    O2 9072   3.399   0.143  11.928  0.1439 -0.6259 -0.3126
  609TMC3    C1 9073   1.707   4.300   8.960 -0.1989 -0.0785  0.3835
  609TMC3    C2 9074   1.643   4.321   8.837 -0.0480 -0.2072  0.4303
  609TMC3    C3 9075   1.679   4.230   8.739  0.1378 -0.7549 -0.4542
  609TMC3    C4 9076   1.796   4.197   8.982 -1.5744 -0.2064 -0.0377
  609TMC3    C5 9077   1.825   4.113   8.877  0.4072 -0.5602 -0.4738
  609TMC3    C6 9078   1.768   4.126   8.755  0.2256  0.0434  0.3003
  609TMC3     C 9079   1.684   4.406   9.063  0.7219  0.4414 -0.5342
  609TMC3     O 9080   1.577   4.465   9.059 -0.4250 -0.3466  0.4778
  609TMC3     H 9081   1.575   4.404   8.827 -1.4242 -1.0704  2.5554
  609TMC3    H1 9082   1.838   4.174   9.079  0.6712 -1.9220 -1.4205
  609TMC3    H2 9083   1.798   4.064   8.671 -2.2727 -0.3907 -0.2524
  609TMC3    C7 9084   1.945   4.029   8.884 -0.0115 -0.1379 -0.2578
  609TMC3    C8 9085   1.646   4.271   8.603 -0.1101  0.1264 -0.2841
  609TMC3    O1 9086   2.024   4.065   8.971 -0.0952 -0.3923  0.2142
  609TMC3    O2 9087   1.710   4.216   8.513  0.0455 -0.1162  0.3169
  610TMC3    C1 9088   3.385   3.943  13.107 -0.1803  0.1378  0.8201
  610TMC3    C2 9089   3.334   4.060  13.063 -0.6894 -0.4372  0.3285
  610TMC3    C3 9090   3.402   4.127  12.960  0.8720  0.3731  0.1383
  610TMC3    C4 9091   3.492   3.881  13.058 -0.4562  0.3841 -0.6394
  610TMC3    C5 9092   3.552   3.935  12.946  0.3458 -0.6197 -0.6861
  610TMC3    C6 9093   3.502   4.057  12.890 -0.8451  0.1901  0.0755
  610TMC3     C 9094   3.341   3.897  13.234  0.2469 -0.0844  0.1329
  610TMC3     O 9095   3.417   3.829  13.300 -0.0043  0.4693  0.2591
  610TMC3     H 9096   3.276   4.124  13.128  0.1206 -1.7377  2.3376
  610TMC3    H1 9097   3.536   3.796  13.109 -0.1172  0.1326 -1.3536
  610TMC3    H2 9098   3.547   4.107  12.804 -0.2005  1.6602  1.2700
  610TMC3    C7 9099   3.681   3.874  12.910  0.3806  0.0418 -0.0469
  610TMC3    C8 9100   3.397   4.277  12.943 -0.5331  0.6594 -0.0545
  610TMC3    O1 9101   3.719   3.776  12.967  0.4559  0.1517  0.4226
  610TMC3    O2 9102   3.297   4.332  12.982 -0.5320  0.2576 -0.5127
  611MPD2     C 9103   2.348   4.475  10.018 -0.0680 -0.3414  0.5753
  611MPD2    C1 9104   2.448   4.392  10.065  0.0656 -0.3782 -0.8906
  611MPD2    C2 9105   2.574   4.444  10.084 -0.7742 -0.6694 -0.1696
  611MPD2    C3 9106   2.596   4.583  10.057  0.1344 -0.5143 -0.0970
  611MPD2    C4 9107   2.501   4.655   9.996  0.6804  0.1085 -0.5130
  611MPD2    C5 9108   2.374   4.608   9.981 -0.5705 -0.3989 -0.3557
  611MPD2     H 9109   2.660   4.386  10.115 -3.0153 -3.3701  0.9986
  611MPD2    H1 9110   2.509   0.021   9.966  1.3524 -0.3351 -1.8310
  611MPD2    H2 9111   2.246   4.438  10.012 -0.4785  0.8074  0.4228
  611MPD2    H3 9112   2.288   4.661   9.942  0.0006  0.3657 -0.5835
  611MPD2     N 9113   2.720   4.646  10.070 -0.2496  0.9433  0.2413
  611MPD2    H5 9114   2.727   0.004  10.035 -0.8223  0.5659 -0.8921
  611MPD2    N1 9115   2.414   4.257  10.076  0.6861  0.0789 -0.5536
  611MPD2    H7 9116   2.320   4.225  10.055  1.0166 -1.3134  0.0885
  612TMC3    C1 9117   2.930   4.697  10.161 -0.1617 -0.0661 -0.7309
  612TMC3    C2 9118   3.017   4.694  10.259 -0.8636 -0.2448 -0.2887
  612TMC3    C3 9119   3.137   0.018  10.250 -0.0391 -0.1055  0.4404
  612TMC3    C4 9120   2.957   0.031  10.045 -0.3175 -0.2836  0.5168
  612TMC3    C5 9121   3.080   0.090  10.039 -0.4591 -0.5670  1.1742
  612TMC3    C6 9122   3.163   0.095  10.141  0.0871  0.1774 -0.2830
  612TMC3     C 9123   2.825   4.596  10.147  0.2930 -0.0331 -0.2623
  612TMC3     O 9124   2.821   4.507  10.228 -0.1608 -0.1358 -0.1296
  612TMC3     H 9125   2.992   4.637  10.348 -0.9401 -0.8100 -0.6770
  612TMC3    H1 9126   2.898   0.013   9.957  0.0285 -0.1353  0.2540
  612TMC3    H2 9127   3.264   0.134  10.130  0.4244 -0.7405 -0.3975
  612TMC3    C7 9128   3.114   0.163   9.921 -0.3108  0.1971 -0.9726
  612TMC3    C8 9129   3.233   4.719  10.350 -0.1405 -0.2396 -0.2532
  612TMC3    O1 9130   3.231   0.191   9.906  0.3595  0.7307 -0.6956
  612TMC3    O2 9131   3.208   4.631  10.425 -0.5532  0.3688 -0.2584
  613MPD2     C 9132   2.440   2.035  16.234  0.6439 -0.2690  0.9266
  613MPD2    C1 9133   2.345   1.971  16.157  0.4763 -0.3272  0.5079
  613MPD2    C2 9134   2.351   1.830  16.142 -0.3333 -0.0165 -1.0303
  613MPD2    C3 9135   2.456   1.757  16.195  0.3039  0.0201 -0.0692
  613MPD2    C4 9136   2.557   1.824  16.267  0.1121  0.2867  0.4051
  613MPD2    C5 9137   2.546   1.963  16.286 -0.1865  0.2354  0.4624
  613MPD2     H 9138   2.271   1.788  16.081 -0.7963 -0.1875 -0.3083
  613MPD2    H1 9139   2.645   1.768  16.295  0.1618  0.6003  0.8818
  613MPD2    H2 9140   2.445   2.143  16.238 -1.4062 -0.2040  1.8999
  613MPD2    H3 9141   2.625   2.021  16.333 -1.7920 -0.0679  3.5344
  613MPD2     N 9142   2.470   1.620  16.181  0.0624 -0.2962  0.0860
  613MPD2    H5 9143   2.563   1.593  16.211  0.0098 -0.7355 -0.1433
  613MPD2    N1 9144   2.249   2.049  16.086  0.4153  0.1020  0.5268
  613MPD2    H7 9145   2.265   2.149  16.090  0.3140  0.1455 -0.2168
  614TMC3    C1 9146   2.125   2.094  15.896  1.0076  0.3526 -0.1542
  614TMC3    C2 9147   2.239   2.113  15.827  0.1137  0.1861 -0.4309
  614TMC3    C3 9148   2.246   2.090  15.689 -0.3591 -0.2567  0.0790
  614TMC3    C4 9149   2.015   2.062  15.821 -0.4681  0.2921  0.0069
  614TMC3    C5 9150   2.024   2.052  15.685  0.7357  0.5252  0.0680
  614TMC3    C6 9151   2.137   2.069  15.611 -0.2710 -0.5750 -0.1530
  614TMC3     C 9152   2.142   2.002  16.007 -0.2675  0.3822 -0.2349
  614TMC3     O 9153   2.069   1.906  16.017  0.1269 -0.1288  0.0375
  614TMC3     H 9154   2.336   2.124  15.875 -1.2851 -2.0191  2.8782
  614TMC3    H1 9155   1.923   2.052  15.878 -0.4180 -0.5070 -0.0556
  614TMC3    H2 9156   2.135   2.075  15.503 -0.8733  1.3906 -0.0394
  614TMC3    C7 9157   1.901   2.074  15.611 -0.0533 -0.1174 -0.8527
  614TMC3    C8 9158   2.375   2.025  15.658  0.0353 -0.5448  0.0328
  614TMC3    O1 9159   1.818   2.155  15.653 -0.2287  0.9138 -0.0832
  614TMC3    O2 9160   2.463   2.016  15.741  1.0417 -0.1952  0.2591
  615MPD2     C 9161   1.887   3.302  16.736 -0.7441 -0.9902 -0.2719
  615MPD2    C1 9162   1.880   3.383  16.622 -0.0373 -0.3919  0.1740
  615MPD2    C2 9163   1.893   3.327  16.500 -0.2887 -0.3110 -0.0281
  615MPD2    C3 9164   1.902   3.189  16.488 -0.3198 -0.2053  0.4784
  615MPD2    C4 9165   1.894   3.113  16.603 -1.0462 -0.0942  0.8802
  615MPD2    C5 9166   1.884   3.170  16.726 -0.2276 -0.4146  0.2986
  615MPD2     H 9167   1.902   3.393  16.415 -1.5631 -0.4225 -0.2525
  615MPD2    H1 9168   1.890   3.004  16.604  1.7291 -0.1968 -0.2805
  615MPD2    H2 9169   1.893   3.339  16.838  0.3343 -1.2011 -0.2579
  615MPD2    H3 9170   1.892   3.105  16.812 -0.3161 -2.3542 -1.1709
  615MPD2     N 9171   1.906   3.121  16.358 -0.1709 -0.2391 -0.1331
  615MPD2    H5 9172   1.897   3.020  16.356 -2.4856 -0.0515  0.3497
  615MPD2    N1 9173   1.879   3.525  16.624 -0.5389 -0.1543  0.2730
  615MPD2    H7 9174   1.901   3.569  16.535 -3.2286  1.4002  0.3570
  616TMC3    C1 9175   1.855   3.735  16.704  0.1909  0.9114  0.0349
  616TMC3    C2 9176   1.975   3.771  16.652  0.1739 -0.6718 -0.0358
  616TMC3    C3 9177   1.999   3.903  16.646 -0.3475  0.2313 -0.0517
  616TMC3    C4 9178   1.767   3.823  16.764  0.0493  0.3541  0.0578
  616TMC3    C5 9179   1.802   3.959  16.761  0.2351 -0.2165  0.1227
  616TMC3    C6 9180   1.912   4.001  16.696 -0.0955  0.4562  0.5161
  616TMC3     C 9181   1.827   3.600  16.726 -0.1747 -0.3854  0.3793
  616TMC3     O 9182   1.764   3.563  16.828 -0.2972 -0.8369 -0.1114
  616TMC3     H 9183   2.046   3.693  16.627  1.3192  0.3323  0.1031
  616TMC3    H1 9184   1.673   3.790  16.807 -0.0332 -0.2151 -0.5716
  616TMC3    H2 9185   1.937   4.106  16.701  0.3864  0.3708 -0.0859
  616TMC3    C7 9186   1.716   4.057  16.828 -0.4787 -0.6113 -0.1807
  616TMC3    C8 9187   2.131   3.939  16.589 -0.2618  0.8727  0.3660
  616TMC3    O1 9188   1.727   4.175  16.799 -0.3542 -0.5574  0.1395
  616TMC3    O2 9189   2.221   3.858  16.578 -0.5347 -0.3815  0.0459
  617MPD2     C 9190   4.495   1.504  14.442 -0.0021 -0.3296  0.4668
  617MPD2    C1 9191   4.481   1.482  14.303  0.3070 -0.6815  0.7795
  617MPD2    C2 9192   4.381   1.388  14.270  0.0006 -0.0495  0.0531
  617MPD2    C3 9193   4.305   1.320  14.360  1.0797 -0.1277  0.7192
  617MPD2    C4 9194   4.319   1.346  14.492 -0.5927 -0.0744 -0.6063
  617MPD2    C5 9195   4.416   1.438  14.531 -0.0890  0.0711 -0.6086
  617MPD2     H 9196   4.379   1.358  14.166  0.9877  1.1748 -0.3284
  617MPD2    H1 9197   4.254   1.295  14.563 -0.6044  0.8038  0.0105
  617MPD2    H2 9198   4.580   1.560  14.478 -0.4205  0.1641  0.7012
  617MPD2    H3 9199   4.440   1.462  14.634  0.3292 -1.5716 -0.3161
  617MPD2     N 9200   4.203   1.232  14.323 -0.2424  0.6249  0.0062
  617MPD2    H5 9201   4.154   1.179  14.395  1.3493  0.5390  1.0368
  617MPD2    N1 9202   4.576   1.543  14.224 -0.8523 -0.3599  0.3155
  617MPD2    H7 9203   4.642   1.607  14.266  1.1692 -2.0893 -0.2609
  618TMC3    C1 9204   4.734   1.548  14.053 -0.2138  0.1948  0.2409
  618TMC3    C2 9205   0.091   1.527  14.155 -0.1023 -0.1542  0.0967
  618TMC3    C3 9206   0.196   1.454  14.117 -0.4516 -0.0580  0.5005
  618TMC3    C4 9207   0.017   1.515  13.924  0.1223 -0.0156  0.6002
  618TMC3    C5 9208   0.125   1.443  13.891  0.0571  0.4755  0.4878
  618TMC3    C6 9209   0.222   1.416  13.985  0.5830 -0.4106 -0.2427
  618TMC3     C 9210   4.592   1.528  14.087  0.1905 -0.8815  0.5235
  618TMC3     O 9211   4.526   1.460  14.011  0.2806  0.5837 -0.7153
  618TMC3     H 9212   0.083   1.570  14.254 -0.5963 -0.9884  0.4220
  618TMC3    H1 9213   4.679   1.543  13.853  0.0315 -1.2544  0.2172
  618TMC3    H2 9214   0.314   1.364  13.961  2.3409  2.0145  1.2187
  618TMC3    C7 9215   0.122   1.388  13.759 -0.2603  0.2483 -0.5056
  618TMC3    C8 9216   0.281   1.398  14.219 -0.3458  0.5553 -0.0536
  618TMC3    O1 9217   0.026   1.422  13.690 -0.5959 -0.2182  0.5180
  618TMC3    O2 9218   0.296   1.466  14.321  0.7917  0.0448  0.3021
  619MPD2     C 9219   1.255   2.124  13.605  0.9607  0.2938 -0.0716
  619MPD2    C1 9220   1.249   2.246  13.676 -0.0735  0.5909  0.6979
  619MPD2    C2 9221   1.126   2.303  13.707  0.0776  0.3866  0.3642
  619MPD2    C3 9222   1.004   2.243  13.667  0.0394 -0.2033 -0.3791
  619MPD2    C4 9223   1.016   2.122  13.603  0.0214 -0.2340 -0.4397
  619MPD2    C5 9224   1.136   2.071  13.574 -0.0682 -0.1543 -0.2812
  619MPD2     H 9225   1.118   2.398  13.760  1.6267  0.2483  0.8510
  619MPD2    H1 9226   0.926   2.063  13.593 -2.0108  2.7905  0.1154
  619MPD2    H2 9227   1.347   2.078  13.572  0.5095 -0.4044 -0.3499
  619MPD2    H3 9228   1.137   1.978  13.519 -0.6994 -0.8505  0.8913
  619MPD2     N 9229   0.870   2.287  13.698 -0.2764  0.1291 -0.3795
  619MPD2    H5 9230   0.795   2.234  13.655  0.4146  0.8091 -2.3859
  619MPD2    N1 9231   1.365   2.315  13.714 -0.1725  0.2044 -0.3086
  619MPD2    H7 9232   1.355   2.407  13.754  1.9880  0.9734 -1.5375
  620TMC3    C1 9233   1.589   2.374  13.701 -0.3297 -0.7893 -0.3385
  620TMC3    C2 9234   1.615   2.433  13.580  0.3211  0.0584  0.7620
  620TMC3    C3 9235   1.656   2.570  13.581 -0.1034  1.3099  0.0738
  620TMC3    C4 9236   1.603   2.438  13.815  0.2652  0.2022  0.0752
  620TMC3    C5 9237   1.664   2.560  13.813  0.1741 -1.3886 -0.1940
  620TMC3    C6 9238   1.679   2.632  13.694  0.4199  0.6471  0.2897
  620TMC3     C 9239   1.492   2.267  13.694  0.2417 -0.1832  0.2159
  620TMC3     O 9240   1.530   2.150  13.676  1.0362 -0.0371 -0.0874
  620TMC3     H 9241   1.606   2.382  13.485  1.4255  0.8502  0.2230
  620TMC3    H1 9242   1.575   2.390  13.908  1.2195 -0.0708  0.2203
  620TMC3    H2 9243   1.715   2.734  13.696  1.0582  0.4086  0.9874
  620TMC3    C7 9244   1.654   2.639  13.940  0.7823  0.4632  0.4523
  620TMC3    C8 9245   1.678   2.640  13.453  0.0964 -1.3519  0.1135
  620TMC3    O1 9246   1.698   2.608  14.051 -0.0787 -0.3615  0.0248
  620TMC3    O2 9247   1.780   2.709  13.438 -0.3306  0.3236  0.3247
  621MPD2     C 9248   1.542   3.743   9.921  0.0998 -0.6636  0.2374
  621MPD2    C1 9249   1.661   3.736   9.994 -0.1167 -1.3466  0.0224
  621MPD2    C2 9250   1.780   3.744   9.930 -0.3199 -0.3009  0.2910
  621MPD2    C3 9251   1.786   3.775   9.790  0.4812 -0.3131 -0.1990
  621MPD2    C4 9252   1.665   3.802   9.732  0.2858  0.2932 -0.5374
  621MPD2    C5 9253   1.547   3.782   9.797  0.1705 -0.0315 -0.4517
  621MPD2     H 9254   1.870   3.734   9.989  0.5638  2.2479 -0.6069
  621MPD2    H1 9255   1.665   3.829   9.627  0.4826 -0.7726 -0.8083
  621MPD2    H2 9256   1.445   3.725   9.966 -1.8275  1.0717 -3.2388
  621MPD2    H3 9257   1.453   3.784   9.743 -0.4971  0.7119  0.7477
  621MPD2     N 9258   1.917   3.793   9.738  0.0814 -0.1288 -0.4946
  621MPD2    H5 9259   2.002   3.776   9.791  1.2891  2.7079 -1.4972
  621MPD2    N1 9260   1.664   3.716  10.135 -0.0546  0.8024 -0.0847
  621MPD2    H7 9261   1.754   3.705  10.182 -0.3531 -1.1245  0.0625
  622TMC3    C1 9262   1.581   3.673  10.361  0.0682 -0.4053  0.2397
  622TMC3    C2 9263   1.477   3.689  10.446 -0.1681 -0.1276 -0.2815
  622TMC3    C3 9264   1.463   3.590  10.539  0.5506 -0.5393 -0.0257
  622TMC3    C4 9265   1.663   3.562  10.365  0.0014  0.1997 -0.4677
  622TMC3    C5 9266   1.635   3.460  10.446  0.1852 -0.4722  0.1946
  622TMC3    C6 9267   1.534   3.471  10.544 -0.2930  0.6149  0.2333
  622TMC3     C 9268   1.552   3.703  10.220  0.2090 -0.4233 -0.6028
  622TMC3     O 9269   1.433   3.735  10.192 -0.3729  0.0889 -0.2592
  622TMC3     H 9270   1.409   3.773  10.438 -0.0709 -0.3750 -3.8530
  622TMC3    H1 9271   1.742   3.553  10.291  0.2117 -1.9547  0.0213
  622TMC3    H2 9272   1.510   3.390  10.611 -0.0467  0.9212  0.6865
  622TMC3    C7 9273   1.626   3.349  10.363 -0.1388 -0.0696  0.5222
  622TMC3    C8 9274   1.327   3.586  10.583  0.4974  0.2400  0.4923
  622TMC3    O1 9275   1.720   3.323  10.291  0.0275  0.2254  0.2711
  622TMC3    O2 9276   1.266   3.486  10.562  0.2470 -0.2941  0.1001
  623MPD2     C 9277   0.426   3.016  15.653  0.3973  0.2292 -0.3676
  623MPD2    C1 9278   0.330   3.048  15.746  0.9586  0.9157  0.1245
  623MPD2    C2 9279   0.373   3.071  15.874  0.0273  0.1809 -0.0345
  623MPD2    C3 9280   0.501   3.096  15.900 -0.4043 -0.1727 -0.2572
  623MPD2    C4 9281   0.600   3.087  15.806 -0.1694 -1.0347 -0.9891
  623MPD2    C5 9282   0.561   3.034  15.684 -0.3275  0.3421 -0.3651
  623MPD2     H 9283   0.298   3.102  15.946 -0.2200 -0.5536  0.0183
  623MPD2    H1 9284   0.707   3.086  15.819 -0.1901  0.8906 -0.6469
  623MPD2    H2 9285   0.405   2.990  15.550 -1.5900 -1.7747  0.5517
  623MPD2    H3 9286   0.644   3.010  15.618 -0.7794 -1.9833 -0.0744
  623MPD2     N 9287   0.528   3.125  16.034 -0.4868  0.4775 -0.0935
  623MPD2    H5 9288   0.457   3.091  16.098 -1.4510  2.1278 -0.2701
  623MPD2    N1 9289   0.193   3.046  15.722 -0.3220 -0.5585 -0.2051
  623MPD2    H7 9290   0.134   3.039  15.805  2.4791 -0.3307  1.8030
  624TMC3    C1 9291   0.710   3.085  16.447  0.4260  0.8448 -0.2788
  624TMC3    C2 9292   0.584   3.077  16.502 -0.5217 -0.1710  0.7458
  624TMC3    C3 9293   0.484   3.125  16.422 -0.6896  0.1272  0.3500
  624TMC3    C4 9294   0.739   3.134  16.321  0.1684  0.6514  0.1745
  624TMC3    C5 9295   0.627   3.166  16.236  0.0155 -0.1734  0.6016
  624TMC3    C6 9296   0.504   3.168  16.296 -0.5198 -0.3067 -0.1358
  624TMC3     C 9297   0.814   3.045  16.534  0.0048 -0.1270 -0.3258
  624TMC3     O 9298   0.917   3.112  16.519 -0.5396  0.1918  0.2498
  624TMC3     H 9299   0.564   3.054  16.606  0.1792 -4.0903 -0.0014
  624TMC3    H1 9300   0.840   3.120  16.282 -0.7390 -3.1689 -0.7738
  624TMC3    H2 9301   0.424   3.210  16.235 -1.7618 -0.2104  1.5672
  624TMC3    C7 9302   0.645   3.164  16.093 -0.1038 -0.2716  0.3642
  624TMC3    C8 9303   0.340   3.118  16.465  0.2084  0.3044  0.2557
  624TMC3    O1 9304   0.753   3.195  16.051  0.4455  0.2104 -0.3364
  624TMC3    O2 9305   0.300   3.015  16.524 -0.3523 -0.0979 -0.1762
  625MPD2     C 9306   1.055   4.673   0.611  0.5433  0.1635 -0.8733
  625MPD2    C1 9307   1.137   0.050   0.611 -0.0419 -0.1155 -0.2707
  625MPD2    C2 9308   1.271   0.043   0.625  0.2472  0.0364  0.3215
  625MPD2    C3 9309   1.328   4.658   0.657  0.5763 -0.1662 -0.2419
  625MPD2    C4 9310   1.247   4.551   0.677  0.6589 -0.7222 -0.7053
  625MPD2    C5 9311   1.112   4.556   0.652 -0.2163  0.3634 -0.5733
  625MPD2     H 9312   1.333   0.132   0.619  1.5352 -0.9145 -0.4619
  625MPD2    H1 9313   1.286   4.463   0.726 -0.6703 -1.1702 -0.4492
  625MPD2    H2 9314   0.951   4.673   0.581  0.3974  1.7386 -0.3823
  625MPD2    H3 9315   1.058   4.463   0.662 -1.1053  0.9029 -0.4607
  625MPD2     N 9316   1.471   4.660   0.668  0.1834 -0.3419  0.1697
  625MPD2    H5 9317   1.509   0.016   0.678 -0.9820  0.2208 -0.6956
  625MPD2    N1 9318   1.091   0.178   0.571  0.0459 -0.0261 -0.0996
  625MPD2    H7 9319   1.164   0.245   0.549 -0.5385  0.4371 -0.6441
  626TMC3    C1 9320   0.939   0.341   0.494  0.1188 -0.0738  0.2150
  626TMC3    C2 9321   0.820   0.369   0.432 -0.2076 -0.5393 -0.3735
  626TMC3    C3 9322   0.785   0.497   0.415 -0.1893  1.0218 -0.2298
  626TMC3    C4 9323   1.012   0.442   0.550  0.5740 -0.3802  0.3022
  626TMC3    C5 9324   0.979   0.573   0.528  0.2642  0.5051 -0.1270
  626TMC3    C6 9325   0.864   0.599   0.455 -0.1702 -0.2531  0.7970
  626TMC3     C 9326   0.960   0.208   0.542  0.8123  0.0337 -0.2336
  626TMC3     O 9327   0.863   0.140   0.566 -0.2259  0.2867 -0.4014
  626TMC3     H 9328   0.755   0.291   0.395 -1.5669 -0.3736  1.6509
  626TMC3    H1 9329   1.106   0.421   0.601  0.3747 -1.5562  0.1921
  626TMC3    H2 9330   0.847   0.701   0.423  0.1750 -0.5506 -0.3720
  626TMC3    C7 9331   1.003   0.670   0.634 -0.7785 -0.1621  0.3105
  626TMC3    C8 9332   0.695   0.531   0.304  0.3172 -0.1394 -0.0219
  626TMC3    O1 9333   1.102   0.647   0.703 -0.5679 -0.6551 -0.7807
  626TMC3    O2 9334   0.716   0.637   0.245  0.3957 -0.5416  0.1165
  627MPD2     C 9335   4.097   4.718  14.007 -0.0950  0.5793  0.8178
  627MPD2    C1 9336   4.071   4.667  14.136  0.4225 -0.2822 -0.1984
  627MPD2    C2 9337   3.994   4.552  14.154  0.3748  0.9953 -0.2685
  627MPD2    C3 9338   3.953   4.490  14.042  0.8501 -0.6511  0.1601
  627MPD2    C4 9339   3.978   4.536  13.913  0.0032  0.0548  0.0752
  627MPD2    C5 9340   4.044   4.654  13.897  0.0235 -0.0262 -0.7163
  627MPD2     H 9341   3.990   4.496  14.247 -1.4367  3.3007  1.0524
  627MPD2    H1 9342   3.952   4.474  13.828 -1.6668 -0.1862  0.7609
  627MPD2    H2 9343   4.150   0.074  13.996  0.3815 -0.0353 -2.0933
  627MPD2    H3 9344   4.062   4.694  13.797  0.3010  1.2265 -0.1657
  627MPD2     N 9345   3.887   4.371  14.068 -0.1108  0.0891  0.1636
  627MPD2    H5 9346   3.887   4.346  14.167 -0.9484  0.0618  0.1573
  627MPD2    N1 9347   4.138   4.734  14.238 -0.2784  0.4535 -0.1590
  627MPD2    H7 9348   4.203   0.067  14.203  1.5022 -1.0455  0.1306
  628TMC3    C1 9349   4.215   0.072  14.445 -0.3143  1.1090 -1.1082
  628TMC3    C2 9350   4.344   0.040  14.408 -0.2682  0.8643  0.5778
  628TMC3    C3 9351   4.443   0.081  14.494  0.5273 -0.2731 -0.0499
  628TMC3    C4 9352   4.191   0.160  14.549  0.2260 -0.4367  0.3553
  628TMC3    C5 9353   4.289   0.196  14.636  0.1339  0.6998 -0.0480
  628TMC3    C6 9354   4.419   0.158  14.609 -0.4071 -0.4145 -0.7582
  628TMC3     C 9355   4.114   0.003  14.373  0.1346 -0.5528  0.0309
  628TMC3     O 9356   4.011   4.710  14.431 -0.4164 -0.8877 -0.6237
  628TMC3     H 9357   4.376   4.719  14.323  2.8827  0.9194  1.7259
  628TMC3    H1 9358   4.084   0.174  14.564  0.4597  0.8002  0.9079
  628TMC3    H2 9359   4.503   0.212  14.651 -2.5421  1.7397  0.7217
  628TMC3    C7 9360   4.277   0.320  14.707 -0.9673  0.7701 -0.5405
  628TMC3    C8 9361   4.580   0.043  14.460  0.1042 -0.4421 -0.2286
  628TMC3    O1 9362   4.370   0.354  14.778  0.1287  0.7189  0.5127
  628TMC3    O2 9363   4.613   0.042  14.342 -0.5274  0.4881 -0.5497
  629MPD2     C 9364   2.428   4.299  16.372  0.3390 -0.8451  0.2863
  629MPD2    C1 9365   2.463   4.173  16.422 -0.1800 -0.0924  0.4540
  629MPD2    C2 9366   2.365   4.096  16.482  0.2460  0.3016  0.8262
  629MPD2    C3 9367   2.238   4.139  16.492 -0.0409  0.2917 -0.2140
  629MPD2    C4 9368   2.205   4.258  16.437  0.4693  0.0777  0.1231
  629MPD2    C5 9369   2.301   4.341  16.380 -0.2429 -0.8297 -0.2441
  629MPD2     H 9370   2.382   4.001  16.530  0.9656  0.4009  0.7818
  629MPD2    H1 9371   2.105   4.299  16.437  0.1501 -0.6670 -1.7895
  629MPD2    H2 9372   2.492   4.373  16.324  2.0705 -1.8689  0.9907
  629MPD2    H3 9373   2.280   4.439  16.337 -1.2059 -1.2238 -0.6888
  629MPD2     N 9374   2.139   4.074  16.561  0.3498 -0.1667  0.8706
  629MPD2    H5 9375   2.046   4.114  16.553  1.1358  1.8133  1.7845
  629MPD2    N1 9376   2.593   4.118  16.400 -0.8916 -0.1262  0.0619
  629MPD2    H7 9377   2.655   4.166  16.336 -0.2786 -0.6902  0.2307
  630TMC3    C1 9378   2.741   3.943  16.374 -0.3321  0.2256 -0.4289
  630TMC3    C2 9379   2.829   4.028  16.316  0.1217  0.1380 -0.1134
  630TMC3    C3 9380   2.941   3.974  16.255  0.4625 -0.1581 -0.2377
  630TMC3    C4 9381   2.763   3.806  16.392  0.8369 -0.0292 -0.1353
  630TMC3    C5 9382   2.890   3.764  16.349  0.6304  0.2251 -0.2809
  630TMC3    C6 9383   2.971   3.845  16.273  0.0417  0.0532 -0.3868
  630TMC3     C 9384   2.642   4.005  16.459 -0.3688 -0.4502 -0.1018
  630TMC3     O 9385   2.598   3.929  16.541  0.5495 -0.0328 -0.2117
  630TMC3     H 9386   2.819   4.136  16.314  1.0919  0.2459  0.5560
  630TMC3    H1 9387   2.713   3.755  16.473  0.9811 -0.2010 -0.1539
  630TMC3    H2 9388   3.071   3.816  16.242  0.4138  2.1529 -1.1562
  630TMC3    C7 9389   2.956   3.667  16.433  0.9294  0.1206  0.1255
  630TMC3    C8 9390   3.053   4.059  16.251 -0.8220 -0.2061  0.4956
  630TMC3    O1 9391   3.075   3.670  16.443  0.3871  0.3694 -0.3515
  630TMC3    O2 9392   3.162   4.025  16.303 -0.2050 -0.2437 -0.1121
  631MPD2     C 9393   1.182   2.881  15.821 -0.2901 -0.8304  0.0999
  631MPD2    C1 9394   1.244   2.982  15.745 -0.6318 -0.6133 -0.0728
  631MPD2    C2 9395   1.378   2.993  15.765  0.0689  0.4521  0.2969
  631MPD2    C3 9396   1.443   2.914  15.861 -0.3790 -0.0625  0.6133
  631MPD2    C4 9397   1.382   2.807  15.920  0.0148 -0.1131 -0.0178
  631MPD2    C5 9398   1.249   2.797  15.903  0.1081 -0.3712 -0.3663
  631MPD2     H 9399   1.436   3.067  15.711 -0.9226  1.1526  0.1793
  631MPD2    H1 9400   1.434   2.748  15.994 -0.1042 -0.4657 -0.2171
  631MPD2    H2 9401   1.075   2.865  15.815  0.1888 -4.0334 -0.0841
  631MPD2    H3 9402   1.201   2.732  15.975 -1.0594  0.5839 -0.2821
  631MPD2     N 9403   1.579   2.945  15.882 -0.5014 -0.3712  0.1065
  631MPD2    H5 9404   1.627   3.002  15.813 -1.0989  1.2119  1.0043
  631MPD2    N1 9405   1.176   3.063  15.652 -0.5131 -0.1719  0.1201
  631MPD2    H7 9406   1.237   3.119  15.593  0.8598 -4.5696 -2.6625
  632TMC3    C1 9407   1.008   3.177  15.534  0.8318  0.1163  1.1486
  632TMC3    C2 9408   0.923   3.280  15.584 -0.3203  0.1235 -0.3089
  632TMC3    C3 9409   0.925   3.406  15.535 -0.4680  0.1471  0.4287
  632TMC3    C4 9410   1.103   3.213  15.445 -0.2411 -0.6333 -0.6571
  632TMC3    C5 9411   1.092   3.337  15.385  0.1711  0.0052 -0.2558
  632TMC3    C6 9412   0.993   3.428  15.418 -0.8185  0.1334  0.3495
  632TMC3     C 9413   1.041   3.082  15.643 -0.7718  0.2624 -0.1321
  632TMC3     O 9414   0.948   3.038  15.712  0.0856 -0.4712  0.6592
  632TMC3     H 9415   0.871   3.266  15.678  0.6333  0.8160  0.3278
  632TMC3    H1 9416   1.170   3.133  15.416  0.1107 -1.3691  2.1546
  632TMC3    H2 9417   0.998   3.523  15.366  1.3940 -0.5527 -0.7115
  632TMC3    C7 9418   1.174   3.371  15.271  0.8698 -0.4578 -0.2454
  632TMC3    C8 9419   0.881   3.509  15.630  0.3461  0.5009  0.0136
  632TMC3    O1 9420   1.142   3.460  15.192 -0.1209  0.2668  0.2580
  632TMC3    O2 9421   0.791   3.474  15.709  0.5085  0.5184 -0.4041
  633MPD2     C 9422   0.686   1.474  17.293  0.5376  0.0808 -1.1543
  633MPD2    C1 9423   0.629   1.424  17.184 -0.0326  0.3667 -0.5599
  633MPD2    C2 9424   0.690   1.314  17.125 -0.5493  0.1903 -0.0417
  633MPD2    C3 9425   0.809   1.262  17.167 -1.3602 -0.6414 -0.2430
  633MPD2    C4 9426   0.875   1.326  17.273  0.8517  0.2288  0.0030
  633MPD2    C5 9427   0.810   1.434  17.332 -0.7917  0.4946  0.6713
  633MPD2     H 9428   0.654   1.293  17.025 -0.3870  0.0095 -0.0605
  633MPD2    H1 9429   0.977   1.306  17.304  0.2393  0.9784  2.5176
  633MPD2    H2 9430   0.644   1.557  17.348  1.9040  0.6309 -0.9491
  633MPD2    H3 9431   0.856   1.473  17.421  2.1338 -0.3097 -0.5016
  633MPD2     N 9432   0.882   1.163  17.093  0.4819 -0.3944  0.7605
  633MPD2    H5 9433   0.977   1.156  17.128  0.6149  0.3140  0.5610
  633MPD2    N1 9434   0.522   1.468  17.106  0.2790  0.3897 -0.3762
  633MPD2    H7 9435   0.507   1.408  17.025 -0.1867 -2.3740  1.7410
  634TMC3    C1 9436   0.408   1.621  16.981  0.8593 -0.2929  0.0938
  634TMC3    C2 9437   0.411   1.524  16.889 -0.4643  0.2637  0.1660
  634TMC3    C3 9438   0.411   1.562  16.758  0.7827 -0.2066 -0.0573
  634TMC3    C4 9439   0.387   1.753  16.955 -0.0179 -1.2915  0.3019
  634TMC3    C5 9440   0.361   1.779  16.826  0.6444  0.0995 -0.4706
  634TMC3    C6 9441   0.371   1.689  16.728 -0.7701 -0.2782 -0.0067
  634TMC3     C 9442   0.464   1.590  17.113 -0.0360 -0.4441 -0.4702
  634TMC3     O 9443   0.492   1.684  17.185 -0.2510  0.3815  0.3223
  634TMC3     H 9444   0.392   1.420  16.915 -0.8661  0.2663 -0.1008
  634TMC3    H1 9445   0.395   1.836  17.025  0.4423 -0.5273 -0.6681
  634TMC3    H2 9446   0.321   1.712  16.635 -0.6410  0.2529  0.0540
  634TMC3    C7 9447   0.349   1.917  16.768 -0.7341 -0.2578 -0.1340
  634TMC3    C8 9448   0.458   1.478  16.652  0.1444  0.0235 -0.5812
  634TMC3    O1 9449   0.387   1.921  16.653 -0.1373 -0.2861 -0.5042
  634TMC3    O2 9450   0.463   1.355  16.658 -0.5723  0.4366  0.0690
  635TMC3    C1 9451   0.454   2.992   0.156  0.0788 -0.8359  0.4751
  635TMC3    C2 9452   0.482   2.878   0.095  0.2756  0.1662 -0.1912
  635TMC3    C3 9453   0.415   2.764   0.127  0.4040 -0.0058  0.1724
  635TMC3    C4 9454   0.346   3.004   0.235  0.3897 -0.1158  0.7730
  635TMC3    C5 9455   0.279   2.891   0.266  0.0115 -0.1539  0.0638
  635TMC3    C6 9456   0.305   2.769   0.213  0.3070 -0.5341  1.0190
  635TMC3     C 9457   0.525   3.106   0.122  0.4559 -0.2387 -0.7614
  635TMC3     O 9458   0.501   3.200   0.192 -0.2785  0.6134 -0.1466
  635TMC3     H 9459   0.570   2.866   0.032 -0.4017 -2.1150 -0.6979
  635TMC3    H1 9460   0.320   3.103   0.271 -0.8647 -0.4435  0.7782
  635TMC3    H2 9461   0.239   2.686   0.237  0.8994 -1.2531  0.1668
  635TMC3    C7 9462   0.200   2.893   0.392  0.5447 -0.3793  0.0884
  635TMC3    C8 9463   0.442   2.635   0.059  0.0599  0.1034  0.7170
  635TMC3    O1 9464   0.174   2.783   0.441 -0.1001 -0.3343  0.2401
  635TMC3    O2 9465   0.540   2.624  17.738  0.3190 -0.0497 -0.1223
  636MPD2     C 9466   1.861   1.531  15.697  0.4238  0.2849 -0.2720
  636MPD2    C1 9467   1.924   1.593  15.803  0.7264  0.1577 -0.1441
  636MPD2    C2 9468   2.051   1.557  15.842  0.2676  0.4360  0.0491
  636MPD2    C3 9469   2.116   1.453  15.776 -0.7408 -0.2764  0.1203
  636MPD2    C4 9470   2.053   1.395  15.666 -0.2985 -0.2599  0.0281
  636MPD2    C5 9471   1.920   1.424  15.639  0.3434  0.0932 -0.5920
  636MPD2     H 9472   2.096   1.615  15.922 -1.1095 -0.0798  1.1905
  636MPD2    H1 9473   2.106   1.324  15.604  1.7915 -0.5173  2.1260
  636MPD2    H2 9474   1.775   1.568  15.644 -1.4420 -0.2836  2.3563
  636MPD2    H3 9475   1.876   1.395  15.544 -0.2786  1.8098 -0.8332
  636MPD2     N 9476   2.252   1.417  15.815  0.8038 -0.6272 -0.0309
  636MPD2    H5 9477   2.282   1.462  15.901 -4.2925  1.9652  0.3748
  636MPD2    N1 9478   1.868   1.692  15.883 -0.7078 -0.0780  0.0845
  636MPD2    H7 9479   1.920   1.719  15.966  1.0168 -0.2953 -0.9265
  637TMC3    C1 9480   2.439   1.286  15.863  0.1386  0.1741  0.4009
  637TMC3    C2 9481   2.403   1.330  15.991  0.1738  0.5969 -0.5089
  637TMC3    C3 9482   2.479   1.427  16.051  0.6429  0.4636  0.1087
  637TMC3    C4 9483   2.556   1.331  15.804 -0.4532 -0.0172 -0.1046
  637TMC3    C5 9484   2.625   1.435  15.866 -0.7835 -0.8745 -0.9466
  637TMC3    C6 9485   2.599   1.468  15.993  1.3479 -0.0524 -0.2126
  637TMC3     C 9486   2.328   1.317  15.767  0.1027  0.5104  0.3521
  637TMC3     O 9487   2.338   1.288  15.647 -0.4075  0.5130  0.3732
  637TMC3     H 9488   2.309   1.298  16.035  0.3764 -0.1224 -0.5941
  637TMC3    H1 9489   2.583   1.290  15.708  0.3304 -0.8623  0.4795
  637TMC3    H2 9490   2.643   1.558  16.033  0.1708 -0.6389  2.3644
  637TMC3    C7 9491   2.624   1.561  15.785  0.3467 -0.6390 -0.3427
  637TMC3    C8 9492   2.399   1.536  16.103  0.1792  0.6727 -0.6774
  637TMC3    O1 9493   2.607   1.668  15.844 -0.4932 -0.0160 -0.3750
  637TMC3    O2 9494   2.284   1.552  16.063  0.2753 -0.2543  0.2858
  638MPD2     C 9495   1.537   0.577  15.080 -0.1126 -0.3089  0.3989
  638MPD2    C1 9496   1.525   0.463  15.004 -1.1174  0.5440 -0.6132
  638MPD2    C2 9497   1.500   0.343  15.062 -0.1761  0.0148  0.3394
  638MPD2    C3 9498   1.496   0.336  15.195  0.3854 -0.2474  0.3880
  638MPD2    C4 9499   1.510   0.444  15.273  0.2824 -0.1993 -0.2780
  638MPD2    C5 9500   1.529   0.565  15.213  0.1414  0.3865 -1.2509
  638MPD2     H 9501   1.492   0.249  15.008  2.1449  0.4356 -0.7422
  638MPD2    H1 9502   1.506   0.443  15.381 -1.6788  1.3753 -0.3241
  638MPD2    H2 9503   1.565   0.676  15.047  1.8184 -0.9536  0.1449
  638MPD2    H3 9504   1.558   0.652  15.270  0.4818  1.4769 -3.0985
  638MPD2     N 9505   1.488   0.210  15.255  0.0305 -0.3160  0.0822
  638MPD2    H5 9506   1.471   0.129  15.197 -0.5471 -0.6175  0.6726
  638MPD2    N1 9507   1.550   0.472  14.864 -0.7945 -0.3730  0.5063
  638MPD2    H7 9508   1.596   0.559  14.839 -0.6397 -0.2590  1.1703
  639TMC3    C1 9509   1.504   0.009  15.383  0.1508 -0.1482 -0.8320
  639TMC3    C2 9510   1.428   4.691  15.282  0.2776 -0.6453  1.2309
  639TMC3    C3 9511   1.466   4.565  15.249 -0.3776 -0.5230  0.1934
  639TMC3    C4 9512   1.613   4.686  15.433  0.3363 -1.1579  0.5349
  639TMC3    C5 9513   1.650   4.560  15.391  0.1950  0.5424  0.1180
  639TMC3    C6 9514   1.576   4.499  15.296  0.5744  0.5742  0.2977
  639TMC3     C 9515   1.519   0.163  15.379  0.2018  0.0205  0.9721
  639TMC3     O 9516   1.581   0.217  15.469  0.5676  0.5178  0.6007
  639TMC3     H 9517   1.338   4.735  15.242  0.1500 -0.5723  1.5914
  639TMC3    H1 9518   1.684   0.007  15.490  0.1786 -0.3675 -0.0914
  639TMC3    H2 9519   1.603   4.401  15.257  1.1411  0.5061  0.8665
  639TMC3    C7 9520   1.774   4.498  15.427 -0.9756 -0.5388  0.1468
  639TMC3    C8 9521   1.398   4.489  15.143  0.0247 -0.7573  0.4541
  639TMC3    O1 9522   1.808   4.502  15.545 -0.0161 -0.1499  0.0097
  639TMC3    O2 9523   1.467   4.423  15.070 -0.2873 -0.3407  0.0725
  640MPD2     C 9524   1.977   4.713   9.871 -0.2046  0.1637 -0.1423
  640MPD2    C1 9525   1.987   0.086   9.792  0.0851 -0.3330 -0.2930
  640MPD2    C2 9526   1.906   0.199   9.813 -0.7121 -0.7766 -0.5115
  640MPD2    C3 9527   1.811   0.194   9.909 -0.0598  0.0947  0.1826
  640MPD2    C4 9528   1.805   0.084   9.991 -0.7773 -0.5362  0.0118
  640MPD2    C5 9529   1.887   4.713   9.973 -0.3169 -0.1978  0.0008
  640MPD2     H 9530   1.910   0.279   9.739 -0.1759  1.5502  2.0473
  640MPD2    H1 9531   1.723   0.076  10.062 -0.0870 -0.2917  0.8362
  640MPD2    H2 9532   2.043   4.630   9.851  0.2425  0.3365  0.6163
  640MPD2    H3 9533   1.878   4.633  10.046 -0.8895  1.8204  2.1822
  640MPD2     N 9534   1.718   0.295   9.926  0.6737  0.0970  0.3296
  640MPD2    H5 9535   1.637   0.267   9.980  1.1358 -2.1443 -0.1274
  640MPD2    N1 9536   2.082   0.069   9.684  0.3541 -0.4597 -0.3135
  640MPD2    H7 9537   2.129   4.717   9.679  0.9438 -0.3585  3.0648
  641TMC3    C1 9538   2.163   0.106   9.468 -0.2185  0.4381 -0.0972
  641TMC3    C2 9539   2.263   0.014   9.489 -0.4384  0.6177  0.3257
  641TMC3    C3 9540   2.292   4.668   9.382 -0.6079  0.0100 -0.1759
  641TMC3    C4 9541   2.095   0.116   9.352  0.0509 -0.5472 -0.4590
  641TMC3    C5 9542   2.126   0.034   9.247 -0.6078  0.2245 -0.2598
  641TMC3    C6 9543   2.230   4.677   9.259 -0.5809 -0.3306 -0.5910
  641TMC3     C 9544   2.097   0.162   9.587  0.6697  0.3620 -0.0338
  641TMC3     O 9545   2.042   0.266   9.564 -0.2432 -0.6955  0.2566
  641TMC3     H 9546   2.299   4.733   9.590 -1.8205 -1.7008  0.3896
  641TMC3    H1 9547   2.021   0.194   9.342 -0.1322 -0.4635  1.4266
  641TMC3    H2 9548   2.257   4.614   9.175  1.9686 -0.4190  0.2967
  641TMC3    C7 9549   2.042   0.037   9.129  0.2547 -0.6075  0.2610
  641TMC3    C8 9550   2.345   4.530   9.400  0.3870 -0.3001 -0.8049
  641TMC3    O1 9551   1.969   0.136   9.130  0.2155  0.2085 -0.2937
  641TMC3    O2 9552   2.292   4.448   9.328  0.1880 -0.7353  0.2609
  642TMC3    C1 9553   3.116   0.541  12.199 -0.7350 -0.1574  0.0711
  642TMC3    C2 9554   3.201   0.568  12.093  0.3253 -0.6637 -0.1797
  642TMC3    C3 9555   3.196   0.476  11.993  0.0983 -0.2382 -0.0845
  642TMC3    C4 9556   3.026   0.436  12.201  0.7445  0.3973  0.1909
  642TMC3    C5 9557   3.024   0.355  12.093 -0.1906  0.8288  0.5508
  642TMC3    C6 9558   3.103   0.380  11.983  0.7416 -0.0850 -0.0894
  642TMC3     C 9559   3.098   0.642  12.303  0.3233  0.6932  0.0365
  642TMC3     O 9560   3.125   0.752  12.269  0.0176 -0.5409  0.0069
  642TMC3     H 9561   3.259   0.660  12.095 -1.9325  0.7551  0.4341
  642TMC3    H1 9562   2.941   0.432  12.268  0.2293  3.1907 -0.2981
  642TMC3    H2 9563   3.108   0.323  11.891  0.7938  0.4445 -0.4093
  642TMC3    C7 9564   2.909   0.270  12.072  0.1799 -0.8018 -0.1548
  642TMC3    C8 9565   3.319   0.460  11.914  0.2170 -0.2921 -0.7167
  642TMC3    O1 9566   2.878   0.244  11.957 -0.3597  0.4825 -0.2073
  642TMC3    O2 9567   3.304   0.397  11.811  0.3097  0.2516  0.5125
  643TMC3    C1 9568   2.607   4.176   0.030 -0.8421  0.2518  0.0833
  643TMC3    C2 9569   2.486   4.184  17.714  0.6061  0.6160  0.3560
  643TMC3    C3 9570   2.478   4.111  17.598 -0.1509 -0.1819 -0.5850
  643TMC3    C4 9571   2.713   4.100  17.740 -0.3077  0.1579  0.0846
  643TMC3    C5 9572   2.704   4.037  17.620  0.0776  0.1462  0.1098
  643TMC3    C6 9573   2.575   4.026  17.555 -0.1616 -0.2604  0.1032
  643TMC3     C 9574   2.607   4.240   0.155 -0.0326  0.7575 -0.1996
  643TMC3     O 9575   2.510   4.305   0.192 -0.2664  0.3422 -0.6009
  643TMC3     H 9576   2.414   4.257   0.000  0.9184 -0.0321  2.2904
  643TMC3    H1 9577   2.811   4.106   0.036  0.1606 -0.1125 -0.9015
  643TMC3    H2 9578   2.569   3.976  17.459 -0.9537 -0.7104  0.3902
  643TMC3    C7 9579   2.804   4.090  17.525  0.4051  1.1095  0.4434
  643TMC3    C8 9580   2.423   4.182  17.487  0.3663  0.1630  0.0738
  643TMC3    O1 9581   2.878   4.178  17.568  0.2743  0.0244  0.2334
  643TMC3    O2 9582   2.382   4.121  17.390 -0.6104 -0.2140  0.3129
  644MPD2     C 9583   2.655   0.085   9.322  0.1909 -0.1493  0.1289
  644MPD2    C1 9584   2.647   4.694   9.273 -0.1154 -0.1439 -0.6392
  644MPD2    C2 9585   2.567   4.665   9.163 -0.3229 -0.0287 -0.0725
  644MPD2    C3 9586   2.503   0.032   9.097  0.1223 -0.0748 -0.1288
  644MPD2    C4 9587   2.508   0.162   9.143  0.0110  0.5474 -0.0301
  644MPD2    C5 9588   2.587   0.179   9.258 -0.4488  0.0774 -0.0852
  644MPD2     H 9589   2.556   4.564   9.125 -1.5962 -0.4521  1.4416
  644MPD2    H1 9590   2.465   0.254   9.104  0.6401  1.2679  0.9449
  644MPD2    H2 9591   2.725   0.112   9.401  1.2255 -1.4208 -0.3494
  644MPD2    H3 9592   2.586   0.275   9.309 -0.9750 -0.2566  0.5292
  644MPD2     N 9593   2.423   4.732   8.985 -0.0057 -0.0415 -0.5687
  644MPD2    H5 9594   2.425   4.633   8.962  1.7281  0.0378 -0.7681
  644MPD2    N1 9595   2.716   4.596   9.349 -0.1354  0.4841 -0.4514
  644MPD2    H7 9596   2.779   4.630   9.422  0.6798  0.8664 -1.3276
  645TMC3    C1 9597   2.299   0.004   8.792  0.1755  0.2570  0.3887
  645TMC3    C2 9598   2.204   0.061   8.717 -0.4053  0.1617  0.1030
  645TMC3    C3 9599   2.169   0.009   8.597 -0.4059  0.3288 -0.0369
  645TMC3    C4 9600   2.347   4.619   8.760 -0.1053  0.0459 -0.0688
  645TMC3    C5 9601   2.311   4.569   8.637  0.6928  0.1297  0.2689
  645TMC3    C6 9602   2.218   4.625   8.555  0.3252  0.0411 -0.1828
  645TMC3     C 9603   2.342   0.081   8.911 -0.5324 -0.5086  0.2966
  645TMC3     O 9604   2.318   0.200   8.927  0.2861  0.2847 -0.1646
  645TMC3     H 9605   2.187   0.162   8.752  1.8571  0.0778  1.4954
  645TMC3    H1 9606   2.437   4.579   8.806 -0.0389  0.1823 -0.0797
  645TMC3    H2 9607   2.199   4.584   8.457  0.5036  0.7070 -0.4939
  645TMC3    C7 9608   2.325   4.427   8.625  0.7097  0.5601 -0.3728
  645TMC3    C8 9609   2.053   0.060   8.526  1.1615 -0.4246 -0.2468
  645TMC3    O1 9610   2.413   4.371   8.692 -0.3297  0.5779 -0.0458
  645TMC3    O2 9611   2.020   0.006   8.427  0.5288 -0.3909  0.1398
  646MPD2     C 9612   1.841   3.809  14.748  0.4435 -0.4157  0.4126
  646MPD2    C1 9613   1.743   3.790  14.849 -0.2418 -0.0415  0.2048
  646MPD2    C2 9614   1.609   3.810  14.812 -0.5812  0.0594 -0.1431
  646MPD2    C3 9615   1.581   3.852  14.684  0.4249 -0.1177 -0.0409
  646MPD2    C4 9616   1.685   3.874  14.593  0.5103  0.2713 -0.2876
  646MPD2    C5 9617   1.814   3.850  14.624  0.0871  0.8075 -0.3244
  646MPD2     H 9618   1.525   3.786  14.876 -0.5396 -0.6016 -0.3301
  646MPD2    H1 9619   1.675   3.909  14.491  1.9257  1.0597 -0.1663
  646MPD2    H2 9620   1.944   3.786  14.771  0.6471  0.8747  0.7884
  646MPD2    H3 9621   1.887   3.845  14.545  0.2947  1.5695 -0.1762
  646MPD2     N 9622   1.451   3.885  14.649  0.1893  0.0540 -0.0206
  646MPD2    H5 9623   1.372   3.852  14.703  0.7433 -1.5075 -0.1508
  646MPD2    N1 9624   1.790   3.726  14.978  0.1404  0.0079  0.6090
  646MPD2    H7 9625   1.888   3.705  14.990 -0.1715  0.1332  3.3227
  647TMC3    C1 9626   1.769   3.633  15.190 -0.5795 -0.4084 -0.1053
  647TMC3    C2 9627   1.736   3.507  15.226 -0.2634  0.4052  0.1901
  647TMC3    C3 9628   1.794   3.461  15.347 -0.3271  0.2738 -0.4150
  647TMC3    C4 9629   1.851   3.715  15.254 -0.0783 -0.2294  0.1229
  647TMC3    C5 9630   1.894   3.670  15.379 -0.3636 -0.0886 -0.0730
  647TMC3    C6 9631   1.861   3.542  15.430 -0.0124 -0.2524  0.4686
  647TMC3     C 9632   1.697   3.684  15.073  0.0451 -0.5570  0.3298
  647TMC3     O 9633   1.577   3.667  15.071 -0.1966 -0.2816 -0.7738
  647TMC3     H 9634   1.693   3.432  15.161  2.4019 -0.2876 -0.7587
  647TMC3    H1 9635   1.857   3.818  15.221  2.1448  0.0537  1.3791
  647TMC3    H2 9636   1.905   3.497  15.517  2.5329 -1.7599 -1.5866
  647TMC3    C7 9637   2.016   3.732  15.436 -0.5716  0.4717  0.3513
  647TMC3    C8 9638   1.823   3.324  15.372 -0.2905  0.6447  0.5529
  647TMC3    O1 9639   2.074   3.664  15.518 -0.9088 -0.2831  0.4110
  647TMC3    O2 9640   1.819   3.288  15.487 -0.4155  0.0458 -0.4988
  648TMC3    C1 9641   1.067   1.533  16.156 -0.2063 -0.4120 -0.1898
  648TMC3    C2 9642   1.124   1.419  16.117  0.0476  0.1887  0.0128
  648TMC3    C3 9643   1.104   1.377  15.992 -0.2284  0.2570  0.2510
  648TMC3    C4 9644   0.977   1.601  16.075  0.3632  0.3301  0.2088
  648TMC3    C5 9645   0.949   1.550  15.954 -0.4854 -0.1280  0.6166
  648TMC3    C6 9646   1.016   1.440  15.910 -0.4939  0.3026  0.0039
  648TMC3     C 9647   1.049   1.563  16.293  0.4756  0.6257  0.2948
  648TMC3     O 9648   1.098   1.667  16.331  0.3711 -0.0597 -0.3565
  648TMC3     H 9649   1.175   1.359  16.191 -1.5612 -1.0476  0.1194
  648TMC3    H1 9650   0.932   1.687  16.123 -0.3039 -0.6344  1.3099
  648TMC3    H2 9651   0.993   1.400  15.812  1.2814 -1.2878  0.2567
  648TMC3    C7 9652   0.891   1.637  15.857 -0.5368  0.5961  0.5834
  648TMC3    C8 9653   1.161   1.252  15.955 -0.3837  0.7172  0.1208
  648TMC3    O1 9654   0.887   1.608  15.739  0.0610  0.0788  0.2993
  648TMC3    O2 9655   1.268   1.228  16.007  0.0882 -0.6757 -0.0007
  649TMC3    C1 9656   4.667   2.647  12.938 -0.2949  0.2113 -0.1395
  649TMC3    C2 9657   4.736   2.733  13.021 -0.5288 -0.2879 -0.0999
  649TMC3    C3 9658   0.044   2.692  13.145 -0.3509  0.0930 -0.1050
  649TMC3    C4 9659   4.637   2.519  12.981 -0.4331  0.8149  0.0361
  649TMC3    C5 9660   4.686   2.483  13.104  0.0068  0.7845 -0.2852
  649TMC3    C6 9661   0.022   2.565  13.184 -0.5847  0.0795  0.9365
  649TMC3     C 9662   4.563   2.701  12.854 -0.1500  0.0645 -0.3300
  649TMC3     O 9663   4.530   2.818  12.871  0.6058  0.0433  0.5745
  649TMC3     H 9664   4.737   2.838  12.997  0.9873 -0.1909  0.3588
  649TMC3    H1 9665   4.573   2.457  12.919  1.4567  0.9263 -2.0280
  649TMC3    H2 9666   0.043   2.526  13.282  4.2367  1.8969  0.6504
  649TMC3    C7 9667   4.610   2.369  13.168  0.2838  0.2197  0.5768
  649TMC3    C8 9668   0.095   2.788  13.242  0.1713  0.3555 -0.1390
  649TMC3    O1 9669   4.495   2.344  13.141  0.4824  0.0158  0.3429
  649TMC3    O2 9670   0.118   2.756  13.357 -0.3389  0.5422  0.3073
  650TMC3    C1 9671   2.404   4.101  12.461 -0.0834 -0.7651 -0.7745
  650TMC3    C2 9672   2.463   4.194  12.535  0.4812 -0.6807 -0.0214
  650TMC3    C3 9673   2.424   4.328  12.502  0.2660  0.1600  0.4322
  650TMC3    C4 9674   2.301   4.119  12.371  1.0509 -0.1115  0.6515
  650TMC3    C5 9675   2.261   4.249  12.354  0.2694 -0.2650 -0.4561
  650TMC3    C6 9676   2.325   4.355  12.412  0.2298 -0.0353 -0.0627
  650TMC3     C 9677   2.463   3.969  12.465 -0.1587  0.4153 -0.5539
  650TMC3     O 9678   2.525   3.939  12.566 -0.0500  0.1063 -0.5246
  650TMC3     H 9679   2.553   4.166  12.588  1.2363  0.1930 -0.8627
  650TMC3    H1 9680   2.247   4.034  12.332 -0.5113  0.3883  1.7021
  650TMC3    H2 9681   2.319   4.458  12.377 -0.5548  0.2119  0.7795
  650TMC3    C7 9682   2.174   4.278  12.242 -0.5303  0.1018 -0.0881
  650TMC3    C8 9683   2.458   4.434  12.599  0.8521 -0.5816  0.3360
  650TMC3    O1 9684   2.172   4.198  12.150  0.1846  0.7434  0.2037
  650TMC3    O2 9685   2.408   4.545  12.574 -0.0903  0.2271 -0.3973
  651MPD2     C 9686   1.414   1.922  11.068  0.0691  0.2456  0.6267
  651MPD2    C1 9687   1.394   2.057  11.058  0.2161 -0.8714  1.3855
  651MPD2    C2 9688   1.509   2.138  11.043 -0.7358 -0.0432  0.1762
  651MPD2    C3 9689   1.638   2.094  11.038 -0.2252 -0.3023 -0.7502
  651MPD2    C4 9690   1.657   1.959  11.045 -0.1221 -0.3306 -0.3261
  651MPD2    C5 9691   1.544   1.878  11.059  0.1830 -0.4234 -0.1325
  651MPD2     H 9692   1.488   2.244  11.035  2.4031  0.6011  0.6422
  651MPD2    H1 9693   1.754   1.912  11.045  0.1190  0.1733 -1.2702
  651MPD2    H2 9694   1.337   1.847  11.078  1.4609 -1.0416  1.6120
  651MPD2    H3 9695   1.566   1.772  11.060 -1.5553 -0.7669  1.2168
  651MPD2     N 9696   1.748   2.180  11.020 -0.0077 -0.3926 -0.7982
  651MPD2    H5 9697   1.727   2.274  10.988  1.9077  0.3131  0.0104
  651MPD2    N1 9698   1.267   2.115  11.055 -0.2088 -0.3877 -0.2383
  651MPD2    H7 9699   1.270   2.216  11.050 -0.5842 -0.2664  1.7992
  652TMC3    C1 9700   2.179   2.353  11.045  0.3854  0.5377 -0.8587
  652TMC3    C2 9701   2.078   2.267  11.076  0.3137  0.1882 -0.6861
  652TMC3    C3 9702   1.964   2.263  11.008 -0.0567  0.0820 -0.5537
  652TMC3    C4 9703   2.170   2.426  10.928 -0.0060 -0.5644 -0.5634
  652TMC3    C5 9704   2.044   2.425  10.858  0.7522  0.5193  0.4658
  652TMC3    C6 9705   1.944   2.341  10.895 -0.0124 -0.6039 -0.2807
  652TMC3     C 9706   2.303   2.339  11.118 -0.5252  0.1038  0.1658
  652TMC3     O 9707   2.322   2.246  11.195 -0.4043 -0.4102  0.7363
  652TMC3     H 9708   2.093   2.213  11.169 -1.0156  1.9392  0.5413
  652TMC3    H1 9709   2.240   2.499  10.888 -0.5791 -0.4562 -1.3578
  652TMC3    H2 9710   1.865   2.328  10.821  0.1947 -0.3845 -0.5387
  652TMC3    C7 9711   2.038   2.516  10.739  0.2364 -0.2714 -0.3453
  652TMC3    C8 9712   1.885   2.146  11.027  0.7480  0.2426  0.1846
  652TMC3    O1 9713   2.145   2.535  10.679  0.3787  0.3767 -0.1647
  652TMC3    O2 9714   1.931   2.035  11.061 -0.0168 -0.4667  0.0711
  653MPD2     C 9715   4.574   1.777  17.613  0.2123 -0.2927 -0.3921
  653MPD2    C1 9716   4.574   1.860  17.507  0.0010 -0.4013  0.0354
  653MPD2    C2 9717   4.553   1.806  17.382 -0.0070  0.4073 -0.1370
  653MPD2    C3 9718   4.563   1.666  17.363  1.3950  0.4133  0.4065
  653MPD2    C4 9719   4.579   1.587  17.474 -0.3047 -0.1843 -0.4053
  653MPD2    C5 9720   4.570   1.643  17.600 -0.1374 -0.0786  0.4609
  653MPD2     H 9721   4.545   1.878  17.301  0.8403  2.4340  1.5909
  653MPD2    H1 9722   4.585   1.479  17.465  2.0217  0.1314 -2.4783
  653MPD2    H2 9723   4.580   1.811  17.716 -2.2918  0.1262 -0.4025
  653MPD2    H3 9724   4.566   1.583  17.690  0.3169  1.3374  1.4329
  653MPD2     N 9725   4.544   1.612  17.233  0.1224  0.2030  0.9472
  653MPD2    H5 9726   4.515   1.673  17.158  0.9678 -2.0959 -1.2457
  653MPD2    N1 9727   4.599   1.999  17.517  0.0724  0.6555 -0.0886
  653MPD2    H7 9728   4.604   2.051  17.430 -1.0703 -2.0450 -1.7841
  654TMC3    C1 9729   4.545   1.453  17.050 -0.2155  0.3015  0.1715
  654TMC3    C2 9730   4.475   1.527  16.965  0.0753 -1.5339 -0.2507
  654TMC3    C3 9731   4.441   1.483  16.843 -0.2656  0.9252  0.3674
  654TMC3    C4 9732   4.595   1.332  17.007  0.2503 -0.4624  0.0153
  654TMC3    C5 9733   4.565   1.293  16.879 -0.9907  0.3417 -0.4569
  654TMC3    C6 9734   4.488   1.365  16.790  0.4821  0.1430  0.2052
  654TMC3     C 9735   4.580   1.487  17.193  0.2301 -0.7027 -0.2574
  654TMC3     O 9736   4.647   1.407  17.256 -0.7252 -0.1029 -0.0996
  654TMC3     H 9737   4.440   1.627  16.990 -2.3236 -1.9354 -1.9914
  654TMC3    H1 9738   4.642   1.266  17.078 -2.0613 -1.6853  0.4225
  654TMC3    H2 9739   4.478   1.328  16.689 -0.0172  0.1692  0.2429
  654TMC3    C7 9740   4.612   1.164  16.833  0.1466 -0.0221  0.3867
  654TMC3    C8 9741   4.333   1.560  16.775  0.3157  0.0844 -0.0558
  654TMC3    O1 9742   4.574   1.114  16.728  0.1995 -0.4245 -0.1640
  654TMC3    O2 9743   4.280   1.647  16.840 -0.1826  0.2743 -0.0319
  655MPD2     C 9744   1.382   1.511  15.865  0.1049  0.2206 -0.1455
  655MPD2    C1 9745   1.312   1.594  15.782 -0.0968 -0.0108 -0.3067
  655MPD2    C2 9746   1.289   1.565  15.644  0.2624  0.7002  0.0863
  655MPD2    C3 9747   1.339   1.449  15.598  0.1760  0.0587  0.6418
  655MPD2    C4 9748   1.435   1.377  15.673 -0.5245  0.2307 -0.4080
  655MPD2    C5 9749   1.449   1.413  15.810  0.3299 -0.2217 -0.7118
  655MPD2     H 9750   1.229   1.636  15.589  0.8292  1.2071  0.1243
  655MPD2    H1 9751   1.493   1.293  15.636  0.0136  0.3187  0.2537
  655MPD2    H2 9752   1.396   1.532  15.971 -0.9018 -1.7935  0.3970
  655MPD2    H3 9753   1.502   1.344  15.875 -0.7678 -0.3765  0.0109
  655MPD2     N 9754   1.309   1.402  15.467  0.2706 -0.3416 -0.0531
  655MPD2    H5 9755   1.339   1.307  15.450  1.6160  0.0508  0.1309
  655MPD2    N1 9756   1.260   1.724  15.826  0.5178  0.1354  0.4082
  655MPD2    H7 9757   1.210   1.762  15.746  0.0271  0.7568  1.0051
  656TMC3    C1 9758   1.190   1.896  15.963 -0.3686  0.0034  0.1095
  656TMC3    C2 9759   1.130   1.926  16.082  0.5784 -0.0119  0.2551
  656TMC3    C3 9760   1.035   2.024  16.090 -0.2203 -0.2122  0.2047
  656TMC3    C4 9761   1.152   1.961  15.848 -0.6362  0.1781 -0.1889
  656TMC3    C5 9762   1.065   2.063  15.860  0.5950 -0.6627 -0.3164
  656TMC3    C6 9763   1.006   2.097  15.980  0.4800 -0.6375  0.2990
  656TMC3     C 9764   1.260   1.777  15.954  1.2537 -0.3558 -1.2551
  656TMC3     O 9765   1.308   1.735  16.060 -0.3573  0.0558  0.0717
  656TMC3     H 9766   1.151   1.881  16.178 -0.5882 -1.9270 -0.3855
  656TMC3    H1 9767   1.203   1.942  15.755 -0.6364 -0.2820 -0.0945
  656TMC3    H2 9768   0.931   2.174  15.985  1.7932  0.4802  2.8716
  656TMC3    C7 9769   1.046   2.153  15.750  0.1630  0.3528  0.2368
  656TMC3    C8 9770   0.920   2.014  16.181 -0.1801 -0.0975  0.2977
  656TMC3    O1 9771   1.123   2.135  15.657 -0.2362 -0.5893  0.6177
  656TMC3    O2 9772   0.896   1.902  16.223  0.4139  0.0399 -0.3626
  657TMC3    C1 9773   4.716   1.112  15.339 -0.5207  0.2782  0.0243
  657TMC3    C2 9774   0.087   1.197  15.348  0.0434 -0.0861  0.3928
  657TMC3    C3 9775   0.076   1.326  15.317  0.4070  0.4290  0.0757
  657TMC3    C4 9776   4.591   1.160  15.296  0.4118 -0.1798  0.4299
  657TMC3    C5 9777   4.581   1.294  15.270 -0.1303  0.0972  0.3081
  657TMC3    C6 9778   4.693   1.378  15.276 -0.4046 -0.0622 -0.5468
  657TMC3     C 9779   4.728   0.968  15.343 -0.0046 -0.0795 -0.1968
  657TMC3     O 9780   4.629   0.904  15.319 -0.0120  0.0223 -0.5019
  657TMC3     H 9781   0.188   1.164  15.373  0.2832 -0.1950 -0.7165
  657TMC3    H1 9782   4.497   1.106  15.304 -0.0580  0.1606 -2.7255
  657TMC3    H2 9783   4.685   1.485  15.260 -1.7189  0.1872  1.6516
  657TMC3    C7 9784   4.446   1.347  15.297 -0.0097 -0.4594  0.2708
  657TMC3    C8 9785   0.177   1.422  15.350 -0.3086 -0.1858 -0.0172
  657TMC3    O1 9786   4.357   1.286  15.237  0.1638  0.1405  0.2224
  657TMC3    O2 9787   0.160   1.532  15.299 -0.3063  0.2356 -0.5498
  658MPD2     C 9788   1.546   1.126  14.789  0.0565 -0.6398  0.2921
  658MPD2    C1 9789   1.452   1.224  14.777 -0.2409  0.1025  0.2384
  658MPD2    C2 9790   1.444   1.284  14.653  0.1549 -0.7325 -0.2482
  658MPD2    C3 9791   1.518   1.241  14.546  0.0660 -0.6868 -0.0553
  658MPD2    C4 9792   1.610   1.151  14.560  0.2217  0.3112  0.2232
  658MPD2    C5 9793   1.619   1.085  14.676 -0.5701  0.2305 -0.0299
  658MPD2     H 9794   1.357   1.347  14.638  1.9475  2.2251  1.6432
  658MPD2    H1 9795   1.667   1.119  14.473 -0.2370 -0.7381  0.3078
  658MPD2    H2 9796   1.562   1.072  14.882  0.2137 -0.7777  0.1850
  658MPD2    H3 9797   1.701   1.016  14.690 -2.2466 -1.4838  1.3983
  658MPD2     N 9798   1.498   1.305  14.418 -0.0871 -0.3576  0.7263
  658MPD2    H5 9799   1.425   1.376  14.423  0.6093  0.4672 -0.7681
  658MPD2    N1 9800   1.355   1.253  14.876 -0.0302 -0.2337 -0.4066
  658MPD2    H7 9801   1.289   1.327  14.855 -0.7582 -0.8684 -0.3570
  659TMC3    C1 9802   1.240   1.240  15.087 -0.3763 -0.2656 -0.1512
  659TMC3    C2 9803   1.266   1.286  15.214  0.2304 -0.6875 -0.3672
  659TMC3    C3 9804   1.196   1.397  15.256 -0.2425  1.1748 -0.1407
  659TMC3    C4 9805   1.131   1.283  15.019  0.5433 -0.0422  0.1758
  659TMC3    C5 9806   1.048   1.380  15.072 -0.3556  1.1721  0.9197
  659TMC3    C6 9807   1.078   1.434  15.193  0.0430 -0.7845  0.2296
  659TMC3     C 9808   1.356   1.203  15.005 -0.3848 -0.2263 -0.4277
  659TMC3     O 9809   1.450   1.167  15.069  0.4322  0.1351 -0.6621
  659TMC3     H 9810   1.366   1.262  15.250  0.8400  2.1817 -0.1087
  659TMC3    H1 9811   1.099   1.220  14.936 -0.2996  0.7260 -0.0804
  659TMC3    H2 9812   1.031   1.529  15.217 -1.3656 -1.2479 -0.6809
  659TMC3    C7 9813   0.922   1.409  15.011 -0.2583  0.4439 -0.0300
  659TMC3    C8 9814   1.214   1.459  15.383 -0.5113  0.6680  0.4266
  659TMC3    O1 9815   0.849   1.485  15.070  0.0039 -0.1100 -0.3458
  659TMC3    O2 9816   1.160   1.569  15.394 -0.5033 -0.2090  0.3086
  660MPD2     C 9817   4.219   0.855  12.417 -0.0804 -0.5048  0.7022
  660MPD2    C1 9818   4.083   0.877  12.411  0.1102 -0.1712 -0.2219
  660MPD2    C2 9819   4.003   0.827  12.515  0.0402  0.7068  0.3697
  660MPD2    C3 9820   4.054   0.766  12.630  0.2188  0.0161 -0.6295
  660MPD2    C4 9821   4.193   0.746  12.629 -0.0725 -0.1453 -0.5845
  660MPD2    C5 9822   4.275   0.785  12.519  0.0050  0.4752 -0.5344
  660MPD2     H 9823   3.895   0.836  12.506  0.0464  0.0568 -0.3089
  660MPD2    H1 9824   4.248   0.697  12.708 -1.2355 -0.5740 -0.0485
  660MPD2    H2 9825   4.293   0.891  12.346  0.5814 -1.3949  0.9364
  660MPD2    H3 9826   4.383   0.777  12.518 -0.0058  0.3426 -0.6962
  660MPD2     N 9827   3.976   0.716  12.735  0.4101 -0.3217  0.4942
  660MPD2    H5 9828   4.029   0.657  12.798 -0.3412 -2.4598 -0.8922
  660MPD2    N1 9829   4.027   0.943  12.294  0.2666 -0.5449  0.2298
  660MPD2    H7 9830   4.087   0.979  12.221 -0.4141  2.5412  1.1757
  661TMC3    C1 9831   3.875   1.021  12.140  0.2071  0.0247  0.4271
  661TMC3    C2 9832   3.955   0.969  12.036 -0.1028  0.7201  0.0096
  661TMC3    C3 9833   3.897   0.958  11.917 -0.4356  0.3582 -0.1636
  661TMC3    C4 9834   3.743   1.053  12.115  0.0004  1.5449  0.3142
  661TMC3    C5 9835   3.689   1.031  11.994 -0.5192  0.0413  0.3169
  661TMC3    C6 9836   3.766   0.993  11.887  0.9087 -0.1100 -0.2200
  661TMC3     C 9837   3.902   0.987  12.278  0.6845  0.2398  0.4271
  661TMC3     O 9838   3.815   0.997  12.360 -0.0181  0.1642 -0.0412
  661TMC3     H 9839   4.061   0.949  12.050 -0.7256 -0.8212  2.5025
  661TMC3    H1 9840   3.678   1.099  12.189  0.2785  0.4819  1.2117
  661TMC3    H2 9841   3.728   0.989  11.785 -0.9735  1.0195  0.4500
  661TMC3    C7 9842   3.543   1.025  11.984  0.2675 -0.1651 -0.1689
  661TMC3    C8 9843   3.985   0.935  11.801 -0.6412 -0.4420 -0.0695
  661TMC3    O1 9844   3.475   1.099  12.058  1.2974 -0.1693  0.1472
  661TMC3    O2 9845   3.962   1.010  11.708 -0.3463  0.2052  0.1446
  662MPD2     C 9846   4.672   0.578  17.005  0.8803  0.2113 -0.2491
  662MPD2    C1 9847   4.714   0.499  17.118 -0.3527  0.6495  0.6468
  662MPD2    C2 9848   4.691   0.552  17.247  0.3120  0.3250  0.3698
  662MPD2    C3 9849   4.619   0.672  17.260  0.1936 -0.3173  0.0390
  662MPD2    C4 9850   4.586   0.744  17.148  0.7445 -0.3262 -0.3868
  662MPD2    C5 9851   4.610   0.700  17.022 -0.5502 -0.5490 -0.1625
  662MPD2     H 9852   4.713   0.492  17.335  0.3973 -2.1992 -1.3805
  662MPD2    H1 9853   4.532   0.837  17.164  1.8702  0.6757 -2.3713
  662MPD2    H2 9854   4.674   0.530  16.908 -0.5620  0.8538 -0.5934
  662MPD2    H3 9855   4.569   0.746  16.933 -1.2003  0.8653  0.8753
  662MPD2     N 9856   4.579   0.711  17.386  0.6486  0.1793 -0.9794
  662MPD2    H5 9857   4.512   0.788  17.386 -0.5669 -0.8683  4.3032
  662MPD2    N1 9858   0.043   0.368  17.117 -0.1830 -0.3314  0.2945
  662MPD2    H7 9859   0.058   0.319  17.204 -0.6417  0.3012  0.7314
  663TMC3    C1 9860   0.178   0.200  17.035 -0.0327 -0.1489  0.0122
  663TMC3    C2 9861   0.216   0.190  17.165 -0.4101 -0.3919  0.8354
  663TMC3    C3 9862   0.310   0.093  17.178 -0.1715 -0.2981  0.1954
  663TMC3    C4 9863   0.206   0.116  16.934  0.0480 -0.5334 -0.1096
  663TMC3    C5 9864   0.280   0.009  16.962 -0.2432 -0.0003 -0.0871
  663TMC3    C6 9865   0.329   4.733  17.085  0.8264 -0.0687  0.3452
  663TMC3     C 9866   0.097   0.310  17.005 -0.6232 -0.2807 -0.6496
  663TMC3     O 9867   0.083   0.333  16.890 -0.0176 -0.3118 -1.2454
  663TMC3     H 9868   0.217   0.263  17.244 -1.7683  0.3175  0.2054
  663TMC3    H1 9869   0.173   0.129  16.832  0.2855 -0.6424 -0.2008
  663TMC3    H2 9870   0.365   4.635  17.114 -2.3251 -0.5854  2.5954
  663TMC3    C7 9871   0.281   4.645  16.860  0.2522  0.3711 -0.5602
  663TMC3    C8 9872   0.322   0.047  17.313  0.5220 -0.7218  0.1318
  663TMC3    O1 9873   0.258   4.678  16.746  0.4012 -0.1335 -0.0892
  663TMC3    O2 9874   0.418   4.710  17.334 -0.0890  0.0158  0.2458
  664MPD2     C 9875   2.908   3.403  17.421 -0.9214 -0.2951 -0.4526
  664MPD2    C1 9876   3.023   3.452  17.469 -0.4180  0.5646 -0.3506
  664MPD2    C2 9877   3.037   3.488  17.606 -0.4817  0.7036 -0.0686
  664MPD2    C3 9878   2.940   3.457  17.696  0.0279  0.5376 -0.3034
  664MPD2    C4 9879   2.827   3.388  17.641  0.5993 -0.8371 -0.5441
  664MPD2    C5 9880   2.814   3.365  17.510 -0.0107 -0.3612 -0.3718
  664MPD2     H 9881   3.127   3.536  17.642 -1.7626  2.6171  0.5677
  664MPD2    H1 9882   2.749   3.357  17.710 -0.3241 -2.1583 -2.1899
  664MPD2    H2 9883   2.881   3.382  17.318 -0.8567 -0.4233 -0.4434
  664MPD2    H3 9884   2.725   3.318  17.469 -0.2670  1.1600 -1.6102
  664MPD2     N 9885   2.952   3.490   0.084  0.5840 -0.3001  0.9173
  664MPD2    H5 9886   3.033   3.534   0.126 -1.2250  4.1607 -0.1844
  664MPD2    N1 9887   3.139   3.479  17.389  0.3817 -0.3955  0.2330
  664MPD2    H7 9888   3.217   3.528  17.433 -0.6388  1.1643  0.2747
  665TMC3    C1 9889   2.892   3.502   0.314  0.4220  0.1429 -0.0029
  665TMC3    C2 9890   2.788   3.526   0.398 -0.3452 -0.1020 -0.0552
  665TMC3    C3 9891   2.821   3.584   0.518 -0.1840  0.0942 -0.4612
  665TMC3    C4 9892   3.026   3.522   0.335  0.1640 -0.0171 -0.2565
  665TMC3    C5 9893   3.050   3.579   0.455 -0.0552  0.2886 -0.0150
  665TMC3    C6 9894   2.953   3.600   0.553 -0.0086  0.6065 -0.5149
  665TMC3     C 9895   2.847   3.471   0.176  0.9573  0.0661  0.6921
  665TMC3     O 9896   2.739   3.417   0.167 -0.0964 -0.1895  0.0038
  665TMC3     H 9897   2.685   3.504   0.371 -0.6509  3.2156 -1.5403
  665TMC3    H1 9898   3.107   3.519   0.264 -0.5284 -0.5013 -1.0188
  665TMC3    H2 9899   2.982   3.621   0.655 -0.2500  0.1984 -0.3593
  665TMC3    C7 9900   3.183   3.644   0.463 -0.2666 -0.1568  0.8638
  665TMC3    C8 9901   2.711   3.620   0.606  0.5622  0.5238 -0.3729
  665TMC3    O1 9902   3.267   3.601   0.383 -0.6879  0.5961 -0.2143
  665TMC3    O2 9903   2.599   3.616   0.567  0.2785 -0.0366  0.0126
  666TMC3    C1 9904   2.083   3.854   9.593 -0.1963  0.0140 -0.4937
  666TMC3    C2 9905   2.165   3.760   9.643  0.0781  0.4957  0.3849
  666TMC3    C3 9906   2.274   3.805   9.712 -0.1878  0.0001 -0.2352
  666TMC3    C4 9907   2.098   3.979   9.624  0.3933 -0.6144 -0.7016
  666TMC3    C5 9908   2.199   4.029   9.698 -0.1015  0.3500 -0.4745
  666TMC3    C6 9909   2.293   3.936   9.739  0.4446 -0.1361  0.2415
  666TMC3     C 9910   1.941   3.824   9.609  0.7650 -0.3050  0.2601
  666TMC3     O 9911   1.869   3.874   9.519 -0.5153 -0.2263  0.1784
  666TMC3     H 9912   2.158   3.652   9.633 -1.0318  0.5567  0.5374
  666TMC3    H1 9913   2.017   4.041   9.589  0.8009  0.8010  0.8664
  666TMC3    H2 9914   2.365   3.968   9.813  1.7918 -0.6000 -0.8835
  666TMC3    C7 9915   2.182   4.148   9.775 -0.1330  0.4617  0.4872
  666TMC3    C8 9916   2.341   3.701   9.787 -0.0165 -0.2181  0.6564
  666TMC3    O1 9917   2.209   4.142   9.896 -0.0708 -0.7056 -0.0949
  666TMC3    O2 9918   2.269   3.625   9.837  0.0672 -0.3590  0.5290
  667MPD2     C 9919   3.792   3.064  14.877  0.0565 -0.1662  0.2003
  667MPD2    C1 9920   3.684   3.148  14.888 -0.2350 -0.3390 -0.0713
  667MPD2    C2 9921   3.559   3.103  14.894  0.2755 -0.0069  0.2581
  667MPD2    C3 9922   3.530   2.961  14.889  0.1041  0.6740 -0.3296
  667MPD2    C4 9923   3.640   2.876  14.888 -0.4418  0.0836 -0.1985
  667MPD2    C5 9924   3.767   2.929  14.885 -0.4438 -0.1848  0.1008
  667MPD2     H 9925   3.482   3.173  14.925  0.9216  0.1940  1.4006
  667MPD2    H1 9926   3.639   2.768  14.885  2.3002  0.0693  0.1891
  667MPD2    H2 9927   3.894   3.101  14.875  0.9702 -2.9291 -4.1048
  667MPD2    H3 9928   3.849   2.859  14.896 -0.1704 -0.1345 -1.6562
  667MPD2     N 9929   3.397   2.906  14.904  0.1828 -0.6115 -0.0997
  667MPD2    H5 9930   3.392   2.805  14.895 -0.8132 -0.3474 -2.5286
  667MPD2    N1 9931   3.695   3.293  14.906  0.1729  0.1542 -0.1327
  667MPD2    H7 9932   3.601   3.326  14.925  0.0486  0.0646 -0.5882
  668TMC3    C1 9933   3.777   3.504  14.975  0.8189  0.1937  1.3692
  668TMC3    C2 9934   3.855   3.607  14.933 -0.6621  0.1364 -0.1479
  668TMC3    C3 9935   3.871   3.712  15.014  0.1162 -0.2393  0.2282
  668TMC3    C4 9936   3.720   3.499  15.099  0.2926 -0.4927 -0.8871
  668TMC3    C5 9937   3.735   3.613  15.177 -0.4329 -0.4479 -0.0834
  668TMC3    C6 9938   3.807   3.721  15.134  0.5484  0.0345  0.2524
  668TMC3     C 9939   3.806   3.372  14.917 -1.1185  0.3571  0.1342
  668TMC3     O 9940   3.925   3.352  14.887 -0.3300 -0.3739  0.6206
  668TMC3     H 9941   3.892   3.613  14.831 -4.6115  0.1541 -1.5733
  668TMC3    H1 9942   3.668   3.414  15.141 -0.1720  1.0770  1.6740
  668TMC3    H2 9943   3.818   3.803  15.204  1.0738 -1.7493  2.2553
  668TMC3    C7 9944   3.700   3.615  15.320  0.6124  0.0404 -1.0817
  668TMC3    C8 9945   3.838   3.843  14.957 -0.5815  0.3979  0.0380
  668TMC3    O1 9946   3.773   3.679  15.397 -0.1500  0.2115 -0.4058
  668TMC3    O2 9947   3.781   3.929  15.028  0.0718 -0.2188  0.1606
  669TMC3    C1 9948   1.445   3.032  14.736  0.2832 -0.2727 -0.1608
  669TMC3    C2 9949   1.328   3.053  14.664 -0.0212 -0.0154 -0.4247
  669TMC3    C3 9950   1.327   3.117  14.543  0.0728  0.0899 -0.5189
  669TMC3    C4 9951   1.565   3.081  14.684 -0.4861  0.2710  0.5917
  669TMC3    C5 9952   1.559   3.146  14.563 -0.1737  0.3322  0.0615
  669TMC3    C6 9953   1.442   3.165  14.494 -0.1170 -0.4911 -0.9525
  669TMC3     C 9954   1.427   2.979  14.869 -0.1191  0.5408 -0.1543
  669TMC3     O 9955   1.311   2.981  14.907  0.6259 -0.4996  0.0547
  669TMC3     H 9956   1.230   3.023  14.700 -0.4499  1.4816 -0.3487
  669TMC3    H1 9957   1.654   3.056  14.741  0.5032 -0.2647 -1.1729
  669TMC3    H2 9958   1.448   3.196  14.391  1.2645  0.8946 -0.4490
  669TMC3    C7 9959   1.684   3.166  14.494  0.0945  0.2711  0.1840
  669TMC3    C8 9960   1.223   3.081  14.447  0.1423 -0.2052  0.1587
  669TMC3    O1 9961   1.684   3.246  14.403 -0.5143  0.0638 -0.1064
  669TMC3    O2 9962   1.161   2.979  14.461 -0.1994  0.1784  0.0802
  670MPD2     C 9963   4.453   1.135  13.943  0.4444  0.5931 -0.2745
  670MPD2    C1 9964   4.416   1.015  13.882  0.1483 -0.0359  0.1955
  670MPD2    C2 9965   4.383   0.915  13.972 -0.0963  0.1586 -0.6921
  670MPD2    C3 9966   4.398   0.921  14.111  0.8967 -0.4749  0.6445
  670MPD2    C4 9967   4.462   1.035  14.163 -0.3853 -0.2533 -0.2206
  670MPD2    C5 9968   4.491   1.140  14.076 -0.1135  0.1603  0.0867
  670MPD2     H 9969   4.353   0.820  13.930  0.5713 -0.9157  1.2465
  670MPD2    H1 9970   4.496   1.040  14.265 -0.1172 -0.6190 -0.2935
  670MPD2    H2 9971   4.483   1.221  13.884  1.6160 -0.1106 -0.7001
  670MPD2    H3 9972   4.547   1.221  14.122  0.3795  1.0972 -2.1659
  670MPD2     N 9973   4.374   0.795  14.180  0.2867 -0.1956 -0.4901
  670MPD2    H5 9974   4.355   0.708  14.131 -1.9100  1.2558 -2.2545
  670MPD2    N1 9975   4.418   0.993  13.742 -0.2891 -0.0364  0.4142
  670MPD2    H7 9976   4.418   1.077  13.686  2.4857 -0.9390 -0.9601
  671TMC3    C1 9977   4.359   0.641  14.339  0.0194  0.3040  0.3459
  671TMC3    C2 9978   4.445   0.574  14.418  0.3286 -0.0617  0.1030
  671TMC3    C3 9979   4.457   0.435  14.393  0.0571  0.5377 -0.0494
  671TMC3    C4 9980   4.264   0.582  14.263 -0.8220 -0.7379 -0.3351
  671TMC3    C5 9981   4.260   0.446  14.263 -0.2966 -0.0946 -0.2871
  671TMC3    C6 9982   4.365   0.377  14.314  0.2019 -0.7105  0.4697
  671TMC3     C 9983   4.389   0.781  14.317 -0.1213  0.0700  0.0413
  671TMC3     O 9984   4.422   0.858  14.402 -0.6532  0.0348 -0.4084
  671TMC3     H 9985   4.524   0.634  14.462 -2.1265  1.3370  2.5997
  671TMC3    H1 9986   4.189   0.641  14.211  1.8407  0.5687 -2.6972
  671TMC3    H2 9987   4.386   0.274  14.289  2.0888 -0.4418  0.9267
  671TMC3    C7 9988   4.190   0.379  14.161  0.4567 -0.4996  0.4967
  671TMC3    C8 9989   4.580   0.384  14.354 -0.3176  0.5320 -0.7043
  671TMC3    O1 9990   4.245   0.282  14.115 -0.2210  0.6004  0.3072
  671TMC3    O2 9991   4.594   0.342  14.238 -0.7271  0.3613  0.3107
  672MPD2     C 9992   0.487   1.966   1.082 -0.0764 -0.2599 -0.6962
  672MPD2    C1 9993   0.498   1.948   0.945 -0.0403 -0.0806  0.6642
  672MPD2    C2 9994   0.605   2.001   0.873  0.4013  0.2596  0.2862
  672MPD2    C3 9995   0.702   2.077   0.943 -0.2774  0.8775 -0.1366
  672MPD2    C4 9996   0.688   2.086   1.078  0.0968 -0.6760  0.1214
  672MPD2    C5 9997   0.581   2.040   1.150 -0.4040 -0.8850 -0.4048
  672MPD2     H 9998   0.615   1.983   0.767 -1.1146 -2.5864  0.5896
  672MPD2    H1 9999   0.770   2.130   1.134  0.1504  0.5782 -0.9651
  672MPD2    H210000   0.409   1.924   1.144 -1.6292 -0.0783 -2.5308
  672MPD2    H310001   0.571   2.047   1.258 -0.2583  0.4948 -0.4862
  672MPD2     N10002   0.823   2.131   0.886  0.3462 -0.4131 -0.2392
  672MPD2    H510003   0.899   2.171   0.939  1.0190 -0.8161 -0.8916
  672MPD2    N110004   0.403   1.877   0.872 -0.2935  0.2822 -0.0259
  672MPD2    H710005   0.423   1.875   0.773 -2.0361 -0.1587 -0.3729
  673TMC3    C110006   0.236   1.726   0.824  0.4347  0.1475 -0.6032
  673TMC3    C210007   0.314   1.627   0.786 -1.1812  0.3727 -0.7634
  673TMC3    C310008   0.265   1.500   0.757  0.0877 -0.3247 -0.7172
  673TMC3    C410009   0.101   1.701   0.831 -0.1958  0.0153  0.2727
  673TMC3    C510010   0.054   1.571   0.803 -0.3167  0.3850 -0.0785
  673TMC3    C610011   0.132   1.470   0.758 -0.6532  0.2119 -1.0198
  673TMC3     C10012   0.292   1.812   0.919 -0.6123  0.2392  0.0569
  673TMC3     O10013   0.248   1.801   1.033 -0.6122  0.2222 -0.0252
  673TMC3     H10014   0.421   1.639   0.781 -1.2870  1.1557 -1.1396
  673TMC3    H110015   0.040   1.771   0.887 -2.7527  0.4703 -3.1200
  673TMC3    H210016   0.091   1.370   0.752  1.0796 -0.4821 -1.4081
  673TMC3    C710017   4.650   1.559   0.764  1.0467  0.5728 -0.2292
  673TMC3    C810018   0.351   1.398   0.701 -0.4261 -0.2400  0.5902
  673TMC3    O110019   4.602   1.443   0.771 -0.0006  0.9041  0.3382
  673TMC3    O210020   0.294   1.306   0.642  0.5438  0.8496  0.4146
  674MPD2     C10021   0.126   1.194  17.554 -0.1074 -0.6556  0.2614
  674MPD2    C110022   0.073   1.110  17.656 -0.4608 -0.1924 -0.4167
  674MPD2    C210023   0.019   1.175   0.010 -0.9068 -0.0105  0.1707
  674MPD2    C310024   0.012   1.316   0.019 -0.6009  0.0193 -0.4471
  674MPD2    C410025   0.065   1.398  17.672  0.0846  0.2858 -0.1935
  674MPD2    C510026   0.116   1.331  17.556 -0.2750 -0.0374  0.3978
  674MPD2     H10027   4.711   1.118   0.090 -1.8250  0.3313 -0.1152
  674MPD2    H110028   0.056   1.506  17.676 -0.5931  0.1829  1.1220
  674MPD2    H210029   0.162   1.158  17.458 -0.0895 -0.5277  0.2204
  674MPD2    H310030   0.143   1.388  17.468 -0.6692 -1.5113 -0.6750
  674MPD2     N10031   4.697   1.363   0.142  0.3420  0.3144  0.5710
  674MPD2    H510032   4.655   1.289   0.197 -1.6132  0.7636 -0.3143
  674MPD2    N110033   0.106   0.976  17.656 -0.3863 -0.7625  0.3719
  674MPD2    H710034   0.161   0.941  17.578  0.1754 -0.0304  0.4394
  675TMC3    C110035   0.199   0.792   0.019 -0.1817 -0.6879  0.3966
  675TMC3    C210036   0.175   0.699   0.119 -0.1291 -0.0549  0.7217
  675TMC3    C310037   0.270   0.679   0.217 -0.4703  0.0911 -0.0967
  675TMC3    C410038   0.317   0.859   0.016 -0.1308  0.3646 -0.6768
  675TMC3    C510039   0.409   0.843   0.116 -0.2977 -0.5714  0.2146
  675TMC3    C610040   0.388   0.755   0.215  0.1868 -0.1881 -0.5004
  675TMC3     C10041   0.082   0.879   0.002 -0.5159  0.6744 -0.6064
  675TMC3     O10042   0.001   0.873   0.094  0.1844  0.4439 -0.1853
  675TMC3     H10043   0.083   0.641   0.116 -0.0551 -0.1976  1.1300
  675TMC3    H110044   0.341   0.919  17.679 -2.5249  0.7231 -1.0914
  675TMC3    H210045   0.467   0.739   0.288 -2.0441 -0.9754  1.7490
  675TMC3    C710046   0.531   0.923   0.111  0.0114 -0.2253 -0.3895
  675TMC3    C810047   0.217   0.616   0.327 -0.1188  0.4355 -0.6826
  675TMC3    O110048   0.543   0.990   0.006 -0.1789 -0.2778  0.6484
  675TMC3    O210049   0.146   0.516   0.311 -0.5570  0.1258 -0.2047
  676MPD2     C10050   2.523   4.418  10.993 -0.0076  0.4847  0.2419
  676MPD2    C110051   2.500   4.308  11.087 -0.4297 -0.2440  0.3132
  676MPD2    C210052   2.603   4.220  11.112 -0.5738  0.2993  0.7009
  676MPD2    C310053   2.723   4.223  11.041  0.2644  0.3796  0.2285
  676MPD2    C410054   2.734   4.316  10.941  0.6491 -0.5632 -0.0988
  676MPD2    C510055   2.639   4.416  10.915  0.1811  0.3498 -0.4607
  676MPD2     H10056   2.592   4.149  11.193 -1.4271 -0.9400 -0.5038
  676MPD2    H110057   2.826   4.330  10.885 -0.5535  2.6272 -1.3246
  676MPD2    H210058   2.446   4.490  10.967  0.5660  0.7404 -0.7243
  676MPD2    H310059   2.668   4.494  10.847 -1.0373  0.1166 -1.2348
  676MPD2     N10060   2.828   4.130  11.062  0.4409  0.1965 -0.2805
  676MPD2    H510061   2.908   4.134  10.999 -0.2761  0.3658 -1.1833
  676MPD2    N110062   2.373   4.299  11.159  0.2288  0.6476  0.4118
  676MPD2    H710063   2.376   4.236  11.238 -1.9513 -0.4664 -0.4044
  677TMC3    C110064   2.145   4.348  11.222  0.5456 -0.7894 -0.1516
  677TMC3    C210065   2.115   4.215  11.250 -0.2153 -0.4949 -0.9555
  677TMC3    C310066   2.038   4.181  11.352 -0.6788  0.7444 -0.7237
  677TMC3    C410067   2.101   4.450  11.306  0.1974 -0.5857 -0.0351
  677TMC3    C510068   2.009   4.417  11.403 -0.3165  0.0328 -1.1217
  677TMC3    C610069   1.973   4.283  11.419 -0.2987 -0.0345  0.1667
  677TMC3     C10070   2.257   4.373  11.132 -0.1619 -0.8440  0.3279
  677TMC3     O10071   2.243   4.468  11.053  0.3009 -0.1177 -0.2556
  677TMC3     H10072   2.169   4.133  11.203  0.1554 -0.9544  0.2880
  677TMC3    H110073   2.118   4.552  11.275 -0.2429 -1.1657 -2.2070
  677TMC3    H210074   1.901   4.267  11.499  0.6005 -1.0827  0.7629
  677TMC3    C710075   1.995   4.499  11.517  0.8219  0.2239  0.9903
  677TMC3    C810076   1.992   4.042  11.365  0.6191  0.3382 -0.0071
  677TMC3    O110077   1.910   4.470  11.602 -0.1594 -0.2482 -0.5295
  677TMC3    O210078   2.003   3.980  11.264  0.1387  0.0429 -0.1765
  678MPD2     C10079   4.188   0.309   1.180 -0.4225  0.1850  0.4577
  678MPD2    C110080   4.215   0.172   1.166 -0.6025 -0.6242 -0.3398
  678MPD2    C210081   4.124   0.087   1.097  0.2131  0.4765 -0.9433
  678MPD2    C310082   4.011   0.139   1.034 -0.1491  0.1710  0.1070
  678MPD2    C410083   3.995   0.278   1.045  0.2873  0.3748 -0.2124
  678MPD2    C510084   4.074   0.357   1.117  0.1494 -0.6864  0.0356
  678MPD2     H10085   4.134   4.717   1.090 -4.0525 -0.1304  2.1387
  678MPD2    H110086   3.911   0.328   0.998  0.8131  1.9216  0.4693
  678MPD2    H210087   4.249   0.384   1.230 -0.7948  1.5895 -1.2203
  678MPD2    H310088   4.062   0.465   1.113  1.2293 -0.5773 -0.1403
  678MPD2     N10089   3.902   0.066   0.984  0.8859  0.0361 -0.2256
  678MPD2    H510090   3.913   4.703   0.986 -1.3464 -0.1670  1.8945
  678MPD2    N110091   4.329   0.112   1.221  0.7336 -0.2534 -0.1597
  678MPD2    H710092   4.347   0.015   1.197 -3.1762 -1.0459  0.0006
  679TMC3    C110093   4.638   4.642   1.210 -0.4172  0.1370  0.8118
  679TMC3    C210094   4.543   4.709   1.283  0.4032 -0.5506  0.2373
  679TMC3    C310095   4.551   0.108   1.291  0.3312 -0.2225 -0.5610
  679TMC3    C410096   4.732   4.703   1.129 -0.3958 -0.2349 -0.7960
  679TMC3    C510097   4.719   0.104   1.123  0.2944  0.6244 -0.2743
  679TMC3    C610098   4.644   0.173   1.214  0.4076  0.2698 -0.3690
  679TMC3     C10099   4.661   4.497   1.234  0.1975  0.5892 -0.5973
  679TMC3     O10100   4.716   4.438   1.140  0.0047 -0.6964  0.2143
  679TMC3     H10101   4.463   4.667   1.342  0.8423 -0.5230  0.8518
  679TMC3    H110102   0.057   4.642   1.065  1.4813  1.0435 -0.1560
  679TMC3    H210103   4.658   0.279   1.230 -0.0979  0.4333 -1.0196
  679TMC3    C710104   4.665   0.141   0.992  0.2363  0.3725 -0.1063
  679TMC3    C810105   4.429   0.180   1.287 -0.2538  0.6036 -0.2780
  679TMC3    O110106   4.668   0.059   0.898  0.0643 -0.1246  0.5346
  679TMC3    O210107   4.438   0.300   1.311 -0.0366  0.0166 -0.6254
  680MPD2     C10108   3.868   2.735  13.546  0.2282 -0.6775 -0.2384
  680MPD2    C110109   3.979   2.675  13.588 -0.6912  0.0219 -0.2028
  680MPD2    C210110   4.089   2.746  13.622  0.1951 -0.9454  0.7713
  680MPD2    C310111   4.091   2.886  13.615 -0.1652 -0.1813  0.2201
  680MPD2    C410112   3.985   2.952  13.577 -0.3677  0.4979 -0.0983
  680MPD2    C510113   3.873   2.875  13.539  0.0641  0.3560  0.8962
  680MPD2     H10114   4.179   2.688  13.638  0.6332 -0.4023  0.2550
  680MPD2    H110115   3.985   3.060  13.572 -2.1348  0.4692 -0.8068
  680MPD2    H210116   3.772   2.688  13.525  1.3911 -3.7315  1.3190
  680MPD2    H310117   3.782   2.922  13.504  0.3495 -0.0747 -0.4428
  680MPD2     N10118   4.198   2.969  13.658 -0.2290  0.3152 -0.2559
  680MPD2    H510119   4.177   3.068  13.655  2.4865  0.8786 -1.2190
  680MPD2    N110120   3.990   2.539  13.603 -0.3125  0.2645 -0.3535
  680MPD2    H710121   4.076   2.517  13.652  0.1957 -1.1056 -1.8379
  681TMC3    C110122   3.951   2.307  13.584  0.0009  0.2833 -0.1109
  681TMC3    C210123   3.869   2.203  13.572 -0.2225 -0.2624 -0.4601
  681TMC3    C310124   3.899   2.079  13.607 -0.4208 -0.2780 -0.1337
  681TMC3    C410125   4.083   2.293  13.611 -0.8415 -0.3558  0.4095
  681TMC3    C510126   4.112   2.168  13.639  1.4431 -0.3042  0.5355
  681TMC3    C610127   4.029   2.059  13.643 -0.1404  0.0729  0.6733
  681TMC3     C10128   3.896   2.441  13.560  0.2808 -0.4315 -0.4836
  681TMC3     O10129   3.782   2.456  13.509 -0.7304 -0.1435  0.3933
  681TMC3     H10130   3.768   2.239  13.558 -0.6771 -1.3455 -0.0120
  681TMC3    H110131   4.152   2.373  13.632 -0.9556 -0.5912  1.6869
  681TMC3    H210132   4.057   1.958  13.669  1.8622  0.0970 -1.3949
  681TMC3    C710133   4.251   2.138  13.655 -1.0419  0.3208  0.1612
  681TMC3    C810134   3.811   2.022  13.699  0.0414  0.2392  0.2732
  681TMC3    O110135   4.292   2.064  13.743 -0.4816 -0.0719 -0.5220
  681TMC3    O210136   3.693   2.019  13.665  0.4693 -0.0244  0.0364
  682MPD2     C10137   1.575   4.630  10.917  0.0125 -0.8268  1.1084
  682MPD2    C110138   1.505   4.527  10.865 -0.4500 -0.3523 -0.0325
  682MPD2    C210139   1.420   4.451  10.946  0.4091  0.3530 -0.3301
  682MPD2    C310140   1.401   4.477  11.077  0.6399  0.5236  0.3384
  682MPD2    C410141   1.458   4.591  11.125  0.5276 -0.0683  0.2393
  682MPD2    C510142   1.535   4.673  11.045  0.4252 -0.4276  0.1669
  682MPD2     H10143   1.381   4.358  10.904  0.0059  0.7363 -0.8053
  682MPD2    H110144   1.450   4.623  11.228  0.3745  0.4134  0.0783
  682MPD2    H210145   1.642   4.695  10.863 -1.4766  0.5026  0.8644
  682MPD2    H310146   1.578   0.023  11.094  0.9880  0.9098 -2.7322
  682MPD2     N10147   1.328   4.394  11.161  0.2911  0.1355  0.9316
  682MPD2    H510148   1.317   4.423  11.258  1.0144 -0.3980  1.1760
  682MPD2    N110149   1.544   4.472  10.739  0.4332 -0.2498  0.5978
  682MPD2    H710150   1.497   4.391  10.700 -1.5016  3.0558 -3.9286
  683TMC3    C110151   1.254   4.089  11.430 -0.0416 -0.2654 -0.4118
  683TMC3    C210152   1.227   3.960  11.382  0.1285  0.4097  0.6501
  683TMC3    C310153   1.204   3.950  11.249  0.3271 -0.5175  0.2106
  683TMC3    C410154   1.255   4.199  11.352 -0.7712 -0.1710 -0.0842
  683TMC3    C510155   1.220   4.185  11.218  0.0656 -0.6796 -0.7008
  683TMC3    C610156   1.188   4.061  11.169  0.0283 -0.3351 -0.0792
  683TMC3     C10157   1.313   4.102  11.559 -0.4866  0.1573  0.6114
  683TMC3     O10158   1.387   4.199  11.575  0.2477  0.1206 -0.1125
  683TMC3     H10159   1.229   3.873  11.445 -1.0922  0.2800  0.4941
  683TMC3    H110160   1.283   4.294  11.395 -0.0652  0.0100 -0.9493
  683TMC3    H210161   1.154   4.047  11.067 -1.2739 -0.8688  0.4258
  683TMC3    C710162   1.254   4.285  11.114  0.0753 -0.0074 -0.7516
  683TMC3    C810163   1.211   3.822  11.181 -0.5934 -0.1726  0.1526
  683TMC3    O110164   1.201   4.274  11.007  0.0892  0.3355  0.1768
  683TMC3    O210165   1.134   3.814  11.087  0.1785  0.2431 -0.0007
  684MPD2     C10166   4.457   3.472  16.064  1.0658  0.2861  0.2996
  684MPD2    C110167   4.484   3.507  15.932 -0.0193 -0.1079  0.1640
  684MPD2    C210168   4.475   3.645  15.904  0.5065  0.2420 -0.2034
  684MPD2    C310169   4.458   3.737  16.005  0.9267  0.7913 -0.0262
  684MPD2    C410170   4.437   3.700  16.135 -0.5867  0.3737 -0.0107
  684MPD2    C510171   4.432   3.572  16.167 -0.2624 -0.6538 -0.3870
  684MPD2     H10172   4.484   3.672  15.800  2.6857  0.4051  0.0312
  684MPD2    H110173   4.431   3.768  16.220 -0.5225 -1.6463  1.5917
  684MPD2    H210174   4.455   3.367  16.091  0.0793  0.4503  0.8826
  684MPD2    H310175   4.422   3.548  16.272  0.1938 -2.5786 -0.7974
  684MPD2     N10176   4.451   3.884  15.982  0.0791  0.2359 -0.2033
  684MPD2    H510177   4.440   3.943  16.064  1.2499 -1.9585  1.5352
  684MPD2    N110178   4.502   3.414  15.823 -0.1272 -0.0886 -0.0293
  684MPD2    H710179   4.496   3.452  15.729  2.7407 -0.5686 -0.4058
  685TMC3    C110180   4.571   3.207  15.731  0.3943 -0.0749 -0.5953
  685TMC3    C210181   4.504   3.228  15.610 -0.3267 -0.1278 -0.3356
  685TMC3    C310182   4.554   3.173  15.491  0.8068 -0.0463  0.4091
  685TMC3    C410183   4.693   3.144  15.733  0.0431 -0.0316 -0.7746
  685TMC3    C510184   4.734   3.092  15.611  0.0228  0.0229 -0.1310
  685TMC3    C610185   4.671   3.103  15.489  0.0579  0.0518 -0.3043
  685TMC3     C10186   4.548   3.285  15.844 -0.0852  0.0767 -0.1526
  685TMC3     O10187   4.602   3.242  15.947 -0.3730  0.2709  0.0580
  685TMC3     H10188   4.416   3.290  15.615 -1.0131 -1.0215 -1.5880
  685TMC3    H110189   0.013   3.132  15.824 -0.4953 -0.7135 -0.5181
  685TMC3    H210190   4.707   3.050  15.403  0.3690 -1.9143  1.0435
  685TMC3    C710191   0.134   3.061  15.600 -0.3742 -0.1612 -0.0929
  685TMC3    C810192   4.532   3.248  15.372  0.1381  0.7345 -0.2425
  685TMC3    O110193   0.183   3.071  15.492  0.3002  0.1393 -0.3644
  685TMC3    O210194   4.631   3.261  15.302 -0.6017 -0.0706  0.7140
  686MPD2     C10195   1.648   3.548  15.862  0.3226 -0.0047  0.2023
  686MPD2    C110196   1.641   3.419  15.898 -0.1712  0.7634 -0.2761
  686MPD2    C210197   1.746   3.333  15.854 -0.6961  0.2064  0.0082
  686MPD2    C310198   1.862   3.383  15.801  0.6251 -1.2238 -0.7275
  686MPD2    C410199   1.875   3.519  15.776  0.0513 -0.0602 -0.5738
  686MPD2    C510200   1.762   3.595  15.797  0.0627 -0.3456  0.2086
  686MPD2     H10201   1.739   3.227  15.873  3.1104 -0.0799 -0.1745
  686MPD2    H110202   1.956   3.567  15.723 -0.6030  2.5788  0.8260
  686MPD2    H210203   1.566   3.618  15.875  2.0586  2.0591  0.0050
  686MPD2    H310204   1.765   3.695  15.754  1.4980 -0.0404  0.9995
  686MPD2     N10205   1.972   3.306  15.758  0.0036  0.4678  0.0123
  686MPD2    H510206   2.035   3.356  15.697 -2.5274  3.0933 -0.4636
  686MPD2    N110207   1.514   3.369  15.941 -0.4046 -0.9604 -0.4637
  686MPD2    H710208   1.433   3.429  15.934  0.7446  0.6705  0.2245
  687TMC3    C110209   1.943   3.101  15.889 -0.2153  0.2903  0.1864
  687TMC3    C210210   1.846   3.002  15.875 -0.3388  0.3545  0.5372
  687TMC3    C310211   1.789   2.962  15.992  0.1700  0.6134 -0.7559
  687TMC3    C410212   1.978   3.150  16.011 -0.0854  0.5487 -0.0679
  687TMC3    C510213   1.938   3.090  16.125 -0.3859  0.1976  0.7350
  687TMC3    C610214   1.832   3.000  16.118 -0.3205  0.0461 -0.4203
  687TMC3     C10215   1.988   3.164  15.765  0.3835 -0.1060  0.9231
  687TMC3     O10216   2.067   3.093  15.705  0.2463  0.2542 -0.3413
  687TMC3     H10217   1.808   2.981  15.775  1.4522 -0.3703 -0.0014
  687TMC3    H110218   2.046   3.234  16.017  1.2016 -0.4760 -0.3352
  687TMC3    H210219   1.775   2.963  16.202 -0.3575  0.6463 -0.1861
  687TMC3    C710220   1.945   3.180  16.243  0.2506 -0.9151 -0.6102
  687TMC3    C810221   1.652   2.905  15.989  0.7311 -0.7566  0.4799
  687TMC3    O110222   1.996   3.291  16.232 -0.0042 -0.2513  0.2393
  687TMC3    O210223   1.626   2.828  16.084 -0.3704  0.0560 -0.6164
  688MPD2     C10224   0.271   2.527  17.221 -0.2692 -0.0529  0.3222
  688MPD2    C110225   0.279   2.394  17.263 -0.3104  0.3808  0.2072
  688MPD2    C210226   0.351   2.304  17.192 -0.9103  0.5569 -0.5310
  688MPD2    C310227   0.426   2.352  17.084 -0.0109  0.2459  0.0081
  688MPD2    C410228   0.423   2.484  17.046  0.1397  0.2165 -0.1185
  688MPD2    C510229   0.341   2.571  17.116  0.2164  0.1006 -0.5847
  688MPD2     H10230   0.352   2.200  17.224 -0.5915  1.1554  1.4209
  688MPD2    H110231   0.492   2.520  16.971  1.3856  0.3242  1.0852
  688MPD2    H210232   0.208   2.601  17.268 -1.0007 -1.1075  0.9897
  688MPD2    H310233   0.339   2.673  17.080  1.6379  0.0798 -0.7484
  688MPD2     N10234   0.502   2.268  17.003  0.4371  0.0619 -0.4479
  688MPD2    H510235   0.529   2.317  16.919 -0.5591  0.7250 -0.3805
  688MPD2    N110236   0.202   2.354  17.375  0.1115 -0.5631  0.6428
  688MPD2    H710237   0.188   2.254  17.386  1.2610 -0.8467 -0.5562
  689TMC3    C110238   0.058   2.378  17.567 -0.0990  0.3878 -0.1288
  689TMC3    C210239   0.040   2.449  17.682 -0.2654  0.2940 -0.5023
  689TMC3    C310240   4.696   2.391   0.028  0.1140  0.2467  0.1381
  689TMC3    C410241   4.733   2.259  17.541  0.0351  1.4383 -0.4872
  689TMC3    C510242   4.658   2.204  17.635 -0.2986 -0.2909  0.5926
  689TMC3    C610243   4.630   2.278   0.000  0.6353  0.0900  0.2184
  689TMC3     C10244   0.156   2.441  17.476  0.6830 -0.5924  0.3641
  689TMC3     O10245   0.174   2.560  17.486  0.7683 -0.1425  0.6469
  689TMC3     H10246   0.081   2.549  17.691 -0.3741  0.1590  1.6764
  689TMC3    H110247   0.012   2.204  17.449 -0.7334  0.5948 -0.1195
  689TMC3    H210248   4.569   2.240   0.081  0.5539 -0.7534 -0.2405
  689TMC3    C710249   4.628   2.062  17.639 -0.3719 -0.4935 -0.1420
  689TMC3    C810250   4.724   2.441   0.161 -0.1413 -0.4844 -0.3132
  689TMC3    O110251   4.617   2.026   0.007 -0.0567 -1.0915 -0.1192
  689TMC3    O210252   0.046   2.549   0.173 -0.9369  0.4150 -0.2952
  690MPD2     C10253   2.505   4.391  15.672  0.4659  0.4281 -0.1267
  690MPD2    C110254   2.548   4.276  15.611 -0.0467 -0.0942  0.7795
  690MPD2    C210255   2.641   4.294  15.508 -0.4484  0.2288 -0.4894
  690MPD2    C310256   2.701   4.414  15.480  0.2893  0.7267  0.4416
  690MPD2    C410257   2.660   4.525  15.548 -0.1196 -0.1168 -0.4304
  690MPD2    C510258   2.551   4.515  15.632 -0.0447  0.0287  0.2377
  690MPD2     H10259   2.677   4.207  15.453 -0.1295  0.1217 -0.1167
  690MPD2    H110260   2.705   4.622  15.531 -1.8647  0.8052  0.2780
  690MPD2    H210261   2.423   4.392  15.743  0.7228  0.7883  0.1610
  690MPD2    H310262   2.528   4.599  15.697 -0.2832 -1.3085  1.8915
  690MPD2     N10263   2.810   4.417  15.384  0.2351  0.4127  1.1315
  690MPD2    H510264   2.827   4.334  15.327  2.4456  1.1605  0.6805
  690MPD2    N110265   2.501   4.148  15.652  0.2623 -0.9502  0.6059
  690MPD2    H710266   2.523   4.062  15.602  0.6034 -1.0785  0.9780
  691TMC3    C110267   2.341   3.991  15.748  0.5420  0.8154  0.3496
  691TMC3    C210268   2.207   3.974  15.768  0.3117 -0.1283 -0.1702
  691TMC3    C310269   2.151   3.848  15.781 -0.3954  0.1654 -0.3537
  691TMC3    C410270   2.424   3.881  15.745 -0.4791  0.7476  0.1164
  691TMC3    C510271   2.362   3.759  15.765  0.2353 -0.4190 -0.2361
  691TMC3    C610272   2.232   3.733  15.779 -0.2308  0.2612 -1.0121
  691TMC3     C10273   2.388   4.130  15.733  0.1619  0.8543  0.4007
  691TMC3     O10274   2.308   4.211  15.777 -0.2811 -0.3149 -0.1684
  691TMC3     H10275   2.148   4.065  15.763 -1.2152 -1.1294 -0.3933
  691TMC3    H110276   2.530   3.894  15.763 -0.0708  0.2759 -1.9891
  691TMC3    H210277   2.187   3.640  15.810 -3.1447  1.9225 -0.2842
  691TMC3    C710278   2.452   3.649  15.811 -0.3108  0.0769 -0.5252
  691TMC3    C810279   2.036   3.832  15.867  0.3854  0.0099  0.5315
  691TMC3    O110280   2.548   3.692  15.873  0.4286  0.1125  0.3768
  691TMC3    O210281   2.021   3.724  15.924 -0.1381  0.7548  0.8005
  692TMC3    C110282   4.107   0.587  15.627  0.3970  0.2385  0.0867
  692TMC3    C210283   4.236   0.595  15.672  1.1906  0.0667 -0.1304
  692TMC3    C310284   4.316   0.482  15.652 -0.7323  0.5808  0.2837
  692TMC3    C410285   4.048   0.468  15.582 -0.4345  0.1923  1.1192
  692TMC3    C510286   4.129   0.356  15.573  0.3975 -0.6192  0.4155
  692TMC3    C610287   4.253   0.366  15.618  0.3534 -0.2632 -0.0939
  692TMC3     C10288   4.022   0.694  15.678 -0.0729 -0.0931  0.4890
  692TMC3     O10289   3.900   0.661  15.673 -0.8365  0.5782 -0.1224
  692TMC3     H10290   4.271   0.692  15.703  0.4273  0.1308  0.5466
  692TMC3    H110291   3.941   0.456  15.571 -0.5309  1.1068  1.0829
  692TMC3    H210292   4.320   0.282  15.602 -2.1376 -2.3267  0.3307
  692TMC3    C710293   4.079   0.230  15.519  0.1942 -0.0978 -0.0643
  692TMC3    C810294   4.415   0.458  15.746 -0.4766  0.0082  0.3369
  692TMC3    O110295   3.999   0.234  15.430 -0.1587 -0.1220 -0.2394
  692TMC3    O210296   4.460   0.344  15.765 -0.4505  1.0110  0.4795
  693MPD2     C10297   3.842   3.780  10.556 -0.2020 -0.2902 -0.0476
  693MPD2    C110298   3.787   3.671  10.617  0.0263 -0.1915  0.1961
  693MPD2    C210299   3.860   3.623  10.726  0.5323 -0.8419  0.7114
  693MPD2    C310300   3.979   3.679  10.770  0.1306 -0.2649 -0.4710
  693MPD2    C410301   4.018   3.794  10.712  0.1761 -0.1238  0.4273
  693MPD2    C510302   3.954   3.833  10.599  0.4067 -0.2791 -0.1694
  693MPD2     H10303   3.825   3.535  10.778 -0.5398  0.8660  2.8697
  693MPD2    H110304   4.110   3.846  10.737  0.6826 -0.1017 -1.4329
  693MPD2    H210305   3.797   3.816  10.464 -1.6727  0.3493  0.9215
  693MPD2    H310306   4.006   3.901  10.533 -1.2690  0.3736 -0.8187
  693MPD2     N10307   4.055   3.636  10.883  0.6751  0.5717  0.4893
  693MPD2    H510308   4.141   3.684  10.906  1.5686  0.0680 -1.7143
  693MPD2    N110309   3.663   3.607  10.594  0.0689  0.3014  0.2291
  693MPD2    H710310   3.644   3.522  10.645 -5.1815 -0.1390 -2.5087
  694TMC3    C110311   3.442   3.571  10.528 -0.7048 -0.0847 -0.6519
  694TMC3    C210312   3.367   3.550  10.413  0.0078 -0.0636  0.2130
  694TMC3    C310313   3.243   3.491  10.446  0.7785  0.0729 -0.4256
  694TMC3    C410314   3.407   3.559  10.663  0.3625 -0.1567  0.3338
  694TMC3    C510315   3.285   3.496  10.682  0.1870  0.4840  0.2544
  694TMC3    C610316   3.210   3.454  10.574  0.0385 -0.2938 -0.1468
  694TMC3     C10317   3.565   3.643  10.506  0.2781  0.5492 -0.2449
  694TMC3     O10318   3.567   3.735  10.428 -0.4260 -0.4259  0.3496
  694TMC3     H10319   3.402   3.568  10.312 -1.7214  2.4909  0.0824
  694TMC3    H110320   3.482   3.582  10.737  0.8776 -0.7149 -0.0177
  694TMC3    H210321   3.122   3.394  10.596  0.6815 -0.8556  0.8553
  694TMC3    C710322   3.275   3.416  10.797 -0.3442  0.5997 -0.7969
  694TMC3    C810323   3.153   3.438  10.342  0.1242 -0.4032 -0.6605
  694TMC3    O110324   3.178   3.337  10.799 -0.2178  0.6494 -0.1045
  694TMC3    O210325   3.056   3.381  10.381  0.4219  0.0782  0.0212
  695MPD2     C10326   0.186   4.727  13.430  0.3366  0.4490 -0.4407
  695MPD2    C110327   0.116   4.726  13.544  0.2052 -0.3208 -0.0260
  695MPD2    C210328   4.717   0.019  13.541 -0.1988  0.2172  0.1618
  695MPD2    C310329   4.651   0.061  13.425 -0.0904  0.6021  0.7280
  695MPD2    C410330   4.723   0.055  13.307  0.2364  0.3002 -0.2710
  695MPD2    C510331   0.119   0.018  13.314  0.1041  0.4163  0.2295
  695MPD2     H10332   4.660   0.029  13.633  1.9579  0.1147  1.4914
  695MPD2    H110333   4.686   0.075  13.207  1.5377  0.1357 -0.7881
  695MPD2    H210334   0.288   4.693  13.417 -0.0723  0.3321 -3.4604
  695MPD2    H310335   0.167   0.007  13.217 -0.4929  2.6875 -0.3121
  695MPD2     N10336   4.518   0.101  13.435 -0.1496 -0.5725 -0.2485
  695MPD2    H510337   4.473   0.093  13.526  1.6753  1.6816  0.8419
  695MPD2    N110338   0.185   4.703  13.669 -0.6961 -0.5742 -0.1068
  695MPD2    H710339   0.124   4.715  13.750 -2.7160  2.3514 -2.0859
  696TMC3    C110340   4.339   0.245  13.377 -1.1668  0.5360  0.2390
  696TMC3    C210341   4.255   0.180  13.469 -0.7116  0.1002 -0.0311
  696TMC3    C310342   4.142   0.253  13.507 -0.0464 -0.5066  0.5652
  696TMC3    C410343   4.292   0.356  13.315 -0.0750  0.5538 -0.0122
  696TMC3    C510344   4.172   0.416  13.349 -0.4940 -0.0591  0.4973
  696TMC3    C610345   4.096   0.371  13.448  0.3202 -0.4152  0.0097
  696TMC3     C10346   4.470   0.187  13.338 -0.3335  0.3780  0.4570
  696TMC3     O10347   4.528   0.234  13.237  0.4743 -0.2598 -1.1687
  696TMC3     H10348   4.292   0.098  13.529 -0.4103  1.0681  1.0811
  696TMC3    H110349   4.360   0.404  13.246  1.4362 -1.2186  0.2430
  696TMC3    H210350   4.010   0.424  13.486 -0.1925 -0.4241 -1.1162
  696TMC3    C710351   4.157   0.555  13.328 -0.9206 -0.4727 -0.2179
  696TMC3    C810352   4.092   0.227  13.641 -0.0689  0.0595  0.6953
  696TMC3    O110353   4.193   0.605  13.221 -0.1956  0.1482 -0.2373
  696TMC3    O210354   4.177   0.167  13.705  0.5437 -0.2623 -0.1994
  697MPD2     C10355   3.318   1.969  15.206  0.5983 -0.1309  0.0142
  697MPD2    C110356   3.320   1.870  15.111 -0.8846 -0.4982 -0.0905
  697MPD2    C210357   3.370   1.906  14.986 -0.0675 -0.2638 -0.1648
  697MPD2    C310358   3.414   2.031  14.957  0.3595  0.0498  1.0524
  697MPD2    C410359   3.408   2.132  15.053  0.4928  0.1293  0.1384
  697MPD2    C510360   3.355   2.095  15.177 -1.3230 -0.5466 -0.5778
  697MPD2     H10361   3.394   1.826  14.918 -1.2810 -0.2467 -0.6088
  697MPD2    H110362   3.431   2.235  15.033 -4.7148  0.8660 -2.0733
  697MPD2    H210363   3.284   1.940  15.304 -1.8825 -0.1302 -0.8477
  697MPD2    H310364   3.339   2.166  15.257  0.9914  1.0769 -1.5688
  697MPD2     N10365   3.468   2.051  14.826 -0.0396 -0.1482 -0.9288
  697MPD2    H510366   3.479   1.967  14.769  1.1100  1.1045 -2.5407
  697MPD2    N110367   3.293   1.734  15.133 -0.1981  0.5970 -0.0410
  697MPD2    H710368   3.270   1.672  15.056  2.2487  1.7666 -1.6955
  698TMC3    C110369   3.622   2.156  14.673 -0.8513  0.0527 -0.3478
  698TMC3    C210370   3.721   2.247  14.653 -0.6872 -0.1359  0.0969
  698TMC3    C310371   3.763   2.275  14.521 -0.2982  0.2980 -0.1632
  698TMC3    C410372   3.562   2.083  14.570  0.5086  0.1080 -0.4664
  698TMC3    C510373   3.596   2.118  14.444  0.4857  0.0783 -0.0076
  698TMC3    C610374   3.693   2.213  14.417  0.9420 -0.2756  0.0601
  698TMC3     C10375   3.528   2.169  14.782  0.2702 -0.5257  0.2976
  698TMC3     O10376   3.552   2.270  14.850 -0.5896  0.6008 -0.7687
  698TMC3     H10377   3.767   2.298  14.737  0.4478  0.0677 -0.6453
  698TMC3    H110378   3.477   2.021  14.598  1.1999 -0.3089  0.6984
  698TMC3    H210379   3.711   2.247  14.316 -2.0562 -0.1997 -0.4543
  698TMC3    C710380   3.506   2.093  14.325  0.1890  0.4230  0.6430
  698TMC3    C810381   3.793   2.414  14.502 -0.0903  0.3922  0.5791
  698TMC3    O110382   3.528   2.159  14.227  0.4488 -0.0335 -0.1604
  698TMC3    O210383   3.726   2.470  14.414  0.4914  0.5404 -0.2052
  699TMC3    C110384   3.801   0.675  12.880 -0.4677 -0.2852 -0.4505
  699TMC3    C210385   3.863   0.564  12.922 -0.3024  0.2505 -0.8348
  699TMC3    C310386   3.820   0.505  13.043 -0.0353  0.0055 -0.4490
  699TMC3    C410387   3.688   0.721  12.945  0.2869 -0.4254 -0.2434
  699TMC3    C510388   3.651   0.665  13.067  0.4849 -0.6430 -0.2380
  699TMC3    C610389   3.724   0.555  13.121 -0.5007  0.6516  0.4896
  699TMC3     C10390   3.844   0.744  12.760 -0.4823 -0.0583 -0.0523
  699TMC3     O10391   3.772   0.823  12.698  0.5412  0.5676  0.1209
  699TMC3     H10392   3.935   0.517  12.856 -0.4172  0.8657 -1.3958
  699TMC3    H110393   3.642   0.814  12.913  1.5887  0.5622  0.7580
  699TMC3    H210394   3.700   0.519  13.220  1.2114 -0.8222  0.3623
  699TMC3    C710395   3.552   0.723  13.149  0.3478 -0.1482 -0.7520
  699TMC3    C810396   3.898   0.397  13.101 -0.0174 -0.0789 -0.2718
  699TMC3    O110397   3.575   0.712  13.270 -0.2785  0.5073  0.6009
  699TMC3    O210398   3.849   0.345  13.200 -0.5918  0.7269 -0.3767
  700TMC3    C110399   3.363   2.835  17.309 -0.2594 -0.4937  0.2935
  700TMC3    C210400   3.367   2.698  17.298 -0.0209 -0.3346 -0.4887
  700TMC3    C310401   3.465   2.640  17.367  0.0408  0.5282 -0.0274
  700TMC3    C410402   3.454   2.910  17.381 -0.8635 -0.0995  0.0312
  700TMC3    C510403   3.562   2.845  17.428  0.3685  0.1485  0.2134
  700TMC3    C610404   3.570   2.706  17.427 -0.3448 -0.0024  0.2991
  700TMC3     C10405   3.301   2.892  17.187  0.9359  0.8642  1.3137
  700TMC3     O10406   3.210   2.832  17.135  0.0494 -0.3775 -0.3428
  700TMC3     H10407   3.286   2.641  17.254 -0.1302 -0.7829  0.2952
  700TMC3    H110408   3.440   3.018  17.383  0.2437  0.0149  1.0140
  700TMC3    H210409   3.648   2.655  17.482 -0.1386 -0.2425 -0.2104
  700TMC3    C710410   3.643   2.934  17.506  0.9007 -0.1750 -0.3292
  700TMC3    C810411   3.497   2.506  17.321  0.2065  0.2548 -0.0449
  700TMC3    O110412   3.643   3.047  17.483 -0.4161 -0.1911 -0.5485
  700TMC3    O210413   3.404   2.449  17.259  0.2474  0.0913 -0.5287
  701TMC3    C110414   3.019   1.540  15.613  0.5278  0.0873 -0.6846
  701TMC3    C210415   2.954   1.557  15.494 -1.3361  0.1827  0.1113
  701TMC3    C310416   2.959   1.682  15.437 -0.3695  0.4855 -0.0668
  701TMC3    C410417   3.090   1.640  15.683  0.3113 -0.6045  0.1574
  701TMC3    C510418   3.092   1.761  15.617 -0.3921 -0.3218  0.2998
  701TMC3    C610419   3.029   1.781  15.495 -0.3114  0.0358  0.2778
  701TMC3     C10420   2.985   1.425  15.695  0.1855 -0.0955 -0.2743
  701TMC3     O10421   2.967   1.438  15.816 -0.4753  0.1668 -0.0402
  701TMC3     H10422   2.892   1.483  15.445 -2.0032  0.5063  0.4679
  701TMC3    H110423   3.132   1.611  15.778  2.1742  2.3691  0.2539
  701TMC3    H210424   3.052   1.871  15.438 -0.6517 -0.3885 -0.5203
  701TMC3    C710425   3.162   1.871  15.662  0.6624  0.7977  0.2571
  701TMC3    C810426   2.864   1.716  15.336 -1.2277  0.4476 -0.2725
  701TMC3    O110427   3.111   1.976  15.629 -0.4790 -0.3202  0.2084
  701TMC3    O210428   2.838   1.832  15.331  0.4490 -0.0623  0.6356
  702MPD2     C10429   3.123   3.781  10.484 -0.9333  0.6030 -0.8258
  702MPD2    C110430   2.995   3.794  10.543 -0.0176 -0.8014  0.2711
  702MPD2    C210431   2.885   3.795  10.463 -0.5220 -0.3367  0.0269
  702MPD2    C310432   2.894   3.771  10.326  0.1328  0.1858  0.2182
  702MPD2    C410433   3.025   3.766  10.268 -0.3542 -0.1885 -0.0419
  702MPD2    C510434   3.138   3.763  10.347  0.1046 -0.2423 -0.2711
  702MPD2     H10435   2.790   3.814  10.514 -0.2856  0.6055  0.1281
  702MPD2    H110436   3.037   3.779  10.162 -0.1279 -0.5626 -0.0632
  702MPD2    H210437   3.210   3.780  10.549 -0.8713  1.4244 -0.8959
  702MPD2    H310438   3.236   3.768  10.301  0.4929 -1.3240  0.4358
  702MPD2     N10439   2.783   3.775  10.243 -0.5027 -0.4596 -0.5009
  702MPD2    H510440   2.801   3.764  10.144  0.3702 -1.6645 -0.2146
  702MPD2    N110441   2.967   3.809  10.678  0.2206  0.3893  0.1260
  702MPD2    H710442   2.869   3.817  10.704 -0.8056  0.8493 -3.9910
  703TMC3    C110443   2.550   3.813  10.176 -0.3109  0.3359 -0.2311
  703TMC3    C210444   2.430   3.795  10.241  0.3353  0.1638  0.0839
  703TMC3    C310445   2.334   3.893  10.247  0.1990  0.3128  0.0896
  703TMC3    C410446   2.569   3.932  10.109  0.4890  0.7650 -0.8076
  703TMC3    C510447   2.465   4.025  10.108  0.5523  0.2511 -0.8121
  703TMC3    C610448   2.351   4.005  10.182 -0.4044 -0.1826  0.0035
  703TMC3     C10449   2.652   3.782  10.281 -0.2432 -0.0703 -0.5010
  703TMC3     O10450   2.610   3.773  10.396 -0.2541 -0.0711  0.4036
  703TMC3     H10451   2.403   3.710  10.302 -1.9611  1.7346  1.2316
  703TMC3    H110452   2.664   3.945  10.058  0.2186 -2.7248 -2.2169
  703TMC3    H210453   2.303   4.096  10.217 -0.0110 -0.2533  0.7450
  703TMC3    C710454   2.512   4.161  10.099 -0.7328 -0.2430  0.0320
  703TMC3    C810455   2.264   3.911  10.369  0.2458  0.2379 -0.1782
  703TMC3    O110456   2.630   4.167  10.092  0.0902  0.3340 -0.5038
  703TMC3    O210457   2.174   3.992  10.370  0.0098 -0.1254  0.2616
  704TMC3    C110458   0.825   2.091  12.515 -0.2402 -0.5387  0.2279
  704TMC3    C210459   0.881   2.128  12.393 -0.3631 -0.0495 -0.6505
  704TMC3    C310460   0.950   2.031  12.334 -0.5674 -0.1305 -0.5034
  704TMC3    C410461   0.862   1.982  12.588 -0.6449  0.0790  0.1964
  704TMC3    C510462   0.949   1.898  12.530 -0.5897  0.3244  0.3144
  704TMC3    C610463   0.981   1.916  12.402 -0.1239 -0.2737  0.0316
  704TMC3     C10464   0.687   2.135  12.545  0.0932  0.0783  0.0202
  704TMC3     O10465   0.634   2.094  12.652  0.0651  0.2589  0.3250
  704TMC3     H10466   0.856   2.222  12.344 -2.5233 -0.9979 -1.4097
  704TMC3    H110467   0.836   1.970  12.693  1.6676  0.8553  0.8479
  704TMC3    H210468   1.042   1.852  12.339 -1.6531  0.3100 -2.0502
  704TMC3    C710469   0.977   1.760  12.576 -0.3533 -0.0717  0.4709
  704TMC3    C810470   0.942   2.033  12.189 -0.6428 -0.3460 -0.3795
  704TMC3    O110471   1.047   1.695  12.500 -0.6719  0.1447  0.3777
  704TMC3    O210472   0.961   2.143  12.135 -0.2070  0.5896  0.2142
  705MPD2     C10473   4.335   0.007  16.100 -0.3297 -0.3708 -0.6735
  705MPD2    C110474   4.398   0.097  16.177 -0.8425 -0.0874 -0.0209
  705MPD2    C210475   4.313   0.184  16.242 -0.3957 -0.2930 -0.6600
  705MPD2    C310476   4.173   0.178  16.245  0.3430 -0.6556  0.4575
  705MPD2    C410477   4.120   0.076  16.171 -0.3261  0.0943 -1.0010
  705MPD2    C510478   4.199   4.725  16.096  0.1840 -0.4131 -0.4202
  705MPD2     H10479   4.365   0.257  16.302  2.0928 -0.7174 -2.3317
  705MPD2    H110480   4.012   0.061  16.164 -0.6130  0.9859  1.7111
  705MPD2    H210481   4.395   4.683  16.034 -0.0245 -0.6698 -0.1191
  705MPD2    H310482   4.148   4.654  16.032  0.3162  0.0846 -1.0683
  705MPD2     N10483   4.084   0.256  16.322  0.0970 -0.1995 -0.0731
  705MPD2    H510484   3.987   0.226  16.326  0.3401 -0.4644  3.2239
  705MPD2    N110485   4.539   0.105  16.191  0.0816 -0.2597  0.2606
  705MPD2    H710486   4.574   0.178  16.252  0.0003 -0.0993  0.1133
  706TMC3    C110487   0.250   0.021  16.067  0.0648  0.1662 -0.2349
  706TMC3    C210488   0.292   0.143  16.106 -0.2448  0.7555 -0.6434
  706TMC3    C310489   0.197   0.218  16.166  0.5329  0.2506  0.7618
  706TMC3    C410490   0.116   4.713  16.067 -0.3635 -0.0208 -0.3640
  706TMC3    C510491   0.023   0.065  16.118  0.0876  0.1208  0.2241
  706TMC3    C610492   0.064   0.180  16.169 -0.0890 -0.5303 -0.7125
  706TMC3     C10493   0.347   4.680  16.012 -0.0783 -1.0472  0.6539
  706TMC3     O10494   0.454   4.675  16.067 -0.0687 -0.0878  0.0063
  706TMC3     H10495   0.393   0.182  16.098  0.0293  0.1773 -0.0705
  706TMC3    H110496   0.095   4.610  16.040 -1.1680 -0.4782  1.9770
  706TMC3    H210497   4.727   0.258  16.179  1.1786  0.5976 -0.0071
  706TMC3    C710498   4.626   0.026  16.114 -0.0881 -0.4134  0.2470
  706TMC3    C810499   0.228   0.360  16.174  0.0872 -0.1489  0.0168
  706TMC3    O110500   4.604   4.667  16.042  0.5955 -0.3502  0.0658
  706TMC3    O210501   0.291   0.408  16.081 -0.6813 -0.2336  0.7992
  707TMC3    C110502   2.103   4.298   1.475  0.0575  0.2244 -0.0279
  707TMC3    C210503   2.197   4.289   1.570  0.5537  0.4467 -0.6351
  707TMC3    C310504   2.170   4.346   1.690 -0.4996 -0.5208  0.2318
  707TMC3    C410505   1.979   4.346   1.504  0.2009  0.0043  1.0420
  707TMC3    C510506   1.958   4.418   1.623 -0.2420 -0.0019 -0.1428
  707TMC3    C610507   2.050   4.409   1.720  0.1586  0.3087  0.2227
  707TMC3     C10508   2.152   4.292   1.336 -0.4418 -0.1133 -0.0963
  707TMC3     O10509   2.274   4.278   1.323  0.1349  0.5010  0.3462
  707TMC3     H10510   2.298   4.254   1.551  0.7375  0.2025  0.7297
  707TMC3    H110511   1.910   4.362   1.422  0.4427 -1.3550  0.5676
  707TMC3    H210512   2.025   4.439   1.821 -1.6211 -0.5256  0.0255
  707TMC3    C710513   1.832   4.481   1.651 -0.0505  0.4639  0.7928
  707TMC3    C810514   2.259   4.319   1.802  0.2936  0.1517  0.8002
  707TMC3    O110515   1.794   4.487   1.765  0.4780  0.3758 -0.3177
  707TMC3    O210516   2.250   4.393   1.901  0.5536 -0.3224  0.2351
  708MPD2     C10517   3.384   3.572  14.134 -0.4166  0.3096 -0.5867
  708MPD2    C110518   3.366   3.452  14.062  0.5974  0.1081  0.0135
  708MPD2    C210519   3.441   3.340  14.088  0.0915  0.3176 -0.0293
  708MPD2    C310520   3.542   3.352  14.187  0.4980 -0.6032  0.3314
  708MPD2    C410521   3.573   3.482  14.238  0.7485  0.4694 -0.1083
  708MPD2    C510522   3.486   3.589  14.223 -0.2874  0.2598 -0.0650
  708MPD2     H10523   3.417   3.249  14.035 -0.2144 -0.1715  0.9625
  708MPD2    H110524   3.656   3.501  14.305  0.8028 -2.8236  0.7790
  708MPD2    H210525   3.323   3.659  14.115  0.1808  0.8115 -0.2330
  708MPD2    H310526   3.485   3.682  14.280 -1.0238 -0.6489  1.4104
  708MPD2     N10527   3.619   3.238  14.235 -0.2100 -0.0833 -0.4090
  708MPD2    H510528   3.677   3.269  14.312 -1.0366 -0.6078  0.4371
  708MPD2    N110529   3.261   3.454  13.967 -0.6565 -0.7295  0.2548
  708MPD2    H710530   3.199   3.534  13.965 -0.5646 -0.6494  0.7097
  709TMC3    C110531   3.096   3.366  13.815  0.2514 -0.7160 -0.0347
  709TMC3    C210532   3.096   3.312  13.689  0.5576  0.1989 -0.4357
  709TMC3    C310533   3.021   3.201  13.662 -0.0117 -0.6585 -0.0910
  709TMC3    C410534   3.021   3.306  13.911 -0.1531 -0.6287  0.2087
  709TMC3    C510535   2.955   3.187  13.888 -0.2917  0.2178 -0.3437
  709TMC3    C610536   2.946   3.136  13.759 -0.4307 -0.2507 -0.1184
  709TMC3     C10537   3.233   3.358  13.869 -0.4124 -0.5618  0.6413
  709TMC3     O10538   3.285   3.250  13.847 -0.3261  0.5634  0.6191
  709TMC3     H10539   3.176   3.343  13.623 -0.1629 -3.0545 -2.8350
  709TMC3    H110540   3.046   3.330  14.013  0.1522 -1.4998  0.3309
  709TMC3    H210541   2.902   3.040  13.738  1.0446 -0.8745 -0.3391
  709TMC3    C710542   2.944   3.106  14.005  0.4396  0.4485  0.6449
  709TMC3    C810543   3.069   3.124  13.543  0.2208  0.3914  0.2654
  709TMC3    O110544   2.935   3.165  14.111 -0.3612  0.4550 -0.1900
  709TMC3    O210545   3.073   3.001  13.543 -0.0581 -0.1104  0.2457
  710TMC3    C110546   4.275   0.191   0.194  0.1634  0.1379  0.6005
  710TMC3    C210547   4.363   0.144   0.097  0.0193 -0.5139  0.0284
  710TMC3    C310548   4.488   0.096   0.134 -0.0077 -0.6274  0.4279
  710TMC3    C410549   4.297   0.169   0.327  0.3291  0.1503  0.3900
  710TMC3    C510550   4.418   0.116   0.358 -0.0682 -0.0922  0.6804
  710TMC3    C610551   4.521   0.083   0.264 -0.3825 -0.0434 -0.5156
  710TMC3     C10552   4.139   0.169   0.158  0.4081  0.4419 -0.6784
  710TMC3     O10553   4.115   0.084   0.070  0.1214  0.6595  0.3404
  710TMC3     H10554   4.348   0.162  17.741  0.1358  2.1308  0.4437
  710TMC3    H110555   4.219   0.174   0.401  0.1279  1.1710  0.1085
  710TMC3    H210556   4.623   0.059   0.293 -0.2315  0.6717 -0.4471
  710TMC3    C710557   4.460   0.135   0.496  0.1586 -0.5883  0.3555
  710TMC3    C810558   4.596   0.117   0.034 -0.1587 -0.4484 -1.2113
  710TMC3    O110559   4.555   0.079   0.535 -0.2830  0.3957  0.2386
  710TMC3    O210560   4.564   0.157  17.675 -0.1315  0.3907  0.4325
  711TMC3    C110561   3.872   0.551  14.971  0.8818 -0.4681  0.3608
  711TMC3    C210562   3.910   0.671  15.027 -0.4559  0.0672  0.6571
  711TMC3    C310563   4.023   0.677  15.111 -0.2805 -0.1632  0.1388
  711TMC3    C410564   3.955   0.445  14.986 -0.0051  0.6303  0.3414
  711TMC3    C510565   4.071   0.451  15.062 -0.3924 -0.3442 -0.7342
  711TMC3    C610566   4.101   0.566  15.125 -0.3993  0.4869 -0.6578
  711TMC3     C10567   3.759   0.550  14.888 -0.3928  0.1561 -0.0123
  711TMC3     O10568   3.766   0.473  14.791  0.5438 -0.3189 -0.1230
  711TMC3     H10569   3.849   0.758  15.010 -0.2351  0.2245  0.6706
  711TMC3    H110570   3.916   0.350  14.953 -0.3833  1.3191 -1.1707
  711TMC3    H210571   4.191   0.571  15.185 -1.7258  1.5328  1.2221
  711TMC3    C710572   4.160   0.343  15.083  0.9423  0.0831 -0.1009
  711TMC3    C810573   4.031   0.799  15.186 -0.1996  0.2115  0.3113
  711TMC3    O110574   4.265   0.358  15.146  0.2339  0.2590 -0.3401
  711TMC3    O210575   3.934   0.871  15.169 -0.2136 -0.0955 -0.0195
  712MPD2     C10576   0.329   1.910  13.324  1.2650  0.6494  0.2824
  712MPD2    C110577   0.341   1.847  13.447 -0.5374 -0.4544  0.8520
  712MPD2    C210578   0.362   1.921  13.563  0.5179  0.0959  0.7632
  712MPD2    C310579   0.383   2.059  13.559 -0.3545 -0.1885  0.0740
  712MPD2    C410580   0.355   2.127  13.437  0.4302 -0.7734 -0.1075
  712MPD2    C510581   0.329   2.050  13.321  0.0996  0.1208 -0.5265
  712MPD2     H10582   0.361   1.872  13.660 -0.5683 -1.5023 -0.0544
  712MPD2    H110583   0.352   2.234  13.420  0.8994 -1.2591 -3.2099
  712MPD2    H210584   0.304   1.855  13.234  2.4245  1.5693 -0.6015
  712MPD2    H310585   0.295   2.085  13.224 -0.6478 -3.9920 -1.7800
  712MPD2     N10586   0.416   2.119  13.686  0.2440 -0.4755 -0.2746
  712MPD2    H510587   0.469   2.064  13.753 -0.7764 -2.1109 -0.8266
  712MPD2    N110588   0.320   1.709  13.459 -0.3956  0.0388 -0.0367
  712MPD2    H710589   0.295   1.670  13.550 -1.2395 -0.9714 -0.7027
  713TMC3    C110590   0.485   2.312  13.819 -0.0205  0.5226 -0.4205
  713TMC3    C210591   0.618   2.301  13.808 -0.0736  0.4165 -0.2986
  713TMC3    C310592   0.695   2.407  13.789 -0.0589  0.3392  0.4463
  713TMC3    C410593   0.431   2.439  13.830  0.1444  0.1691  0.5228
  713TMC3    C510594   0.513   2.545  13.820 -0.0008  0.2346  0.1029
  713TMC3    C610595   0.652   2.533  13.809 -0.9917  0.7979  0.4571
  713TMC3     C10596   0.417   2.256  13.703 -0.7266  0.3591  0.5299
  713TMC3     O10597   0.355   2.329  13.638  0.0995  0.3661 -0.1682
  713TMC3     H10598   0.660   2.201  13.801 -1.2398 -0.1594  0.8662
  713TMC3    H110599   0.327   2.464  13.845 -0.3475 -0.9083 -1.1137
  713TMC3    H210600   0.711   2.623  13.797 -0.0583  0.1750  0.3793
  713TMC3    C710601   0.457   2.683  13.813 -0.2991  0.2911  0.2904
  713TMC3    C810602   0.835   2.398  13.769  0.4653 -0.6398  0.4915
  713TMC3    O110603   0.533   2.778  13.830  0.0857  0.3611  0.8717
  713TMC3    O210604   0.906   2.489  13.795 -0.0844  0.0696  0.6428
  714MPD2     C10605   2.457   0.775   1.022 -0.5108  0.8756  0.8090
  714MPD2    C110606   2.474   0.647   0.987 -0.0135  0.1401 -0.7126
  714MPD2    C210607   2.371   0.581   0.921  0.6641  0.6706  0.6553
  714MPD2    C310608   2.256   0.651   0.889 -0.1754 -0.2427 -0.2262
  714MPD2    C410609   2.242   0.780   0.927 -0.2410  0.2243 -0.4034
  714MPD2    C510610   2.341   0.840   0.997  1.0120 -0.3754 -0.1638
  714MPD2     H10611   2.378   0.478   0.887  1.5431  0.1076  2.5394
  714MPD2    H110612   2.149   0.831   0.906 -0.0474 -0.1594 -2.1997
  714MPD2    H210613   2.535   0.830   1.073 -0.1068  0.1681  0.9639
  714MPD2    H310614   2.317   0.939   1.035 -0.0392 -1.0609  0.9254
  714MPD2     N10615   2.147   0.577   0.836  0.9161 -0.5850  0.5753
  714MPD2    H510616   2.149   0.476   0.833  2.7275 -0.5300  0.0814
  714MPD2    N110617   2.595   0.595   1.023 -0.0200 -0.3570  0.4906
  714MPD2    H710618   2.647   0.659   1.080 -0.7299 -0.5396  1.3447
  715TMC3    C110619   2.781   0.447   1.055 -0.2072 -0.0459  0.5824
  715TMC3    C210620   2.854   0.350   0.991 -0.4098  0.2657  0.0467
  715TMC3    C310621   2.991   0.356   1.009 -0.1642 -0.7042 -0.1300
  715TMC3    C410622   2.832   0.533   1.141  0.5092  0.2932 -0.3319
  715TMC3    C510623   2.965   0.525   1.165  0.9712 -0.4332  0.4550
  715TMC3    C610624   3.051   0.443   1.096 -0.0470 -0.1743 -0.5089
  715TMC3     C10625   2.646   0.472   0.994  0.4693 -0.2923 -0.5440
  715TMC3     O10626   2.611   0.398   0.908  0.7206  0.5006  0.4139
  715TMC3     H10627   2.812   0.266   0.936 -0.5908  1.1518 -1.1577
  715TMC3    H110628   2.762   0.599   1.192 -1.1292 -1.7748  0.0855
  715TMC3    H210629   3.157   0.443   1.116 -0.2390 -0.9905  0.5237
  715TMC3    C710630   3.025   0.626   1.253  0.1377 -0.4508  0.1448
  715TMC3    C810631   3.072   0.263   0.939 -0.9521  0.2211  0.0847
  715TMC3    O110632   3.138   0.664   1.226  0.0414  0.2173  0.0003
  715TMC3    O210633   3.024   0.158   0.898 -0.0080 -0.1785 -0.1346
  716MPD2     C10634   2.510   4.404   9.698 -0.2529  0.3243 -0.7431
  716MPD2    C110635   2.475   4.406   9.565 -0.1790  0.5340 -0.6680
  716MPD2    C210636   2.479   4.280   9.495 -0.6537  0.6263  1.0135
  716MPD2    C310637   2.526   4.163   9.551 -0.5998  0.1201 -0.7206
  716MPD2    C410638   2.542   4.162   9.691  0.4500 -0.6479  0.3991
  716MPD2    C510639   2.531   4.285   9.758 -0.0751  0.3371  0.5611
  716MPD2     H10640   2.457   4.284   9.389  0.1269  0.0906  0.8348
  716MPD2    H110641   2.583   4.080   9.749  1.6992  0.0924  0.5559
  716MPD2    H210642   2.506   4.495   9.756  0.4643 -0.5996  0.7699
  716MPD2    H310643   2.551   4.287   9.865 -2.9634  3.3256  1.0217
  716MPD2     N10644   2.547   4.054   9.463  0.8669 -0.3221 -0.0184
  716MPD2    H510645   2.536   4.069   9.363  0.4393 -0.8756 -0.0538
  716MPD2    N110646   2.430   4.524   9.507 -0.0968 -0.4566 -0.4083
  716MPD2    H710647   2.444   4.613   9.555  0.4873 -0.6551 -0.2135
  717TMC3    C110648   2.592   3.846   9.389 -0.3498  0.6401 -0.2227
  717TMC3    C210649   2.506   3.874   9.288 -0.8889  0.1188 -0.5727
  717TMC3    C310650   2.498   3.781   9.185 -1.1556  0.5455  0.0891
  717TMC3    C410651   2.663   3.734   9.395  0.6889 -0.0614 -0.1261
  717TMC3    C510652   2.665   3.654   9.282  0.8347  0.6067  0.2108
  717TMC3    C610653   2.583   3.670   9.172 -1.2494 -0.8332 -0.0861
  717TMC3     C10654   2.584   3.928   9.505  0.3045  0.0432 -0.1309
  717TMC3     O10655   2.621   3.888   9.614  0.3334  0.7074  0.2714
  717TMC3     H10656   2.434   3.955   9.278  1.6246  2.2458 -1.5287
  717TMC3    H110657   2.720   3.715   9.486  0.1901  2.3016  0.6761
  717TMC3    H210658   2.618   3.648   9.072 -3.3889 -2.0254 -0.5777
  717TMC3    C710659   2.770   3.560   9.281 -0.5158 -0.0903  0.2202
  717TMC3    C810660   2.411   3.811   9.073  0.0829  0.4830 -0.4998
  717TMC3    O110661   2.852   3.563   9.374 -0.3571  0.0101  0.4295
  717TMC3    O210662   2.387   3.929   9.054  0.1787  0.0419  0.0683
  718MPD2     C10663   2.271   2.063  12.796  0.5073  0.5319  0.0850
  718MPD2    C110664   2.242   2.147  12.691  0.1976 -0.1089  0.6000
  718MPD2    C210665   2.140   2.120  12.606 -0.9791 -0.4755 -0.0109
  718MPD2    C310666   2.043   2.022  12.639 -0.1987  0.4331 -0.7263
  718MPD2    C410667   2.069   1.940  12.749  0.1845  0.3548  0.1894
  718MPD2    C510668   2.179   1.959  12.824 -0.2300  0.0506 -0.0857
  718MPD2     H10669   2.119   2.190  12.526  0.2996 -1.1886 -0.9775
  718MPD2    H110670   2.007   1.852  12.765 -0.2555  0.8691  1.2961
  718MPD2    H210671   2.355   2.079  12.862  0.6903 -0.3234  0.0622
  718MPD2    H310672   2.204   1.896  12.908  1.3423  0.9123  0.0960
  718MPD2     N10673   1.919   2.009  12.564  0.3745 -0.3353  0.4087
  718MPD2    H510674   1.863   1.927  12.586 -0.7039  0.3125  0.0544
  718MPD2    N110675   2.332   2.258  12.665 -0.1105  0.3972 -0.8036
  718MPD2    H710676   2.300   2.310  12.584 -0.1213 -0.7281 -1.5370
  719TMC3    C110677   2.475   2.446  12.701  0.0902 -0.2171  0.9439
  719TMC3    C210678   2.376   2.525  12.654 -0.1382  0.6706 -0.4962
  719TMC3    C310679   2.417   2.631  12.583 -0.3029 -0.6483  0.1912
  719TMC3    C410680   2.606   2.455  12.660 -0.2832  0.2261  0.1919
  719TMC3    C510681   2.641   2.570  12.588 -0.5918 -0.7431  0.0151
  719TMC3    C610682   2.548   2.664  12.547 -0.5906 -0.5275 -0.2976
  719TMC3     C10683   2.437   2.311  12.737  0.0681 -0.3497  0.1370
  719TMC3     O10684   2.504   2.264  12.827 -0.5103  0.6185  0.3991
  719TMC3     H10685   2.277   2.508  12.695 -0.5284  0.9098 -1.3396
  719TMC3    H110686   2.670   2.378  12.699 -0.4267 -0.4677 -0.9351
  719TMC3    H210687   2.574   2.743  12.478 -1.4949  1.2626  1.4303
  719TMC3    C710688   2.778   2.594  12.544 -0.5155  0.7673  0.0431
  719TMC3    C810689   2.317   2.704  12.503  0.4663 -0.0867  0.6273
  719TMC3    O110690   2.799   2.679  12.459 -0.0572  0.6694  0.1306
  719TMC3    O210691   2.325   2.823  12.481 -0.4686 -0.0167 -0.4977
  720MPD2     C10692   0.818   3.877  14.269  0.1508  0.5027 -0.2352
  720MPD2    C110693   0.875   3.801  14.170  0.7859  0.6461 -0.0191
  720MPD2    C210694   0.980   3.720  14.205 -0.0656  0.2801 -0.0303
  720MPD2    C310695   1.030   3.713  14.337 -0.2047  0.1556 -0.2690
  720MPD2    C410696   0.968   3.793  14.429  1.3933 -0.2234  0.2198
  720MPD2    C510697   0.866   3.883  14.399  0.1559 -0.6746  0.4184
  720MPD2     H10698   1.031   3.664  14.128 -0.3007 -0.1720  0.1466
  720MPD2    H110699   1.009   3.806  14.528  0.9840 -0.7857  0.4625
  720MPD2    H210700   0.748   3.958  14.255 -1.7309 -0.8914  1.2031
  720MPD2    H310701   0.832   3.953  14.475  0.5299  0.5232 -0.5055
  720MPD2     N10702   1.139   3.627  14.348  0.2735  0.4787  0.3989
  720MPD2    H510703   1.183   3.589  14.265  0.3653  1.5835 -0.0474
  720MPD2    N110704   0.817   3.793  14.038 -0.0942 -0.1998  0.1259
  720MPD2    H710705   0.855   3.730  13.969 -1.5802 -1.0683  0.0842
  721TMC3    C110706   1.324   3.530  14.467  0.1842  0.0132  0.6249
  721TMC3    C210707   1.368   3.481  14.588 -0.0636  0.7426 -0.4534
  721TMC3    C310708   1.502   3.486  14.607 -0.1214 -0.5262 -0.8792
  721TMC3    C410709   1.403   3.562  14.356  0.0204 -0.1591  0.0113
  721TMC3    C510710   1.538   3.563  14.386  0.1471 -0.4566  0.0237
  721TMC3    C610711   1.592   3.525  14.506  0.4726 -0.5962 -0.4947
  721TMC3     C10712   1.193   3.598  14.473  0.8545  0.0162  0.4527
  721TMC3     O10713   1.153   3.633  14.582  0.0771 -0.5125 -0.2623
  721TMC3     H10714   1.301   3.425  14.652  1.6313 -1.0837 -0.2858
  721TMC3    H110715   1.372   3.618  14.269  0.3272 -0.3369 -0.2102
  721TMC3    H210716   1.696   3.535  14.533  0.5568  0.6246 -1.2813
  721TMC3    C710717   1.635   3.589  14.280 -0.5593  0.3502 -0.4933
  721TMC3    C810718   1.551   3.450  14.736 -0.3336  0.9046 -0.6442
  721TMC3    O110719   1.746   3.611  14.317 -0.1578  0.5198  0.5673
  721TMC3    O210720   1.662   3.402  14.731  0.2387  0.2340  0.4721
  722MPD2     C10721   4.250   2.550  13.046 -0.7856 -0.3285  0.1070
  722MPD2    C110722   4.257   2.682  13.016 -0.3726 -0.2139  0.0455
  722MPD2    C210723   4.182   2.726  12.909  0.1560 -0.4197 -0.7633
  722MPD2    C310724   4.111   2.638  12.826  0.4463  0.0792 -0.0915
  722MPD2    C410725   4.119   2.502  12.849 -0.2565 -0.1307  0.6570
  722MPD2    C510726   4.191   2.458  12.959  0.1480  0.0155 -0.0308
  722MPD2     H10727   4.184   2.830  12.879 -2.9344 -0.1885 -0.1862
  722MPD2    H110728   4.078   2.434  12.774  1.1898  0.6863 -0.8812
  722MPD2    H210729   4.296   2.506  13.133 -1.3713  1.6966  1.4356
  722MPD2    H310730   4.189   2.353  12.984  0.2042  0.5282  2.1194
  722MPD2     N10731   4.036   2.679  12.715 -0.0545 -0.1640  0.2146
  722MPD2    H510732   4.001   2.609  12.650 -2.3031  1.0320  0.1308
  722MPD2    N110733   4.318   2.786  13.096 -0.4877 -0.1771  0.2121
  722MPD2    H710734   4.305   2.878  13.054 -1.5088 -1.0403 -1.3612
  723TMC3    C110735   3.932   2.817  12.552 -0.2417 -0.9682  0.1216
  723TMC3    C210736   3.929   2.712  12.465  0.0236 -0.4155  0.4849
  723TMC3    C310737   3.848   2.720  12.355  0.4361  0.0970 -0.3017
  723TMC3    C410738   3.841   2.917  12.546 -0.7634  0.4336  0.6008
  723TMC3    C510739   3.764   2.923  12.433  0.0544 -0.3300  0.0778
  723TMC3    C610740   3.757   2.824  12.335  0.1658  0.0505 -0.0953
  723TMC3     C10741   4.003   2.810  12.679  0.2887 -0.1661 -0.1219
  723TMC3     O10742   4.022   2.918  12.735  0.5646 -0.1846  0.6054
  723TMC3     H10743   4.003   2.634  12.471  1.0245  0.4078 -0.9948
  723TMC3    H110744   3.843   2.993  12.623  0.9890  1.3563 -0.3598
  723TMC3    H210745   3.697   2.835  12.246 -0.8355 -0.1840  0.5527
  723TMC3    C710746   3.684   3.044  12.415 -0.2437 -0.3568  0.0573
  723TMC3    C810747   3.863   2.619  12.254  0.4950 -0.9676 -0.0285
  723TMC3    O110748   3.627   3.044  12.308 -0.7226 -0.3981  0.3660
  723TMC3    O210749   3.974   2.569  12.243 -0.0323 -0.1058  0.2250
  724TMC3    C110750   4.412   1.934   9.866  0.0237  0.3227 -0.8482
  724TMC3    C210751   4.382   2.013   9.758  0.3991 -0.1448 -0.1998
  724TMC3    C310752   4.462   2.130   9.751 -0.1210  0.7211  0.2147
  724TMC3    C410753   4.499   1.965   9.964  0.6223  0.7008 -0.1494
  724TMC3    C510754   4.581   2.069   9.944  0.1648  0.0937  0.5686
  724TMC3    C610755   4.558   2.151   9.839 -0.1415  0.3244 -0.3772
  724TMC3     C10756   4.320   1.823   9.889 -0.4760 -0.2941 -0.4161
  724TMC3     O10757   4.314   1.786  10.004 -0.2520  0.0596 -0.0982
  724TMC3     H10758   4.279   2.012   9.723  0.7683 -0.3293 -1.3002
  724TMC3    H110759   4.507   1.901  10.051  0.0221  2.5264  1.2594
  724TMC3    H210760   4.623   2.238   9.827 -0.4604  0.5038 -0.7982
  724TMC3    C710761   4.691   2.098  10.045 -0.1966 -0.0741 -0.5854
  724TMC3    C810762   4.413   2.221   9.653 -0.0847  0.1494 -0.7583
  724TMC3    O110763   0.009   2.204  10.030  0.8252 -0.1551 -0.5636
  724TMC3    O210764   4.331   2.177   9.577  0.5119  0.1427  0.1922
  725TMC3    C110765   1.512   4.036  13.351 -0.1026  0.0423 -0.1582
  725TMC3    C210766   1.419   4.057  13.246  0.1900 -0.2537 -0.1248
  725TMC3    C310767   1.381   3.942  13.181  0.3794  0.7797 -0.0260
  725TMC3    C410768   1.564   3.912  13.380 -0.1435  0.2132  0.0664
  725TMC3    C510769   1.527   3.804  13.304  0.4640  0.1098  0.3848
  725TMC3    C610770   1.434   3.813  13.202 -0.2449 -0.1745  0.2911
  725TMC3     C10771   1.547   4.154  13.426  0.5165  0.5205 -0.1298
  725TMC3     O10772   1.465   4.244  13.443  0.6217  0.3248 -0.4763
  725TMC3     H10773   1.373   4.153  13.230 -0.2062 -0.8097 -2.3695
  725TMC3    H110774   1.622   3.899  13.470  2.0911  2.1262 -1.1111
  725TMC3    H210775   1.395   3.726  13.152 -0.2881 -0.5903  1.0441
  725TMC3    C710776   1.630   3.704  13.291  0.7798 -0.1852 -0.7988
  725TMC3    C810777   1.270   3.939  13.078  0.0009  0.2006  0.0220
  725TMC3    O110778   1.694   3.676  13.394  0.2248 -0.8858 -0.0037
  725TMC3    O210779   1.228   3.828  13.050 -0.0589  0.4997 -0.0997
  726MPD2     C10780   3.834   1.030  10.671  0.5227 -0.2397  0.2891
  726MPD2    C110781   3.725   1.104  10.700  0.3900  1.1485  0.5483
  726MPD2    C210782   3.602   1.041  10.742  0.1414  0.4627  0.8068
  726MPD2    C310783   3.593   0.902  10.744  0.6612  0.2807 -0.0419
  726MPD2    C410784   3.694   0.824  10.688 -0.0690 -0.5516 -0.6387
  726MPD2    C510785   3.815   0.895  10.657  0.3320  0.0069  0.4255
  726MPD2     H10786   3.515   1.103  10.761 -0.6731 -0.5415  0.3941
  726MPD2    H110787   3.699   0.716  10.681  1.5888 -0.4002 -1.6698
  726MPD2    H210788   3.930   1.073  10.646 -0.1937  1.6637  0.7387
  726MPD2    H310789   3.895   0.837  10.613  1.1754  1.5472 -0.0494
  726MPD2     N10790   3.469   0.841  10.773 -1.1243  0.1618  0.0041
  726MPD2    H510791   3.446   0.753  10.727 -1.8007 -0.6683  1.9462
  726MPD2    N110792   3.728   1.246  10.700 -0.0734  0.1068 -0.1864
  726MPD2    H710793   3.633   1.282  10.695 -0.5649 -0.8778  1.9687
  727TMC3    C110794   3.804   1.457  10.625  0.6291  0.9991  0.0765
  727TMC3    C210795   3.894   1.559  10.646 -0.2127 -0.3149 -0.0250
  727TMC3    C310796   3.870   1.684  10.596  0.8435  0.2618  0.1775
  727TMC3    C410797   3.686   1.485  10.568 -0.3038  0.1843  0.0197
  727TMC3    C510798   3.667   1.610  10.515  0.2347 -0.0056 -0.1596
  727TMC3    C610799   3.762   1.712  10.520 -0.3949  0.0704 -0.3031
  727TMC3     C10800   3.836   1.324  10.671 -0.1688 -0.3412 -0.3599
  727TMC3     O10801   3.956   1.302  10.675 -0.4223 -0.1087 -0.7113
  727TMC3     H10802   3.967   1.546  10.726  0.5380  3.8238 -0.0200
  727TMC3    H110803   3.611   1.408  10.553  0.3705 -1.0535  3.0044
  727TMC3    H210804   3.748   1.812  10.479  1.2101  0.0991 -0.7738
  727TMC3    C710805   3.536   1.657  10.467 -0.3561 -0.0245  0.7181
  727TMC3    C810806   3.969   1.788  10.607  0.0837 -0.0186  0.3883
  727TMC3    O110807   3.522   1.770  10.429 -0.1046 -0.2477  0.4452
  727TMC3    O210808   4.080   1.744  10.639 -0.1952 -0.7357 -0.2936
  728TMC3    C110809   3.006   4.499  15.284  0.0718  0.1894 -0.1621
  728TMC3    C210810   3.131   4.516  15.323 -0.0512 -0.8712  0.9397
  728TMC3    C310811   3.226   4.528  15.230 -0.1946 -0.5776 -0.1421
  728TMC3    C410812   2.969   4.461  15.159  0.1020 -0.3549 -0.0501
  728TMC3    C510813   3.075   4.474  15.065  0.2864 -0.7784  0.1571
  728TMC3    C610814   3.200   4.514  15.096  0.1856 -0.2547 -0.0986
  728TMC3     C10815   2.907   4.515  15.385  0.0891  0.7642  0.0295
  728TMC3     O10816   2.931   4.598  15.473  0.0825 -0.2694 -0.1515
  728TMC3     H10817   3.148   4.532  15.429  0.7158  0.0119  0.6876
  728TMC3    H110818   2.866   4.453  15.126 -0.4751  0.1250  1.6222
  728TMC3    H210819   3.277   4.532  15.023  0.0500  0.7232 -0.0036
  728TMC3    C710820   3.058   4.437  14.928  0.2501 -0.0198  0.1661
  728TMC3    C810821   3.355   4.584  15.265 -0.7644  0.1116  0.2967
  728TMC3    O110822   2.976   4.349  14.900 -0.1660  0.1164  0.2289
  728TMC3    O210823   3.367   4.647  15.370  0.0029 -0.5488  0.2316
  729MPD2     C10824   0.435   0.677  16.347 -0.7446 -0.5910 -0.2125
  729MPD2    C110825   0.567   0.674  16.318 -0.9846  0.1438  0.2953
  729MPD2    C210826   0.658   0.689  16.421 -0.3858 -0.3102 -0.3765
  729MPD2    C310827   0.620   0.738  16.542 -0.9210  0.2180 -0.2276
  729MPD2    C410828   0.481   0.745  16.569 -0.4404  0.2692 -0.3347
  729MPD2    C510829   0.393   0.701  16.473  0.3044  0.0250  0.0724
  729MPD2     H10830   0.764   0.672  16.403  0.1768  3.0750 -0.2506
  729MPD2    H110831   0.447   0.775  16.667 -1.5282 -2.4324  0.1279
  729MPD2    H210832   0.354   0.650  16.280 -1.2728  0.8656 -0.1517
  729MPD2    H310833   0.286   0.692  16.488  0.3367 -1.0330 -0.3557
  729MPD2     N10834   0.711   0.793  16.632 -0.5846 -1.2333  0.0637
  729MPD2    H510835   0.670   0.841  16.712  3.4493  1.5532  0.4354
  729MPD2    N110836   0.606   0.662  16.180 -0.0631  0.2659 -0.6911
  729MPD2    H710837   0.537   0.634  16.111 -1.1737  0.4937  0.3533
  730TMC3    C110838   0.916   0.888  16.716  0.1656 -0.3278  0.3044
  730TMC3    C210839   1.031   0.947  16.680 -0.2780 -0.2528 -0.0590
  730TMC3    C310840   1.088   1.038  16.769  0.0409 -0.5062  0.1208
  730TMC3    C410841   0.863   0.907  16.840  0.4658  0.2008 -0.4172
  730TMC3    C510842   0.922   0.992  16.932 -0.5746  0.6389  0.4052
  730TMC3    C610843   1.039   1.055  16.895  0.7754  0.2905 -0.7103
  730TMC3     C10844   0.846   0.805  16.619 -0.4634 -0.2525 -0.0258
  730TMC3     O10845   0.919   0.767  16.523 -0.3708 -0.3592  0.0433
  730TMC3     H10846   1.050   0.943  16.573 -1.2186 -1.8282 -0.1585
  730TMC3    H110847   0.766   0.867  16.863  1.6125 -2.5669 -0.4239
  730TMC3    H210848   1.092   1.118  16.966 -0.1318  1.4865 -1.0892
  730TMC3    C710849   0.829   1.077  16.996 -0.1313 -0.1100 -0.4469
  730TMC3    C810850   1.154   1.147  16.703 -0.0291  0.6823 -0.6037
  730TMC3    O110851   0.713   1.074  16.957  0.0816  0.7607 -0.3255
  730TMC3    O210852   1.191   1.133  16.586  0.0993 -0.0852  0.3187
  731MPD2     C10853   0.425   3.570  12.569  0.0157 -0.0575 -0.0323
  731MPD2    C110854   0.550   3.531  12.531 -0.1948 -0.1921  0.4613
  731MPD2    C210855   0.625   3.446  12.608 -0.7117 -0.2653 -0.0514
  731MPD2    C310856   0.574   3.404  12.732  0.1183 -0.1442 -0.2727
  731MPD2    C410857   0.448   3.457  12.772  0.6485  0.5545  0.5792
  731MPD2    C510858   0.376   3.539  12.692 -0.1025 -0.4131  0.3786
  731MPD2     H10859   0.720   3.412  12.569 -0.7870 -2.1851  1.4421
  731MPD2    H110860   0.406   3.420  12.865 -1.6246  0.8374 -0.3433
  731MPD2    H210861   0.363   3.642  12.515 -1.5974  0.5686  2.6309
  731MPD2    H310862   0.281   3.582  12.722 -0.0437 -0.4557  0.6247
  731MPD2     N10863   0.660   3.324  12.818  0.6952 -0.1412 -0.2823
  731MPD2    H510864   0.738   3.279  12.772  1.7239 -0.1541  1.4743
  731MPD2    N110865   0.593   3.580  12.412  0.3639 -0.9769  0.1080
  731MPD2    H710866   0.522   3.622  12.353  0.5929 -2.8287 -1.4847
  732TMC3    C110867   0.741   3.631  12.231  0.2587 -0.0933  0.5102
  732TMC3    C210868   0.626   3.629  12.150 -0.0333 -0.2747 -0.3608
  732TMC3    C310869   0.640   3.664  12.016 -0.1417 -0.8595  0.0386
  732TMC3    C410870   0.862   3.661  12.182  0.1479 -0.2102 -0.2877
  732TMC3    C510871   0.880   3.680  12.053  0.1624 -0.5323 -0.0847
  732TMC3    C610872   0.767   3.695  11.970 -0.2799 -0.5399  0.5499
  732TMC3     C10873   0.726   3.590  12.372  0.6525 -0.1519  0.3005
  732TMC3     O10874   0.831   3.577  12.436  0.1476 -0.0911  0.0294
  732TMC3     H10875   0.528   3.615  12.195 -0.7398  0.2711 -1.7236
  732TMC3    H110876   0.950   3.659  12.245  0.4067  0.6733 -0.6200
  732TMC3    H210877   0.779   3.701  11.863  0.2330  0.0396  0.6407
  732TMC3    C710878   1.003   3.663  11.976  0.0360  0.0789 -0.0417
  732TMC3    C810879   0.559   3.594  11.912 -0.1094  0.2245 -0.2667
  732TMC3    O110880   1.002   3.697  11.856  0.2940 -0.2916  0.4016
  732TMC3    O210881   0.565   3.644  11.798 -0.5796  0.2865  0.3371
  733TMC3    C110882   1.542   2.152  12.518  0.1819  0.8220  0.2963
  733TMC3    C210883   1.648   2.078  12.530 -0.1611  0.2043  0.0719
  733TMC3    C310884   1.735   2.082  12.427 -0.1894 -0.0407 -0.8939
  733TMC3    C410885   1.533   2.249  12.423 -0.0400  0.0717  0.6565
  733TMC3    C510886   1.624   2.259  12.329  0.3760  0.0843 -0.1627
  733TMC3    C610887   1.718   2.162  12.320  0.6438  0.1461  0.1654
  733TMC3     C10888   1.418   2.113  12.573 -0.2144 -0.0115 -0.2570
  733TMC3     O10889   1.322   2.183  12.544  0.2456 -0.2643 -0.2238
  733TMC3     H10890   1.666   2.021  12.621  0.6412  0.2006 -0.0885
  733TMC3    H110891   1.448   2.317  12.422 -0.5860 -0.6046  1.4225
  733TMC3    H210892   1.785   2.166  12.235 -0.0751  0.3814 -0.4001
  733TMC3    C710893   1.680   2.389  12.304 -0.6825 -0.0158  0.2824
  733TMC3    C810894   1.876   2.097  12.465 -0.4616  0.6441 -0.1820
  733TMC3    O110895   1.600   2.485  12.318  0.1208 -0.4151 -0.3381
  733TMC3    O210896   1.936   2.184  12.406  0.6233 -0.1354  0.1320
  734MPD2     C10897   3.346   0.188  12.469  0.6583  0.9843  0.4282
  734MPD2    C110898   3.248   0.097  12.452 -0.8293  0.0102  0.0514
  734MPD2    C210899   3.220   0.067  12.321  0.2756 -0.5053  0.8022
  734MPD2    C310900   3.271   0.132  12.208 -0.1141  0.2465 -0.5818
  734MPD2    C410901   3.366   0.227  12.232  0.0873 -0.2896  0.8492
  734MPD2    C510902   3.397   0.258  12.358  0.5212  0.0226  0.0112
  734MPD2     H10903   3.140   4.734  12.297  0.5403 -0.1339 -1.1454
  734MPD2    H110904   3.424   0.273  12.154  1.2442 -0.7005  1.4726
  734MPD2    H210905   3.376   0.218  12.568  5.4043  1.0199 -1.0327
  734MPD2    H310906   3.470   0.337  12.365  0.2083  0.3983 -0.9128
  734MPD2     N10907   3.227   0.084  12.086 -0.9880 -0.1226 -0.6087
  734MPD2    H510908   3.158   0.010  12.096  0.0336 -0.9778  0.1292
  734MPD2    N110909   3.202   0.020  12.563  0.0164  0.8008 -0.3147
  734MPD2    H710910   3.260   0.015  12.646  2.7923  3.0003 -2.0879
  735TMC3    C110911   3.070   4.587  12.666 -0.2104 -0.3978  0.1350
  735TMC3    C210912   2.944   4.527  12.643 -0.1807 -0.1624  0.8270
  735TMC3    C310913   2.931   4.389  12.631 -0.2897 -0.4917  0.1496
  735TMC3    C410914   3.180   4.501  12.657  0.2108  0.2492 -1.1140
  735TMC3    C510915   3.160   4.367  12.649 -0.3941  0.7571 -0.3524
  735TMC3    C610916   3.036   4.307  12.644  0.1794  0.0802 -0.0223
  735TMC3     C10917   3.088   4.681  12.561  0.2942  0.0625  0.0719
  735TMC3     O10918   3.003   4.676  12.474 -0.1218  0.0505  0.1058
  735TMC3     H10919   2.853   4.584  12.631  0.1915 -0.1213 -1.6433
  735TMC3    H110920   3.278   4.547  12.647  0.0780  0.3794 -1.7902
  735TMC3    H210921   3.025   4.203  12.613  1.5360  0.2168 -0.9380
  735TMC3    C710922   3.267   4.304  12.581 -0.9532 -0.0498  0.3636
  735TMC3    C810923   2.838   4.350  12.528  0.2586  0.0072  0.5062
  735TMC3    O110924   3.308   4.379  12.495 -0.2944 -0.4268 -0.0810
  735TMC3    O210925   2.781   4.242  12.543  0.4963 -0.4171 -0.4911
  736MPD2     C10926   3.402   3.964  12.590  0.0800 -1.1365 -0.9548
  736MPD2    C110927   3.397   4.100  12.560  0.0811 -1.0190 -0.5468
  736MPD2    C210928   3.499   4.156  12.484 -0.7565  0.3713  0.2650
  736MPD2    C310929   3.608   4.082  12.440 -0.5047 -0.2053 -0.5399
  736MPD2    C410930   3.599   3.944  12.459 -1.1793 -0.0473 -0.2085
  736MPD2    C510931   3.501   3.884  12.539 -0.6214  0.3210  0.1246
  736MPD2     H10932   3.499   4.263  12.468 -1.2453  0.6324  2.0516
  736MPD2    H110933   3.676   3.877  12.424 -1.5010  0.1986 -1.3936
  736MPD2    H210934   3.318   3.916  12.639 -0.4534  1.5881  0.7486
  736MPD2    H310935   3.500   3.777  12.556  0.1260  0.4165  0.7620
  736MPD2     N10936   3.729   4.127  12.374 -0.2738  0.0474 -0.1999
  736MPD2    H510937   3.787   4.054  12.335  1.0098  1.4456 -0.9231
  736MPD2    N110938   3.279   4.171  12.601  0.2152  0.5696 -0.1544
  736MPD2    H710939   3.226   4.136  12.680  0.2950  1.2302  0.1843
  737TMC3    C110940   3.803   4.272  12.197  1.2854  0.1778  0.4596
  737TMC3    C210941   3.766   4.381  12.117 -0.6831 -0.0110  0.6241
  737TMC3    C310942   3.839   4.400  12.000 -0.3902  0.3807  0.3899
  737TMC3    C410943   3.922   4.207  12.183 -0.5964  0.1565  0.3369
  737TMC3    C510944   3.992   4.244  12.065 -0.7709  0.2474  0.2924
  737TMC3    C610945   3.952   4.334  11.967 -0.1610 -0.0874 -0.0134
  737TMC3     C10946   3.742   4.260  12.325  0.3813  0.1767  0.1476
  737TMC3     O10947   3.696   4.363  12.367  0.1000  0.1124 -0.5604
  737TMC3     H10948   3.666   4.423  12.123 -1.5583 -1.8506 -1.2526
  737TMC3    H110949   3.952   4.130  12.253 -2.1079 -0.4699  0.2954
  737TMC3    H210950   4.011   4.386  11.892  1.1582  0.2888  1.2930
  737TMC3    C710951   4.117   4.166  12.033  0.5521 -0.3530  0.1712
  737TMC3    C810952   3.800   4.516  11.921  0.6825 -0.8274  0.1295
  737TMC3    O110953   4.168   4.096  12.120  0.0152 -0.6498 -0.0596
  737TMC3    O210954   3.742   4.612  11.979 -0.2286 -0.7238 -0.1933
  738MPD2     C10955   3.868   2.705  14.554  0.6924 -0.2397  0.0222
  738MPD2    C110956   3.937   2.587  14.599 -0.0712  0.2921 -0.5536
  738MPD2    C210957   4.047   2.606  14.681 -0.3047  0.6210  0.1696
  738MPD2    C310958   4.088   2.735  14.709 -0.1302  0.6310 -0.0936
  738MPD2    C410959   4.028   2.838  14.646  0.0905 -0.4013  0.1364
  738MPD2    C510960   3.920   2.830  14.566 -0.1706  0.3717  0.5129
  738MPD2     H10961   4.096   2.521  14.727 -3.0893 -0.1040  1.7769
  738MPD2    H110962   4.065   2.939  14.658 -0.8089  0.5303 -4.8734
  738MPD2    H210963   3.770   2.696  14.507  0.6617  0.2274  0.0052
  738MPD2    H310964   3.880   2.915  14.511  1.0665 -0.7702 -2.1367
  738MPD2     N10965   4.214   2.759  14.775 -0.5873 -0.2087 -0.3077
  738MPD2    H510966   4.241   2.855  14.788 -3.9225  0.6907  0.0233
  738MPD2    N110967   3.896   2.456  14.582  0.6491 -0.0045  0.5674
  738MPD2    H710968   3.946   2.386  14.636  0.1821 -1.5302 -0.9653
  739TMC3    C110969   4.432   2.726  14.853 -0.1619  0.6236  0.0350
  739TMC3    C210970   4.480   2.810  14.757  0.7160  0.7812  0.0707
  739TMC3    C310971   4.614   2.821  14.725 -0.7778 -0.0435  0.2552
  739TMC3    C410972   4.529   2.651  14.915  0.2306 -0.2128 -0.0627
  739TMC3    C510973   4.666   2.669  14.885 -0.0201 -0.5166  0.6104
  739TMC3    C610974   4.713   2.751  14.792 -0.1302  0.1487  0.0604
  739TMC3     C10975   4.306   2.661  14.813  0.2145 -0.6672 -0.3852
  739TMC3     O10976   4.298   2.540  14.818  0.4216  0.2820  0.1325
  739TMC3     H10977   4.410   2.865  14.695  1.1116  1.0386 -0.1481
  739TMC3    H110978   4.502   2.569  14.980 -0.3542 -1.1147 -1.4283
  739TMC3    H210979   0.077   2.755  14.754  0.4478 -2.9426  1.3187
  739TMC3    C710980   0.024   2.574  14.941  0.0714 -0.6502 -1.2831
  739TMC3    C810981   4.646   2.884  14.596  0.4704 -0.2408 -0.8252
  739TMC3    O110982   4.720   2.465  14.987  0.5561  0.4458  0.7940
  739TMC3    O210983   4.547   2.922  14.534  0.7344 -0.1524 -0.1821
  740TMC3    C110984   4.659   4.385  14.401 -0.2911 -0.2895  0.4533
  740TMC3    C210985   4.700   4.258  14.427  0.7700 -0.5161 -0.3389
  740TMC3    C310986   0.030   4.192  14.331  0.2253 -0.2762  0.1756
  740TMC3    C410987   4.698   4.446  14.284 -0.1693  0.0803 -0.2526
  740TMC3    C510988   0.023   4.368  14.187 -0.2993 -0.0652 -1.2355
  740TMC3    C610989   0.067   4.236  14.208  1.2117  0.0834  0.0484
  740TMC3     C10990   4.527   4.419  14.439  0.3063  0.0846 -0.7795
  740TMC3     O10991   4.464   4.475  14.350 -0.2517 -0.5766 -0.4267
  740TMC3     H10992   4.673   4.224  14.526 -1.2359 -0.5348 -0.9001
  740TMC3    H110993   4.667   4.547  14.259 -2.2119  0.1762  2.6572
  740TMC3    H210994   0.138   4.181  14.148  2.6079  0.6850  1.1536
  740TMC3    C710995   4.730   4.399  14.049  0.1550  0.5782 -0.5230
  740TMC3    C810996   0.055   4.055  14.370 -0.4338 -0.5013  0.4910
  740TMC3    O110997   4.634   4.475  14.029  0.3890  0.6347 -0.4362
  740TMC3    O210998   0.044   4.026  14.487  0.6932 -0.0521 -0.1832
  741TMC3    C110999   4.560   3.356  14.499 -0.7706  0.3073 -0.6121
  741TMC3    C211000   4.512   3.242  14.441  0.4720 -0.0436 -0.3792
  741TMC3    C311001   4.442   3.262  14.325  0.5223  0.1133 -0.0881
  741TMC3    C411002   4.562   3.482  14.444 -0.1385 -0.1561 -0.2668
  741TMC3    C511003   4.501   3.493  14.322 -0.3893 -1.2436  0.5593
  741TMC3    C611004   4.435   3.388  14.265  0.2275 -0.2994  0.3626
  741TMC3     C11005   4.551   3.350  14.640  0.0482  0.7106 -0.1830
  741TMC3     O11006   4.477   3.260  14.685  0.4266  0.3930  0.7039
  741TMC3     H11007   4.512   3.153  14.502  2.0024 -0.2051 -0.5973
  741TMC3    H111008   4.604   3.572  14.486  0.2062  0.0385 -1.0288
  741TMC3    H211009   4.372   3.412  14.180 -0.5822 -2.6199  0.2949
  741TMC3    C711010   4.464   3.623  14.281  0.3234 -0.2903 -0.7916
  741TMC3    C811011   4.351   3.160  14.273 -0.2168  0.0142  0.6367
  741TMC3    O111012   4.438   3.693  14.379 -0.2375  0.2928  0.6700
  741TMC3    O211013   4.277   3.197  14.183 -0.5453  0.1087 -0.0515
  742TMC3    C111014   4.283   2.147  15.352  0.2468 -0.5078  0.1726
  742TMC3    C211015   4.192   2.080  15.275 -0.0535  0.3485 -0.5069
  742TMC3    C311016   4.227   1.963  15.220  0.7053 -0.2259  0.7778
  742TMC3    C411017   4.417   2.105  15.366 -0.2459 -0.4230  0.7479
  742TMC3    C511018   4.447   1.987  15.300 -0.1113 -0.4437 -0.8920
  742TMC3    C611019   4.356   1.923  15.222  0.2952  0.2749 -0.5634
  742TMC3     C11020   4.241   2.269  15.419  0.4287 -0.1501  0.1402
  742TMC3     O11021   4.331   2.337  15.466  0.3359 -0.1560  0.1138
  742TMC3     H11022   4.098   2.126  15.247 -0.5278 -0.1698  0.2242
  742TMC3    H111023   4.490   2.156  15.427 -0.1935  0.7631 -0.2991
  742TMC3    H211024   4.385   1.829  15.176  1.2415 -0.1318  0.8937
  742TMC3    C711025   4.587   1.945  15.297 -0.7423 -0.0363 -0.2417
  742TMC3    C811026   4.137   1.896  15.128 -0.0177 -0.0333 -0.4548
  742TMC3    O111027   4.619   1.858  15.221  0.2452 -0.2784  0.1103
  742TMC3    O211028   4.170   1.844  15.024 -0.2004  0.3475  0.4466
  743MPD2     C11029   3.339   3.710   1.891  0.4970 -0.9192  0.3268
  743MPD2    C111030   3.321   3.650   1.772 -0.0248 -0.2099 -0.5026
  743MPD2    C211031   3.412   3.563   1.718 -0.5123  0.3738  0.1164
  743MPD2    C311032   3.527   3.540   1.787  0.8082 -0.5704 -0.1774
  743MPD2    C411033   3.542   3.599   1.908  0.5837 -0.6198 -0.4040
  743MPD2    C511034   3.447   3.675   1.965  0.4431 -0.0656 -0.0667
  743MPD2     H11035   3.392   3.513   1.624 -1.0948  0.6584  0.0863
  743MPD2    H111036   3.626   3.573   1.972  1.5918 -0.2856 -1.6021
  743MPD2    H211037   3.268   3.784   1.928  1.8464 -0.0909  1.2706
  743MPD2    H311038   3.455   3.692   2.072 -0.3561 -0.7022  0.0955
  743MPD2     N11039   3.624   3.455   1.725  0.0472  0.0589 -0.0838
  743MPD2    H511040   3.597   3.414   1.636 -0.4331 -1.6998  0.8539
  743MPD2    N111041   3.197   3.677   1.708  0.3176  0.3182  0.6261
  743MPD2    H711042   3.138   3.740   1.761  1.9736  2.1119  0.3186
  744TMC3    C111043   3.024   3.688   1.554  0.0849 -0.5813 -0.0640
  744TMC3    C211044   2.938   3.729   1.654 -0.9878  0.4129 -0.1765
  744TMC3    C311045   2.810   3.755   1.620 -0.9383 -0.0052 -0.1182
  744TMC3    C411046   2.985   3.677   1.424  0.3282  0.3298 -0.2728
  744TMC3    C511047   2.855   3.694   1.394 -0.3884  0.6592 -0.2046
  744TMC3    C611048   2.764   3.721   1.493 -0.0221  0.3236 -0.3091
  744TMC3     C11049   3.154   3.635   1.582  0.2820  0.3079 -0.1109
  744TMC3     O11050   3.223   3.581   1.500 -0.6336  0.2327 -0.8570
  744TMC3     H11051   2.982   3.751   1.750  2.0923  2.3077 -2.0451
  744TMC3    H111052   3.061   3.648   1.351 -0.7240 -0.6828 -0.9811
  744TMC3    H211053   2.660   3.718   1.461 -0.3000 -0.8321  0.7466
  744TMC3    C711054   2.828   3.654   1.256  0.3280  0.6717  0.1283
  744TMC3    C811055   2.714   3.844   1.697 -0.6469  0.3046  0.4536
  744TMC3    O111056   2.915   3.607   1.181 -0.3121 -0.0107 -0.1710
  744TMC3    O211057   2.601   3.838   1.646  0.2701 -0.3080 -0.1948
  745TMC3    C111058   0.273   1.501  13.344 -0.0250 -0.2318  0.4342
  745TMC3    C211059   0.163   1.509  13.422  0.0308  0.3572  0.0607
  745TMC3    C311060   0.049   1.514  13.352  0.3462  0.1961 -0.1191
  745TMC3    C411061   0.276   1.476  13.214 -0.8179 -0.1346  0.2547
  745TMC3    C511062   0.152   1.466  13.147  0.4199  0.1233 -0.2275
  745TMC3    C611063   0.039   1.481  13.222  0.2496  0.0037  0.4128
  745TMC3     C11064   0.351   1.625  13.353 -0.0427 -0.3465  0.1689
  745TMC3     O11065   0.422   1.651  13.256 -0.5668 -0.2569 -0.7451
  745TMC3     H11066   0.180   1.532  13.526  2.2164 -0.0714 -0.1929
  745TMC3    H111067   0.369   1.459  13.161 -0.7397 -1.8429  0.9275
  745TMC3    H211068   4.681   1.497  13.173  0.6755  1.7886  0.1837
  745TMC3    C711069   0.147   1.548  13.028 -0.0499  0.4131  0.3026
  745TMC3    C811070   4.662   1.557  13.414  1.2136 -0.3562 -0.0164
  745TMC3    O111071   0.062   1.528  12.941 -0.4319  0.3467 -0.6145
  745TMC3    O211072   4.554   1.514  13.371  0.3959 -0.7084  0.6331
  746TMC3    C111073   2.922   3.917  11.111 -0.0247 -0.2490 -0.0525
  746TMC3    C211074   2.983   3.924  10.992 -0.7547  0.0804  0.3734
  746TMC3    C311075   2.983   3.820  10.910  1.1538  0.3876 -0.4950
  746TMC3    C411076   2.878   3.802  11.165  0.3990 -0.7112 -0.4357
  746TMC3    C511077   2.880   3.692  11.083  0.4476 -0.0616 -0.6036
  746TMC3    C611078   2.936   3.697  10.951  0.3858 -0.1042 -0.0665
  746TMC3     C11079   2.829   4.025  11.148  0.5307  0.4362 -0.1263
  746TMC3     O11080   2.752   4.002  11.240 -0.6101  0.0749  0.0085
  746TMC3     H11081   3.024   4.020  10.961  1.4398 -1.5290 -1.7789
  746TMC3    H111082   2.842   3.792  11.267 -1.9536 -1.7226 -1.3776
  746TMC3    H211083   2.926   3.620  10.875 -0.2886 -2.3120  2.2375
  746TMC3    C711084   2.747   3.628  11.080  0.6130 -0.1033  0.3528
  746TMC3    C811085   3.053   3.819  10.787  0.0885 -0.0648  0.3161
  746TMC3    O111086   2.741   3.520  11.022 -0.6732  0.0372 -0.3695
  746TMC3    O211087   3.166   3.862  10.784 -0.4793 -0.0264 -0.1939
  747TMC3    C111088   4.412   4.235  11.103 -0.9921  0.1917  0.1894
  747TMC3    C211089   4.437   4.120  11.171  0.1929  0.4444 -0.3337
  747TMC3    C311090   4.342   4.077  11.261 -0.4075 -0.3765  0.2032
  747TMC3    C411091   4.304   4.318  11.127  0.3023  0.0578  0.2683
  747TMC3    C511092   4.216   4.279  11.222  0.5406  0.8940 -0.0794
  747TMC3    C611093   4.227   4.152  11.278  0.6942 -0.3194 -0.5858
  747TMC3     C11094   4.489   4.269  10.984  0.1642  0.1572 -0.6863
  747TMC3     O11095   4.453   4.359  10.907 -0.1323 -0.5687  0.1860
  747TMC3     H11096   4.525   4.059  11.158 -1.3390 -1.6583 -0.9694
  747TMC3    H111097   4.283   4.408  11.071  2.6266 -0.5394 -1.5724
  747TMC3    H211098   4.146   4.115  11.341 -1.7695  1.3774 -2.7299
  747TMC3    C711099   4.167   4.374  11.317  1.1229  0.6153  0.1243
  747TMC3    C811100   4.397   4.023  11.381 -0.0279  0.7208  0.5786
  747TMC3    O111101   4.151   4.333  11.432 -1.0276 -0.1715  0.3155
  747TMC3    O211102   4.486   3.940  11.382 -0.1805 -0.5376 -0.1660
  748MPD2     C11103   1.375   4.522   1.022 -0.1170 -0.2958 -0.8105
  748MPD2    C111104   1.399   4.655   1.012  0.1398 -0.5247 -0.4292
  748MPD2    C211105   1.532   4.698   1.026 -0.2096 -0.3677 -0.0442
  748MPD2    C311106   1.635   4.610   1.058 -0.2602 -0.4899 -0.2966
  748MPD2    C411107   1.613   4.476   1.065  0.3450  0.3311  0.1153
  748MPD2    C511108   1.479   4.437   1.047  0.1712  0.0230  0.6623
  748MPD2     H11109   1.563   0.063   1.017 -0.3867 -0.4971 -2.0325
  748MPD2    H111110   1.694   4.410   1.092 -0.4952 -1.0354 -0.7050
  748MPD2    H211111   1.275   4.480   1.018 -0.2772  0.1141 -1.1577
  748MPD2    H311112   1.456   4.332   1.057  2.9283 -0.7998 -1.7127
  748MPD2     N11113   1.767   4.662   1.074  0.5440  0.1403 -0.1068
  748MPD2    H511114   1.798   0.012   1.032 -0.9340  1.8271  2.3513
  748MPD2    N111115   1.291   4.736   0.982  0.5412 -0.0505  0.2174
  748MPD2    H711116   1.202   4.688   0.991 -0.0782  0.4145 -3.6818
  749TMC3    C111117   1.988   4.648   1.122  0.6095 -0.1244 -0.4027
  749TMC3    C211118   2.081   4.622   1.217 -0.6295 -0.2480 -0.0330
  749TMC3    C311119   2.214   4.612   1.178  0.4428 -0.0880 -0.3802
  749TMC3    C411120   2.019   4.665   0.992  0.0389 -0.2937 -0.4654
  749TMC3    C511121   2.151   4.652   0.956  0.4930  0.6300  0.4653
  749TMC3    C611122   2.250   4.625   1.047 -0.3315 -1.0589 -0.0349
  749TMC3     C11123   1.858   4.603   1.153 -0.3555 -0.0320  1.2089
  749TMC3     O11124   1.848   4.520   1.239 -0.0899 -0.5893 -0.5894
  749TMC3     H11125   2.053   4.610   1.321  1.7358 -1.3113  0.4780
  749TMC3    H111126   1.943   4.671   0.914 -1.5174 -0.4712  1.0427
  749TMC3    H211127   2.349   4.626   1.002  0.9763 -0.6960  2.8806
  749TMC3    C711128   2.195   4.680   0.824  0.6228  0.3488 -0.0184
  749TMC3    C811129   2.308   4.596   1.284 -0.0973 -0.3756 -0.5933
  749TMC3    O111130   2.149   0.042   0.766 -0.0634 -0.9256  0.0455
  749TMC3    O211131   2.255   4.602   1.391 -0.4972 -0.8286 -0.2962
  750MPD2     C11132   2.602   0.949  11.368 -0.5123 -0.1237  0.3319
  750MPD2    C111133   2.498   0.877  11.422  0.1134  0.4880  0.2182
  750MPD2    C211134   2.446   0.777  11.342  0.1839  0.4268  0.0186
  750MPD2    C311135   2.490   0.751  11.213 -0.1119  0.1965  0.4983
  750MPD2    C411136   2.585   0.836  11.164  0.4069  0.0113  0.1075
  750MPD2    C511137   2.641   0.934  11.239 -0.2711 -0.7376 -0.3270
  750MPD2     H11138   2.363   0.721  11.381 -0.8277  2.2316  0.4357
  750MPD2    H111139   2.638   0.820  11.071  3.0096 -0.8074  1.7236
  750MPD2    H211140   2.661   1.015  11.431 -0.0161  0.7124 -1.0099
  750MPD2    H311141   2.724   0.991  11.199  0.0270 -0.0774  1.2798
  750MPD2     N11142   2.444   0.639  11.135 -0.0989 -0.3191  0.1616
  750MPD2    H511143   2.490   0.625  11.045  0.2460  1.7073  0.0319
  750MPD2    N111144   2.444   0.910  11.548  0.4407  0.3719 -0.1014
  750MPD2    H711145   2.378   0.841  11.581  1.4805 -0.3637  0.4236
  751TMC3    C111146   2.328   0.450  11.055  0.6626 -0.2787 -0.2721
  751TMC3    C211147   2.236   0.347  11.087  0.0295  0.0532 -0.5449
  751TMC3    C311148   2.194   0.269  10.989 -0.5054 -0.0695  0.0787
  751TMC3    C411149   2.390   0.460  10.933 -1.6122  1.2637 -0.0869
  751TMC3    C511150   2.335   0.376  10.840  0.0503 -0.0208 -0.1309
  751TMC3    C611151   2.237   0.284  10.860 -0.0588  0.1398  0.4164
  751TMC3     C11152   2.366   0.531  11.168  0.2744 -0.0162 -0.3781
  751TMC3     O11153   2.309   0.523  11.274 -0.0267  0.2426  0.3694
  751TMC3     H11154   2.210   0.322  11.189 -0.0480  0.0908 -0.5555
  751TMC3    H111155   2.441   0.549  10.899 -0.7425  0.2945 -1.3258
  751TMC3    H211156   2.213   0.206  10.789  1.1996  1.3987 -1.3786
  751TMC3    C711157   2.411   0.380  10.715  0.1593  0.4410 -0.3867
  751TMC3    C811158   2.106   0.156  11.014 -0.4574  0.5213  0.2560
  751TMC3    O111159   2.526   0.414  10.723  0.1330  0.4165 -0.0254
  751TMC3    O211160   2.099   0.076  10.924  0.1441  0.3255  0.0762
  752TMC3    C111161   1.368   0.602  17.034  0.3845  0.0117  0.4383
  752TMC3    C211162   1.413   0.494  17.110  0.6422 -0.5926  1.0208
  752TMC3    C311163   1.359   0.492  17.237 -0.4924  0.1741  0.2642
  752TMC3    C411164   1.278   0.697  17.071 -0.5108 -0.3662  0.1626
  752TMC3    C511165   1.230   0.684  17.197  0.6717  0.0000 -0.2647
  752TMC3    C611166   1.273   0.585  17.281 -0.0732  0.4764 -0.7185
  752TMC3     C11167   1.414   0.602  16.895  0.0056  0.2741  0.0472
  752TMC3     O11168   1.507   0.526  16.860  0.0055  0.5114 -0.1246
  752TMC3     H11169   1.470   0.413  17.065 -0.8219 -2.1911  2.0275
  752TMC3    H111170   1.235   0.775  17.009  1.3992  0.0629 -0.6287
  752TMC3    H211171   1.225   0.566  17.377  1.6317 -0.1832  0.0062
  752TMC3    C711172   1.132   0.781  17.235 -0.0527 -0.2628 -0.8787
  752TMC3    C811173   1.374   0.372  17.317 -0.9741 -0.5310  0.4621
  752TMC3    O111174   1.124   0.883  17.164 -0.3531 -0.3029 -0.2260
  752TMC3    O211175   1.444   0.287  17.267  0.1452  0.2920  0.2554
  753TMC3    C111176   3.055   1.556  12.595  0.6280  0.5011  0.1182
  753TMC3    C211177   3.092   1.508  12.717 -0.1438 -0.1664  0.3980
  753TMC3    C311178   3.060   1.374  12.734  0.1079  0.3315  0.0831
  753TMC3    C411179   2.971   1.498  12.511  0.0657 -0.8749 -0.0369
  753TMC3    C511180   2.932   1.367  12.534 -1.0797 -0.4386  0.6414
  753TMC3    C611181   2.986   1.300  12.644 -0.5384  0.4715  0.0287
  753TMC3     C11182   3.068   1.698  12.573  0.1183 -0.8328  0.4192
  753TMC3     O11183   2.974   1.754  12.517 -0.6217 -0.3361 -0.5266
  753TMC3     H11184   3.147   1.566  12.791 -1.6867  1.1979  0.4719
  753TMC3    H111185   2.945   1.544  12.416 -0.1750 -0.4658  0.2305
  753TMC3    H211186   2.945   1.204  12.670  2.4730 -0.2908  1.9331
  753TMC3    C711187   2.835   1.306  12.450  0.4243 -0.5216  0.3914
  753TMC3    C811188   3.104   1.308  12.854  0.2040  0.4396  0.3942
  753TMC3    O111189   2.763   1.393  12.391  0.2008  0.6432  0.4433
  753TMC3    O211190   3.140   1.192  12.851 -0.1364 -0.2359 -0.2544
  754MPD2     C11191   2.144   0.807  13.419  0.0887 -0.8119 -0.1451
  754MPD2    C111192   2.198   0.685  13.447 -0.2295 -0.4288 -0.1184
  754MPD2    C211193   2.106   0.575  13.439 -0.2871  0.7670  0.3701
  754MPD2    C311194   1.976   0.590  13.411  0.2749 -0.3633 -0.0860
  754MPD2    C411195   1.928   0.711  13.376  0.0811  0.4503  0.0978
  754MPD2    C511196   2.009   0.820  13.375 -0.2706 -0.1072 -0.7971
  754MPD2     H11197   2.144   0.478  13.467  0.1968  0.9884  0.4889
  754MPD2    H111198   1.821   0.725  13.369  0.5133  3.0223 -1.2871
  754MPD2    H211199   2.208   0.893  13.437 -2.6424  0.7240  2.3443
  754MPD2    H311200   1.971   0.921  13.363 -2.4423 -0.6814  1.1528
  754MPD2     N11201   1.882   0.488  13.418  0.8213  0.6657  0.0539
  754MPD2    H511202   1.786   0.512  13.396  1.2830 -0.5548 -3.2876
  754MPD2    N111203   2.331   0.693  13.490  0.4006 -0.7582  0.4844
  754MPD2    H711204   2.363   0.787  13.469 -0.3381 -0.6630 -0.2055
  755MPD2     C11205   1.119   0.786  13.642 -0.1454 -0.0352 -0.7224
  755MPD2    C111206   1.118   0.662  13.707 -0.7889  0.0504  0.0707
  755MPD2    C211207   1.220   0.570  13.694  0.5142 -0.5867  0.2256
  755MPD2    C311208   1.329   0.589  13.614  0.0324 -0.4933  0.0642
  755MPD2    C411209   1.330   0.714  13.549 -0.4502  0.7982  1.0235
  755MPD2    C511210   1.235   0.808  13.572 -0.8901  0.2651 -0.2850
  755MPD2     H11211   1.214   0.472  13.739 -0.1274 -0.5044  0.3267
  755MPD2    H111212   1.407   0.739  13.477 -0.2657 -0.1331  0.8949
  755MPD2    H211213   1.040   0.861  13.642 -0.8995 -0.8269  0.0250
  755MPD2    H311214   1.242   0.898  13.513 -1.8828 -0.4673 -1.5265
  755MPD2     N11215   1.434   0.495  13.587  0.9084 -0.0945 -0.0826
  755MPD2    H511216   1.502   0.534  13.524  0.5790  1.9135  0.8011
  755MPD2    N111217   1.010   0.626  13.784 -0.1427  0.6733  0.4230
  755MPD2    H711218   1.013   0.529  13.814  3.6736  0.3295 -1.0171
  756MPD2     C11219   1.957   2.206  10.148 -0.3273  0.5245  0.3265
  756MPD2    C111220   1.880   2.128  10.230 -1.0301  0.8560 -0.7193
  756MPD2    C211221   1.750   2.089  10.189  0.7852 -0.7419  0.8632
  756MPD2    C311222   1.695   2.145  10.080  0.3530  0.5739 -0.2363
  756MPD2    C411223   1.776   2.226  10.000 -0.1787 -0.2189 -0.1091
  756MPD2    C511224   1.906   2.249  10.034  0.2599 -0.3663 -0.3150
  756MPD2     H11225   1.690   2.032  10.259 -0.4016 -0.6615 -0.0977
  756MPD2    H111226   1.747   2.267   9.904 -0.9896  0.8130  0.5802
  756MPD2    H211227   2.058   2.238  10.173 -0.5301  1.1782  0.3165
  756MPD2    H311228   1.966   2.313   9.970  0.4724  1.5577  1.8218
  756MPD2     N11229   1.555   2.128  10.062  0.0132  0.6727  0.2465
  756MPD2    H511230   1.511   2.054  10.116  0.5105 -0.4402 -0.8923
  756MPD2    N111231   1.936   2.078  10.353  0.1662 -0.8714  0.6608
  756MPD2    H711232   1.877   2.011  10.401 -0.2341 -1.4910 -0.7152
  757MPD2     C11233   1.155   1.368   9.871  0.2242  0.4049  0.3877
  757MPD2    C111234   1.285   1.419   9.901 -0.2008 -0.1451 -0.0207
  757MPD2    C211235   1.311   1.547   9.911 -0.4817  0.3036  0.0513
  757MPD2    C311236   1.204   1.635   9.883 -0.6811 -0.6656 -0.6615
  757MPD2    C411237   1.076   1.589   9.844 -0.1098 -0.0310 -1.0576
  757MPD2    C511238   1.059   1.454   9.831  0.3903 -0.8946  0.7154
  757MPD2     H11239   1.411   1.588   9.918 -0.7468  0.8915  0.4842
  757MPD2    H111240   1.005   1.660   9.802  1.8104  1.5709 -1.5708
  757MPD2    H211241   1.143   1.262   9.854 -3.2334  0.7612  0.7084
  757MPD2    H311242   0.961   1.416   9.804 -0.2107  1.0765  0.0861
  757MPD2     N11243   1.226   1.775   9.896  0.5457 -0.2644 -0.3400
  757MPD2    H511244   1.325   1.801   9.895  0.9057 -1.6775 -2.4858
  757MPD2    N111245   1.386   1.323   9.927  0.2261 -0.0204  0.3248
  757MPD2    H711246   1.367   1.228   9.897  0.8481 -1.3190  3.9938
  758MPD2     C11247   2.400   0.560  15.650 -0.1900  0.4216 -0.1726
  758MPD2    C111248   2.410   0.440  15.706  1.0416  0.3056 -1.0452
  758MPD2    C211249   2.336   0.410  15.822 -0.9029  0.7626 -0.7506
  758MPD2    C311250   2.246   0.504  15.878  0.0074 -0.0735 -0.0903
  758MPD2    C411251   2.220   0.617  15.800  0.4931 -0.1283 -0.4527
  758MPD2    C511252   2.307   0.645  15.701 -0.6613 -0.0760  0.8547
  758MPD2     H11253   2.352   0.315  15.871 -1.2014  1.2987  0.3691
  758MPD2    H111254   2.152   0.697  15.826  1.1777 -0.0514  1.1606
  758MPD2    H211255   2.444   0.595  15.558  2.2019 -1.3512  0.3028
  758MPD2    H311256   2.299   0.738  15.646  0.6257 -1.2831 -1.3850
  758MPD2     N11257   2.173   0.483  15.999 -0.5562 -0.6300 -0.9023
  758MPD2    H511258   2.103   0.554  16.017  0.7667  0.5853 -0.5320
  758MPD2    N111259   2.509   0.351  15.651  0.3029 -0.0715  0.4535
  758MPD2    H711260   2.577   0.383  15.583 -0.6675 -0.6241 -0.7577
  759MPD2     C11261   1.321   4.705  10.500 -0.4100  0.2732  0.5930
  759MPD2    C111262   1.236   4.625  10.426 -0.9420  0.4717 -0.5240
  759MPD2    C211263   1.232   4.637  10.291 -0.0113  0.0715 -0.8574
  759MPD2    C311264   1.300   4.733  10.223  0.0761  0.5347 -0.4423
  759MPD2    C411265   1.386   0.080  10.300  0.2235  0.2158  1.2827
  759MPD2    C511266   1.397   0.061  10.432 -0.2108 -0.5532  0.1280
  759MPD2     H11267   1.166   4.570  10.238 -1.1394  1.2606 -0.9522
  759MPD2    H111268   1.459   0.143  10.250 -1.0117 -0.1410 -0.9768
  759MPD2    H211269   1.334   4.699  10.607 -3.0331 -2.0757  0.7877
  759MPD2    H311270   1.478   0.114  10.481 -2.9620  3.1326  0.6683
  759MPD2     N11271   1.295   0.007  10.085 -0.4670  0.1919 -0.4473
  759MPD2    H511272   1.238   4.678  10.033  2.4331 -2.4208 -0.2382
  759MPD2    N111273   1.134   4.542  10.482  0.0352 -0.1417 -0.3567
  759MPD2    H711274   1.079   4.487  10.417 -1.6489  2.5334 -1.2119
  760MPD2     C11275   0.542   0.417  12.655 -0.2238 -0.8798  0.2252
  760MPD2    C111276   0.665   0.455  12.612 -0.0468 -0.2284  0.6650
  760MPD2    C211277   0.755   0.358  12.580  0.7455  0.1569 -0.2306
  760MPD2    C311278   0.734   0.226  12.585  0.6867 -0.0775 -0.0214
  760MPD2    C411279   0.617   0.180  12.637  0.6529 -0.0852 -0.6072
  760MPD2    C511280   0.522   0.283  12.668 -0.3048 -0.3170  0.3626
  760MPD2     H11281   0.852   0.404  12.561  0.4297  0.6870 -0.5393
  760MPD2    H111282   0.586   0.079  12.663  3.3940 -0.5623  0.8305
  760MPD2    H211283   0.470   0.494  12.681 -0.2435 -0.3328 -1.4945
  760MPD2    H311284   0.425   0.245  12.697  0.0123 -2.3542 -1.2533
  760MPD2     N11285   0.832   0.142  12.538  0.1349  0.4518  0.6942
  760MPD2    H511286   0.918   0.182  12.502 -0.4748  2.3876  1.3570
  760MPD2    N111287   0.708   0.585  12.597 -0.5545  0.0893  0.2007
  760MPD2    H711288   0.805   0.603  12.572 -1.0111  1.4908 -0.5858
  761MPD2     C11289   1.748   4.631  11.295  0.1972  0.0179  0.5724
  761MPD2    C111290   1.797   4.604  11.170 -0.1208  0.1845  1.1092
  761MPD2    C211291   1.892   4.693  11.117  0.1509  0.1941 -0.3800
  761MPD2    C311292   1.927   0.075  11.174 -0.4359 -0.0095 -0.5600
  761MPD2    C411293   1.864   0.104  11.295  0.2721  0.5598  0.3622
  761MPD2    C511294   1.772   0.021  11.345  0.4076  0.5968 -0.0163
  761MPD2     H11295   1.948   4.674  11.026  0.8925  1.9612 -0.3051
  761MPD2    H111296   1.893   0.193  11.351  0.0550  0.7162  0.2244
  761MPD2    H211297   1.672   4.567  11.338  0.8669 -1.3815 -0.3315
  761MPD2    H311298   1.733   0.043  11.444  1.6123  2.3221  0.0698
  761MPD2     N11299   2.036   0.161  11.132  0.2745  0.1901 -0.4232
  761MPD2    H511300   2.050   0.242  11.191 -2.0466 -1.2252  2.1428
  761MPD2    N111301   1.772   4.480  11.117  0.0736 -0.0938 -0.6673
  761MPD2    H711302   1.729   4.410  11.177 -1.9009  1.6688 -0.0166
  762MPD2     C11303   2.216   3.778  10.864  0.3792 -0.2492  0.7335
  762MPD2    C111304   2.141   3.866  10.787 -0.2083 -0.3718 -0.3264
  762MPD2    C211305   2.174   3.884  10.653  0.6462  0.4033 -0.1188
  762MPD2    C311306   2.293   3.835  10.609  0.1877 -0.3846  0.1657
  762MPD2    C411307   2.384   3.771  10.689 -0.1649  0.3743  0.2186
  762MPD2    C511308   2.344   3.740  10.812 -0.4274 -0.1502 -0.7032
  762MPD2     H11309   2.101   3.930  10.588 -1.6073 -0.6925  1.6232
  762MPD2    H111310   2.480   3.738  10.651  0.6210  3.9322 -0.9227
  762MPD2    H211311   2.192   3.750  10.965 -1.5516 -0.9467  0.0846
  762MPD2    H311312   2.398   3.668  10.871 -0.0018  1.2549  0.6190
  762MPD2     N11313   2.336   3.847  10.474 -0.4312  0.1049 -0.2208
  762MPD2    H511314   2.428   3.808  10.455 -0.2846  0.4389 -0.1877
  762MPD2    N111315   2.027   3.924  10.841 -0.9282  0.0554 -0.4040
  762MPD2    H711316   1.999   3.890  10.932  0.2096  2.0563  0.6815
  763MPD2     C11317   3.656   0.441  16.254 -0.2956  0.5101  0.3757
  763MPD2    C111318   3.764   0.451  16.166 -0.1117  0.6109 -0.2078
  763MPD2    C211319   3.845   0.564  16.164  0.6310  0.6755 -0.9326
  763MPD2    C311320   3.818   0.667  16.255  0.8077  0.2659  0.7143
  763MPD2    C411321   3.717   0.653  16.344  0.0622 -0.6699  0.3264
  763MPD2    C511322   3.635   0.545  16.337 -0.1209 -0.2246 -0.1307
  763MPD2     H11323   3.925   0.563  16.090  1.5328  0.5527  0.0355
  763MPD2    H111324   3.700   0.731  16.418  0.2344 -0.8610  0.5697
  763MPD2    H211325   3.596   0.352  16.270 -1.1553  0.9864 -0.2350
  763MPD2    H311326   3.561   0.525  16.413  0.2786  1.1289  0.6130
  763MPD2     N11327   3.891   0.788  16.260  0.3845 -0.7062 -0.3341
  763MPD2    H511328   3.860   0.861  16.323 -1.5858 -1.2352 -0.6849
  763MPD2    N111329   3.799   0.341  16.078 -1.2798 -0.7791 -0.4934
  763MPD2    H711330   3.867   0.369  16.008 -2.7555 -1.5069 -2.2032
  764MPD2     C11331   2.350   1.737   0.052  0.6193  0.1714  1.0388
  764MPD2    C111332   2.253   1.725  17.708  0.1350  0.0313 -0.6353
  764MPD2    C211333   2.122   1.667  17.735  0.3860 -0.0219  0.8842
  764MPD2    C311334   2.097   1.621   0.114  0.1008  0.9801  0.4041
  764MPD2    C411335   2.200   1.634   0.204  0.1076 -0.4691  0.2257
  764MPD2    C511336   2.321   1.688   0.175  0.1894 -0.7029 -0.2989
  764MPD2     H11337   2.045   1.658  17.658  0.0977  0.0103  1.1688
  764MPD2    H111338   2.187   1.608   0.309 -0.3546 -0.9596  0.0487
  764MPD2    H211339   2.448   1.778   0.036  0.8330 -1.1508 -1.0025
  764MPD2    H311340   2.393   1.709   0.253 -1.8044 -0.6355  1.5257
  764MPD2     N11341   1.968   1.567   0.139 -0.2278 -0.2968  0.2450
  764MPD2    H511342   1.917   1.569   0.052 -0.8321  1.6187  0.6454
  764MPD2    N111343   2.272   1.758  17.573  0.2394  0.5309  0.2434
  764MPD2    H711344   2.195   1.752  17.508 -0.3458 -0.9681  1.0858
  765MPD2     C11345   1.579   4.020  16.044 -0.4259 -0.0592 -0.0842
  765MPD2    C111346   1.649   4.116  15.972 -1.0313  0.3245  0.6071
  765MPD2    C211347   1.775   4.081  15.913  0.0369  0.2744  0.3581
  765MPD2    C311348   1.830   3.958  15.919  0.1423  0.1856  0.0359
  765MPD2    C411349   1.763   3.866  15.993  0.3982  0.8096  0.2399
  765MPD2    C511350   1.643   3.896  16.052  0.3441 -0.2176 -0.0934
  765MPD2     H11351   1.816   4.156  15.846 -1.9538  0.7705 -0.2925
  765MPD2    H111352   1.793   3.762  16.007  2.7475  1.4285 -0.2357
  765MPD2    H211353   1.490   4.049  16.100 -1.5331 -2.2179 -0.7442
  765MPD2    H311354   1.601   3.821  16.118  0.0065 -1.0573 -1.2723
  765MPD2     N11355   1.949   3.935  15.856  0.1673 -1.2038  1.0886
  765MPD2    H511356   1.975   4.009  15.792 -1.2829 -0.3648  1.4569
  765MPD2    N111357   1.594   4.242  15.943  0.4404  0.3807 -0.3152
  765MPD2    H711358   1.646   4.301  15.879 -0.4091 -0.0471 -1.3921
  766MPD2     C11359   1.052   4.173  15.486  0.6818 -0.4670  0.5531
  766MPD2    C111360   1.165   4.249  15.491 -0.6240 -0.5712 -0.5015
  766MPD2    C211361   1.272   4.216  15.404 -0.3721  0.2631 -0.1730
  766MPD2    C311362   1.252   4.120  15.306 -0.7483 -0.2522 -0.2241
  766MPD2    C411363   1.131   4.051  15.292 -0.0258 -0.4016  0.5354
  766MPD2    C511364   1.030   4.082  15.380 -0.1290  0.2605  0.1058
  766MPD2     H11365   1.365   4.271  15.414 -0.7822  1.4983 -3.0631
  766MPD2    H111366   1.118   3.993  15.201 -3.5897 -0.6115  1.1787
  766MPD2    H211367   0.981   4.188  15.566 -0.0549  1.2100 -0.4113
  766MPD2    H311368   0.935   4.031  15.370  0.6131 -0.7509 -1.7685
  766MPD2     N11369   1.352   4.088  15.206  0.0601  0.0860 -0.2157
  766MPD2    H511370   1.338   4.023  15.129  0.1614  2.2650 -2.0634
  766MPD2    N111371   1.188   4.335  15.599 -0.5155 -0.7067  0.5032
  766MPD2    H711372   1.138   4.325  15.687 -2.4730  2.9090 -0.2311
  767MPD2     C11373   1.049   4.390  15.169  0.5895 -1.1204  0.4192
  767MPD2    C111374   1.170   4.404  15.099 -0.3516 -0.2164 -0.3379
  767MPD2    C211375   1.191   4.338  14.980 -0.3304 -0.8266  0.3317
  767MPD2    C311376   1.092   4.266  14.922  0.8516  0.5449 -0.7637
  767MPD2    C411377   0.962   4.279  14.974  0.0416 -0.2924  0.1347
  767MPD2    C511378   0.944   4.340  15.097 -0.0456 -0.1117 -0.6573
  767MPD2     H11379   1.288   4.333  14.930 -0.5081 -1.6677  0.0651
  767MPD2    H111380   0.873   4.231  14.935 -0.4678 -1.1332  2.2764
  767MPD2    H211381   1.040   4.424  15.271 -0.6996  1.3161 -0.4875
  767MPD2    H311382   0.851   4.329  15.152  0.6885  0.1223  0.6361
  767MPD2     N11383   1.126   4.182  14.809 -0.2099 -0.2027  0.4925
  767MPD2    H511384   1.223   4.165  14.786 -1.1926 -4.8586 -0.1898
  767MPD2    N111385   1.266   4.485  15.163  0.7257  0.1191 -0.1110
  767MPD2    H711386   1.241   4.527  15.252  2.5819 -0.4718  0.6999
  768MPD2     C11387   2.625   3.477  10.542 -0.0563  0.2580 -0.5873
  768MPD2    C111388   2.577   3.415  10.650 -0.3750  0.0957  0.4485
  768MPD2    C211389   2.660   3.354  10.747 -1.2207 -0.0297 -0.4854
  768MPD2    C311390   2.800   3.362  10.732 -0.1441  0.1467 -0.6030
  768MPD2    C411391   2.845   3.444  10.626 -0.0503  0.2488  0.8713
  768MPD2    C511392   2.760   3.489  10.528  0.2492  0.0960 -0.6567
  768MPD2     H11393   2.633   3.303  10.838  1.7797 -1.4848 -0.4317
  768MPD2    H111394   2.945   3.487  10.629  0.0450  0.0581  0.2810
  768MPD2    H211395   2.559   3.538  10.482 -1.5462 -1.0052 -0.2527
  768MPD2    H311396   2.804   3.560  10.458 -0.9744  0.6043 -0.9022
  768MPD2     N11397   2.899   3.308  10.822 -0.5840 -0.2316  0.4935
  768MPD2    H511398   2.997   3.320  10.800 -0.4268  1.6514  2.3362
  768MPD2    N111399   2.434   3.397  10.675 -0.5739 -0.2753 -0.3865
  768MPD2    H711400   2.408   3.365  10.768  1.9202 -2.1282 -0.3290
  769MPD2     C11401   2.592   1.587  14.917 -0.6299 -0.4931  0.1123
  769MPD2    C111402   2.637   1.472  14.975  0.0122  0.0946 -0.3521
  769MPD2    C211403   2.713   1.481  15.091 -0.0700 -0.0685 -0.7284
  769MPD2    C311404   2.737   1.602  15.148 -0.2622 -0.0567 -0.2815
  769MPD2    C411405   2.681   1.717  15.102  0.1370 -0.1439 -0.1425
  769MPD2    C511406   2.612   1.704  14.986  0.1633 -0.5382 -0.3056
  769MPD2     H11407   2.750   1.391  15.137 -0.8708  0.8698  1.7443
  769MPD2    H111408   2.697   1.814  15.148  0.9117  1.1694 -3.1692
  769MPD2    H211409   2.530   1.594  14.828  0.8809  1.3031 -0.8099
  769MPD2    H311410   2.561   1.792  14.949  0.3535  0.5512  2.0508
  769MPD2     N11411   2.823   1.605  15.259  0.1929 -0.0698  0.3766
  769MPD2    H511412   2.860   1.514  15.284 -3.3331 -1.3601  0.9019
  769MPD2    N111413   2.601   1.353  14.907  0.0184 -0.1870 -0.1639
  769MPD2    H711414   2.556   1.369  14.817  0.0709 -2.8159 -0.6607
  770MPD2     C11415   2.826   0.302  14.706  0.2187 -0.1159 -0.2644
  770MPD2    C111416   2.691   0.316  14.744 -0.1333  0.4098 -0.2433
  770MPD2    C211417   2.639   0.443  14.752  0.2940 -0.7715 -0.4799
  770MPD2    C311418   2.712   0.560  14.725  0.0263 -0.6583  0.8530
  770MPD2    C411419   2.848   0.541  14.704 -0.8277  0.7580  0.3806
  770MPD2    C511420   2.903   0.413  14.688 -0.9492  0.1716 -0.3201
  770MPD2     H11421   2.535   0.457  14.779  0.5244 -0.3712  0.1838
  770MPD2    H111422   2.905   0.626  14.668 -1.3365  0.7369 -0.4680
  770MPD2    H211423   2.862   0.201  14.689  0.8170  0.0215  0.1782
  770MPD2    H311424   3.004   0.423  14.651 -0.6416  1.0178  0.7539
  770MPD2     N11425   2.644   0.682  14.736 -0.0701 -0.6987  0.5497
  770MPD2    H511426   2.548   0.686  14.770 -0.8877  1.7345 -2.0518
  770MPD2    N111427   2.611   0.201  14.736  1.1722 -0.5087  0.8796
  770MPD2    H711428   2.661   0.116  14.711  1.1841 -0.6805  1.4941
  771MPD2     C11429   3.978   3.800  13.439  0.0260  0.1733  0.3969
  771MPD2    C111430   3.868   3.880  13.438 -0.4188  0.6280  0.0484
  771MPD2    C211431   3.743   3.821  13.416 -0.1434  0.6092 -0.8845
  771MPD2    C311432   3.731   3.685  13.389 -0.3719 -0.0164 -0.9548
  771MPD2    C411433   3.844   3.618  13.389 -0.4889 -0.5617 -0.0820
  771MPD2    C511434   3.968   3.673  13.414 -0.3576 -1.0246 -0.2099
  771MPD2     H11435   3.657   3.886  13.404 -2.2539 -2.2625 -1.4379
  771MPD2    H111436   3.833   3.512  13.369  1.4278 -0.9308  0.8739
  771MPD2    H211437   4.079   3.833  13.461 -0.1768  0.9578  0.1440
  771MPD2    H311438   4.053   3.605  13.410  0.1828 -0.3627  0.0305
  771MPD2     N11439   3.606   3.634  13.345 -0.1935  0.4622  0.3250
  771MPD2    H511440   3.522   3.690  13.353 -1.3415 -1.2919  0.5894
  771MPD2    N111441   3.880   4.017  13.464  0.3890  0.2367 -0.4164
  771MPD2    H711442   3.791   4.060  13.487 -0.9268 -2.6220 -0.1880
  772MPD2     C11443   3.508   4.578  13.729 -0.1279  0.2284 -0.2193
  772MPD2    C111444   3.579   4.463  13.745 -0.1972  0.9207 -0.1619
  772MPD2    C211445   3.513   4.370  13.827 -0.4816 -0.1112 -0.3154
  772MPD2    C311446   3.398   4.399  13.902  0.3604  0.0225  0.2637
  772MPD2    C411447   3.349   4.526  13.895  0.5042  0.1128  0.0626
  772MPD2    C511448   3.406   4.617  13.808 -0.7967  0.3552 -0.1009
  772MPD2     H11449   3.558   4.272  13.839  1.5486  0.9485  0.8690
  772MPD2    H111450   3.265   4.555  13.957 -0.8172 -0.8195 -1.2947
  772MPD2    H211451   3.544   4.648  13.654  1.6177 -1.7175 -1.1984
  772MPD2    H311452   3.360   4.715  13.799 -0.5378  0.4210 -0.7065
  772MPD2     N11453   3.329   4.311  13.984  0.5283 -0.5836  0.1802
  772MPD2    H511454   3.245   4.348  14.027  1.0032 -1.4007  1.8040
  772MPD2    N111455   3.692   4.419  13.673  0.4952  0.0196  0.2465
  772MPD2    H711456   3.714   4.320  13.665 -4.0252 -0.9368 -0.3577
  773MPD2     C11457   2.723   0.092   0.249 -0.4234 -0.3373 -0.0279
  773MPD2    C111458   2.769   0.056   0.128  0.9798 -1.1060 -0.0788
  773MPD2    C211459   2.850   4.687   0.116  0.1998 -0.4219 -0.0547
  773MPD2    C311460   2.894   4.616   0.226 -0.2397 -0.0387  0.1624
  773MPD2    C411461   2.851   4.649   0.351 -0.2348  0.3796 -0.1830
  773MPD2    C511462   2.763   0.020   0.360 -0.5790 -0.3665 -0.3709
  773MPD2     H11463   2.891   4.653   0.022 -0.2522 -0.3726 -0.2679
  773MPD2    H111464   2.890   4.603   0.442 -2.0863 -0.2948  0.2684
  773MPD2    H211465   2.654   0.174   0.264  1.2485  1.1797 -0.6182
  773MPD2    H311466   2.721   0.064   0.449 -2.5393 -0.5882 -1.1924
  773MPD2     N11467   2.975   4.503   0.214 -0.1370  0.3147  0.2337
  773MPD2    H511468   3.029   4.476   0.295  0.0258 -1.3450 -0.4102
  773MPD2    N111469   2.732   0.121   0.011  0.4223  0.1936  0.2401
  773MPD2    H711470   2.764   0.071  17.678 -0.2316 -1.6499  1.1226
  774MPD2     C11471   2.628   4.405  13.746 -1.2227 -0.0033  0.8140
  774MPD2    C111472   2.497   4.423  13.794 -0.9032  0.7132  0.1485
  774MPD2    C211473   2.432   4.548  13.794  0.3733  0.6651 -0.1761
  774MPD2    C311474   2.501   4.660  13.752  0.6364  0.7877 -0.3564
  774MPD2    C411475   2.631   4.643  13.706  0.8485 -0.0271 -0.2863
  774MPD2    C511476   2.695   4.520  13.707  0.4441 -0.3259  0.1731
  774MPD2     H11477   2.337   4.570  13.840  0.1729 -0.2172 -0.1806
  774MPD2    H111478   2.685   4.720  13.652  1.8127  0.5607  1.4963
  774MPD2    H211479   2.683   4.312  13.740 -0.0624  0.7881 -0.9349
  774MPD2    H311480   2.797   4.506  13.674 -0.1583 -1.0659 -1.3727
  774MPD2     N11481   2.437   0.040  13.747  0.1964 -0.0310  0.2148
  774MPD2    H511482   2.336   0.043  13.759 -0.0332  0.7939 -1.8643
  774MPD2    N111483   2.423   4.307  13.804  0.2194  0.3339 -0.3194
  774MPD2    H711484   2.475   4.222  13.782  2.9732  1.6065  1.3543
  775MPD2     C11485   3.318   0.825  15.740  0.7182  0.2731 -0.5971
  775MPD2    C111486   3.275   0.956  15.771  0.3924  0.5317 -0.2605
  775MPD2    C211487   3.304   1.044  15.673  0.0001 -0.5852  0.0791
  775MPD2    C311488   3.386   1.020  15.558 -0.2144  0.3700  0.1115
  775MPD2    C411489   3.428   0.897  15.533  0.6410 -0.6498  0.3455
  775MPD2    C511490   3.396   0.799  15.625 -0.6275 -0.7351  0.0249
  775MPD2     H11491   3.261   1.141  15.698 -1.3797 -0.6090 -2.1746
  775MPD2    H111492   3.485   0.877  15.444 -1.1824 -3.9410 -0.1052
  775MPD2    H211493   3.296   0.743  15.808  0.2384  1.1281  0.2852
  775MPD2    H311494   3.418   0.698  15.593 -0.9288 -0.6763 -0.3685
  775MPD2     N11495   3.417   1.128  15.464 -0.1161  0.5035 -0.2005
  775MPD2    H511496   3.446   1.096  15.372 -2.9860 -0.6171 -0.7196
  775MPD2    N111497   3.200   0.978  15.889 -0.2924  0.5516 -0.3526
  775MPD2    H711498   3.148   0.898  15.922  1.9571 -1.0361 -0.6908
  776MPD2     C11499   1.809   1.247  11.774 -0.5776 -0.4824  0.0470
  776MPD2    C111500   1.935   1.305  11.796  0.4434  0.0763  0.5376
  776MPD2    C211501   1.951   1.439  11.766  0.7136 -0.7345  0.2450
  776MPD2    C311502   1.848   1.515  11.707 -0.2558 -1.0393  0.2525
  776MPD2    C411503   1.725   1.456  11.690 -0.2735 -0.2950  0.0130
  776MPD2    C511504   1.700   1.321  11.727  0.3994 -0.7154  0.2988
  776MPD2     H11505   2.048   1.484  11.786  2.0622 -4.0288  1.0934
  776MPD2    H111506   1.641   1.502  11.639  0.2779  1.2989  0.5494
  776MPD2    H211507   1.797   1.140  11.790 -1.8526 -0.3067  0.2874
  776MPD2    H311508   1.604   1.271  11.718 -0.3105  0.3354  1.9710
  776MPD2     N11509   1.862   1.645  11.665  0.8101 -0.2498 -0.4017
  776MPD2    H511510   1.779   1.694  11.633  1.2279 -0.9733 -2.5753
  776MPD2    N111511   2.044   1.229  11.852 -0.3534 -0.2538  0.2953
  776MPD2    H711512   2.024   1.130  11.843 -4.3816  0.5158  0.6203
  777MPD2     C11513   3.466   4.033   0.651 -0.6239 -1.1931  0.5534
  777MPD2    C111514   3.345   4.027   0.716 -0.2031 -0.9489 -0.1377
  777MPD2    C211515   3.254   3.926   0.684 -0.2526 -0.0401 -0.4500
  777MPD2    C311516   3.288   3.835   0.591 -0.5094 -0.6618 -1.1016
  777MPD2    C411517   3.408   3.834   0.529 -0.4799  0.2323 -0.2250
  777MPD2    C511518   3.493   3.936   0.556 -0.7147  0.4956 -0.0907
  777MPD2     H11519   3.157   3.919   0.732 -0.8678  1.6587 -1.4236
  777MPD2    H111520   3.440   3.768   0.449  0.5331  0.3262  0.1086
  777MPD2    H211521   3.540   4.109   0.675 -1.8422 -0.0594  0.7620
  777MPD2    H311522   3.589   3.933   0.506 -0.8526 -0.6944 -0.2852
  777MPD2     N11523   3.184   3.742   0.560 -0.0713 -0.2640  0.7655
  777MPD2    H511524   3.093   3.747   0.607 -1.1918 -1.3494 -1.3095
  777MPD2    N111525   3.316   4.123   0.820 -0.5149  0.0697  0.0396
  777MPD2    H711526   3.397   4.166   0.865 -0.3792  0.1028 -0.2396
  778MPD2     C11527   3.786   4.065  14.772 -0.0476 -0.0228 -0.3162
  778MPD2    C111528   3.889   3.976  14.755 -0.0346 -0.1452 -0.5746
  778MPD2    C211529   3.976   3.993  14.646 -0.4503 -0.0035  0.3503
  778MPD2    C311530   3.968   4.094  14.557  0.2757  0.5952  0.9530
  778MPD2    C411531   3.858   4.179  14.570  0.0905 -0.5699  0.2704
  778MPD2    C511532   3.775   4.168  14.676 -0.2524 -0.2527  0.2697
  778MPD2     H11533   4.064   3.931  14.631 -0.2220  0.0441  1.4743
  778MPD2    H111534   3.848   4.266  14.506 -0.2878 -0.3640  0.6091
  778MPD2    H211535   3.706   4.050  14.845 -0.8585 -0.9186 -1.3805
  778MPD2    H311536   3.699   4.244  14.689  1.0116  0.6400  2.5387
  778MPD2     N11537   4.060   4.093  14.444 -0.3771 -0.1482  0.0238
  778MPD2    H511538   4.125   4.017  14.429 -0.3049 -0.2822  1.0294
  778MPD2    N111539   3.903   3.863  14.837 -0.0250 -0.7786  0.7638
  778MPD2    H711540   3.969   3.788  14.817  0.1694 -0.5263  0.4590
  779MPD2     C11541   3.289   2.438  13.413 -0.1261 -0.2148 -0.4787
  779MPD2    C111542   3.361   2.376  13.515  0.0494 -0.0466  0.2979
  779MPD2    C211543   3.442   2.457  13.599  0.0251  0.3982  0.0234
  779MPD2    C311544   3.444   2.591  13.577  0.1366  0.0597  0.0318
  779MPD2    C411545   3.364   2.648  13.479 -0.9818 -0.0231  0.3187
  779MPD2    C511546   3.296   2.572  13.392  0.1948  0.2943  0.0683
  779MPD2     H11547   3.506   2.415  13.675 -0.4913  0.9977  0.7921
  779MPD2    H111548   3.351   2.755  13.466 -0.4283  0.1326  1.0097
  779MPD2    H211549   3.223   2.385  13.345  2.1543 -1.4425 -1.7262
  779MPD2    H311550   3.223   2.619  13.326  0.6393  1.9510  0.7497
  779MPD2     N11551   3.503   2.689  13.666  0.3116  0.5357  0.0189
  779MPD2    H511552   3.475   2.785  13.648  2.9851  1.2497 -0.3425
  779MPD2    N111553   3.347   2.235  13.544 -0.7276 -0.5429 -0.0754
  779MPD2    H711554   3.367   2.214  13.641 -0.0232  2.0332  0.3249
  780MPD2     C11555   4.033   2.675   0.804  0.1478  0.7628 -0.0042
  780MPD2    C111556   3.906   2.684   0.841 -0.3508  0.0260  0.2686
  780MPD2    C211557   3.825   2.776   0.779  0.2323  0.6905  0.0705
  780MPD2    C311558   3.873   2.851   0.678  0.3461 -0.1236  0.0759
  780MPD2    C411559   4.006   2.858   0.661  0.5315 -0.1378  0.5842
  780MPD2    C511560   4.084   2.760   0.716 -0.1789  0.1652 -0.4126
  780MPD2     H11561   3.719   2.771   0.803  0.7135  2.5845  2.5741
  780MPD2    H111562   4.055   2.922   0.589  0.7041 -0.0317  0.7962
  780MPD2    H211563   4.096   2.598   0.846 -1.3485  0.0695  0.9732
  780MPD2    H311564   4.187   2.749   0.683 -0.1874 -0.3961 -0.2458
  780MPD2     N11565   3.772   2.926   0.608 -0.4282  0.0789  0.3090
  780MPD2    H511566   3.674   2.904   0.618 -0.6293  0.9006  0.1747
  780MPD2    N111567   3.869   2.590   0.939  0.2782 -0.4609 -0.1659
  780MPD2    H711568   3.938   2.521   0.967  1.0751 -0.1794 -1.4258
  781MPD2     C11569   4.200   4.270  12.596  0.8604 -0.5566  0.3569
  781MPD2    C111570   4.268   4.262  12.477  0.4834 -0.7991  0.7059
  781MPD2    C211571   4.229   4.342  12.369 -0.7202  0.1369 -0.3325
  781MPD2    C311572   4.115   4.429  12.380  1.2746  0.9739 -0.1901
  781MPD2    C411573   4.044   4.427  12.498 -0.7686 -0.1542  0.3859
  781MPD2    C511574   4.087   4.352  12.603  0.1855  0.7636 -0.2054
  781MPD2     H11575   4.287   4.344  12.278 -2.2346 -1.1164 -1.3165
  781MPD2    H111576   3.958   4.493  12.507 -0.7594 -0.4391  2.5604
  781MPD2    H211577   4.228   4.199  12.673  1.7294 -1.2092 -0.5595
  781MPD2    H311578   4.029   4.363  12.694  1.7567 -0.3519  0.9263
  781MPD2     N11579   4.073   4.520  12.281  0.4592 -0.2343 -0.8591
  781MPD2    H511580   3.990   4.577  12.298  2.8367  2.8606  0.4425
  781MPD2    N111581   4.376   4.169  12.458  0.6567 -0.3196 -0.1645
  781MPD2    H711582   4.397   4.145  12.362 -1.9511 -1.0398 -0.5572
  782MPD2     C11583   2.809   0.826  10.125 -0.2515  0.1073 -0.5849
  782MPD2    C111584   2.928   0.762  10.127  0.5463 -0.2973  0.5078
  782MPD2    C211585   3.002   0.771  10.242 -0.0685 -0.1582 -0.3647
  782MPD2    C311586   2.953   0.836  10.358 -0.5900  0.3412 -0.3402
  782MPD2    C411587   2.832   0.906  10.340 -0.2373 -0.4245 -0.6021
  782MPD2    C511588   2.765   0.900  10.224  0.2353  0.2021 -0.2859
  782MPD2     H11589   3.102   0.734  10.258 -1.1908 -2.5799  1.1900
  782MPD2    H111590   2.778   0.950  10.423  0.3169  1.7925 -1.4284
  782MPD2    H211591   2.746   0.822  10.037 -0.3241  2.6080 -0.6294
  782MPD2    H311592   2.674   0.960  10.228  0.8247  1.0931 -0.2771
  782MPD2     N11593   3.014   0.827  10.490 -0.8681  0.2868  0.1145
  782MPD2    H511594   3.105   0.784  10.505 -3.1596 -3.9678  1.6637
  782MPD2    N111595   2.968   0.678  10.021  0.4487 -0.4247 -0.0595
  782MPD2    H711596   2.898   0.648   9.954 -0.7433  2.5551 -0.1518
  783MPD2     C11597   2.336   0.197  10.393 -0.0098  0.1336  0.3508
  783MPD2    C111598   2.406   0.280  10.477 -0.1976 -0.4162 -0.1301
  783MPD2    C211599   2.521   0.330  10.429 -0.1726  0.1272  0.0230
  783MPD2    C311600   2.566   0.300  10.295 -0.2911  0.2025  0.0063
  783MPD2    C411601   2.493   0.208  10.217 -0.9629 -0.3050  0.0948
  783MPD2    C511602   2.384   0.154  10.273 -0.2065  0.4341  0.3095
  783MPD2     H11603   2.579   0.402  10.485 -1.8649  1.3357  0.2064
  783MPD2    H111604   2.522   0.184  10.116  1.2443 -3.7064  1.5261
  783MPD2    H211605   2.236   0.162  10.416  0.9437 -1.6297  1.7943
  783MPD2    H311606   2.319   0.088  10.217 -1.9879  2.3383  0.1575
  783MPD2     N11607   2.693   0.344  10.257  0.4371 -0.6867  0.1264
  783MPD2    H511608   2.734   0.405  10.327  1.3225 -2.1300  0.8748
  783MPD2    N111609   2.352   0.308  10.604 -0.4414 -0.1282  0.4009
  783MPD2    H711610   2.261   0.268  10.624  0.1669 -1.4395  0.5221
  784MPD2     C11611   0.806   1.291   0.519  0.3918 -0.2195 -0.3542
  784MPD2    C111612   0.821   1.328   0.652  0.3954 -0.8155  0.2700
  784MPD2    C211613   0.708   1.366   0.724 -0.4224  0.7470 -0.0196
  784MPD2    C311614   0.587   1.348   0.665  0.3286  0.1368  1.2818
  784MPD2    C411615   0.575   1.287   0.544  0.0404  0.0679  0.5296
  784MPD2    C511616   0.683   1.266   0.468 -0.1488 -0.0100 -0.1211
  784MPD2     H11617   0.715   1.410   0.823  1.8599  0.3494  0.0012
  784MPD2    H111618   0.483   1.259   0.494  0.6181  0.0583 -0.5447
  784MPD2    H211619   0.890   1.266   0.455  2.3259  2.1192  1.2640
  784MPD2    H311620   0.678   1.220   0.370  3.0441 -0.6256 -0.0066
  784MPD2     N11621   0.483   1.408   0.732 -0.4017  0.4398  0.1978
  784MPD2    H511622   0.510   1.466   0.811  1.3186  2.1233 -1.6422
  784MPD2    N111623   0.946   1.343   0.715 -0.1398 -0.0944  0.1489
  784MPD2    H711624   0.955   1.368   0.813 -1.3261  0.1936  0.1857
  785MPD2     C11625   0.243   4.486  10.043 -0.4117  0.7142  0.4963
  785MPD2    C111626   0.186   4.609  10.060  0.2737 -0.3323 -0.0707
  785MPD2    C211627   0.102   4.651   9.965  0.4942 -0.5031  0.6932
  785MPD2    C311628   0.067   4.578   9.854 -0.7481  0.1314 -0.6423
  785MPD2    C411629   0.121   4.448   9.841 -0.2839 -0.0880 -0.5260
  785MPD2    C511630   0.213   4.410   9.934 -0.3708  0.2397 -0.5355
  785MPD2     H11631   0.052   0.009   9.969  0.4492 -0.5109  0.2282
  785MPD2    H111632   0.098   4.381   9.759 -2.0916  1.8921 -1.6212
  785MPD2    H211633   0.300   4.446  10.126 -0.5745 -1.2626 -0.3302
  785MPD2    H311634   0.254   4.310   9.927 -0.1027  0.2554  0.8745
  785MPD2     N11635   4.723   4.644   9.761 -0.2026  0.3554 -0.2655
  785MPD2    H511636   4.696   4.736   9.793  0.5583  0.5236 -0.1042
  785MPD2    N111637   0.221   4.679  10.174 -0.3043 -0.6476 -0.3756
  785MPD2    H711638   0.286   4.641  10.241 -1.0523  0.9877  1.2717
  786MPD2     C11639   3.673   1.678  15.043  0.0809  0.3222  0.1936
  786MPD2    C111640   3.798   1.652  14.980 -0.4638  0.4174  0.0027
  786MPD2    C211641   3.912   1.721  15.026  0.4225  0.5839  0.8266
  786MPD2    C311642   3.907   1.826  15.120 -0.2953 -0.3184  0.9776
  786MPD2    C411643   3.777   1.851  15.170 -0.2292  0.1181  0.2507
  786MPD2    C511644   3.661   1.776  15.135  0.5648  0.4517  0.7397
  786MPD2     H11645   4.012   1.700  14.989 -0.2232  1.0923 -1.2357
  786MPD2    H111646   3.768   1.929  15.245 -1.1643 -0.5234  0.8132
  786MPD2    H211647   3.584   1.625  15.012 -0.1382 -0.2351  1.7981
  786MPD2    H311648   3.568   1.800  15.185  0.2434 -1.8537  1.2662
  786MPD2     N11649   4.012   1.897  15.179  0.1153 -0.7826 -0.1352
  786MPD2    H511650   3.992   1.951  15.262  0.2734 -1.7151  0.5192
  786MPD2    N111651   3.817   1.554  14.879 -0.0601 -0.3341  0.3522
  786MPD2    H711652   3.910   1.530  14.847  0.1469 -0.4166  1.0148
  787MPD2     C11653   4.225   1.111  14.972 -0.1807 -0.6998  0.2278
  787MPD2    C111654   4.204   1.117  14.836 -0.1065  0.3962 -0.2785
  787MPD2    C211655   4.298   1.056  14.756 -0.7674 -0.0177 -0.0794
  787MPD2    C311656   4.404   0.978  14.805  0.2116  0.3080 -0.2216
  787MPD2    C411657   4.430   0.979  14.938  0.7761  0.0558 -0.4779
  787MPD2    C511658   4.336   1.043  15.020 -0.2286  0.8241  0.1648
  787MPD2     H11659   4.281   1.066  14.649 -0.0867  3.1674  0.1249
  787MPD2    H111660   4.514   0.944  14.998  2.2939 -1.9228 -3.7616
  787MPD2    H211661   4.166   1.171  15.040 -2.1211 -1.6798 -0.5947
  787MPD2    H311662   4.363   1.053  15.125 -0.7205 -0.1939  0.3955
  787MPD2     N11663   4.487   0.921  14.710 -0.3773 -0.6370 -0.4421
  787MPD2    H511664   4.467   0.921  14.611 -0.8856  4.5642 -0.3452
  787MPD2    N111665   4.091   1.188  14.792 -0.0312 -0.0211 -0.1887
  787MPD2    H711666   4.035   1.229  14.866 -0.7168 -0.2203 -0.6052
  788MPD2     C11667   2.187   0.332   0.566 -0.2801 -0.1223  0.3877
  788MPD2    C111668   2.058   0.305   0.535 -0.3817 -0.3192  0.3223
  788MPD2    C211669   1.982   0.399   0.465  0.3865  0.3004  0.2887
  788MPD2    C311670   2.039   0.519   0.427  0.0142  0.0424 -0.3363
  788MPD2    C411671   2.170   0.552   0.472  0.7094 -0.4853  0.8794
  788MPD2    C511672   2.247   0.454   0.533  0.4158 -0.7816 -0.1295
  788MPD2     H11673   1.880   0.378   0.433  1.3800 -0.3594 -2.4932
  788MPD2    H111674   2.211   0.652   0.460  1.1436 -0.9211 -1.3062
  788MPD2    H211675   2.238   0.248   0.612 -0.8480  0.6180  2.3861
  788MPD2    H311676   2.349   0.478   0.557  1.0556 -2.2426 -1.3365
  788MPD2     N11677   1.983   0.614   0.344  0.2163 -0.2527  0.6343
  788MPD2    H511678   2.036   0.692   0.307  1.8973 -1.5045  0.3738
  788MPD2    N111679   2.004   0.174   0.572  0.6421  0.1003 -0.1552
  788MPD2    H711680   2.073   0.115   0.617  0.4081 -0.2325 -0.2345
  789MPD2     C11681   1.912   4.730  16.157 -0.4454 -0.8628  0.2872
  789MPD2    C111682   1.863   4.631  16.235 -0.1550 -0.2235  0.3250
  789MPD2    C211683   1.778   4.663  16.337  0.2040  0.2960 -0.2735
  789MPD2    C311684   1.760   0.064  16.362  0.3081  0.2161  0.0441
  789MPD2    C411685   1.831   0.162  16.294 -0.4025  0.8291  0.6440
  789MPD2    C511686   1.898   0.127  16.187  0.6512  0.5218 -0.5123
  789MPD2     H11687   1.731   4.587  16.397  0.7296  0.1661 -0.0250
  789MPD2    H111688   1.825   0.269  16.310  2.9090  1.3085 -1.3323
  789MPD2    H211689   1.978   4.719  16.072 -0.0429 -1.7581  0.7155
  789MPD2    H311690   1.944   0.194  16.115  1.9507  1.2740  1.0092
  789MPD2     N11691   1.669   0.118  16.453 -0.4424 -0.0130  0.0858
  789MPD2    H511692   1.652   0.218  16.441 -2.1626 -0.0438  2.2753
  789MPD2    N111693   1.901   4.500  16.229  0.0541 -0.2009 -0.6155
  789MPD2    H711694   1.864   4.442  16.305  0.6398 -0.2499 -0.3679
  790MPD2     C11695   2.799   1.170  13.215 -0.2943  0.1287  0.4815
  790MPD2    C111696   2.664   1.209  13.243  0.6588 -0.2432  0.5090
  790MPD2    C211697   2.581   1.249  13.134 -0.6429 -0.0307  0.1920
  790MPD2    C311698   2.632   1.256  13.007 -0.1576  0.1679 -0.6094
  790MPD2    C411699   2.768   1.221  12.988  0.3629 -0.1166 -0.2041
  790MPD2    C511700   2.847   1.172  13.089  0.8935 -0.7282  0.1167
  790MPD2     H11701   2.487   1.297  13.156 -0.9009 -0.3245 -0.2628
  790MPD2    H111702   2.817   1.222  12.891 -1.1157 -0.3092 -0.9568
  790MPD2    H211703   2.867   1.158  13.299  0.6169  0.2055 -0.2398
  790MPD2    H311704   2.952   1.152  13.071  1.1763  0.2018  0.7149
  790MPD2     N11705   2.541   1.296  12.904  0.3478 -0.0048  0.7644
  790MPD2    H511706   2.444   1.309  12.930 -0.7938 -0.9978 -3.0754
  790MPD2    N111707   2.634   1.222  13.381  0.6233  0.3138 -0.6661
  790MPD2    H711708   2.684   1.168  13.451 -1.6322 -3.4972 -1.9905
  791MPD2     C11709   1.798   1.426  12.494  0.6371 -0.1565  0.1539
  791MPD2    C111710   1.871   1.349  12.579  0.2102  0.4804 -0.1463
  791MPD2    C211711   1.808   1.250  12.651  0.0334 -0.7133  0.1712
  791MPD2    C311712   1.669   1.232  12.643 -0.1117 -0.3245 -0.2717
  791MPD2    C411713   1.607   1.313  12.557  0.2520 -0.4167  0.4023
  791MPD2    C511714   1.666   1.406  12.480  0.2627 -0.0773  0.0130
  791MPD2     H11715   1.861   1.180  12.713  0.9915  0.7808  1.0445
  791MPD2    H111716   1.499   1.312  12.546  0.3912  0.1813 -0.9438
  791MPD2    H211717   1.840   1.493  12.420  1.2587 -1.7631 -0.9369
  791MPD2    H311718   1.610   1.451  12.399  0.1603 -2.1752 -1.1062
  791MPD2     N11719   1.606   1.141  12.736 -0.2238 -0.0592  0.5912
  791MPD2    H511720   1.657   1.083  12.801 -1.7253  0.5847  2.3335
  791MPD2    N111721   2.006   1.356  12.564 -0.6866  0.2201 -0.3408
  791MPD2    H711722   2.045   1.426  12.502 -0.0031  0.3449  0.2297
  792MPD2     C11723   2.926   1.475  11.492  0.0414  0.0677 -0.7299
  792MPD2    C111724   2.843   1.581  11.477  0.0795  0.0168  0.3110
  792MPD2    C211725   2.708   1.561  11.462  0.4173 -0.3475 -0.2212
  792MPD2    C311726   2.664   1.427  11.454 -0.6280 -0.5938  0.1883
  792MPD2    C411727   2.752   1.322  11.461 -0.2532 -0.1343 -0.0181
  792MPD2    C511728   2.883   1.347  11.480 -0.1233 -0.4075 -0.4809
  792MPD2     H11729   2.638   1.643  11.464 -0.9483 -1.4618 -2.7591
  792MPD2    H111730   2.716   1.222  11.441 -0.8723  0.2829 -0.9864
  792MPD2    H211731   3.033   1.475  11.512 -0.0920  0.2619 -0.0033
  792MPD2    H311732   2.958   1.269  11.479 -1.1258 -1.3634 -1.7565
  792MPD2     N11733   2.534   1.389  11.433 -0.5538 -0.5695  0.2652
  792MPD2    H511734   2.530   1.288  11.426 -0.5804 -0.4560 -1.2558
  792MPD2    N111735   2.905   1.711  11.481 -0.1003 -0.2405  0.3611
  792MPD2    H711736   3.004   1.709  11.500 -0.1550 -2.0777  0.4576
  793MPD2     C11737   1.804   1.632  10.928  0.8053  0.9425 -0.0703
  793MPD2    C111738   1.919   1.694  10.963 -0.1740  0.5902  0.2245
  793MPD2    C211739   1.979   1.649  11.079 -0.3043 -0.8129  0.4540
  793MPD2    C311740   1.929   1.544  11.161  0.0061  0.0427  0.4643
  793MPD2    C411741   1.814   1.480  11.121  0.1721  0.6569  0.2679
  793MPD2    C511742   1.758   1.529  11.006 -0.5257  0.1090 -0.5371
  793MPD2     H11743   2.066   1.703  11.115 -0.5243  1.1177 -1.8921
  793MPD2    H111744   1.764   1.408  11.185  1.7113 -0.5562  0.0875
  793MPD2    H211745   1.739   1.659  10.846  1.0500  3.1489  0.4553
  793MPD2    H311746   1.665   1.487  10.970 -0.8014 -0.3099  0.6850
  793MPD2     N11747   1.985   1.517  11.281 -0.4781 -0.4122  0.3474
  793MPD2    H511748   2.054   1.586  11.307 -1.1773  0.8564 -1.1293
  793MPD2    N111749   1.973   1.802  10.893  0.3276 -0.3614  0.0890
  793MPD2    H711750   2.056   1.846  10.932 -0.7691  0.6323  1.2873
  794MPD2     C11751   2.369   0.869  17.466 -0.4245 -0.0496 -0.3700
  794MPD2    C111752   2.384   0.777  17.362 -0.9971 -0.0013  0.8470
  794MPD2    C211753   2.341   0.803  17.235  0.1092  0.5095 -0.4548
  794MPD2    C311754   2.282   0.925  17.201  0.3819 -0.7912 -0.6776
  794MPD2    C411755   2.276   1.016  17.304  0.0512  0.5095 -0.4362
  794MPD2    C511756   2.314   0.985  17.430 -1.0600  0.0044 -1.2652
  794MPD2     H11757   2.349   0.724  17.161 -1.5674  0.2960 -0.4043
  794MPD2    H111758   2.236   1.116  17.290  1.3975  1.2365  0.8794
  794MPD2    H211759   2.401   0.860  17.569  1.0520  0.8759 -0.7489
  794MPD2    H311760   2.300   1.056  17.510 -1.2636  1.1196 -2.2788
  794MPD2     N11761   2.229   0.952  17.072  0.2300 -0.7026  0.2942
  794MPD2    H511762   2.204   1.050  17.062 -4.0755 -1.9048 -0.3939
  794MPD2    N111763   2.452   0.656  17.391 -0.0664  0.9058 -0.1572
  794MPD2    H711764   2.477   0.604  17.308 -2.8096  1.4250 -1.3375
  795MPD2     C11765   0.080   3.034  13.774  0.2640  0.0047 -0.0977
  795MPD2    C111766   0.043   2.932  13.688 -0.7426 -0.2250  0.3681
  795MPD2    C211767   0.129   2.817  13.688  0.3249 -0.5140 -0.2628
  795MPD2    C311768   0.245   2.807  13.769  0.1462  0.3229  0.6239
  795MPD2    C411769   0.278   2.908  13.862  0.4065 -0.0350  0.2898
  795MPD2    C511770   0.191   3.012  13.856  0.3511  0.6512 -1.0740
  795MPD2     H11771   0.103   2.735  13.622  2.1098 -1.2682 -0.0184
  795MPD2    H111772   0.359   2.913  13.934 -0.3822  0.2873  1.1494
  795MPD2    H211773   0.034   3.132  13.771 -0.5323 -0.3249  0.9977
  795MPD2    H311774   0.230   3.098  13.908  2.0599  0.7251 -2.4528
  795MPD2     N11775   0.325   2.689  13.772  0.0726  0.4306  0.2098
  795MPD2    H511776   0.273   2.606  13.747  1.7787 -0.7009  0.3882
  795MPD2    N111777   4.672   2.935  13.595 -0.0191  0.7809  0.1084
  795MPD2    H711778   4.652   2.845  13.554  0.1522  0.8033 -0.0257
  796MPD2     C11779   4.111   4.456  15.498 -0.4504 -0.2937 -0.3887
  796MPD2    C111780   4.174   4.494  15.608 -0.1165 -0.1194  0.0432
  796MPD2    C211781   4.187   4.637  15.632  0.2759 -0.2945  0.1534
  796MPD2    C311782   4.122   4.728  15.556  0.1606 -0.5102 -0.2963
  796MPD2    C411783   4.046   4.687  15.448  0.8826 -0.5096 -0.7497
  796MPD2    C511784   4.045   4.551  15.421  0.0804  0.0210  0.3903
  796MPD2     H11785   4.248   4.678  15.712  0.1550  0.1671  0.0088
  796MPD2    H111786   3.998   0.013  15.375  1.2971 -1.0337 -1.4911
  796MPD2    H211787   4.114   4.353  15.465  1.3166 -0.1491 -0.6971
  796MPD2    H311788   3.983   4.519  15.338 -0.3106 -0.4648  0.8708
  796MPD2     N11789   4.139   0.127  15.582  0.3442  0.4951  0.1499
  796MPD2    H511790   4.195   0.156  15.661  0.6166 -1.0110  0.5072
  796MPD2    N111791   4.243   4.391  15.681 -0.2716 -0.0581 -0.0013
  796MPD2    H711792   4.245   4.299  15.639  2.2471  0.6718 -1.4902
  797MPD2     C11793   0.617   4.296  16.799 -1.1618  0.3978 -0.0302
  797MPD2    C111794   0.654   4.430  16.811 -0.3323 -0.1686  0.2238
  797MPD2    C211795   0.643   4.512  16.699 -0.4701  0.0027  0.0787
  797MPD2    C311796   0.568   4.463  16.591 -1.0376  0.2940  0.1673
  797MPD2    C411797   0.517   4.335  16.597  0.2551  0.2479  0.0598
  797MPD2    C511798   0.531   4.255  16.705 -0.1286  0.0921  0.5791
  797MPD2     H11799   0.665   4.618  16.703  0.0711 -0.1078 -0.0218
  797MPD2    H111800   0.464   4.300  16.508 -0.1201 -0.3704  0.5214
  797MPD2    H211801   0.635   4.228  16.882  0.9151 -2.8369 -3.1166
  797MPD2    H311802   0.495   4.154  16.695 -0.2853  0.2904 -0.8785
  797MPD2     N11803   0.540   4.535  16.474 -0.0179  0.1041  0.3230
  797MPD2    H511804   0.464   4.503  16.416  3.2104 -2.5739 -2.4022
  797MPD2    N111805   0.709   4.486  16.928  0.1703 -0.1096  0.3887
  797MPD2    H711806   0.727   4.585  16.923 -0.2741 -0.1531 -2.3224
  798MPD2     C11807   0.392   0.440  16.923  0.1333  0.1354 -0.4650
  798MPD2    C111808   0.464   0.359  16.841  0.2996 -0.4898 -0.6932
  798MPD2    C211809   0.571   0.284  16.904 -0.0727 -0.1469 -0.5376
  798MPD2    C311810   0.584   0.280  17.040 -0.1803  0.5311  0.5452
  798MPD2    C411811   0.506   0.358  17.120  0.6886  0.6836 -0.1855
  798MPD2    C511812   0.413   0.432  17.060  0.3064  0.6215  0.2769
  798MPD2     H11813   0.627   0.216  16.841 -1.3980 -0.9522 -0.8545
  798MPD2    H111814   0.498   0.347  17.228 -0.6172 -2.1286 -0.5747
  798MPD2    H211815   0.308   0.497  16.886 -0.4512  0.8981  2.0503
  798MPD2    H311816   0.342   0.486  17.121  0.2498  2.3182 -1.2736
  798MPD2     N11817   0.661   0.175  17.082  0.0514  0.5422  0.5449
  798MPD2    H511818   0.713   0.127  17.009  0.4599  1.6701  0.1042
  798MPD2    N111819   0.427   0.341  16.703 -0.5250 -0.6223  0.6454
  798MPD2    H711820   0.335   0.369  16.670  0.7427  3.2766  0.3914
  799MPD2     C11821   4.204   0.595  14.784  0.1884  0.1242 -0.3975
  799MPD2    C111822   4.166   0.530  14.666  0.2723 -0.0870  0.2816
  799MPD2    C211823   4.113   0.602  14.564  0.5263  0.0177  0.2127
  799MPD2    C311824   4.080   0.736  14.579  0.2238 -0.6149  0.0234
  799MPD2    C411825   4.113   0.799  14.694  0.4125 -0.4993  0.0448
  799MPD2    C511826   4.172   0.728  14.796  0.4775 -0.1119  0.6668
  799MPD2     H11827   4.107   0.547  14.470 -1.3432  1.8514 -0.7339
  799MPD2    H111828   4.088   0.902  14.718 -0.2756 -0.0641 -2.5169
  799MPD2    H211829   4.249   0.542  14.866  2.7735  0.6114 -1.5060
  799MPD2    H311830   4.201   0.778  14.887 -3.3870  1.0541  1.2786
  799MPD2     N11831   4.034   0.817  14.469  0.4722  0.5142  0.2420
  799MPD2    H511832   4.040   0.916  14.487 -1.2799  0.6832 -0.0581
  799MPD2    N111833   4.187   0.391  14.650 -0.3339  0.5524  0.5754
  799MPD2    H711834   4.134   0.339  14.581 -0.2922  1.3157 -0.0262
  800MPD2     C11835   4.442   1.767  13.814  0.9842 -0.9719 -0.8267
  800MPD2    C111836   4.577   1.817  13.809  0.7127 -0.0915  0.2313
  800MPD2    C211837   4.652   1.780  13.703 -0.5189 -0.4636  0.0338
  800MPD2    C311838   4.598   1.693  13.611 -0.1566 -0.2622  0.5076
  800MPD2    C411839   4.469   1.643  13.615  0.5624 -0.4293 -0.7857
  800MPD2    C511840   4.387   1.686  13.717 -1.0608 -0.1402  0.0204
  800MPD2     H11841   0.017   1.809  13.689 -0.8037  0.4681 -0.0989
  800MPD2    H111842   4.415   1.587  13.539  1.7598 -3.3176  0.4905
  800MPD2    H211843   4.378   1.783  13.900 -1.7843 -0.2439 -3.0112
  800MPD2    H311844   4.289   1.639  13.728 -0.9287 -0.0976  1.3609
  800MPD2     N11845   4.685   1.649  13.510  0.5186  0.4909 -0.2166
  800MPD2    H511846   0.040   1.691  13.510  0.8427 -0.2161  0.9233
  800MPD2    N111847   4.625   1.911  13.901 -0.3736 -0.2029  0.0282
  800MPD2    H711848   4.553   1.962  13.952  0.0191  0.1769  0.2072
  801MPD2     C11849   4.465   2.385  14.422 -0.4615 -0.3586  0.0756
  801MPD2    C111850   4.474   2.255  14.377  0.3246 -0.0193 -0.2839
  801MPD2    C211851   4.374   2.162  14.412 -0.1977 -0.5566  0.3051
  801MPD2    C311852   4.274   2.199  14.496 -0.1075 -0.4388  0.1653
  801MPD2    C411853   4.268   2.329  14.542  0.7960  0.7878  0.7618
  801MPD2    C511854   4.363   2.417  14.504 -0.2472 -0.3567  0.5405
  801MPD2     H11855   4.366   2.064  14.367 -1.1924 -0.1845 -0.3266
  801MPD2    H111856   4.200   2.368  14.617  0.8584 -0.5705  1.5353
  801MPD2    H211857   4.546   2.456  14.410 -0.4352 -0.2479  0.9480
  801MPD2    H311858   4.370   2.519  14.540  0.1110  0.2950 -1.3918
  801MPD2     N11859   4.184   2.098  14.528 -0.4895 -0.9612 -0.1617
  801MPD2    H511860   4.198   2.002  14.499 -1.1874 -0.3356 -2.5941
  801MPD2    N111861   4.573   2.211  14.291 -0.6601 -0.0626 -0.7255
  801MPD2    H711862   4.560   2.122  14.244 -3.4062  1.7845 -3.4528
  802MPD2     C11863   4.597   3.811   0.523  0.6987 -0.3617  0.3169
  802MPD2    C111864   4.472   3.787   0.463 -0.0871 -0.0820  0.0707
  802MPD2    C211865   4.482   3.705   0.351 -0.2383  0.0390 -0.1266
  802MPD2    C311866   4.603   3.671   0.291 -0.2866  0.0021  0.2216
  802MPD2    C411867   4.718   3.699   0.360 -0.2539  0.8102  1.1934
  802MPD2    C511868   4.712   3.755   0.478 -0.4988  0.1228  0.2858
  802MPD2     H11869   4.392   3.689   0.292 -0.4282 -2.9034  0.9652
  802MPD2    H111870   0.077   3.666   0.324  0.3380  1.9363  1.7536
  802MPD2    H211871   4.607   3.853   0.622 -0.7761  2.2357 -0.6243
  802MPD2    H311872   0.069   3.769   0.530 -0.7188  0.2740  0.6431
  802MPD2     N11873   4.604   3.595   0.172  0.3211  0.3171  0.0432
  802MPD2    H511874   4.515   3.565   0.133  0.0284  0.6976  0.4221
  802MPD2    N111875   4.346   3.837   0.512  0.1481 -0.1059  0.8134
  802MPD2    H711876   4.263   3.808   0.461  1.0935 -2.6344  0.7249
  803MPD2     C11877   0.283   1.008  12.019 -0.0715  0.0713  0.2980
  803MPD2    C111878   0.298   1.133  12.072  0.8694 -0.7489  0.0148
  803MPD2    C211879   0.299   1.149  12.212  0.0851 -0.2907 -0.2792
  803MPD2    C311880   0.282   1.046  12.310 -0.0397  0.4206  0.1860
  803MPD2    C411881   0.255   0.925  12.254 -0.0553 -0.2055  0.2336
  803MPD2    C511882   0.265   0.909  12.114 -0.4102 -0.4575 -0.7017
  803MPD2     H11883   0.306   1.252  12.244 -0.6156 -0.6473  1.0304
  803MPD2    H111884   0.229   0.831  12.303  2.1198 -1.6077 -1.3010
  803MPD2    H211885   0.268   0.985  11.914 -0.7762 -1.4103  0.7319
  803MPD2    H311886   0.264   0.808  12.074  1.2192 -1.8581  2.7503
  803MPD2     N11887   0.284   1.061  12.450 -0.7044  0.2537  0.0338
  803MPD2    H511888   0.250   0.977  12.496 -1.3616  0.5387  0.0770
  803MPD2    N111889   0.291   1.252  11.996 -0.1974  0.2022  0.4330
  803MPD2    H711890   0.306   1.337  12.050  1.6834  0.4708 -0.4880
  804MPD2     C11891   0.023   2.840  16.831  0.4685 -0.5469  0.1162
  804MPD2    C111892   0.036   2.816  16.965  0.1723 -0.2622 -0.0821
  804MPD2    C211893   0.102   2.906  17.039  0.1731  0.5157  0.1924
  804MPD2    C311894   0.162   3.024  16.981  0.1255  0.2806  0.2068
  804MPD2    C411895   0.137   3.053  16.849  0.2437  0.0971 -0.1589
  804MPD2    C511896   0.066   2.956  16.777 -0.2984 -0.1744  0.4119
  804MPD2     H11897   0.123   2.879  17.142  0.2594 -0.9756 -0.2118
  804MPD2    H111898   0.166   3.142  16.795 -1.2903  2.0016  2.1800
  804MPD2    H211899   4.713   2.770  16.764 -1.1819  0.7275 -0.0356
  804MPD2    H311900   0.067   2.958  16.669  2.7843 -0.8162  0.4250
  804MPD2     N11901   0.238   3.102  17.061 -0.5330 -0.6016 -0.0082
  804MPD2    H511902   0.255   3.064  17.153 -0.2443 -0.4581 -0.0039
  804MPD2    N111903   4.725   2.700  17.023  0.2517 -0.2309  1.0284
  804MPD2    H711904   4.719   2.701  17.124 -2.5377 -1.2273  0.8615
  805MPD2     C11905   4.074   1.049  15.332 -0.0467  0.3815  0.4335
  805MPD2    C111906   4.154   0.936  15.347 -0.5795 -0.3076 -0.4798
  805MPD2    C211907   4.255   0.939  15.439 -0.4303 -0.3707 -0.3927
  805MPD2    C311908   4.298   1.058  15.495  0.4402 -0.1876  0.2164
  805MPD2    C411909   4.225   1.170  15.467  0.2204 -0.0201 -0.2178
  805MPD2    C511910   4.104   1.162  15.397 -0.1575  0.0786 -0.3828
  805MPD2     H11911   4.315   0.849  15.446  1.1730  0.7267 -0.0513
  805MPD2    H111912   4.267   1.266  15.498  0.7685 -0.6392  0.9619
  805MPD2    H211913   4.004   1.077  15.254  1.0507  0.7353 -0.4343
  805MPD2    H311914   4.037   1.246  15.383 -0.2750  0.1060  0.3348
  805MPD2     N11915   4.410   1.067  15.582 -0.4916  0.2180 -0.2940
  805MPD2    H511916   4.444   1.159  15.610  2.4160 -0.8934 -0.1936
  805MPD2    N111917   4.137   0.820  15.268  0.0268  0.8197 -0.4029
  805MPD2    H711918   4.210   0.749  15.267 -0.3461  0.4446 -0.8634
  806MPD2     C11919   0.143   0.578   0.838 -1.0890 -0.0710  0.0962
  806MPD2    C111920   0.172   0.708   0.808 -0.1636  0.1584  0.5925
  806MPD2    C211921   0.202   0.748   0.676 -0.3310  0.1563  0.1738
  806MPD2    C311922   0.196   0.651   0.574 -0.0269 -0.1120  0.2408
  806MPD2    C411923   0.142   0.523   0.603 -0.7264 -0.9416  0.0471
  806MPD2    C511924   0.123   0.491   0.735 -0.4082  0.1371  0.2954
  806MPD2     H11925   0.227   0.850   0.650  0.0462 -0.6275 -2.5334
  806MPD2    H111926   0.122   0.449   0.527 -1.9391 -0.2447 -0.3056
  806MPD2    H211927   0.100   0.540   0.931 -0.0967 -0.1241  0.5370
  806MPD2    H311928   0.078   0.395   0.758 -0.4567  0.1123  0.0982
  806MPD2     N11929   0.240   0.690   0.445  0.0701 -0.4786 -0.5281
  806MPD2    H511930   0.274   0.785   0.432  2.7429 -1.2781  0.4731
  806MPD2    N111931   0.176   0.794   0.914  0.6323 -0.0742 -0.4230
  806MPD2    H711932   0.176   0.757   1.008 -2.7737 -0.6317 -0.6287
  807MPD2     C11933   0.019   1.593   1.138  0.0925 -0.4066 -0.5456
  807MPD2    C111934   4.705   1.469   1.121 -0.0623 -0.4749  1.1444
  807MPD2    C211935   4.567   1.453   1.129 -0.8712  0.8828  0.2486
  807MPD2    C311936   4.487   1.550   1.173 -0.8956 -0.5006  0.0172
  807MPD2    C411937   4.546   1.676   1.194 -0.3707 -0.2680 -0.7076
  807MPD2    C511938   4.678   1.697   1.173 -0.8825  0.6476 -0.3451
  807MPD2     H11939   4.522   1.355   1.121  0.4290  0.1179  2.0983
  807MPD2    H111940   4.482   1.763   1.204 -0.6230 -0.9863  3.7498
  807MPD2    H211941   0.127   1.599   1.125  0.1882  1.4355  1.1459
  807MPD2    H311942   4.717   1.798   1.169  1.2008 -0.0371  2.4419
  807MPD2     N11943   4.350   1.518   1.197 -0.4917  0.7797 -0.1622
  807MPD2    H511944   4.318   1.425   1.174 -0.6462  0.8492 -0.2289
  807MPD2    N111945   0.049   1.354   1.090 -0.5431 -0.2521 -0.4117
  807MPD2    H711946   4.734   1.267   1.084  1.2085 -1.4263  1.1191
  808MPD2     C11947   0.126   3.232  10.076 -0.4367  0.5501  0.5047
  808MPD2    C111948   0.124   3.286   9.953  0.3407 -0.2354  0.0024
  808MPD2    C211949   0.214   3.389   9.922 -0.7371 -0.4552  0.1939
  808MPD2    C311950   0.305   3.443  10.011 -0.2989 -0.1573 -0.2614
  808MPD2    C411951   0.308   3.382  10.136 -1.0013  0.3217  0.3617
  808MPD2    C511952   0.216   3.282  10.163  0.5044  0.6123  0.1234
  808MPD2     H11953   0.210   3.430   9.822  2.3440  3.2418  1.6117
  808MPD2    H111954   0.377   3.419  10.210  0.9268 -2.0902 -0.2373
  808MPD2    H211955   0.063   3.151  10.114  0.7817 -1.2562 -1.3109
  808MPD2    H311956   0.223   3.244  10.264 -0.3554 -0.6768 -0.2936
  808MPD2     N11957   0.398   3.540   9.980 -0.3160 -0.0420  0.0678
  808MPD2    H511958   0.459   3.570  10.055  1.8321  1.3560 -2.2470
  808MPD2    N111959   0.029   3.252   9.857 -0.8289  0.3179 -0.2122
  808MPD2    H711960   0.033   3.291   9.764  0.5017 -0.9844 -0.7092
  809MPD2     C11961   1.287   3.915   9.494  0.1314 -0.5270 -0.3780
  809MPD2    C111962   1.234   3.794   9.539  0.6288  0.0897  0.0511
  809MPD2    C211963   1.109   3.791   9.588  0.3604 -0.0180 -0.6146
  809MPD2    C311964   1.023   3.905   9.589 -0.5200  0.0969  0.3420
  809MPD2    C411965   1.081   4.027   9.554  0.0091  0.2769  0.0792
  809MPD2    C511966   1.210   4.033   9.507 -0.6486 -0.2564 -0.9624
  809MPD2     H11967   1.081   3.700   9.639  0.8239  0.1185 -0.1143
  809MPD2    H111968   1.023   4.118   9.551 -0.1925  0.1580  0.3638
  809MPD2    H211969   1.389   3.927   9.459  0.0762  0.7415 -0.0806
  809MPD2    H311970   1.248   4.131   9.479  2.2800 -1.1553 -0.1411
  809MPD2     N11971   0.888   3.906   9.635  0.5086 -0.1057  0.0174
  809MPD2    H511972   0.843   3.996   9.639  0.0910 -0.3035 -0.1713
  809MPD2    N111973   1.308   3.673   9.540  0.5865  0.1989 -0.0914
  809MPD2    H711974   1.272   3.592   9.589 -0.6846  0.1616 -1.0915
  810MPD2     C11975   0.036   1.411  10.730  0.0500 -0.5139 -0.1534
  810MPD2    C111976   4.676   1.436  10.637  0.0037  0.2424  0.0141
  810MPD2    C211977   4.676   1.557  10.563 -0.1160  0.6297  0.1129
  810MPD2    C311978   0.046   1.641  10.578  0.2278 -0.9530  0.0070
  810MPD2    C411979   0.156   1.599  10.650  0.2413  0.8861 -0.3966
  810MPD2    C511980   0.149   1.486  10.731  1.0979 -0.7150  0.0914
  810MPD2     H11981   4.598   1.579  10.491  2.1649  0.1211 -2.5277
  810MPD2    H111982   0.246   1.654  10.674  0.9923 -1.1696  1.5301
  810MPD2    H211983   0.044   1.319  10.786  0.9152  0.4915  1.3549
  810MPD2    H311984   0.224   1.467  10.807 -0.1811  1.4094  1.8683
  810MPD2     N11985   0.045   1.775  10.539  0.0815  0.0232  0.7638
  810MPD2    H511986   0.127   1.827  10.570  0.7072 -1.6570  1.9189
  810MPD2    N111987   4.559   1.357  10.617  0.7046  0.1703 -0.8204
  810MPD2    H711988   4.497   1.401  10.551  0.6701 -0.1590 -1.0065
  811MPD2     C11989   3.808   1.417  10.260  0.0485  0.9819  0.1416
  811MPD2    C111990   3.936   1.441  10.298  0.3792 -0.1318  0.5777
  811MPD2    C211991   3.976   1.571  10.286 -0.0134 -0.2395  0.1003
  811MPD2    C311992   3.886   1.669  10.235 -0.0467 -1.0472  0.9332
  811MPD2    C411993   3.758   1.634  10.188  0.2624 -0.4449 -0.9950
  811MPD2    C511994   3.726   1.504  10.201 -0.2952 -0.5718 -0.0428
  811MPD2     H11995   4.074   1.606  10.315 -1.5525  4.4087 -0.2782
  811MPD2    H111996   3.681   1.701  10.152 -0.1783 -0.9422 -0.9832
  811MPD2    H211997   3.763   1.321  10.282 -0.6247  0.6172 -2.7474
  811MPD2    H311998   3.635   1.464  10.157  0.7172 -1.5945 -1.1924
  811MPD2     N11999   3.944   1.799  10.221  0.3522 -0.1887 -0.1107
  811MPD2    H512000   4.045   1.796  10.231  0.5996  2.2380 -1.9178
  811MPD2    N112001   4.017   1.338  10.358 -0.1276  0.7757  0.8467
  811MPD2    H712002   3.975   1.246  10.363 -1.4421  1.4911  3.3128
  812MPD2     C12003   2.948   1.322  12.032 -0.0525  0.2948 -0.0893
  812MPD2    C112004   3.026   1.426  12.052 -0.1804  0.1339 -1.0200
  812MPD2    C212005   3.122   1.421  12.154  0.3323 -0.4466 -0.3546
  812MPD2    C312006   3.145   1.302  12.227 -0.4349 -0.2375 -0.0695
  812MPD2    C412007   3.065   1.190  12.197  0.2610  0.1988 -0.3843
  812MPD2    C512008   2.974   1.203  12.099 -0.0215  0.5372 -0.2110
  812MPD2     H12009   3.167   1.516  12.184 -0.8210 -0.3756  1.1613
  812MPD2    H112010   3.072   1.096  12.251  1.3919  1.5197  1.8043
  812MPD2    H212011   2.871   1.316  11.956  2.0539 -0.0985 -2.2112
  812MPD2    H312012   2.920   1.113  12.069  1.0189  0.0730 -0.6890
  812MPD2     N12013   3.232   1.312  12.346 -0.1500 -0.8544 -0.0446
  812MPD2    H512014   3.295   1.391  12.348 -4.1707  2.3697 -0.3358
  812MPD2    N112015   3.001   1.539  11.975  0.0008 -1.0077 -0.2240
  812MPD2    H712016   2.914   1.554  11.925 -0.8960  1.5126  2.0606
  813MPD2     C12017   2.758   2.737  12.854  0.2193  0.1044 -0.0450
  813MPD2    C112018   2.691   2.854  12.822  0.4173  0.0247  0.3421
  813MPD2    C212019   2.593   2.898  12.916 -0.5780  0.4605 -0.1050
  813MPD2    C312020   2.550   2.822  13.023  0.4214  0.1397 -0.9358
  813MPD2    C412021   2.615   2.707  13.039 -0.7735 -0.0834  0.2644
  813MPD2    C512022   2.719   2.665  12.960  0.3689  0.3566 -0.0169
  813MPD2     H12023   2.538   2.991  12.900 -1.1183  0.4126  1.4639
  813MPD2    H112024   2.606   2.644  13.127  0.7383 -1.6841 -0.7120
  813MPD2    H212025   2.844   2.705  12.795 -0.1181 -0.8478 -0.0173
  813MPD2    H312026   2.780   2.577  12.978 -1.1796 -1.0163 -1.4845
  813MPD2     N12027   2.464   2.873  13.123  0.0233 -0.2334 -0.3725
  813MPD2    H512028   2.423   2.965  13.113 -0.3498 -0.4131 -0.4702
  813MPD2    N112029   2.745   2.940  12.722 -0.2263 -0.4716  0.0699
  813MPD2    H712030   2.832   2.908  12.681  0.6719  0.6461  1.0953
  814MPD2     C12031   2.585   4.657  12.268 -0.3747  0.3268 -0.1166
  814MPD2    C112032   2.612   4.684  12.129  0.5923 -0.2265 -0.2558
  814MPD2    C212033   2.716   0.038  12.102 -0.1570 -0.3190 -0.3458
  814MPD2    C312034   2.773   0.112  12.208  0.1937  0.1070 -0.2296
  814MPD2    C412035   2.730   0.090  12.337 -0.4371  0.2681  0.0451
  814MPD2    C512036   2.639   4.729  12.365 -0.1331  0.0525 -0.0077
  814MPD2     H12037   2.760   0.036  12.003 -0.2713  0.6655 -0.4168
  814MPD2    H112038   2.778   0.133  12.424  0.6479 -0.9416  0.0351
  814MPD2    H212039   2.536   4.563  12.290  0.9738 -0.3841 -0.1807
  814MPD2    H312040   2.606   4.701  12.465 -1.2090  0.0099 -0.3842
  814MPD2     N12041   2.872   0.215  12.198 -0.2901 -0.0851 -0.0911
  814MPD2    H512042   2.912   0.263  12.278 -2.0467  0.4884  0.4458
  814MPD2    N112043   2.572   4.606  12.017  0.4742 -0.2118 -0.2813
  814MPD2    H712044   2.618   4.624  11.928 -0.0195 -1.0749 -0.7144
  815MPD2     C12045   3.841   3.171  11.594 -0.3209 -0.0346  0.2398
  815MPD2    C112046   3.753   3.091  11.520 -1.0714  0.0578 -0.6692
  815MPD2    C212047   3.672   2.998  11.584 -0.1905  0.0022 -0.1395
  815MPD2    C312048   3.660   2.994  11.723  0.8083 -0.5135 -0.7189
  815MPD2    C412049   3.735   3.089  11.796  0.2996  0.2828 -0.4142
  815MPD2    C512050   3.827   3.169  11.732  0.0659 -0.2369  0.5605
  815MPD2     H12051   3.628   2.911  11.534 -0.1819 -0.3840  0.5282
  815MPD2    H112052   3.736   3.102  11.904 -0.3213 -1.4233 -0.1976
  815MPD2    H212053   3.912   3.239  11.548  0.3725 -0.8306  0.1249
  815MPD2    H312054   3.894   3.226  11.795  0.4520 -0.2159  0.1249
  815MPD2     N12055   3.582   2.892  11.783 -0.1352  0.0359 -0.2562
  815MPD2    H512056   3.525   2.842  11.715 -1.0157  3.6073 -2.1676
  815MPD2    N112057   3.779   3.082  11.381 -0.4232 -0.1559 -0.1774
  815MPD2    H712058   3.857   3.131  11.338 -1.1381 -0.2828 -1.6021
  816MPD2     C12059   3.798   2.313  17.360 -0.2431  0.2975  0.1564
  816MPD2    C112060   3.683   2.352  17.300 -0.4057  0.4915 -0.5836
  816MPD2    C212061   3.647   2.299  17.178  0.8423 -0.2042  0.0729
  816MPD2    C312062   3.724   2.195  17.126  0.0197 -0.5324 -0.5361
  816MPD2    C412063   3.842   2.154  17.189  0.6668  0.1420  0.6236
  816MPD2    C512064   3.877   2.216  17.308  0.4419 -0.1377 -0.3240
  816MPD2     H12065   3.561   2.331  17.120  0.9893  0.1905  0.0728
  816MPD2    H112066   3.907   2.076  17.151 -0.3257  0.5890 -1.9908
  816MPD2    H212067   3.830   2.354  17.455  0.2739  0.0237  0.1034
  816MPD2    H312068   3.967   2.185  17.360 -0.9671 -3.3386  0.2159
  816MPD2     N12069   3.675   2.132  17.007 -0.2133  0.0139  0.1068
  816MPD2    H512070   3.608   2.190  16.957  0.0027  1.6365  1.6948
  816MPD2    N112071   3.623   2.462  17.350 -0.1059  0.5514 -0.4425
  816MPD2    H712072   3.678   2.519  17.413  2.1102 -2.3939  0.2706
  817MPD2     C12073   3.262   4.387  10.138  0.9909  0.8524 -0.3196
  817MPD2    C112074   3.327   4.330  10.033  0.4816 -0.0825 -0.1997
  817MPD2    C212075   3.258   4.299   9.920 -0.0598 -0.6043  0.3891
  817MPD2    C312076   3.124   4.332   9.903  0.0390 -0.9379  1.3482
  817MPD2    C412077   3.058   4.383  10.012  0.0618 -0.4339  0.3490
  817MPD2    C512078   3.124   4.397  10.132  0.0257 -0.6240  0.0495
  817MPD2     H12079   3.319   4.251   9.844  3.7972  4.0480  0.5382
  817MPD2    H112080   2.952   4.402  10.008 -0.0209 -0.5679  1.7661
  817MPD2    H212081   3.315   4.409  10.230  0.7926 -1.3458  0.3206
  817MPD2    H312082   3.064   4.422  10.219 -1.1652  0.0104 -0.9626
  817MPD2     N12083   3.065   4.324   9.773 -0.0642  0.2104 -0.2451
  817MPD2    H512084   3.116   4.285   9.694 -0.1762 -0.3549 -0.0393
  817MPD2    N112085   3.465   4.286  10.035  0.4538 -0.4295  0.7462
  817MPD2    H712086   3.493   4.224   9.960 -1.2411 -1.0443  0.6221
  818MPD2     C12087   1.766   4.428   9.894  0.8966 -0.5583  0.2290
  818MPD2    C112088   1.856   4.366   9.973 -1.2706 -0.7077 -0.2534
  818MPD2    C212089   1.963   4.298   9.917 -0.5142  0.8640  0.6223
  818MPD2    C312090   1.981   4.296   9.779  0.8318  0.1398 -0.2551
  818MPD2    C412091   1.880   4.352   9.700 -0.4975 -0.8691 -0.0952
  818MPD2    C512092   1.779   4.421   9.758  0.0036  0.4774 -0.4528
  818MPD2     H12093   2.025   4.236   9.981  1.4844 -1.7575 -3.8343
  818MPD2    H112094   1.883   4.343   9.592  1.9200 -0.3335 -0.0753
  818MPD2    H212095   1.676   4.477   9.928  0.7799  0.3698 -1.3903
  818MPD2    H312096   1.700   4.449   9.689 -0.5945 -0.3080 -0.0858
  818MPD2     N12097   2.089   4.229   9.711 -0.0665  0.1469 -0.0623
  818MPD2    H512098   2.092   4.231   9.609 -1.7546  1.8061 -0.0743
  818MPD2    N112099   1.835   4.361  10.116 -0.2043 -0.4979  0.0692
  818MPD2    H712100   1.902   4.300  10.162  0.6957 -0.9762 -1.8763
  819MPD2     C12101   0.073   0.377  15.691 -0.3030  0.6500  0.0915
  819MPD2    C112102   0.101   0.249  15.717  0.2883 -0.0577 -0.6677
  819MPD2    C212103   0.232   0.213  15.735 -0.0333  0.1662  0.0516
  819MPD2    C312104   0.334   0.303  15.725 -0.5983  0.8899  0.3402
  819MPD2    C412105   0.308   0.431  15.681  0.3675  0.4017 -0.3531
  819MPD2    C512106   0.174   0.468  15.666 -0.7784 -0.3306 -0.2502
  819MPD2     H12107   0.255   0.111  15.764  1.1186  0.2385 -0.5895
  819MPD2    H112108   0.394   0.497  15.678  0.3822  0.2970 -1.9411
  819MPD2    H212109   4.714   0.420  15.673 -0.6439  1.2794  3.5091
  819MPD2    H312110   0.143   0.569  15.642 -4.1657 -1.3401 -0.1024
  819MPD2     N12111   0.468   0.263  15.768  1.1359  0.4960 -0.1651
  819MPD2    H512112   0.474   0.164  15.785  1.6221  0.2464 -1.7731
  819MPD2    N112113   4.734   0.161  15.712  0.6697 -0.1178 -0.4304
  819MPD2    H712114   4.642   0.203  15.714  0.4294 -0.7062  0.5366
  820MPD2     C12115   4.158   0.006  14.947  0.4243 -0.2991 -0.6274
  820MPD2    C112116   4.181   0.110  15.031  0.2349  0.4591 -0.0788
  820MPD2    C212117   4.230   0.078  15.155  0.1902  0.3927 -0.6539
  820MPD2    C312118   4.274   4.688  15.185  0.9729  0.3123 -0.4346
  820MPD2    C412119   4.244   4.588  15.097 -0.2392 -0.4496 -0.8749
  820MPD2    C512120   4.175   4.616  14.984  0.0911 -0.0938 -1.0836
  820MPD2     H12121   4.240   0.152  15.234 -0.8764  0.1182 -0.2535
  820MPD2    H112122   4.280   4.486  15.111 -1.8083 -1.1220 -1.7555
  820MPD2    H212123   4.113   0.014  14.848  0.7383  0.7377 -0.6796
  820MPD2    H312124   4.137   4.537  14.920 -2.6460 -0.6721  1.3002
  820MPD2     N12125   4.344   4.654  15.305  1.0478  0.3852 -0.1445
  820MPD2    H512126   4.353   4.554  15.321 -0.4851  0.1735 -0.5870
  820MPD2    N112127   4.126   0.238  15.008 -0.3429 -0.4474  0.4137
  820MPD2    H712128   4.059   0.256  14.934 -1.4883  0.6738  1.7160
  821MPD2     C12129   0.159   1.808  12.867 -0.2813 -0.5044  0.5642
  821MPD2    C112130   0.255   1.763  12.955  0.0481  0.0274  0.1385
  821MPD2    C212131   0.373   1.834  12.965  0.6223 -0.6598  0.1651
  821MPD2    C312132   0.391   1.962  12.911 -0.7423  0.0170 -0.2070
  821MPD2    C412133   0.291   2.013  12.830  0.3512  0.5715 -0.2120
  821MPD2    C512134   0.185   1.930  12.803 -0.2556 -0.5685 -0.0107
  821MPD2     H12135   0.454   1.797  13.028  0.2381 -1.1511  0.3784
  821MPD2    H112136   0.300   2.108  12.778  0.1866  1.2749  1.0404
  821MPD2    H212137   0.065   1.757  12.851 -0.7934  0.2333  1.2399
  821MPD2    H312138   0.100   1.961  12.743  0.6139  1.1549 -0.3398
  821MPD2     N12139   0.501   2.042  12.941  0.1623  0.4805  0.0878
  821MPD2    H512140   0.583   1.996  12.980 -1.1110 -2.6680 -0.9339
  821MPD2    N112141   0.244   1.649  13.033  0.2201 -0.3639  0.7015
  821MPD2    H712142   0.322   1.642  13.097 -0.7079  0.7579  1.9652
  822MPD2     C12143   0.767   1.885  15.731  0.3963 -0.9932  0.0725
  822MPD2    C112144   0.749   1.844  15.865 -0.7618  0.5813 -0.1700
  822MPD2    C212145   0.678   1.928  15.952 -0.2417 -0.7413 -0.5951
  822MPD2    C312146   0.623   2.042  15.908  0.3868 -0.5390 -0.2017
  822MPD2    C412147   0.633   2.076  15.774  0.2660  0.4937  0.2749
  822MPD2    C512148   0.708   1.999  15.696 -0.0009  0.8024  0.2559
  822MPD2     H12149   0.680   1.904  16.058 -1.0929  1.8307  0.0041
  822MPD2    H112150   0.594   2.165  15.725  0.0409  0.5672  0.5824
  822MPD2    H212151   0.823   1.844  15.647  2.5341  2.8343 -0.3498
  822MPD2    H312152   0.723   2.029  15.593  2.8077  1.0175  0.7487
  822MPD2     N12153   0.537   2.116  15.995 -0.3865  0.0414  0.0379
  822MPD2    H512154   0.520   2.080  16.088 -2.7686  0.3436 -0.2559
  822MPD2    N112155   0.824   1.738  15.921 -0.1517 -0.1926  0.4918
  822MPD2    H712156   0.816   1.734  16.022  1.4495  3.2576  0.7491
  823MPD2     C12157   0.162   2.390  16.724 -0.1343  0.1899 -0.1246
  823MPD2    C112158   0.186   2.295  16.630  0.2258  0.8253 -0.1571
  823MPD2    C212159   0.232   2.169  16.666 -0.6737 -0.3193 -0.5394
  823MPD2    C312160   0.231   2.135  16.805  0.2979  0.2717  0.5331
  823MPD2    C412161   0.187   2.228  16.897  0.0259 -0.0246 -0.1682
  823MPD2    C512162   0.162   2.357  16.859 -0.4341  0.2881 -0.0645
  823MPD2     H12163   0.268   2.100  16.591 -0.6189 -3.4560  2.3719
  823MPD2    H112164   0.194   2.200  17.001 -0.0275  0.6490  0.0138
  823MPD2    H212165   0.152   2.495  16.699 -1.0489 -0.4125 -2.3215
  823MPD2    H312166   0.149   2.432  16.935  1.2553  0.5822 -0.0693
  823MPD2     N12167   0.270   2.006  16.849  0.0486  0.1259 -0.0800
  823MPD2    H512168   0.250   1.988  16.947 -0.6180  1.1878 -0.0196
  823MPD2    N112169   0.179   2.346  16.497  0.0553 -0.3367 -0.1064
  823MPD2    H712170   0.154   2.444  16.481  1.2855  0.0913  0.6115
  824MPD2     C12171   1.017   0.935  15.859 -0.2068  0.3898  0.2876
  824MPD2    C112172   1.115   1.036  15.853  0.3765 -0.7442  0.5367
  824MPD2    C212173   1.245   1.005  15.810 -0.6744  1.0456 -0.2035
  824MPD2    C312174   1.273   0.876  15.768  0.6761 -0.3951  0.2398
  824MPD2    C412175   1.174   0.781  15.771 -0.6070 -0.3477 -0.4987
  824MPD2    C512176   1.053   0.807  15.823  0.1379 -0.4355  0.1725
  824MPD2     H12177   1.319   1.084  15.810 -0.2636  0.6582  0.9608
  824MPD2    H112178   1.192   0.675  15.762  0.1686 -0.5711  3.5997
  824MPD2    H212179   0.915   0.947  15.895 -0.9947  0.9736 -2.1868
  824MPD2    H312180   0.978   0.728  15.823  1.9779 -2.2012  2.3762
  824MPD2     N12181   1.402   0.852  15.728 -0.4730  0.3051 -0.4058
  824MPD2    H512182   1.465   0.931  15.735  1.0340 -0.8296 -1.4142
  824MPD2    N112183   1.079   1.173  15.883  0.1867 -0.7884  0.3519
  824MPD2    H712184   0.979   1.186  15.893  0.0901 -0.7608 -0.5981
  825MPD2     C12185   1.904   0.811  15.033  0.6991  0.5283 -0.3786
  825MPD2    C112186   1.840   0.891  15.131 -0.5638 -0.5802  0.7881
  825MPD2    C212187   1.806   1.027  15.101  0.0524  0.1067 -0.9328
  825MPD2    C312188   1.850   1.083  14.985 -0.1282 -0.5880 -0.1187
  825MPD2    C412189   1.925   1.007  14.898  0.5896  0.5464  0.3227
  825MPD2    C512190   1.941   0.867  14.915  0.1765  0.0794 -0.2485
  825MPD2     H12191   1.729   1.079  15.157 -0.2700 -0.5664 -0.7466
  825MPD2    H112192   1.955   1.050  14.803 -0.3452 -1.6567 -0.9527
  825MPD2    H212193   1.922   0.706  15.050 -1.5826  0.6002  2.4670
  825MPD2    H312194   1.991   0.813  14.836 -1.7154 -2.1245  0.0640
  825MPD2     N12195   1.818   1.211  14.939 -0.4255 -0.2517 -0.1948
  825MPD2    H512196   1.852   1.245  14.849  2.4376 -1.0794  0.5865
  825MPD2    N112197   1.813   0.826  15.256  0.4967  0.3336 -0.0934
  825MPD2    H712198   1.833   0.727  15.270 -0.5731  0.6034  3.1336
  826MPD2     C12199   1.076   1.085  13.984  0.3195 -0.0904  0.1702
  826MPD2    C112200   1.107   1.116  13.848 -0.3722 -0.0458 -0.0580
  826MPD2    C212201   1.012   1.200  13.782 -0.6882 -1.0486  0.5571
  826MPD2    C312202   0.887   1.222  13.833  0.2229  0.1453  0.2934
  826MPD2    C412203   0.858   1.193  13.966  0.3504  0.3742 -0.8622
  826MPD2    C512204   0.955   1.125  14.037  0.5140  0.0307 -0.1693
  826MPD2     H12205   1.029   1.232  13.679 -1.0247  1.0045  1.1450
  826MPD2    H112206   0.769   1.232  14.014 -0.8763 -1.7623 -1.3857
  826MPD2    H212207   1.150   1.037  14.048  1.5833 -0.2728 -1.4162
  826MPD2    H312208   0.933   1.106  14.142 -2.4740 -0.4534 -0.8819
  826MPD2     N12209   0.787   1.299  13.767  0.0925 -0.5025  0.3304
  826MPD2    H512210   0.700   1.309  13.818 -0.3310  0.1343 -0.5202
  826MPD2    N112211   1.237   1.089  13.795 -0.0483  0.6219 -0.0287
  826MPD2    H712212   1.289   1.022  13.850 -4.0634 -1.8557  0.7818
  827MPD2     C12213   2.346   3.222   9.848 -0.3862  0.4881 -1.1623
  827MPD2    C112214   2.327   3.103   9.921 -0.4650  0.2104  0.1141
  827MPD2    C212215   2.195   3.063   9.939  0.4583 -0.0531  0.3811
  827MPD2    C312216   2.087   3.107   9.865 -0.4364 -0.2843  0.8529
  827MPD2    C412217   2.114   3.220   9.789 -0.3231 -0.0054 -0.3018
  827MPD2    C512218   2.240   3.280   9.782 -0.7356 -0.6098  0.2743
  827MPD2     H12219   2.180   2.983  10.011  0.4423 -0.4351 -0.0501
  827MPD2    H112220   2.034   3.265   9.732 -1.3558 -0.5054  0.7763
  827MPD2    H212221   2.443   3.268   9.836  0.8472 -1.5893  0.8768
  827MPD2    H312222   2.254   3.372   9.727  0.3640 -0.8349  0.1703
  827MPD2     N12223   1.955   3.040   9.863  0.0343  0.3571 -0.3671
  827MPD2    H512224   1.934   2.973   9.936 -0.9183  0.5414 -0.4702
  827MPD2    N112225   2.434   3.038   9.983 -0.5558  0.8213  0.2682
  827MPD2    H712226   2.529   3.061   9.953  0.8232 -1.0760  3.1643
  828MPD2     C12227   0.767   2.498  12.558  0.2972  0.7766 -0.8102
  828MPD2    C112228   0.704   2.515  12.432 -0.2436 -0.6782  0.2322
  828MPD2    C212229   0.783   2.512  12.317 -0.0521 -0.9511 -0.2111
  828MPD2    C312230   0.918   2.476  12.332 -0.5391 -0.4351 -0.6243
  828MPD2    C412231   0.968   2.454  12.458  0.2313  0.5594  0.1406
  828MPD2    C512232   0.897   2.468  12.573 -0.7784 -0.4479  0.5385
  828MPD2     H12233   0.737   2.540  12.223  0.8486  0.0185 -0.3626
  828MPD2    H112234   1.074   2.434  12.470  0.1635  0.3941  0.4888
  828MPD2    H212235   0.708   2.504  12.649 -0.9194 -0.7361 -1.4974
  828MPD2    H312236   0.945   2.464  12.670  0.4946  0.1150 -0.0715
  828MPD2     N12237   1.007   2.467  12.229 -0.1536 -0.0445  0.5338
  828MPD2    H512238   1.101   2.432  12.249 -0.0730 -0.8820 -1.3053
  828MPD2    N112239   0.570   2.555  12.423 -0.3761  0.5801 -0.0373
  828MPD2    H712240   0.540   2.574  12.328 -0.8669  0.3270  0.0656
  829MPD2     C12241   0.325   2.807  11.669 -0.1136  0.3945 -0.1584
  829MPD2    C112242   0.241   2.707  11.703 -0.0068 -0.0964 -0.1759
  829MPD2    C212243   0.224   2.679  11.838  0.2982  0.4082 -0.1291
  829MPD2    C312244   0.293   2.752  11.937 -0.8035 -0.4826  1.0542
  829MPD2    C412245   0.377   2.849  11.896 -0.1584  0.2233 -0.1355
  829MPD2    C512246   0.398   2.873  11.764 -0.0939  0.1407  0.4606
  829MPD2     H12247   0.144   2.609  11.859  2.4975 -2.1081 -0.1506
  829MPD2    H112248   0.430   2.910  11.967 -0.8429 -0.3805  0.8983
  829MPD2    H212249   0.342   2.825  11.563  0.7353  0.9659  0.0717
  829MPD2    H312250   0.477   2.944  11.743  0.2200  0.2104  1.9155
  829MPD2     N12251   0.286   2.715  12.077  0.1572 -0.1656 -0.2454
  829MPD2    H512252   0.341   2.766  12.146  4.7520 -3.2255 -1.5809
  829MPD2    N112253   0.165   2.641  11.602 -0.0374  0.0510 -0.2669
  829MPD2    H712254   0.194   2.665  11.507  1.9053  1.7278  0.7502
  830MPD2     C12255   1.170   0.114  15.916 -0.9389 -0.0553  0.2038
  830MPD2    C112256   1.042   0.095  15.874 -0.0264 -0.2464  0.0418
  830MPD2    C212257   0.992   0.202  15.795  0.3690 -0.5180 -0.2459
  830MPD2    C312258   1.073   0.304  15.746 -0.3473 -0.5143 -0.0178
  830MPD2    C412259   1.203   0.315  15.788 -0.2437 -0.0493  0.0335
  830MPD2    C512260   1.243   0.224  15.884 -0.8635 -0.7965  0.4883
  830MPD2     H12261   0.898   0.182  15.744  0.1512 -1.5398  0.5593
  830MPD2    H112262   1.263   0.398  15.755 -1.0756 -0.3687 -2.2528
  830MPD2    H212263   1.218   0.048  15.987 -0.3317 -1.1822 -1.2689
  830MPD2    H312264   1.344   0.237  15.921 -0.6943 -1.6977  0.3424
  830MPD2     N12265   1.017   0.401  15.653 -0.0014  0.0824  0.8006
  830MPD2    H512266   1.078   0.474  15.618 -1.3995  1.0630  0.4130
  830MPD2    N112267   0.966   4.710  15.910 -1.0660  0.0393  0.0873
  830MPD2    H712268   1.028   4.635  15.937 -0.0240  1.6660  2.1608
  831MPD2     C12269   0.738   2.254  16.390  0.7106 -0.3516  0.3223
  831MPD2    C112270   0.758   2.138  16.313  0.2592 -0.0416 -0.0419
  831MPD2    C212271   0.661   2.039  16.318  0.2643 -0.1193  0.4637
  831MPD2    C312272   0.546   2.054  16.395 -0.2589 -0.4211 -0.4276
  831MPD2    C412273   0.537   2.166  16.476  0.8875  0.2608  0.6294
  831MPD2    C512274   0.635   2.259  16.478  0.0345 -0.0139 -0.7732
  831MPD2     H12275   0.668   1.950  16.256 -0.8772 -1.0714  1.6786
  831MPD2    H112276   0.456   2.183  16.545  0.6325 -0.4521  0.5040
  831MPD2    H212277   0.807   2.338  16.390 -0.1086  0.3206  1.1494
  831MPD2    H312278   0.637   2.340  16.550  1.3916 -0.8875  0.1764
  831MPD2     N12279   0.435   1.973  16.382  0.4382 -0.1954  0.2734
  831MPD2    H512280   0.371   1.965  16.461 -1.1982 -1.7408 -1.2064
  831MPD2    N112281   0.869   2.132  16.226 -0.0753  0.4997  0.0335
  831MPD2    H712282   0.919   2.218  16.209  0.6047  0.1888  0.4700
  832MPD2     C12283   4.442   3.387  17.199 -0.3493  1.0471 -0.3283
  832MPD2    C112284   4.435   3.500  17.127  1.1562  0.3574 -0.0133
  832MPD2    C212285   4.351   3.515  17.016  0.1774 -0.2338 -0.6099
  832MPD2    C312286   4.266   3.410  16.991 -0.0317  1.1123  0.1941
  832MPD2    C412287   4.272   3.298  17.072 -0.2989 -0.1570 -0.0902
  832MPD2    C512288   4.360   3.278  17.175 -0.1129  0.1543 -0.0133
  832MPD2     H12289   4.330   3.614  16.975  1.6871  0.1412 -0.4760
  832MPD2    H112290   4.194   3.225  17.054 -0.1833 -0.2888 -0.0599
  832MPD2    H212291   4.516   3.384  17.278 -0.8938 -0.5518  0.1098
  832MPD2    H312292   4.355   3.190  17.238  1.5275  0.5494  0.6581
  832MPD2     N12293   4.145   3.424  16.911  0.1839  0.3836  0.9417
  832MPD2    H512294   4.074   3.352  16.921  1.2741 -0.9937 -1.1882
  832MPD2    N112295   4.528   3.600  17.169  0.3409  0.1356  0.3637
  832MPD2    H712296   4.572   3.591  17.261 -0.3990 -0.6271  0.6425
  833MPD2     C12297   1.532   4.450  13.028  0.5721  0.7474 -0.6519
  833MPD2    C112298   1.437   4.486  12.932 -0.1129  0.1759 -0.0634
  833MPD2    C212299   1.469   4.473  12.796 -0.1329 -0.6930  0.2959
  833MPD2    C312300   1.579   4.399  12.757 -0.0658  0.0501  0.2457
  833MPD2    C412301   1.664   4.348  12.858  0.6586  0.2388  0.3168
  833MPD2    C512302   1.635   4.368  12.993  0.4521 -0.5640 -0.3901
  833MPD2     H12303   1.397   4.501  12.720  1.5775 -2.0177 -1.7793
  833MPD2    H112304   1.746   4.283  12.832  0.8433 -0.2705  2.1541
  833MPD2    H212305   1.527   4.458  13.136 -1.0750 -1.2219 -0.5842
  833MPD2    H312306   1.705   4.334  13.069 -0.4807 -1.4794  0.0554
  833MPD2     N12307   1.608   4.398  12.621 -0.2556 -0.1931 -0.3849
  833MPD2    H512308   1.536   4.438  12.562  2.0156  1.6831 -1.9401
  833MPD2    N112309   1.326   4.546  12.984 -0.4732 -0.0661 -0.0548
  833MPD2    H712310   1.314   4.561  13.083 -2.2211 -0.3929 -0.2095
  834MPD2     C12311   1.353   3.849  11.824  0.3554 -0.1444 -0.4842
  834MPD2    C112312   1.362   3.979  11.777  0.6017  0.4852 -0.6836
  834MPD2    C212313   1.428   4.077  11.847  0.2341 -0.0427  0.2685
  834MPD2    C312314   1.472   4.052  11.974  0.2869 -0.1994 -0.2210
  834MPD2    C412315   1.467   3.925  12.019 -0.5696 -0.0955  0.1544
  834MPD2    C512316   1.411   3.821  11.949 -0.2056  0.4090  0.2117
  834MPD2     H12317   1.435   4.173  11.797  0.4057 -1.1099 -1.7503
  834MPD2    H112318   1.497   3.890  12.117  0.5594  2.3209  0.6799
  834MPD2    H212319   1.313   3.770  11.762 -0.2725 -1.0380  1.0712
  834MPD2    H312320   1.419   3.722  11.992 -0.1086  0.1458 -0.4104
  834MPD2     N12321   1.524   4.167  12.054  0.1503 -0.2434  0.4971
  834MPD2    H512322   1.496   4.259  12.021 -0.4145 -0.0176  1.6060
  834MPD2    N112323   1.303   3.997  11.653  0.1478  0.7568  0.0250
  834MPD2    H712324   1.239   3.920  11.635  0.3405  0.2046  1.7443
  835MPD2     C12325   1.617   2.985  11.189  0.3850  0.2087 -0.0097
  835MPD2    C112326   1.513   2.989  11.280  0.6926  0.4435 -0.5192
  835MPD2    C212327   1.536   2.925  11.401  0.4623 -0.2660 -0.0281
  835MPD2    C312328   1.657   2.867  11.434 -0.1785 -0.1127  0.5393
  835MPD2    C412329   1.753   2.852  11.337 -0.6682 -0.6381  0.6650
  835MPD2    C512330   1.730   2.913  11.216 -0.0756 -0.3479 -0.2649
  835MPD2     H12331   1.450   2.924  11.467 -0.1319 -0.6858 -0.8130
  835MPD2    H112332   1.853   2.813  11.354 -0.3224  0.3739  0.9251
  835MPD2    H212333   1.617   3.049  11.102  1.0010  2.5039  1.6777
  835MPD2    H312334   1.814   2.929  11.150  2.5873 -3.8257  2.2598
  835MPD2     N12335   1.681   2.811  11.566  0.7048  0.0758 -0.7792
  835MPD2    H512336   1.764   2.755  11.582 -0.1058 -0.8508  0.2191
  835MPD2    N112337   1.388   3.041  11.261  0.0802 -0.0019  0.5139
  835MPD2    H712338   1.323   3.028  11.338 -1.0074  0.6765 -0.3058
  836MPD2     C12339   1.353   2.629  12.420 -0.1675 -0.4481  1.1765
  836MPD2    C112340   1.324   2.679  12.287  0.2204  0.5080  0.4475
  836MPD2    C212341   1.203   2.749  12.274 -0.6219 -0.6050  0.4435
  836MPD2    C312342   1.119   2.775  12.379  0.3214  0.4435 -0.1302
  836MPD2    C412343   1.158   2.717  12.498 -0.0418  0.7419  0.2354
  836MPD2    C512344   1.270   2.651  12.522 -0.0410  0.1237 -0.2215
  836MPD2     H12345   1.178   2.786  12.175  0.4121  0.5712  0.6262
  836MPD2    H112346   1.088   2.713  12.580  0.9719 -1.7687  0.9582
  836MPD2    H212347   1.447   2.587  12.454 -1.1414 -3.2517  0.3870
  836MPD2    H312348   1.293   2.619  12.623 -0.4347  3.6366  1.0029
  836MPD2     N12349   0.988   2.836  12.377 -0.3823  0.1495  0.0729
  836MPD2    H512350   0.947   2.854  12.468 -0.5079  1.2520 -0.2006
  836MPD2    N112351   1.424   2.651  12.187  0.3209  0.3890  0.7601
  836MPD2    H712352   1.504   2.596  12.215  0.2192 -0.9751 -1.6130
  837MPD2     C12353   4.513   2.368  10.173 -0.6519 -0.2922  0.0576
  837MPD2    C112354   4.401   2.409  10.110  0.5165 -0.2619 -0.8205
  837MPD2    C212355   4.384   2.544  10.084 -0.6111  0.7415  0.0976
  837MPD2    C312356   4.464   2.635  10.147  0.2049 -0.0034  0.5222
  837MPD2    C412357   4.587   2.589  10.200 -0.5037 -0.2101  0.2714
  837MPD2    C512358   4.607   2.457  10.209  0.6004  0.1498  0.0495
  837MPD2     H12359   4.294   2.567  10.029 -0.9499  0.4983  0.5497
  837MPD2    H112360   4.666   2.651  10.242 -1.2332  1.8687 -1.3939
  837MPD2    H212361   4.528   2.268  10.213 -0.7806 -0.7383 -0.9906
  837MPD2    H312362   4.698   2.425  10.258  0.9684 -2.6854 -2.5159
  837MPD2     N12363   4.424   2.771  10.144 -0.8511 -0.8000 -0.5698
  837MPD2    H512364   4.333   2.792  10.105 -1.6499 -3.3751 -0.1046
  837MPD2    N112365   4.286   2.327  10.089 -0.4919 -0.4864 -0.6712
  837MPD2    H712366   4.211   2.372  10.038  0.4061  2.7101  0.8496
  838MPD2     C12367   2.006   0.666  11.707  0.3708 -0.2542  0.8802
  838MPD2    C112368   2.065   0.569  11.787  0.1958  0.2138 -0.1379
  838MPD2    C212369   1.992   0.497  11.879  0.1358  0.5036 -0.1259
  838MPD2    C312370   1.851   0.513  11.896  0.6150  0.0362 -0.5395
  838MPD2    C412371   1.793   0.608  11.820  0.5092  0.5471  0.2517
  838MPD2    C512372   1.868   0.680  11.727  0.3514  0.5354 -0.0292
  838MPD2     H12373   2.036   0.413  11.931  1.4857  1.1363 -0.2453
  838MPD2    H112374   1.689   0.637  11.832  0.5760  0.2160  1.5799
  838MPD2    H212375   2.047   0.730  11.629 -3.2567  0.7730 -0.1732
  838MPD2    H312376   1.824   0.758  11.667  0.3623  0.6463  0.1071
  838MPD2     N12377   1.785   0.449  12.001  0.0462 -0.3494 -0.0796
  838MPD2    H512378   1.843   0.393  12.063  0.9265  0.1695 -0.4425
  838MPD2    N112379   2.206   0.548  11.791  0.0955  0.3308  0.2988
  838MPD2    H712380   2.237   0.478  11.858  3.1032  0.7847 -0.6360
  839MPD2     C12381   2.080   4.616  11.774 -0.1284  0.1195  0.4349
  839MPD2    C112382   2.139   4.645  11.650  0.3147  0.1363  0.4965
  839MPD2    C212383   2.258   4.718  11.640 -0.1097 -0.3713  0.1111
  839MPD2    C312384   2.300   0.038  11.759  0.0806 -0.4881 -0.4105
  839MPD2    C412385   2.245   0.011  11.881 -0.4795  0.2663 -0.8271
  839MPD2    C512386   2.134   4.676  11.888  0.7178 -0.1641 -0.8656
  839MPD2     H12387   2.314   4.731  11.549 -1.6592 -0.0905 -0.8020
  839MPD2    H112388   2.291   0.048  11.972  0.3832 -0.6926 -0.8682
  839MPD2    H212389   1.989   4.559  11.787 -0.0805  0.2666  1.4330
  839MPD2    H312390   2.084   4.664  11.983  1.1005  0.6726 -0.5516
  839MPD2     N12391   2.411   0.131  11.764 -0.3235 -0.3598 -0.9602
  839MPD2    H512392   2.423   0.190  11.845 -0.5049 -0.7903 -0.6211
  839MPD2    N112393   2.100   4.581  11.524 -0.4697 -0.0915  0.0165
  839MPD2    H712394   2.160   4.582  11.443 -0.1453  1.1584  0.2581
  840MPD2     C12395   2.996   3.288   9.874 -0.1540  0.2977  0.1927
  840MPD2    C112396   2.990   3.227   9.999 -0.4349 -0.3088  0.0047
  840MPD2    C212397   3.051   3.276  10.112  0.2804 -0.3300  1.0881
  840MPD2    C312398   3.130   3.392  10.102 -0.0328 -0.1249 -0.2168
  840MPD2    C412399   3.146   3.448   9.974 -0.0234 -0.1395  0.5553
  840MPD2    C512400   3.084   3.396   9.864 -0.0259  0.7735 -0.0741
  840MPD2     H12401   3.047   3.229  10.210 -0.3817  0.3207  1.3737
  840MPD2    H112402   3.200   3.541   9.962  1.2416 -0.7000  1.8746
  840MPD2    H212403   2.950   3.252   9.783 -1.1334  0.2116  0.7250
  840MPD2    H312404   3.096   3.454   9.773  1.6830  0.4935 -0.0096
  840MPD2     N12405   3.195   3.453  10.213 -0.3043  0.1203 -0.0084
  840MPD2    H512406   3.280   3.507  10.200  0.5660 -0.9691  1.2140
  840MPD2    N112407   2.897   3.126  10.017 -0.2729  0.2989  0.1399
  840MPD2    H712408   2.814   3.123   9.957  0.1381  0.7473 -0.4538
  841MPD2     C12409   2.293   2.952  14.769 -0.6808 -0.3419 -0.3725
  841MPD2    C112410   2.320   2.855  14.862 -0.0681 -0.8183 -0.1453
  841MPD2    C212411   2.447   2.837  14.902 -0.3993 -0.5286 -0.2809
  841MPD2    C312412   2.551   2.911  14.849 -0.1691 -0.1042 -0.1326
  841MPD2    C412413   2.523   3.007  14.754  0.7338 -0.0693  0.0375
  841MPD2    C512414   2.393   3.033  14.724  0.0184  0.1648 -1.1002
  841MPD2     H12415   2.478   2.756  14.966  0.6651 -1.0177 -1.4290
  841MPD2    H112416   2.600   3.067  14.707 -0.0895 -0.9470 -2.4214
  841MPD2    H212417   2.190   2.967  14.737  0.6975  3.9210 -2.7308
  841MPD2    H312418   2.379   3.119  14.659 -0.5426  0.9541  0.0669
  841MPD2     N12419   2.687   2.882  14.882  0.2819 -0.9621  0.2700
  841MPD2    H512420   2.700   2.796  14.933 -1.4085 -1.1106  0.4750
  841MPD2    N112421   2.233   2.753  14.911 -0.0387  0.2852  1.0229
  841MPD2    H712422   2.284   2.686  14.968  1.0712 -0.5582 -0.9891
  842MPD2     C12423   2.795   3.420  16.649  0.4900 -0.4092 -0.1286
  842MPD2    C112424   2.903   3.492  16.597  1.3736 -0.1784  0.3318
  842MPD2    C212425   3.024   3.484  16.658  0.1474 -0.1664  0.1070
  842MPD2    C312426   3.031   3.423  16.787 -0.3725 -0.7659 -0.5734
  842MPD2    C412427   2.928   3.350  16.841 -0.4148  0.1464 -0.3767
  842MPD2    C512428   2.808   3.348  16.770  0.1937 -1.3083  0.3024
  842MPD2     H12429   3.108   3.545  16.627  0.7920 -0.0569  2.0705
  842MPD2    H112430   2.927   3.295  16.935  1.2811  0.7872 -0.0014
  842MPD2    H212431   2.701   3.434  16.597  0.9450 -0.0631 -0.8593
  842MPD2    H312432   2.723   3.309  16.825 -0.6471  1.2745  0.8121
  842MPD2     N12433   3.140   3.421  16.874  0.2202  0.1686 -0.0816
  842MPD2    H512434   3.139   3.360  16.955 -1.7429 -0.0039 -0.2402
  842MPD2    N112435   2.871   3.577  16.488  0.2148 -0.2353  0.5830
  842MPD2    H712436   2.776   3.570  16.454  0.6752 -0.0983 -0.7292
  843MPD2     C12437   0.548   4.407  17.535 -0.4344  0.4210 -0.2758
  843MPD2    C112438   0.572   4.361  17.667 -0.0244  0.2250 -0.6994
  843MPD2    C212439   0.648   4.437   0.007 -0.0956 -0.0432  0.2142
  843MPD2    C312440   0.707   4.560  17.721  0.0934  0.2361 -1.2212
  843MPD2    C412441   0.682   4.600  17.593 -0.0537  0.1735 -0.1168
  843MPD2    C512442   0.606   4.528  17.511 -0.1534 -0.8283  0.4124
  843MPD2     H12443   0.669   4.399   0.106  2.7053  1.2210  0.1055
  843MPD2    H112444   0.723   4.695  17.560 -2.7415  1.8039  1.1737
  843MPD2    H212445   0.495   4.356  17.456 -1.7656  0.3511  0.6524
  843MPD2    H312446   0.600   4.563  17.409  0.5794 -1.1877  0.2385
  843MPD2     N12447   0.791   4.645   0.046 -1.1052  0.2794 -0.1829
  843MPD2    H512448   0.838   4.722  17.749 -0.7954  0.0125 -0.3108
  843MPD2    N112449   0.511   4.239  17.699 -0.1709 -0.3051  0.2409
  843MPD2    H712450   0.450   4.198  17.629 -0.3984  1.9836 -0.9045
  844MPD2     C12451   3.879   3.017  16.630  0.0787 -0.6618  0.2684
  844MPD2    C112452   3.896   3.096  16.516  0.5993 -0.2430 -0.0109
  844MPD2    C212453   4.001   3.184  16.520 -0.6794  0.0724  0.0425
  844MPD2    C312454   4.089   3.190  16.627 -0.0998  0.6449  0.7954
  844MPD2    C412455   4.061   3.111  16.736 -0.5391  0.4615 -0.0372
  844MPD2    C512456   3.955   3.031  16.739  0.7339 -0.3049  0.9565
  844MPD2     H12457   4.013   3.256  16.439 -0.5758 -1.6882 -1.5096
  844MPD2    H112458   4.126   3.115  16.822 -2.8235  2.3909  1.5921
  844MPD2    H212459   3.794   2.952  16.642 -1.2055  0.7726 -0.9523
  844MPD2    H312460   3.938   2.976  16.831 -0.5828 -2.8901 -0.8220
  844MPD2     N12461   4.207   3.271  16.623  0.2144  0.2839 -0.2280
  844MPD2    H512462   4.220   3.329  16.541 -3.0128  1.9740  0.4912
  844MPD2    N112463   3.826   3.080  16.391 -0.9152 -0.2572 -0.7098
  844MPD2    H712464   3.857   3.134  16.311 -0.1259 -0.6723 -0.6824
  845MPD2     C12465   4.491   4.217  16.694 -0.2969  0.1110  1.4761
  845MPD2    C112466   4.483   4.161  16.815  0.4118  0.4750  0.5392
  845MPD2    C212467   4.475   4.018  16.820  0.7556  0.2187 -0.6036
  845MPD2    C312468   4.473   3.940  16.706 -0.0177 -0.8676 -0.7654
  845MPD2    C412469   4.466   4.001  16.581 -0.4424  0.1246 -0.5356
  845MPD2    C512470   4.483   4.139  16.581 -0.0378  0.0721 -0.4870
  845MPD2     H12471   4.456   3.971  16.915 -2.4155 -0.3948 -1.5275
  845MPD2    H112472   4.474   3.962  16.481  0.0785  1.3513 -0.9792
  845MPD2    H212473   4.493   4.322  16.667 -1.4968  0.2645  1.9982
  845MPD2    H312474   4.493   4.189  16.485 -0.7060  0.3605 -0.4021
  845MPD2     N12475   4.459   3.798  16.725  0.1729 -0.5364  0.1698
  845MPD2    H512476   4.458   3.762  16.820  1.6153 -1.2439 -0.0756
  845MPD2    N112477   4.488   4.238  16.933 -0.9932 -0.7434  0.1205
  845MPD2    H712478   4.493   4.338  16.914 -1.1116 -0.7527  0.0363
  846MPD2     C12479   0.080   4.330  13.565 -0.5792  0.1217  0.1921
  846MPD2    C112480   0.197   4.304  13.628  0.6345 -0.3720 -0.3746
  846MPD2    C212481   0.196   4.312  13.765  0.1671  0.3005 -0.2365
  846MPD2    C312482   0.085   4.334  13.837  0.2591 -0.0725  0.5703
  846MPD2    C412483   4.699   4.348  13.773  0.2167  0.2506  0.2238
  846MPD2    C512484   4.701   4.347  13.633  0.7057  0.6871  0.1660
  846MPD2     H12485   0.290   4.298  13.818  0.5352  2.3459 -0.3558
  846MPD2    H112486   4.608   4.372  13.825 -1.3949 -0.2801 -2.3601
  846MPD2    H212487   0.064   4.329  13.458 -0.9763  2.0539  0.2460
  846MPD2    H312488   4.614   4.371  13.573  0.0145  1.7202  1.5750
  846MPD2     N12489   0.096   4.354  13.971 -0.1221 -0.0098  0.8950
  846MPD2    H512490   0.182   4.331  14.020  1.2911  4.9545  0.6649
  846MPD2    N112491   0.309   4.280  13.543  0.0397  0.0361 -0.3363
  846MPD2    H712492   0.290   4.266  13.445 -1.7740  2.1137 -0.2949
  847MPD2     C12493   0.369   0.315  14.891  0.3015 -1.0508 -0.2476
  847MPD2    C112494   0.456   0.410  14.849  0.8555 -0.7344 -1.2947
  847MPD2    C212495   0.578   0.372  14.798 -0.7237  0.6384  0.6077
  847MPD2    C312496   0.614   0.242  14.787 -0.4694  0.6511  0.0451
  847MPD2    C412497   0.521   0.145  14.824 -0.0036  0.1637  0.5742
  847MPD2    C512498   0.397   0.182  14.872  0.3513 -0.1678 -0.8431
  847MPD2     H12499   0.653   0.447  14.774  1.2773 -1.4588  0.3156
  847MPD2    H112500   0.535   0.037  14.817 -1.3766  0.0328 -0.2930
  847MPD2    H212501   0.277   0.346  14.940 -0.1055  2.3743 -3.2044
  847MPD2    H312502   0.322   0.106  14.890 -1.2030  1.5417 -0.2407
  847MPD2     N12503   0.744   0.215  14.749 -0.1737 -0.3243  0.0690
  847MPD2    H512504   0.793   0.302  14.733  0.2160 -0.5732 -0.0992
  847MPD2    N112505   0.431   0.547  14.873  0.1495  0.4377  0.5281
  847MPD2    H712506   0.517   0.602  14.871 -0.4478  1.3869  1.0449
  848MPD2     C12507   3.687   3.672  16.218 -0.3711 -0.1738  0.1707
  848MPD2    C112508   3.775   3.725  16.309 -0.0821  0.0249  0.4832
  848MPD2    C212509   3.812   3.862  16.298  0.0883 -0.2941  0.2428
  848MPD2    C312510   3.769   3.941  16.203 -0.1366  0.0379  0.4799
  848MPD2    C412511   3.690   3.878  16.106  0.4510  0.2263 -0.4989
  848MPD2    C512512   3.649   3.749  16.111  0.2702 -0.7204 -0.0254
  848MPD2     H12513   3.867   3.909  16.379 -0.8263 -0.1131  0.7503
  848MPD2    H112514   3.637   3.929  16.026 -2.1602 -0.1343  1.0202
  848MPD2    H212515   3.653   3.569  16.212 -0.1388 -0.2563  0.2758
  848MPD2    H312516   3.592   3.696  16.036  1.0967 -1.7916  0.1023
  848MPD2     N12517   3.805   4.077  16.194  0.0845  0.1435  0.2750
  848MPD2    H512518   3.753   4.131  16.126 -0.3601  0.4147  0.8298
  848MPD2    N112519   3.838   3.656  16.415 -0.3413 -0.3468  0.1105
  848MPD2    H712520   3.874   3.714  16.490 -0.8901 -0.6837  0.6315
  849MPD2     C12521   2.990   2.742  14.047  0.4454  0.6138 -0.3962
  849MPD2    C112522   3.005   2.875  14.074 -0.3045  0.0113 -0.2149
  849MPD2    C212523   3.086   2.917  14.177  0.2536  0.2991  0.3399
  849MPD2    C312524   3.158   2.822  14.254 -0.4101 -0.6471  0.5589
  849MPD2    C412525   3.136   2.686  14.226  0.8403  0.2774 -0.4690
  849MPD2    C512526   3.048   2.652  14.127 -0.1985  0.2371  0.3683
  849MPD2     H12527   3.107   3.022  14.191  0.6138  0.5754 -2.2909
  849MPD2    H112528   3.196   2.609  14.273 -0.5546  0.9780  2.4832
  849MPD2    H212529   2.918   2.707  13.974  2.6004  1.6401 -3.0046
  849MPD2    H312530   3.022   2.550  14.102 -0.5139  0.4524 -0.1841
  849MPD2     N12531   3.262   2.848  14.350 -0.2938  0.2989  0.2807
  849MPD2    H512532   3.313   2.768  14.386 -2.1480 -1.6875 -1.4963
  849MPD2    N112533   2.941   2.970  13.980  0.2870  0.1123 -0.0438
  849MPD2    H712534   2.915   2.935  13.888  4.0582  0.3510 -1.1879
  850MPD2     C12535   0.507   1.228  14.758  0.1646 -0.1310  0.3137
  850MPD2    C112536   0.519   1.352  14.822 -0.4183 -0.5753  0.6490
  850MPD2    C212537   0.647   1.383  14.876  0.0378 -1.3745 -0.2146
  850MPD2    C312538   0.754   1.298  14.858  0.4570 -0.1099  0.0565
  850MPD2    C412539   0.728   1.180  14.790  0.2749 -0.0253  0.1415
  850MPD2    C512540   0.609   1.139  14.736  0.3203  0.0123 -0.4421
  850MPD2     H12541   0.658   1.482  14.918 -2.2863 -0.5683 -1.4698
  850MPD2    H112542   0.813   1.113  14.778  0.0309 -0.3822  0.4411
  850MPD2    H212543   0.411   1.206  14.714  0.5347 -2.7820  0.8372
  850MPD2    H312544   0.588   1.043  14.691  3.6488 -1.2517  0.6754
  850MPD2     N12545   0.882   1.315  14.916  0.0563  0.2677 -0.1208
  850MPD2    H512546   0.945   1.238  14.894 -1.3477 -1.2434  1.1619
  850MPD2    N112547   0.403   1.437  14.836 -0.5592 -0.2191 -0.0752
  850MPD2    H712548   0.326   1.407  14.778  0.4102 -0.1465 -1.4060
  851MPD2     C12549   0.937   1.334  15.528 -0.4074 -0.0583  0.2728
  851MPD2    C112550   0.839   1.304  15.435  0.0054 -0.2206 -0.2956
  851MPD2    C212551   0.830   1.168  15.403 -0.3772 -0.5626 -0.0873
  851MPD2    C312552   0.920   1.076  15.462  0.3538 -0.4630  0.0473
  851MPD2    C412553   1.024   1.116  15.541  0.2980 -0.0631 -0.0254
  851MPD2    C512554   1.029   1.246  15.583 -0.1510 -0.3224  0.1430
  851MPD2     H12555   0.752   1.125  15.342 -1.8480  0.8673  0.7987
  851MPD2    H112556   1.084   1.044  15.596  1.9883  0.0936 -1.6732
  851MPD2    H212557   0.950   1.434  15.568 -1.9169  0.6218 -0.8988
  851MPD2    H312558   1.107   1.281  15.650  2.2056 -0.5079 -2.5152
  851MPD2     N12559   0.905   0.939  15.424 -0.2810 -0.0931  0.0640
  851MPD2    H512560   0.817   0.916  15.379 -1.3101  2.0738  0.9690
  851MPD2    N112561   0.762   1.409  15.370 -0.2530  0.3930 -0.5312
  851MPD2    H712562   0.793   1.502  15.395  0.2773 -0.5212  2.1689
  852MPD2     C12563   0.240   0.409   9.219  0.0943 -0.1515  0.1796
  852MPD2    C112564   0.233   0.403   9.360 -0.1261  0.0938  0.5353
  852MPD2    C212565   0.320   0.480   9.432 -1.1240 -0.9376 -0.2381
  852MPD2    C312566   0.422   0.558   9.368  0.3974 -0.3397  0.9512
  852MPD2    C412567   0.410   0.567   9.231  0.0919  0.2733 -0.5643
  852MPD2    C512568   0.322   0.495   9.160  0.7935  0.2361 -0.1405
  852MPD2     H12569   0.320   0.465   9.540 -3.6871  0.8942  0.0151
  852MPD2    H112570   0.488   0.623   9.182 -0.9288  1.5190 -0.7604
  852MPD2    H212571   0.171   0.354   9.157 -3.6473  2.4861  2.0096
  852MPD2    H312572   0.337   0.511   9.054  1.7725  0.0974 -0.0177
  852MPD2     N12573   0.524   0.626   9.439 -0.7705 -0.2704 -0.2499
  852MPD2    H512574   0.601   0.661   9.383 -0.6631 -0.8834 -0.4832
  852MPD2    N112575   0.134   0.330   9.427  0.0456 -0.1533 -0.1754
  852MPD2    H712576   0.128   0.347   9.527 -2.1410 -2.2667  0.0324
  853MPD2     C12577   2.305   3.283  12.346  0.7924  0.1762  0.6091
  853MPD2    C112578   2.253   3.409  12.321 -0.6993  0.6602 -0.1641
  853MPD2    C212579   2.231   3.452  12.187 -0.3630  1.1339  0.5307
  853MPD2    C312580   2.270   3.370  12.081  0.6057  0.3229  0.1722
  853MPD2    C412581   2.325   3.244  12.109  0.4414 -0.2733  0.1595
  853MPD2    C512582   2.347   3.204  12.246 -0.0253 -0.1837 -0.5006
  853MPD2     H12583   2.178   3.545  12.170  0.9949  1.8584  0.1866
  853MPD2    H112584   2.359   3.174  12.034  2.0253  0.2509  0.3930
  853MPD2    H212585   2.300   3.241  12.445 -1.2241 -0.7831  0.1011
  853MPD2    H312586   2.388   3.106  12.265 -0.6834 -0.7272 -1.8508
  853MPD2     N12587   2.252   3.410  11.944 -0.5805  0.2392  0.8439
  853MPD2    H512588   2.295   3.352  11.873  0.3756 -0.7652  2.2580
  853MPD2    N112589   2.224   3.482  12.437  0.0001  0.2578 -0.0254
  853MPD2    H712590   2.261   3.447  12.524  0.4831  1.7803  0.3858
  854MPD2     C12591   3.921   3.977  12.640 -0.5588 -0.0366  0.1781
  854MPD2    C112592   3.872   3.904  12.751 -0.4267 -0.0591  0.0653
  854MPD2    C212593   3.962   3.829  12.821 -0.5742 -0.0273  0.0978
  854MPD2    C312594   4.100   3.826  12.791  0.1986  0.3436 -0.1948
  854MPD2    C412595   4.147   3.895  12.687 -0.8693  0.0585 -0.2919
  854MPD2    C512596   4.054   3.964  12.612 -0.8581  0.5926 -0.2236
  854MPD2     H12597   3.934   3.760  12.900 -1.1719 -0.4125 -0.4504
  854MPD2    H112598   4.251   3.914  12.663 -0.1472 -0.7991  2.1655
  854MPD2    H212599   3.859   4.047  12.586  1.7253 -0.2104 -2.6362
  854MPD2    H312600   4.089   4.016  12.523  0.2270 -1.9874 -1.2791
  854MPD2     N12601   4.190   3.735  12.862  0.9105 -0.3992 -0.0605
  854MPD2    H512602   4.153   3.694  12.946 -0.8142  1.8058  0.2584
  854MPD2    N112603   3.740   3.931  12.798  0.5686  0.3948 -0.0494
  854MPD2    H712604   3.695   4.015  12.762 -0.0457 -0.0213 -0.2510
  855MPD2     C12605   4.332   3.648  13.731 -0.4966 -0.3058  0.3259
  855MPD2    C112606   4.369   3.529  13.669  0.0149  0.1894 -0.5365
  855MPD2    C212607   4.382   3.521  13.527 -0.4466 -0.6978  0.2065
  855MPD2    C312608   4.360   3.634  13.451 -0.8976  0.4060 -0.4111
  855MPD2    C412609   4.321   3.747  13.518  0.8859  0.5137 -0.1965
  855MPD2    C512610   4.321   3.757  13.654 -0.4514  0.6889 -0.7644
  855MPD2     H12611   4.408   3.424  13.486  1.6931  1.2614 -3.0381
  855MPD2    H112612   4.318   3.842  13.465  4.2606  0.7057 -0.0530
  855MPD2    H212613   4.317   3.653  13.838 -0.1643 -1.5453  0.4390
  855MPD2    H312614   4.313   3.859  13.688  1.1086 -0.0073  1.7135
  855MPD2     N12615   4.379   3.638  13.313  0.3732  0.3687 -0.3265
  855MPD2    H512616   4.347   3.717  13.258 -2.2021 -0.2456  0.2807
  855MPD2    N112617   4.373   3.404  13.727  0.1912  0.3829 -0.1598
  855MPD2    H712618   4.379   3.315  13.679  0.5828  1.0222 -1.2976
  856MPD2     C12619   2.065   3.966  14.289 -0.6138 -0.1037 -0.0668
  856MPD2    C112620   2.038   4.098  14.264  0.6321  0.6002 -0.2532
  856MPD2    C212621   1.909   4.132  14.249  0.2417 -0.6652 -0.0485
  856MPD2    C312622   1.800   4.044  14.251 -0.0655 -0.0335 -0.0209
  856MPD2    C412623   1.824   3.911  14.275 -0.5782 -0.2997  0.2420
  856MPD2    C512624   1.958   3.881  14.298 -0.1022  0.5681  0.7583
  856MPD2     H12625   1.885   4.230  14.210  1.5723 -1.2285 -2.3400
  856MPD2    H112626   1.747   3.835  14.275 -2.0929  1.2391 -1.7422
  856MPD2    H212627   2.166   3.928  14.299 -0.1651  0.4648 -2.4349
  856MPD2    H312628   1.988   3.780  14.322  1.8895  0.8169 -0.7318
  856MPD2     N12629   1.672   4.086  14.215 -0.1189 -0.2935  0.4337
  856MPD2    H512630   1.603   4.012  14.222  0.3118 -0.6923  0.4607
  856MPD2    N112631   2.132   4.202  14.248  0.7347  0.0216 -0.1042
  856MPD2    H712632   2.096   4.286  14.205  1.4834  0.8681  0.9196
  857MPD2     C12633   3.730   2.213  11.993  0.1671 -0.3473  0.3405
  857MPD2    C112634   3.621   2.254  12.075 -0.7433 -0.1985 -0.4193
  857MPD2    C212635   3.621   2.374  12.135  0.0696 -0.7988  0.0507
  857MPD2    C312636   3.731   2.458  12.127  0.6473 -0.6222 -0.1426
  857MPD2    C412637   3.833   2.417  12.044  0.3821 -0.0404  0.1752
  857MPD2    C512638   3.833   2.298  11.983 -0.1122  0.1335 -0.0125
  857MPD2     H12639   3.542   2.405  12.202  1.1743  2.1742 -0.0435
  857MPD2    H112640   3.914   2.487  12.029  0.2689 -0.7071 -3.4959
  857MPD2    H212641   3.749   2.108  11.972  0.6718 -0.1830 -0.0139
  857MPD2    H312642   3.922   2.258  11.936 -0.0750 -1.1253  1.1089
  857MPD2     N12643   3.740   2.566  12.219 -0.0009 -0.5492 -0.1470
  857MPD2    H512644   3.661   2.604  12.269  2.0021  3.6359 -0.1518
  857MPD2    N112645   3.520   2.160  12.101  0.3145  0.2946  0.2266
  857MPD2    H712646   3.528   2.066  12.063  2.3140 -0.1997  1.8509
  858MPD2     C12647   3.856   1.310  16.635 -0.5165 -0.4239  0.0032
  858MPD2    C112648   3.985   1.262  16.641 -0.2782 -0.3561 -0.0442
  858MPD2    C212649   4.063   1.286  16.750 -0.0957 -0.5878 -0.4584
  858MPD2    C312650   4.016   1.369  16.850  0.4880  0.2331 -0.3320
  858MPD2    C412651   3.893   1.434  16.833 -0.4498 -0.2606  0.9372
  858MPD2    C512652   3.807   1.394  16.729 -0.5989 -1.0762 -0.5301
  858MPD2     H12653   4.158   1.234  16.753  0.5088  0.6534  2.0213
  858MPD2    H112654   3.857   1.509  16.902 -3.5952  0.0463 -1.0274
  858MPD2    H212655   3.797   1.302  16.544  1.0610  0.8453 -1.1495
  858MPD2    H312656   3.715   1.449  16.717 -0.9708 -1.6667 -0.3792
  858MPD2     N12657   4.093   1.413  16.963  0.1192  0.5920 -0.1305
  858MPD2    H512658   4.053   1.491  17.014 -0.8895  0.0738 -0.1367
  858MPD2    N112659   4.036   1.170  16.535 -0.0266  0.3219  0.5148
  858MPD2    H712660   3.968   1.147  16.463  0.2028  1.0993  0.0413
  859MPD2     C12661   3.072   3.254  15.862  0.2687 -0.4324  0.2885
  859MPD2    C112662   2.963   3.244  15.775  0.1922 -0.0711 -0.1697
  859MPD2    C212663   2.878   3.139  15.777 -0.1349 -0.1362 -0.7375
  859MPD2    C312664   2.904   3.039  15.872 -0.3240 -0.5684 -0.2148
  859MPD2    C412665   3.002   3.055  15.965  0.4993  0.2351 -0.6374
  859MPD2    C512666   3.093   3.161  15.959 -0.7842 -0.5122 -0.2877
  859MPD2     H12667   2.797   3.143  15.705 -1.4891 -1.8276  0.6688
  859MPD2    H112668   2.989   2.993  16.052 -0.4938 -0.4251 -1.2581
  859MPD2    H212669   3.143   3.335  15.867  1.3512 -1.2592 -2.0783
  859MPD2    H312670   3.167   3.170  16.037 -2.2625  1.6096  0.8735
  859MPD2     N12671   2.829   2.923  15.872  0.6094 -0.1772 -0.0524
  859MPD2    H512672   2.853   2.858  15.946 -1.8086 -0.9450  0.0566
  859MPD2    N112673   2.958   3.354  15.686 -0.3745  0.6238 -0.1673
  859MPD2    H712674   3.033   3.422  15.688 -0.6393  0.9030  0.0492
  860MPD2     C12675   0.417   3.408  11.748  1.2174  0.0401  0.2766
  860MPD2    C112676   0.411   3.406  11.884  0.1758  0.1641  0.2867
  860MPD2    C212677   0.326   3.321  11.942  0.4269  0.3014 -0.0263
  860MPD2    C312678   0.230   3.246  11.872 -1.2061 -0.6956  0.5309
  860MPD2    C412679   0.242   3.239  11.737 -0.0640 -0.1016  0.1426
  860MPD2    C512680   0.332   3.325  11.679 -0.0181 -0.4545  0.4810
  860MPD2     H12681   0.336   3.306  12.049 -1.8911  1.6194  0.3812
  860MPD2    H112682   0.182   3.180  11.668  1.4469 -0.2523 -1.0377
  860MPD2    H212683   0.485   3.458  11.679  0.8178  1.5564  0.9644
  860MPD2    H312684   0.338   3.337  11.572 -1.5106  1.2335  0.5982
  860MPD2     N12685   0.137   3.166  11.938 -0.0860 -0.5124 -0.4887
  860MPD2    H512686   0.145   3.160  12.039 -0.6347 -1.1812 -0.4839
  860MPD2    N112687   0.487   3.491  11.964  0.4656  0.4787 -0.7547
  860MPD2    H712688   0.495   3.470  12.064 -1.2478  0.4992 -0.6251
  861MPD2     C12689   3.987   1.531  11.037 -0.5300  0.1279  0.5347
  861MPD2    C112690   3.985   1.665  11.070 -0.3922 -0.4422  0.3703
  861MPD2    C212691   3.862   1.726  11.048 -0.0454 -0.2307 -0.4447
  861MPD2    C312692   3.754   1.661  10.985 -0.1609  0.4485 -0.5570
  861MPD2    C412693   3.767   1.526  10.955  0.6380 -0.2814 -0.2660
  861MPD2    C512694   3.878   1.468  10.982 -0.3526 -0.4552 -0.3625
  861MPD2     H12695   3.852   1.832  11.071 -2.1538 -0.8802  1.6292
  861MPD2    H112696   3.680   1.477  10.912 -0.6217  0.3115  1.6217
  861MPD2    H212697   4.065   1.466  11.074 -0.6554 -0.2452  0.1325
  861MPD2    H312698   3.886   1.363  10.956  1.3467  0.2079 -2.5578
  861MPD2     N12699   3.651   1.750  10.948  0.1753 -0.1886 -0.1343
  861MPD2    H512700   3.667   1.844  10.984 -0.7509 -0.2155  0.3426
  861MPD2    N112701   4.090   1.739  11.135 -0.1499  0.3808  0.4414
  861MPD2    H712702   4.065   1.832  11.166  2.8718  1.6729 -0.9123
  862MPD2     C12703   2.837   1.789  10.690 -0.2689 -0.3466 -0.3017
  862MPD2    C112704   2.940   1.718  10.750 -0.1779 -0.3235 -0.3718
  862MPD2    C212705   2.906   1.605  10.823  0.0421  0.0899 -0.7474
  862MPD2    C312706   2.779   1.562  10.839  0.0572 -0.1722  0.3129
  862MPD2    C412707   2.681   1.630  10.768  0.5157  0.0443  0.6622
  862MPD2    C512708   2.710   1.742  10.696 -0.2512  0.3163 -0.3268
  862MPD2     H12709   2.987   1.548  10.868  0.2935 -0.8371 -2.3630
  862MPD2    H112710   2.578   1.595  10.766  0.0878  1.2484  1.3426
  862MPD2    H212711   2.853   1.880  10.633 -0.2644 -0.2717 -0.1793
  862MPD2    H312712   2.635   1.792  10.636 -0.1303  0.1092 -0.6474
  862MPD2     N12713   2.735   1.464  10.926  0.2237  0.3096 -0.2129
  862MPD2    H512714   2.654   1.414  10.892 -0.5440  0.2649  1.7156
  862MPD2    N112715   3.074   1.761  10.752  0.3893 -0.3291 -0.4018
  862MPD2    H712716   3.138   1.692  10.790  2.3183  1.3599 -0.5950
  863MPD2     C12717   2.499   4.731  16.423  0.1675 -0.0216 -0.0215
  863MPD2    C112718   2.427   0.061  16.518 -0.5689 -0.1309  0.5911
  863MPD2    C212719   2.478   0.070  16.645 -0.5406 -0.3765 -0.9082
  863MPD2    C312720   2.589   0.003  16.686 -0.1168  0.3193  0.0798
  863MPD2    C412721   2.658   4.667  16.587  0.0574 -0.3396  0.2523
  863MPD2    C512722   2.615   4.666  16.459 -0.2660  0.2113 -0.2607
  863MPD2     H12723   2.416   0.126  16.714 -1.5478 -0.5033 -1.7159
  863MPD2    H112724   2.747   4.609  16.611  2.8145  3.1751 -1.5067
  863MPD2    H212725   2.467   4.737  16.320 -2.4647  1.4873  0.8623
  863MPD2    H312726   2.659   4.606  16.380 -0.9632  2.0219 -2.0244
  863MPD2     N12727   2.650   0.012  16.816  0.3475  0.2258  0.4033
  863MPD2    H512728   2.714   4.673  16.837 -1.7033 -1.1564  1.6063
  863MPD2    N112729   2.311   0.123  16.474  0.6522 -0.2611  0.2222
  863MPD2    H712730   2.267   0.091  16.389  0.2176 -1.4350  0.8837
  864MPD2     C12731   2.788   1.757  17.297 -0.0743  0.0066 -0.6397
  864MPD2    C112732   2.850   1.660  17.223  0.5341  0.1861  0.7361
  864MPD2    C212733   2.917   1.708  17.109 -0.0929 -0.2723  0.0147
  864MPD2    C312734   2.922   1.839  17.071 -0.5413  0.1451  0.8043
  864MPD2    C412735   2.862   1.934  17.145 -0.1347 -0.2544 -0.3404
  864MPD2    C512736   2.791   1.888  17.260 -0.7015  0.4038  0.1237
  864MPD2     H12737   2.940   1.626  17.042  2.4661  0.7138 -0.3069
  864MPD2    H112738   2.851   2.040  17.128 -1.1006 -0.4402 -0.9118
  864MPD2    H212739   2.732   1.741  17.389 -1.9225 -0.1149 -1.7937
  864MPD2    H312740   2.720   1.951  17.314 -0.9260 -0.6134  1.0032
  864MPD2     N12741   2.987   1.882  16.948 -0.4543  0.8100 -0.5454
  864MPD2    H512742   2.974   1.979  16.922  0.3649  1.2302  0.5927
  864MPD2    N112743   2.822   1.521  17.247  0.1798 -0.3099 -0.3987
  864MPD2    H712744   2.757   1.492  17.319  0.6502 -1.3029 -0.3775
  865MPD2     C12745   2.922   1.706  15.986  0.1339 -0.0713  0.9649
  865MPD2    C112746   2.919   1.636  16.107  0.3543  0.4439  0.7133
  865MPD2    C212747   2.924   1.714  16.224 -0.4785 -1.3901 -0.1426
  865MPD2    C312748   2.941   1.848  16.219 -0.2976 -0.0412 -0.0906
  865MPD2    C412749   2.944   1.917  16.099  0.0190 -0.0029 -0.2294
  865MPD2    C512750   2.925   1.840  15.982  0.6804 -0.5311 -1.0917
  865MPD2     H12751   2.908   1.668  16.320 -1.1172 -0.1081  0.3751
  865MPD2    H112752   2.961   2.024  16.101  0.4814 -0.1271  2.2427
  865MPD2    H212753   2.917   1.659  15.889 -3.2433 -0.2411  1.2461
  865MPD2    H312754   2.893   1.896  15.895 -2.4019  1.1576  1.1141
  865MPD2     N12755   2.960   1.924  16.337  0.1965 -0.0322 -0.8462
  865MPD2    H512756   2.988   2.020  16.320  1.7570  0.1056  2.5673
  865MPD2    N112757   2.932   1.492  16.107 -0.8300 -0.1879  0.3799
  865MPD2    H712758   2.941   1.450  16.015 -0.4022 -0.8583  0.7237
  866MPD2     C12759   4.624   1.691  10.889  0.1610 -0.1359 -0.5117
  866MPD2    C112760   4.656   1.823  10.880  0.4723 -0.0586 -0.3633
  866MPD2    C212761   4.554   1.922  10.873  0.0586  0.3021  0.1574
  866MPD2    C312762   4.419   1.878  10.866  0.0919 -0.4364  0.1263
  866MPD2    C412763   4.397   1.742  10.853  0.7430  0.1478 -0.7041
  866MPD2    C512764   4.495   1.653  10.869 -0.3792  0.5005 -0.1850
  866MPD2     H12765   4.573   2.028  10.879 -0.4424  0.3886  0.2584
  866MPD2    H112766   4.295   1.707  10.840  1.0725 -1.0484 -0.0639
  866MPD2    H212767   4.697   1.612  10.894  0.2863 -0.0872 -1.5740
  866MPD2    H312768   4.475   1.546  10.869  1.3840  0.1637 -0.5532
  866MPD2     N12769   4.303   1.955  10.870  0.8763 -0.1277  0.5654
  866MPD2    H512770   4.214   1.907  10.858  1.4046 -0.7381 -0.8932
  866MPD2    N112771   0.057   1.850  10.882 -1.0118  0.3550  0.2561
  866MPD2    H712772   0.116   1.769  10.896 -1.4231  0.3610  2.0428
  867MPD2     C12773   1.933   1.558  16.661  0.0258 -0.3886  0.3260
  867MPD2    C112774   1.984   1.475  16.764  0.1174  0.8637 -0.1642
  867MPD2    C212775   2.030   1.531  16.885  0.1272  0.3600  0.0161
  867MPD2    C312776   2.024   1.667  16.906 -0.6329 -0.3117 -0.1906
  867MPD2    C412777   1.968   1.742  16.806 -0.6045 -0.3327 -0.6709
  867MPD2    C512778   1.924   1.690  16.684 -0.2582 -0.0798  0.4174
  867MPD2     H12779   2.080   1.481  16.967 -2.2605 -1.1868  0.5051
  867MPD2    H112780   1.966   1.849  16.817  1.0896 -0.2284 -1.3128
  867MPD2    H212781   1.904   1.525  16.562  1.4609 -0.6667 -0.0065
  867MPD2    H312782   1.877   1.750  16.607 -0.5932 -1.0663 -0.1470
  867MPD2     N12783   2.071   1.731  17.022  0.0542  0.3555  0.1788
  867MPD2    H512784   2.066   1.832  17.025  1.1953  0.3812  0.9127
  867MPD2    N112785   2.006   1.338  16.726 -0.8235  0.1926  0.2236
  867MPD2    H712786   1.988   1.300  16.634 -0.7691  0.0678  0.2660
  868MPD2     C12787   3.234   0.878  13.057  0.3482  0.5482  0.8885
  868MPD2    C112788   3.343   0.843  13.139  0.2001  0.1077  0.9670
  868MPD2    C212789   3.330   0.854  13.276 -0.1553  0.6392  0.1513
  868MPD2    C312790   3.205   0.887  13.329 -0.5477  0.4843 -0.6708
  868MPD2    C412791   3.095   0.901  13.247  0.5213  0.1762  0.1886
  868MPD2    C512792   3.117   0.906  13.116 -0.7801  0.0220  0.6612
  868MPD2     H12793   3.407   0.826  13.347  0.0362  0.8915  0.0434
  868MPD2    H112794   2.995   0.920  13.284  0.0378  1.6185 -1.8608
  868MPD2    H212795   3.231   0.872  12.949 -0.4713 -2.1800  1.0582
  868MPD2    H312796   3.030   0.923  13.054  1.3972 -2.2451 -3.0235
  868MPD2     N12797   3.197   0.889  13.473 -0.0758 -0.0336  0.5466
  868MPD2    H512798   3.284   0.863  13.519 -1.0405  0.6105  2.7608
  868MPD2    N112799   3.457   0.793  13.077 -0.7337 -0.7471 -0.1559
  868MPD2    H712800   3.457   0.792  12.975  1.2143 -3.6184 -0.1171
  869MPD2     C12801   4.643   3.231   1.650 -0.1076 -0.0288 -0.3524
  869MPD2    C112802   4.563   3.343   1.646  0.3318  0.6771  0.0456
  869MPD2    C212803   4.589   3.432   1.543 -0.8751  0.0330 -0.7150
  869MPD2    C312804   4.698   3.410   1.453  0.2729  0.3500  0.2399
  869MPD2    C412805   0.035   3.291   1.461 -0.2312  0.1966  0.5523
  869MPD2    C512806   0.001   3.204   1.558  0.3111  0.3114 -0.4755
  869MPD2     H12807   4.537   3.526   1.531 -4.0570 -2.1380 -3.7807
  869MPD2    H112808   0.119   3.271   1.396 -0.3507  1.9616 -0.1546
  869MPD2    H212809   4.619   3.146   1.713  0.1713  0.2013  0.0613
  869MPD2    H312810   0.055   3.111   1.571  0.0320  0.1883 -0.2202
  869MPD2     N12811   4.732   3.512   1.362  0.3656  0.6714 -0.2464
  869MPD2    H512812   4.667   3.589   1.350 -2.4172 -1.4409  1.2193
  869MPD2    N112813   4.455   3.351   1.731 -0.7839 -0.0948 -0.4051
  869MPD2    H712814   4.452   3.284   1.807  0.8161 -0.6180 -0.7989
  870MPD2     C12815   4.338   2.692   1.807 -0.0855 -0.2210 -0.5321
  870MPD2    C112816   4.394   2.642   1.694 -0.6575  0.2431 -0.5377
  870MPD2    C212817   4.432   2.733   1.602  0.4475  0.1919  0.5106
  870MPD2    C312818   4.412   2.872   1.619  0.1474 -0.3621 -0.0328
  870MPD2    C412819   4.365   2.922   1.737 -0.4137 -0.2440 -0.5525
  870MPD2    C512820   4.320   2.835   1.831  0.5425  0.1195  0.6149
  870MPD2     H12821   4.443   2.688   1.504  2.2936 -0.1020  0.8505
  870MPD2    H112822   4.348   3.028   1.749 -1.3757 -0.6803  1.8573
  870MPD2    H212823   4.288   2.632   1.882  3.4251 -0.6661  1.4897
  870MPD2    H312824   4.253   2.863   1.912  1.2648  0.4284  1.1137
  870MPD2     N12825   4.454   2.954   1.511 -0.4117  0.0869 -0.3706
  870MPD2    H512826   4.510   2.898   1.446 -1.5493 -0.8203 -0.5669
  870MPD2    N112827   4.409   2.504   1.685 -0.1356  0.1134  0.2209
  870MPD2    H712828   4.372   2.436   1.752 -0.6474  0.3123  0.1402
  871MPD2     C12829   0.612   1.602  16.333  0.9796 -0.4851 -0.4994
  871MPD2    C112830   0.568   1.504  16.427 -0.3634 -0.3650  0.4572
  871MPD2    C212831   0.570   1.375  16.390  0.4619 -0.9043  0.1823
  871MPD2    C312832   0.647   1.336  16.281  0.1673  0.5910 -0.1931
  871MPD2    C412833   0.687   1.427  16.187 -0.5506 -0.7257 -0.6455
  871MPD2    C512834   0.667   1.563  16.210  0.1999 -0.8362  0.2628
  871MPD2     H12835   0.535   1.293  16.451  0.2007 -0.6253  0.4045
  871MPD2    H112836   0.721   1.401  16.087  2.6663 -0.6058  0.4229
  871MPD2    H212837   0.598   1.707  16.356 -0.4352 -0.5211 -1.1634
  871MPD2    H312838   0.678   1.640  16.135 -0.3291  0.6659  1.7235
  871MPD2     N12839   0.689   1.200  16.266  0.0455  0.0720  0.3138
  871MPD2    H512840   0.643   1.136  16.329 -0.3852 -1.6374 -1.7534
  871MPD2    N112841   0.511   1.548  16.546 -0.5984  0.2381  0.2874
  871MPD2    H712842   0.536   1.642  16.573 -1.7188  0.5692  0.1680
  872MPD2     C12843   1.732   3.778  13.805  0.7560 -0.4481  0.6197
  872MPD2    C112844   1.807   3.758  13.915 -0.7681  0.4309  0.1949
  872MPD2    C212845   1.762   3.690  14.034  0.2143 -0.2930  0.2716
  872MPD2    C312846   1.635   3.637  14.036  0.3057  0.9102 -0.1710
  872MPD2    C412847   1.560   3.644  13.917 -0.1239 -0.1939  0.0421
  872MPD2    C512848   1.605   3.715  13.808  0.4716 -0.3765 -0.4013
  872MPD2     H12849   1.829   3.698  14.119  0.1908  0.5022  0.2158
  872MPD2    H112850   1.460   3.603  13.925 -0.0857 -0.0793  1.1660
  872MPD2    H212851   1.764   3.823  13.712 -3.3824  1.7215  0.2356
  872MPD2    H312852   1.539   3.716  13.722 -0.7095 -2.2162  0.4994
  872MPD2     N12853   1.581   3.584  14.154  0.3073  0.1865  0.5962
  872MPD2    H512854   1.487   3.545  14.144  0.5962 -1.0235  2.4885
  872MPD2    N112855   1.937   3.817  13.930  0.5472 -0.0662 -0.1955
  872MPD2    H712856   1.993   3.798  14.012  0.4032 -0.4413 -0.1845
  873MPD2     C12857   3.957   4.202   1.000  0.3746 -0.5632  0.0016
  873MPD2    C112858   3.841   4.209   0.926 -0.3900  0.2440 -0.5954
  873MPD2    C212859   3.775   4.089   0.899  0.0913  0.0684  0.2273
  873MPD2    C312860   3.842   3.962   0.920 -0.3940  0.8160  0.4486
  873MPD2    C412861   3.974   3.957   0.960  0.2280 -0.2355 -0.4086
  873MPD2    C512862   4.020   4.078   1.012  0.5362  0.0131  0.4976
  873MPD2     H12863   3.674   4.087   0.862 -0.1742  1.6330  0.8716
  873MPD2    H112864   4.021   3.860   0.975  1.3948  0.5163  0.7120
  873MPD2    H212865   3.997   4.298   1.032  0.3084 -0.4489 -0.2569
  873MPD2    H312866   4.113   4.086   1.067  0.3820  0.7174  0.6614
  873MPD2     N12867   3.783   3.837   0.879  0.4467  0.3817 -0.0078
  873MPD2    H512868   3.847   3.761   0.861 -0.5007 -1.1166  3.0341
  873MPD2    N112869   3.784   4.341   0.906  0.2615 -0.2591  0.0589
  873MPD2    H712870   3.841   4.422   0.929 -0.3542  0.9448 -2.6682
  874MPD2     C12871   3.066   4.368  16.058 -0.4097 -0.1086 -0.6324
  874MPD2    C112872   3.104   4.283  16.162 -0.5993  0.4165  0.7282
  874MPD2    C212873   3.234   4.301  16.222 -0.9432 -0.1068 -0.3427
  874MPD2    C312874   3.322   4.400  16.171 -0.0642  0.8886  0.2622
  874MPD2    C412875   3.285   4.471  16.061 -0.0985  1.4897 -0.7787
  874MPD2    C512876   3.155   4.462  16.012 -0.0988  0.2982  0.0501
  874MPD2     H12877   3.258   4.242  16.309 -0.8799  1.4467  0.6889
  874MPD2    H112878   3.339   4.553  16.015  1.8296  0.7494  0.1397
  874MPD2    H212879   2.975   4.357  16.001 -0.1417 -1.2843 -0.8215
  874MPD2    H312880   3.124   4.532  15.936 -0.4212  0.1141  0.0106
  874MPD2     N12881   3.449   4.407  16.229 -0.3138  0.2347 -0.2138
  874MPD2    H512882   3.466   4.358  16.317  1.5593 -0.2368 -0.8500
  874MPD2    N112883   3.016   4.182  16.196  0.0292  0.2216 -1.1777
  874MPD2    H712884   2.920   4.194  16.166 -1.0381 -2.3550  1.2082
  875MPD2     C12885   3.156   1.801  14.091  0.3380  0.2063  0.1845
  875MPD2    C112886   3.256   1.876  14.042 -0.6180  0.0439 -0.1326
  875MPD2    C212887   3.340   1.945  14.126 -0.2541 -0.0446  0.4228
  875MPD2    C312888   3.322   1.935  14.264  0.3018  0.5682  0.4940
  875MPD2    C412889   3.221   1.859  14.306 -0.0929  0.2147  0.4408
  875MPD2    C512890   3.155   1.783  14.224  0.1590  0.3154  0.7712
  875MPD2     H12891   3.409   2.019  14.086  0.1048 -0.7426 -0.2393
  875MPD2    H112892   3.212   1.836  14.412 -0.6934 -0.3402  0.2688
  875MPD2    H212893   3.091   1.738  14.032  1.0013 -0.0845 -0.2346
  875MPD2    H312894   3.066   1.727  14.250  0.5708 -0.2062  1.0559
  875MPD2     N12895   3.406   2.000  14.350 -0.6108 -0.2345  0.1483
  875MPD2    H512896   3.399   1.964  14.444 -1.3139  1.1675  0.6346
  875MPD2    N112897   3.274   1.899  13.903  0.3370  0.1566 -0.0750
  875MPD2    H712898   3.349   1.962  13.877  0.1076 -0.4372 -2.1481
  876MPD2     C12899   2.959   3.695  15.871 -0.4497 -0.0379  0.5216
  876MPD2    C112900   3.081   3.712  15.929  0.2586 -0.3948 -0.5395
  876MPD2    C212901   3.129   3.623  16.023 -0.1337  0.4721 -1.0826
  876MPD2    C312902   3.051   3.518  16.060  0.4078  0.4640 -0.5074
  876MPD2    C412903   2.927   3.496  15.996  0.0932  0.6340 -0.4052
  876MPD2    C512904   2.879   3.588  15.908 -0.3226  0.1774 -0.0403
  876MPD2     H12905   3.234   3.629  16.050 -0.3696  0.1959 -0.0969
  876MPD2    H112906   2.869   3.409  16.022 -0.5787  1.5556  1.1954
  876MPD2    H212907   2.918   3.766  15.801  2.2794  0.2558 -0.7737
  876MPD2    H312908   2.793   3.571  15.845  2.0395 -0.1845 -3.1908
  876MPD2     N12909   3.086   3.435  16.171 -0.3595  0.1758  0.6068
  876MPD2    H512910   3.184   3.442  16.195 -0.2481  1.2966 -0.1813
  876MPD2    N112911   3.148   3.830  15.894  0.4930 -0.6844 -0.2467
  876MPD2    H712912   3.107   3.875  15.813  0.4579  0.7254  0.5646
  877MPD2     C12913   2.960   4.134  15.364 -0.5916 -0.0650  0.7438
  877MPD2    C112914   3.100   4.132  15.354 -0.2221 -0.4100  0.3547
  877MPD2    C212915   3.169   4.099  15.239 -0.0779  0.3006 -0.1098
  877MPD2    C312916   3.087   4.084  15.124  0.7417 -0.4617  0.1722
  877MPD2    C412917   2.953   4.119  15.133  0.0083  0.0678 -0.2637
  877MPD2    C512918   2.889   4.150  15.254  0.2454 -0.4608  0.2547
  877MPD2     H12919   3.277   4.093  15.240 -0.0095  2.0032  1.3075
  877MPD2    H112920   2.900   4.145  15.042 -1.0666  0.2205  0.4131
  877MPD2    H212921   2.904   4.137  15.457  0.6938  1.0557  1.4770
  877MPD2    H312922   2.782   4.157  15.267  0.4313  3.8606 -0.5656
  877MPD2     N12923   3.137   4.048  14.995 -0.0619  0.2594 -0.1460
  877MPD2    H512924   3.075   3.999  14.930  1.3322  0.6319 -1.7576
  877MPD2    N112925   3.182   4.131  15.468  0.5885 -0.2711  0.3830
  877MPD2    H712926   3.280   4.109  15.457  1.0309  2.3628 -0.8962
  878MPD2     C12927   3.194   3.048  13.062 -0.5665  0.6699 -0.0124
  878MPD2    C112928   3.113   3.159  13.073 -0.0096  0.1818  0.2812
  878MPD2    C212929   3.062   3.202  13.192  0.7632  0.2233  0.5676
  878MPD2    C312930   3.114   3.144  13.305  0.5703  0.4929 -0.6593
  878MPD2    C412931   3.204   3.037  13.299  0.3629  0.2387 -0.1537
  878MPD2    C512932   3.241   2.990  13.174 -0.5374  0.5333  0.0757
  878MPD2     H12933   2.982   3.273  13.213 -0.3297 -0.4700 -1.2867
  878MPD2    H112934   3.241   2.978  13.382 -0.3928 -0.9701 -0.6787
  878MPD2    H212935   3.232   3.021  12.965 -1.8539 -0.6062 -0.1701
  878MPD2    H312936   3.308   2.906  13.167  1.0539  1.7503  0.7071
  878MPD2     N12937   3.072   3.197  13.429  0.4267  0.3203 -0.7601
  878MPD2    H512938   3.037   3.292  13.426  1.5463  0.6949 -2.1487
  878MPD2    N112939   3.074   3.214  12.950 -0.1609  0.3068  0.7995
  878MPD2    H712940   3.121   3.177  12.867  0.9749  0.5734  1.3328
  879MPD2     C12941   2.977   0.449  16.958  0.6381  0.0528 -0.2746
  879MPD2    C112942   3.060   0.354  17.007  0.4810  0.9986 -0.1174
  879MPD2    C212943   3.063   0.231  16.946 -0.7643 -0.8630  0.5651
  879MPD2    C312944   2.984   0.211  16.834  0.1625 -0.0061  0.5624
  879MPD2    C412945   2.907   0.309  16.783  0.7580 -0.5051 -0.3494
  879MPD2    C512946   2.906   0.431  16.840 -0.0178 -0.2174  0.0961
  879MPD2     H12947   3.109   0.144  16.992  0.5386 -1.1914 -1.3534
  879MPD2    H112948   2.843   0.287  16.698  0.8463 -0.2117 -0.4961
  879MPD2    H212949   2.969   0.544  17.009  0.4175 -0.3694  0.4823
  879MPD2    H312950   2.844   0.506  16.791  1.8565  0.0892 -1.8170
  879MPD2     N12951   2.971   0.085  16.768  0.2162  0.0199  0.2083
  879MPD2    H512952   2.922   0.099  16.680 -1.1873 -1.0391  0.8201
  879MPD2    N112953   3.142   0.393  17.112 -0.8350 -0.6371 -0.5383
  879MPD2    H712954   3.147   0.494  17.124 -0.1111 -0.6468 -0.7586
  880MPD2     C12955   4.213   1.814   0.729  0.5425 -0.4893  0.5461
  880MPD2    C112956   4.305   1.879   0.644 -1.1254 -0.7131  0.4801
  880MPD2    C212957   4.432   1.828   0.634  0.4553 -0.0852 -0.0538
  880MPD2    C312958   4.467   1.715   0.702  0.2778  0.1504 -0.3701
  880MPD2    C412959   4.378   1.646   0.776 -0.3982 -1.1228 -0.6003
  880MPD2    C512960   4.254   1.698   0.799 -0.3544 -0.0815  0.2979
  880MPD2     H12961   4.506   1.884   0.577 -0.0284  0.9280  0.3206
  880MPD2    H112962   4.403   1.560   0.838  0.1904  0.5116  1.4250
  880MPD2    H212963   4.113   1.851   0.749  0.2592 -0.6894 -0.5088
  880MPD2    H312964   4.192   1.648   0.872 -1.4843  1.2566  0.2670
  880MPD2     N12965   4.603   1.673   0.706 -0.1406 -0.4093 -0.7576
  880MPD2    H512966   4.673   1.735   0.667  0.3047 -0.8292 -0.6313
  880MPD2    N112967   4.266   2.003   0.584 -0.1348  0.1273  0.1173
  880MPD2    H712968   4.182   2.048   0.619 -0.4970  0.4920 -1.2472
  881MPD2     C12969   4.551   2.771  17.639  0.4799 -0.5027  0.3223
  881MPD2    C112970   4.477   2.666  17.588 -0.2577 -0.0451 -0.5074
  881MPD2    C212971   4.410   2.593  17.687 -0.2367  0.7213 -0.5332
  881MPD2    C312972   4.387   2.647   0.063 -0.1503 -0.0933  0.2396
  881MPD2    C412973   4.431   2.771   0.090 -0.0214  0.3080  0.8373
  881MPD2    C512974   4.522   2.834   0.007  0.3900 -0.4495  0.1181
  881MPD2     H12975   4.371   2.494  17.669  0.0263  0.6057 -0.4590
  881MPD2    H112976   4.414   2.819   0.186 -0.1219  1.6120  0.1627
  881MPD2    H212977   4.617   2.813  17.564 -0.1668 -1.3238 -0.7002
  881MPD2    H312978   4.565   2.932   0.026  2.3114 -1.0771 -0.9859
  881MPD2     N12979   4.333   2.570   0.171 -0.0945  0.3631  0.0257
  881MPD2    H512980   4.310   2.632   0.248 -2.2885  0.2412 -0.5236
  881MPD2    N112981   4.521   2.604  17.461  0.4537 -0.4444 -0.6478
  881MPD2    H712982   4.592   2.654  17.409  1.1481  1.1594  1.8703
  882MPD2     C12983   3.141   3.516  14.351  0.0326 -0.6175 -0.4471
  882MPD2    C112984   3.084   3.630  14.403 -0.5480  0.1604 -0.4278
  882MPD2    C212985   2.948   3.648  14.389  0.1249 -0.3322 -0.7757
  882MPD2    C312986   2.870   3.555  14.314 -0.4736  0.3225  0.7190
  882MPD2    C412987   2.929   3.445  14.261 -0.5507 -0.0619  0.1318
  882MPD2    C512988   3.065   3.418  14.281 -0.1993  0.7713  0.0329
  882MPD2     H12989   2.896   3.729  14.437  0.7430 -0.5614  0.2763
  882MPD2    H112990   2.873   3.365  14.213 -0.1717 -0.8850  1.0741
  882MPD2    H212991   3.248   3.503  14.363 -0.2691 -0.5875  2.3166
  882MPD2    H312992   3.107   3.322  14.251 -0.4391  0.9587 -0.9052
  882MPD2     N12993   2.729   3.562  14.300  0.4398 -0.3401 -0.7923
  882MPD2    H512994   2.688   3.473  14.275 -1.9261  0.4549  0.2563
  882MPD2    N112995   3.169   3.698  14.497  0.1001 -0.3467  0.3871
  882MPD2    H712996   3.263   3.665  14.516  0.8072  1.8163  0.6105
  883MPD2     C12997   0.401   3.890  16.577 -0.4712  0.4948  0.0659
  883MPD2    C112998   0.497   3.945  16.494 -0.4879 -0.1236  0.1886
  883MPD2    C212999   0.623   3.968  16.553 -0.1831  0.2867  0.4316
  883MPD2    C313000   0.659   3.927  16.686  0.2217 -0.3100  0.5326
  883MPD2    C413001   0.559   3.862  16.765 -0.1301 -0.6188 -0.7628
  883MPD2    C513002   0.433   3.853  16.705 -0.1569 -0.8715  0.5387
  883MPD2     H13003   0.690   4.019  16.485 -0.5091 -2.0352 -1.6307
  883MPD2    H113004   0.587   3.833  16.865  1.0570 -0.5200 -1.0599
  883MPD2    H213005   0.306   3.853  16.538 -2.0519  1.0502  3.3873
  883MPD2    H313006   0.353   3.809  16.764 -0.6361 -0.9750 -0.1870
  883MPD2     N13007   0.788   3.966  16.733  0.1707  0.8087 -0.4616
  883MPD2    H513008   0.838   4.013  16.659  0.4922  3.8772  1.7220
  883MPD2    N113009   0.473   3.983  16.364  0.2104  0.7171  0.6542
  883MPD2    H713010   0.542   4.034  16.310 -1.3436  0.8344 -1.1933
  884MPD2     C13011   2.268   4.458  15.305  0.3524  0.5984  0.1444
  884MPD2    C113012   2.194   4.508  15.190  0.0014  0.5190  0.2530
  884MPD2    C213013   2.059   4.509  15.202 -1.0298 -0.5282 -0.6927
  884MPD2    C313014   1.995   4.472  15.319  0.6636  0.1269 -0.5600
  884MPD2    C413015   2.067   4.414  15.425  0.5938 -0.6137  0.7682
  884MPD2    C513016   2.202   4.426  15.419  0.2738  0.0075 -0.0075
  884MPD2     H13017   2.000   4.553  15.123  0.0518 -0.4875 -1.4827
  884MPD2    H113018   2.015   4.362  15.505  0.1054  0.5714  1.2199
  884MPD2    H213019   2.376   4.463  15.312  0.4146 -1.7678  0.9405
  884MPD2    H313020   2.266   4.390  15.498  2.8698  0.6805 -1.8038
  884MPD2     N13021   1.855   4.485  15.312 -0.2268 -0.8266 -0.2701
  884MPD2    H513022   1.817   4.523  15.226  1.1923  1.2802  0.0304
  884MPD2    N113023   2.251   4.567  15.078  0.1794  0.2724 -0.9910
  884MPD2    H713024   2.179   4.603  15.016  0.9016  1.6785 -1.0102
  885MPD2     C13025   0.389   0.364   0.166 -0.2849  0.2857  0.2029
  885MPD2    C113026   0.512   0.430   0.162 -0.4723 -0.0126  0.8022
  885MPD2    C213027   0.541   0.509   0.049  0.5101  0.0231 -0.0410
  885MPD2    C313028   0.457   0.501  17.686  0.1937  0.0745  0.8125
  885MPD2    C413029   0.348   0.413  17.691  0.0086 -0.3141  0.4511
  885MPD2    C513030   0.317   0.349   0.054 -0.0784 -0.2750 -0.4347
  885MPD2     H13031   0.635   0.560   0.039 -0.8165  2.4216 -0.1876
  885MPD2    H113032   0.284   0.404  17.605  1.0129 -0.3864 -0.2850
  885MPD2    H213033   0.358   0.310   0.255 -1.3031 -0.1604 -0.4239
  885MPD2    H313034   0.232   0.282   0.047  0.4091 -0.8763 -0.5371
  885MPD2     N13035   0.495   0.572  17.577  0.1475  0.5132 -0.2103
  885MPD2    H513036   0.584   0.620  17.577  0.0598  0.6723 -0.8896
  885MPD2    N113037   0.593   0.438   0.277 -0.3140 -0.4159 -0.2005
  885MPD2    H713038   0.577   0.362   0.342 -0.3328 -1.5268 -1.5056
  886MPD2     C13039   2.055   2.878  15.246  0.9807  0.2390  0.1386
  886MPD2    C113040   2.043   2.948  15.364 -0.0351 -0.1244 -0.9217
  886MPD2    C213041   1.981   3.069  15.369  1.1141  0.2054 -0.6189
  886MPD2    C313042   1.920   3.127  15.259  0.1106 -0.3522 -0.0824
  886MPD2    C413043   1.944   3.063  15.138 -0.2188 -0.1559 -0.0668
  886MPD2    C513044   2.013   2.946  15.132  0.5793 -0.3930  0.3096
  886MPD2     H13045   1.970   3.114  15.467  1.9857 -2.1255  0.5696
  886MPD2    H113046   1.914   3.112  15.046  0.4537 -0.4294 -0.4302
  886MPD2    H213047   2.115   2.789  15.233  2.7383  1.2883  1.0838
  886MPD2    H313048   2.037   2.906  15.034 -1.1098 -0.2243 -0.1740
  886MPD2     N13049   1.857   3.255  15.261 -0.5773 -0.7704  0.0185
  886MPD2    H513050   1.842   3.307  15.175  0.7765 -1.1955 -0.4758
  886MPD2    N113051   2.098   2.903  15.483 -0.0396  0.2197  0.6675
  886MPD2    H713052   2.092   2.966  15.563  3.5449 -0.0911  1.1682
  887MPD2     C13053   2.556   3.167  15.959 -0.5566  0.6611 -0.1217
  887MPD2    C113054   2.443   3.162  15.875 -0.0530  0.2764 -0.8483
  887MPD2    C213055   2.395   3.281  15.820  0.5584  0.2700  0.2433
  887MPD2    C313056   2.456   3.402  15.844  0.5354  0.0955 -0.4572
  887MPD2    C413057   2.562   3.404  15.929 -0.2256 -0.6783  0.4534
  887MPD2    C513058   2.614   3.285  15.981  0.3777  0.0653 -0.3083
  887MPD2     H13059   2.307   3.277  15.757  0.7792  1.6343 -0.1679
  887MPD2    H113060   2.612   3.498  15.952 -0.0449  0.1203 -3.0794
  887MPD2    H213061   2.602   3.077  15.999 -1.6234  0.1969  0.0641
  887MPD2    H313062   2.700   3.289  16.046  0.0288 -1.5496  0.2702
  887MPD2     N13063   2.399   3.521  15.795 -0.0266  0.4119  0.1576
  887MPD2    H513064   2.314   3.512  15.740  1.1807  0.7784 -1.8065
  887MPD2    N113065   2.380   3.042  15.835 -0.1004  0.7270  0.6643
  887MPD2    H713066   2.321   3.050  15.753 -1.1009 -3.5937  0.9672
  888MPD2     C13067   4.181   3.309  15.086 -0.2457 -0.0339  0.2219
  888MPD2    C113068   4.068   3.348  15.158 -0.3468  0.8832 -0.4213
  888MPD2    C213069   4.068   3.477  15.203  0.1366 -0.0354  0.6821
  888MPD2    C313070   4.167   3.569  15.178 -0.3643  0.0312  0.2137
  888MPD2    C413071   4.265   3.523  15.099 -0.0394  0.0237  1.1166
  888MPD2    C513072   4.276   3.398  15.050  0.2203 -0.3035 -0.2730
  888MPD2     H13073   3.986   3.505  15.269  0.3557  0.6817  0.6468
  888MPD2    H113074   4.353   3.585  15.087 -1.0123  1.4995  1.6010
  888MPD2    H213075   4.178   3.215  15.031 -0.8502 -0.4475  0.9523
  888MPD2    H313076   4.359   3.362  14.990  0.9636  0.2422  0.4241
  888MPD2     N13077   4.153   3.702  15.219 -0.9798  0.3371 -0.5614
  888MPD2    H513078   4.071   3.729  15.272 -0.5014 -0.8446  0.7910
  888MPD2    N113079   3.964   3.259  15.194 -0.4514 -0.1516 -0.4644
  888MPD2    H713080   3.894   3.289  15.261  0.4018 -0.2813  0.4846
  889MPD2     C13081   3.530   3.300  12.430  0.4480  0.5427 -0.3803
  889MPD2    C113082   3.552   3.212  12.533 -0.7573  0.6087 -0.0119
  889MPD2    C213083   3.533   3.260  12.658 -0.2624 -0.4962 -0.2440
  889MPD2    C313084   3.452   3.364  12.684 -0.8216  0.8554  0.1222
  889MPD2    C413085   3.407   3.438  12.577  0.2512  0.1441  0.8321
  889MPD2    C513086   3.453   3.414  12.447 -0.7650 -0.1892  0.6271
  889MPD2     H13087   3.567   3.190  12.734 -0.7889  0.1012  0.5436
  889MPD2    H113088   3.351   3.526  12.604  1.0145  0.7925  0.3146
  889MPD2    H213089   3.553   3.275  12.328 -1.9520  0.5819 -0.9278
  889MPD2    H313090   3.433   3.478  12.361  0.6165  0.3308  0.6890
  889MPD2     N13091   3.420   3.390  12.819  0.1126  0.2176  0.8252
  889MPD2    H513092   3.478   3.335  12.881  1.4251  1.8571  1.0222
  889MPD2    N113093   3.659   3.115  12.526  0.8479 -0.0487 -0.0355
  889MPD2    H713094   3.695   3.088  12.617 -0.6509  1.5546  1.0471
  890MPD2     C13095   3.008   4.582  14.441  0.5315 -0.1775 -0.0738
  890MPD2    C113096   3.086   4.675  14.505  0.0648 -0.1993  0.0225
  890MPD2    C213097   3.135   4.640  14.634 -0.0598 -0.0711 -0.2699
  890MPD2    C313098   3.098   4.527  14.699 -0.0577 -0.3091 -0.1287
  890MPD2    C413099   3.030   4.433  14.623 -0.7395 -1.4088 -0.4587
  890MPD2    C513100   2.987   4.460  14.499 -0.5319 -0.6459  0.8238
  890MPD2     H13101   3.198   4.711  14.687 -2.3686  1.8121 -0.0494
  890MPD2    H113102   3.019   4.329  14.651 -1.5253 -1.3334 -0.5074
  890MPD2    H213103   2.973   4.606  14.341  0.4233 -1.2772 -0.3069
  890MPD2    H313104   2.937   4.381  14.444  2.3186 -1.3588 -0.7024
  890MPD2     N13105   3.131   4.513  14.834 -0.1390  0.3673 -0.2867
  890MPD2    H513106   3.195   4.583  14.870  0.2421  0.7013 -1.6078
  890MPD2    N113107   3.115   0.053  14.429  0.2695  0.4926 -0.2603
  890MPD2    H713108   3.068   0.069  14.341  0.5393 -2.2102 -0.8870
  891MPD2     C13109   0.822   2.739  16.755  0.5762 -0.5865 -0.0030
  891MPD2    C113110   0.871   2.856  16.701 -0.6228  0.1725 -0.2645
  891MPD2    C213111   0.998   2.899  16.733 -0.1120  0.5636  0.6941
  891MPD2    C313112   1.083   2.818  16.812 -0.5095 -0.7536  0.3851
  891MPD2    C413113   1.033   2.709  16.867  0.8689  0.5927  0.5829
  891MPD2    C513114   0.902   2.667  16.841  0.6421 -0.4592  0.0214
  891MPD2     H13115   1.033   2.989  16.683 -0.2349  0.5191  0.5266
  891MPD2    H113116   1.090   2.649  16.937  1.0850  1.7137  1.3671
  891MPD2    H213117   0.725   2.699  16.730 -0.0055 -1.2777  3.3844
  891MPD2    H313118   0.867   2.566  16.857 -0.8369 -0.2475 -1.8927
  891MPD2     N13119   1.203   2.879  16.848 -0.2844  0.0413 -0.2191
  891MPD2    H513120   1.226   2.964  16.799  0.0652 -0.0003 -0.1293
  891MPD2    N113121   0.793   2.925  16.602  0.5426 -0.6782  1.0330
  891MPD2    H713122   0.709   2.872  16.580  1.7792 -1.4936 -1.7626
  892MPD2     C13123   2.210   4.033  14.984 -0.3416  0.7158  0.2339
  892MPD2    C113124   2.120   3.998  14.885  0.1673 -0.1221 -0.5658
  892MPD2    C213125   2.160   3.933  14.774 -0.3870  0.3177  0.4927
  892MPD2    C313126   2.291   3.897  14.749 -0.4501 -0.0901 -0.2906
  892MPD2    C413127   2.389   3.934  14.848 -0.1961 -0.0514  0.2510
  892MPD2    C513128   2.344   3.998  14.965  0.2092  0.1471 -0.1231
  892MPD2     H13129   2.090   3.907  14.695  1.3091 -0.9503 -0.6201
  892MPD2    H113130   2.494   3.910  14.834 -0.9222 -2.0460 -1.7379
  892MPD2    H213131   2.177   4.083  15.075 -0.0805  0.4132  0.4919
  892MPD2    H313132   2.416   4.022  15.043  0.0275  0.2952  0.0003
  892MPD2     N13133   2.328   3.830  14.635  0.2536 -0.1540  0.1634
  892MPD2    H513134   2.428   3.811  14.626  0.9558  3.3185  0.5826
  892MPD2    N113135   1.991   4.050  14.887  0.0733  0.3826 -0.7204
  892MPD2    H713136   1.931   4.037  14.805  1.9252 -0.5055 -1.9454
  893MPD2     C13137   4.499   2.143   2.032 -0.8270  0.2028 -0.1548
  893MPD2    C113138   4.577   2.174   1.922 -0.1307 -0.1726  0.2766
  893MPD2    C213139   4.596   2.082   1.817 -0.2908  0.5328  0.1021
  893MPD2    C313140   4.532   1.960   1.831 -0.2125 -0.4613  0.9070
  893MPD2    C413141   4.459   1.929   1.942  0.2758 -0.0735 -0.5753
  893MPD2    C513142   4.434   2.024   2.034 -0.7743 -0.6656  0.2582
  893MPD2     H13143   4.664   2.097   1.734  1.1234  2.0336  1.5373
  893MPD2    H113144   4.409   1.835   1.965  3.1329 -0.9583  1.9680
  893MPD2    H213145   4.473   2.220   2.104  1.5624  0.4263  0.4526
  893MPD2    H313146   4.362   2.016   2.115  1.4405 -1.6192  2.1452
  893MPD2     N13147   4.561   1.854   1.748 -0.0289 -0.1777 -0.7862
  893MPD2    H513148   4.518   1.768   1.782 -0.5382  0.6918  0.7560
  893MPD2    N113149   4.632   2.297   1.930  0.0310 -0.3298 -0.5349
  893MPD2    H713150   4.606   2.357   2.008 -1.5416 -0.0715 -1.2472
  894MPD2     C13151   1.495   0.242   1.418  0.3987  0.4608  0.0582
  894MPD2    C113152   1.443   0.339   1.347 -0.0889  1.2556 -0.1416
  894MPD2    C213153   1.490   0.367   1.220  0.1041 -0.3838 -0.1350
  894MPD2    C313154   1.597   0.297   1.165 -0.0247 -0.8694  0.3285
  894MPD2    C413155   1.654   0.200   1.244  0.7782 -0.0499 -0.4037
  894MPD2    C513156   1.601   0.173   1.364 -0.8205  0.0351 -0.4731
  894MPD2     H13157   1.449   0.453   1.169 -1.6731 -0.7475  0.6732
  894MPD2    H113158   1.746   0.155   1.207  1.6707  0.8884  0.6736
  894MPD2    H213159   1.463   0.222   1.520  0.7026  0.7396  0.2078
  894MPD2    H313160   1.662   0.110   1.429 -0.7451  1.6166  1.0161
  894MPD2     N13161   1.647   0.330   1.039 -0.3780 -0.2502  0.1393
  894MPD2    H513162   1.607   0.414   0.998  0.2089 -1.2306 -2.4714
  894MPD2    N113163   1.340   0.426   1.393  0.0885  1.1929  0.0999
  894MPD2    H713164   1.295   0.496   1.335 -1.2722  0.5462  0.3598
  895MPD2     C13165   1.527   3.097  14.135  0.2592 -0.8202 -0.2701
  895MPD2    C113166   1.468   3.082  14.015 -0.1643  0.0292  0.5320
  895MPD2    C213167   1.477   2.961  13.945 -0.0321  0.6038 -0.0526
  895MPD2    C313168   1.552   2.856  13.999 -0.5009 -0.3722 -0.4199
  895MPD2    C413169   1.616   2.871  14.120 -0.2597 -0.0221  0.6542
  895MPD2    C513170   1.599   2.990  14.190 -0.2119  0.0748  0.7014
  895MPD2     H13171   1.444   2.956  13.842  0.0314  1.0536 -0.0939
  895MPD2    H113172   1.676   2.797  14.173  0.2589  0.8754  1.3063
  895MPD2    H213173   1.521   3.186  14.196 -2.4464 -1.3589  0.2265
  895MPD2    H313174   1.647   2.997  14.287  1.4259 -1.8755  0.0192
  895MPD2     N13175   1.579   2.749  13.910 -0.4973  0.3894 -1.0263
  895MPD2    H513176   1.537   2.763  13.819 -2.0971 -0.1111 -0.3781
  895MPD2    N113177   1.404   3.189  13.952  0.2449  0.5356 -0.1775
  895MPD2    H713178   1.386   3.174  13.853 -1.8309  1.0846  0.1027
  896MPD2     C13179   3.208   1.535   1.417 -0.9676  0.1847  0.0165
  896MPD2    C113180   3.240   1.498   1.285 -0.6368  0.2177 -0.0722
  896MPD2    C213181   3.145   1.417   1.226  0.0802  0.5986  0.0758
  896MPD2    C313182   3.041   1.359   1.289 -0.4443 -0.1014 -0.1226
  896MPD2    C413183   3.019   1.391   1.422  0.2847  0.6884  0.2565
  896MPD2    C513184   3.090   1.498   1.476  0.7400  0.1494  0.3412
  896MPD2     H13185   3.152   1.399   1.119 -2.4851  2.4456 -0.3969
  896MPD2    H113186   2.931   1.361   1.476  1.9549 -0.3493  2.4147
  896MPD2    H213187   3.270   1.602   1.475  0.9908 -1.8873  0.3553
  896MPD2    H313188   3.057   1.530   1.574  0.2290  3.1916 -0.8247
  896MPD2     N13189   2.950   1.281   1.216  0.4393  0.1287  0.2121
  896MPD2    H513190   2.985   1.251   1.125  1.4712 -1.6722  1.2024
  896MPD2    N113191   3.343   1.566   1.218  0.4568 -0.0739 -0.5953
  896MPD2    H713192   3.404   1.632   1.265  0.3319 -1.5012  1.5717
  897MPD2     C13193   4.663   3.146  10.515 -0.3161 -0.2971  0.3396
  897MPD2    C113194   4.664   3.284  10.547 -0.9974 -0.2845 -0.0553
  897MPD2    C213195   4.594   3.316  10.663 -0.3574  0.1071  0.8320
  897MPD2    C313196   4.528   3.226  10.740  1.2090 -0.1492  0.0117
  897MPD2    C413197   4.535   3.099  10.707 -0.0498  0.2273 -0.0800
  897MPD2    C513198   4.594   3.058  10.588 -1.0662 -0.0059 -0.4000
  897MPD2     H13199   4.566   3.418  10.686 -1.9937  0.1454 -1.3455
  897MPD2    H113200   4.499   3.029  10.782  0.0533 -0.0887 -0.3246
  897MPD2    H213201   4.713   3.111  10.425  0.7538 -1.1992  1.2808
  897MPD2    H313202   4.588   2.957  10.548  0.4049 -0.1393 -0.3039
  897MPD2     N13203   4.455   3.250  10.855  0.2956  0.7743 -0.1299
  897MPD2    H513204   4.405   3.168  10.887  2.2339 -0.1804  0.4576
  897MPD2    N113205   4.729   3.385  10.466  0.1120  0.0372  0.2880
  897MPD2    H713206   0.015   3.359  10.371  0.0999 -0.2392  0.3613
  898MPD2     C13207   1.988   3.602  17.612 -0.0694  0.4553 -0.8263
  898MPD2    C113208   2.080   3.683  17.558 -0.2446 -0.2291 -1.0126
  898MPD2    C213209   2.038   3.788  17.483 -0.1739  0.0903 -0.5762
  898MPD2    C313210   1.904   3.817  17.473 -0.2303  0.6265  0.2342
  898MPD2    C413211   1.810   3.734  17.524 -0.1261  0.9027  0.2588
  898MPD2    C513212   1.857   3.625  17.598 -0.7406 -0.1869  0.1345
  898MPD2     H13213   2.112   3.852  17.436  0.7674  0.1341  0.9653
  898MPD2    H113214   1.703   3.751  17.531 -0.5483 -1.0495 -1.1690
  898MPD2    H213215   2.011   3.512  17.669 -0.1120 -0.6850 -2.6227
  898MPD2    H313216   1.790   3.556  17.649 -0.6767  0.7035  1.4255
  898MPD2     N13217   1.874   3.942  17.409 -0.4088  0.3153  1.0182
  898MPD2    H513218   1.954   3.997  17.377  0.1549 -1.7445 -1.1009
  898MPD2    N113219   2.218   3.663  17.571 -0.6012 -0.2710  0.8392
  898MPD2    H713220   2.279   3.719  17.512  1.0246 -1.0033  1.8318
  899MPD2     C13221   2.848   4.237  17.036 -1.0132 -0.1617  0.8241
  899MPD2    C113222   2.844   4.309  17.160 -0.5099 -0.5752 -0.4712
  899MPD2    C213223   2.830   4.243  17.281 -0.1942 -0.3027 -0.3113
  899MPD2    C313224   2.812   4.108  17.283  0.2151 -0.4463 -0.3415
  899MPD2    C413225   2.822   4.038  17.164 -0.1893 -0.5356 -0.0628
  899MPD2    C513226   2.830   4.102  17.038 -0.1267 -0.4589 -0.0926
  899MPD2     H13227   2.819   4.296  17.375  0.3243  0.1775 -0.5207
  899MPD2    H113228   2.811   3.930  17.158  0.3667 -0.6224  0.4376
  899MPD2    H213229   2.873   4.280  16.939  2.0249  2.3032  2.6987
  899MPD2    H313230   2.830   4.037  16.951  2.5718 -1.1510  0.4104
  899MPD2     N13231   2.798   4.031  17.399 -0.3876  0.2355 -0.3459
  899MPD2    H513232   2.761   3.936  17.399 -0.7482  0.3805  0.2267
  899MPD2    N113233   2.838   4.450  17.140 -0.1135 -0.1096 -0.5623
  899MPD2    H713234   2.843   4.487  17.045 -0.3950  0.0900 -0.4996
  900MPD2     C13235   2.563   0.896  12.643 -0.3244 -0.0221  0.2241
  900MPD2    C113236   2.462   0.810  12.678 -0.6886  0.1514 -0.6561
  900MPD2    C213237   2.333   0.819  12.627  0.1084  0.8004 -0.2572
  900MPD2    C313238   2.304   0.915  12.534  0.2778  0.3368  0.3543
  900MPD2    C413239   2.411   1.003  12.499 -0.0075 -0.3274 -0.6901
  900MPD2    C513240   2.533   0.988  12.552 -0.2620 -0.1867 -0.1248
  900MPD2     H13241   2.257   0.754  12.670 -0.7037  0.7992 -1.6962
  900MPD2    H113242   2.389   1.085  12.432  1.6146  1.3415  0.8229
  900MPD2    H213243   2.656   0.888  12.698 -1.2361  0.9594  1.9120
  900MPD2    H313244   2.615   1.049  12.516  0.1424 -1.1264 -0.8292
  900MPD2     N13245   2.169   0.931  12.484 -0.0430 -0.0885  0.1272
  900MPD2    H513246   2.099   0.870  12.525 -1.2705 -0.4483 -2.5040
  900MPD2    N113247   2.500   0.714  12.776 -0.2071  0.4227 -0.0690
  900MPD2    H713248   2.599   0.706  12.796 -0.5715 -0.3568  1.4114
  901MPD2     C13249   2.618   4.394  12.919  0.3384  0.0779  0.0225
  901MPD2    C113250   2.563   4.468  12.816 -0.1828 -0.4899 -0.1116
  901MPD2    C213251   2.558   4.608  12.817 -0.0514  0.9521 -0.1759
  901MPD2    C313252   2.600   4.668  12.931  0.3327  0.0433  0.3203
  901MPD2    C413253   2.648   4.597  13.035 -0.2909 -0.0036 -0.0717
  901MPD2    C513254   2.659   4.457  13.029  0.1008  0.4861  0.2226
  901MPD2     H13255   2.518   4.663  12.733 -1.4299 -1.0645 -0.8270
  901MPD2    H113256   2.683   4.651  13.122 -0.3507  0.9832 -0.6555
  901MPD2    H213257   2.635   4.287  12.917 -1.4595 -0.2066  0.0798
  901MPD2    H313258   2.710   4.397  13.104  1.0195  0.7851 -0.1620
  901MPD2     N13259   2.601   0.070  12.950  0.7966 -0.1781  0.0205
  901MPD2    H513260   2.643   0.098  13.039  0.8546  0.2541 -0.1428
  901MPD2    N113261   2.528   4.394  12.709  0.0916 -0.3743 -0.0252
  901MPD2    H713262   2.561   4.299  12.706  2.7932  0.5751 -0.3043
  902MPD2     C13263   1.806   3.477  13.201  0.2505 -0.2789  0.6381
  902MPD2    C113264   1.733   3.559  13.113 -0.6199 -0.8269  0.5681
  902MPD2    C213265   1.742   3.533  12.979 -0.1135  0.2264 -0.1955
  902MPD2    C313266   1.820   3.426  12.927  0.3333 -0.5335  0.1065
  902MPD2    C413267   1.883   3.341  13.014  0.4881  0.2299  0.1953
  902MPD2    C513268   1.873   3.376  13.149  0.1021 -0.2109 -0.8781
  902MPD2     H13269   1.684   3.601  12.918  0.4064  0.7736 -0.0771
  902MPD2    H113270   1.943   3.257  12.980 -2.5332 -2.9580  2.6827
  902MPD2    H213271   1.807   3.501  13.306  4.1850  0.3466  0.4628
  902MPD2    H313272   1.940   3.320  13.213  1.2671  0.0571 -1.8529
  902MPD2     N13273   1.822   3.386  12.794  0.2191 -0.1906 -0.6526
  902MPD2    H513274   1.861   3.295  12.772  3.3823  0.8126  0.9066
  902MPD2    N113275   1.652   3.660  13.164  0.3740 -0.5508  0.0413
  902MPD2    H713276   1.591   3.710  13.099  0.7938 -1.5393 -1.1063
  903MPD2     C13277   1.447   3.410  11.921 -0.3896  0.0159  0.3461
  903MPD2    C113278   1.422   3.422  12.057  0.0656  0.0255  0.1950
  903MPD2    C213279   1.300   3.484  12.092  0.6610  0.0470 -0.5924
  903MPD2    C313280   1.214   3.522  11.995  0.2271 -0.2534 -0.5677
  903MPD2    C413281   1.240   3.494  11.861  0.4614  1.3608  0.1999
  903MPD2    C513282   1.356   3.440  11.830  0.0315  0.3646 -0.0761
  903MPD2     H13283   1.277   3.508  12.195 -1.4068 -2.1746 -0.5313
  903MPD2    H113284   1.169   3.512  11.782  2.8437  2.8190 -1.5816
  903MPD2    H213285   1.548   3.384  11.890 -0.3896 -1.3480  1.4756
  903MPD2    H313286   1.381   3.427  11.725  0.3276  1.3415 -0.1243
  903MPD2     N13287   1.088   3.579  12.043 -0.3161 -0.4188 -0.4254
  903MPD2    H513288   1.068   3.556  12.140 -0.8432  0.5393 -0.2963
  903MPD2    N113289   1.525   3.399  12.150  0.2685  0.3365  0.1165
  903MPD2    H713290   1.605   3.349  12.113 -0.0983 -0.0759 -0.1208
  904MPD2     C13291   1.312   2.713  14.422  0.3156 -0.8707 -0.0800
  904MPD2    C113292   1.346   2.658  14.299 -0.1491 -0.2502  0.5524
  904MPD2    C213293   1.477   2.611  14.286  0.4577 -0.1903 -0.3716
  904MPD2    C313294   1.569   2.631  14.384  0.1740 -0.0810 -0.3641
  904MPD2    C413295   1.538   2.702  14.495  0.2473 -0.2606 -0.6158
  904MPD2    C513296   1.405   2.737  14.514 -0.0405 -0.0218 -0.2408
  904MPD2     H13297   1.498   2.555  14.196  0.1778  1.6115 -1.5683
  904MPD2    H113298   1.610   2.735  14.568  1.9833 -2.3742 -1.3931
  904MPD2    H213299   1.209   2.744  14.438  0.2563 -0.4985 -1.2053
  904MPD2    H313300   1.384   2.779  14.612  1.2399 -0.9889  0.4516
  904MPD2     N13301   1.691   2.573  14.369 -0.9420 -1.1131 -0.0863
  904MPD2    H513302   1.705   2.542  14.273 -2.7655  1.2140 -1.1195
  904MPD2    N113303   1.266   2.627  14.190  0.7630  0.0440 -0.2510
  904MPD2    H713304   1.320   2.592  14.112  1.0275  1.4651 -0.7026
  905MPD2     C13305   1.191   2.497  13.411  0.1495 -0.2216  0.7380
  905MPD2    C113306   1.257   2.588  13.494  0.7312  0.4890 -0.0930
  905MPD2    C213307   1.382   2.630  13.459 -0.4549 -0.6018  1.2041
  905MPD2    C313308   1.456   2.567  13.368 -0.4831  0.4169 -0.3094
  905MPD2    C413309   1.391   2.485  13.278  0.2515  0.2887  0.1984
  905MPD2    C513310   1.256   2.449  13.307 -0.3654 -0.4216 -0.2786
  905MPD2     H13311   1.422   2.719  13.506 -1.4821 -0.0429  1.0211
  905MPD2    H113312   1.444   2.446  13.192 -0.9355 -0.4056 -0.2221
  905MPD2    H213313   1.086   2.476  13.429  0.0407 -0.7656 -0.5545
  905MPD2    H313314   1.201   2.393  13.233 -0.4990  1.3483 -1.5299
  905MPD2     N13315   1.593   2.608  13.348  0.1339  0.0366  0.7920
  905MPD2    H513316   1.634   2.596  13.256 -1.9567  1.0069 -0.2601
  905MPD2    N113317   1.186   2.653  13.595 -0.1276 -0.2151  0.0574
  905MPD2    H713318   1.085   2.645  13.594 -0.0703 -0.9390  0.6062
  906MPD2     C13319   3.462   3.412  11.114 -0.3642  0.0403  0.2661
  906MPD2    C113320   3.397   3.359  11.004  0.5638 -0.4024  0.4019
  906MPD2    C213321   3.380   3.218  10.991  0.3531  0.0359 -0.3624
  906MPD2    C313322   3.426   3.128  11.092 -0.3610  0.0525  0.0415
  906MPD2    C413323   3.489   3.193  11.199  0.2576 -0.3720  1.0217
  906MPD2    C513324   3.500   3.326  11.211  0.6652  0.1575 -0.4701
  906MPD2     H13325   3.327   3.183  10.902  1.2633 -1.3934 -0.3440
  906MPD2    H113326   3.519   3.146  11.292  2.5192 -1.5819 -0.3182
  906MPD2    H213327   3.474   3.518  11.132 -0.3361  0.2243 -0.7940
  906MPD2    H313328   3.547   3.360  11.303 -0.9270  1.3672 -0.1011
  906MPD2     N13329   3.394   2.993  11.102 -0.1338 -0.5768  0.0379
  906MPD2    H513330   3.423   2.961  11.193  1.6427 -0.6403 -0.5614
  906MPD2    N113331   3.363   3.445  10.897 -0.1578 -0.5262  0.5050
  906MPD2    H713332   3.408   3.536  10.892  0.7549 -1.1158 -1.9366
  907MPD2     C13333   1.594   1.986  15.210 -0.2819  0.5308 -0.2463
  907MPD2    C113334   1.684   1.884  15.220 -0.0895 -0.4613  0.7878
  907MPD2    C213335   1.774   1.885  15.327  0.6001 -0.8379 -0.5489
  907MPD2    C313336   1.785   1.990  15.410  0.4442 -0.5327 -0.3946
  907MPD2    C413337   1.693   2.099  15.396  0.0669 -0.1280 -0.2371
  907MPD2    C513338   1.597   2.092  15.295 -0.0110  0.1846  0.2250
  907MPD2     H13339   1.843   1.802  15.334  0.8489 -0.4623  1.2274
  907MPD2    H113340   1.688   2.186  15.460  0.7822  0.5124 -1.0604
  907MPD2    H213341   1.515   1.975  15.137 -0.6103 -2.2060  0.5401
  907MPD2    H313342   1.523   2.171  15.293 -0.5778 -0.2166  4.3937
  907MPD2     N13343   1.888   1.992  15.501  0.4140 -0.5996  0.0850
  907MPD2    H513344   1.941   1.905  15.503 -1.6611 -1.8481  0.6303
  907MPD2    N113345   1.687   1.772  15.126  0.9550  0.0920  0.4022
  907MPD2    H713346   1.758   1.702  15.141  0.9753 -0.1542 -0.8473
  908MPD2     C13347   4.336   3.554   9.712 -0.4164 -0.3970 -0.3475
  908MPD2    C113348   4.347   3.460   9.807  0.0404 -0.9101 -0.4600
  908MPD2    C213349   4.450   3.461   9.890 -0.3816 -0.8910  0.1641
  908MPD2    C313350   4.531   3.569   9.899 -0.3765 -0.9851 -0.0175
  908MPD2    C413351   4.528   3.667   9.799 -0.2411  0.7981  0.5342
  908MPD2    C513352   4.430   3.658   9.709 -0.3338 -0.4661  0.4535
  908MPD2     H13353   4.457   3.396   9.976  0.7311 -0.3440  0.4903
  908MPD2    H113354   4.586   3.758   9.788  0.1593  0.4476 -0.2435
  908MPD2    H213355   4.259   3.550   9.636  1.9141 -0.7067 -2.7004
  908MPD2    H313356   4.408   3.727   9.629 -0.2960 -1.1263 -0.1275
  908MPD2     N13357   4.613   3.585  10.009  0.0001 -0.1569  0.2656
  908MPD2    H513358   4.617   3.514  10.082  2.5103  0.5020  0.7454
  908MPD2    N113359   4.249   3.358   9.806  1.1622  0.6817 -0.8226
  908MPD2    H713360   4.173   3.349   9.739 -1.6032  0.8211  2.2702
  909MPD2     C13361   0.069   0.909  11.294  0.1666  0.2239  0.0297
  909MPD2    C113362   0.102   1.032  11.352 -0.5142  0.5706 -0.0599
  909MPD2    C213363   0.089   1.043  11.490  0.2664 -0.3798 -0.0600
  909MPD2    C313364   0.039   0.949  11.570 -0.0783 -0.3731  0.2076
  909MPD2    C413365   4.734   0.835  11.513 -0.1241 -0.2429 -0.2712
  909MPD2    C513366   0.021   0.815  11.376 -0.9781 -0.2414  0.4674
  909MPD2     H13367   0.117   1.136  11.536 -1.9176  0.7366 -0.9830
  909MPD2    H113368   4.703   0.752  11.576 -0.2014 -0.9174 -1.1863
  909MPD2    H213369   0.066   0.889  11.188  0.2041  0.9988 -0.1155
  909MPD2    H313370   0.001   0.716  11.337  1.6446 -0.9695  0.9797
  909MPD2     N13371   0.013   0.982  11.704 -0.1937 -0.1197  0.9831
  909MPD2    H513372   0.060   1.065  11.739  1.7001 -0.6870 -0.1772
  909MPD2    N113373   0.157   1.140  11.278  0.1408 -0.0298  0.4580
  909MPD2    H713374   0.172   1.227  11.328 -0.6639  0.9931 -1.0647
  910MPD2     C13375   1.235   2.313  16.206 -0.0483 -0.1632 -0.1187
  910MPD2    C113376   1.296   2.276  16.086  0.3570  0.1999  0.2331
  910MPD2    C213377   1.243   2.328  15.970  0.1998  0.7652  0.2714
  910MPD2    C313378   1.147   2.433  15.970 -0.5187 -0.2203  0.6501
  910MPD2    C413379   1.097   2.477  16.091 -0.0198 -0.3759 -0.0362
  910MPD2    C513380   1.140   2.411  16.204  0.1596 -0.0339  0.2647
  910MPD2     H13381   1.281   2.294  15.874  0.5039  2.0370 -0.0596
  910MPD2    H113382   1.030   2.562  16.101  0.7128  0.2369 -0.3482
  910MPD2    H213383   1.257   2.259  16.298 -3.1064 -0.3348  0.5115
  910MPD2    H313384   1.100   2.450  16.297  1.4338  2.3577 -0.1711
  910MPD2     N13385   1.112   2.503  15.851 -0.1986  0.4706  0.6211
  910MPD2    H513386   1.054   2.585  15.866 -0.3363  0.1448  1.8709
  910MPD2    N113387   1.392   2.172  16.081  0.3519 -0.6007 -0.0947
  910MPD2    H713388   1.415   2.132  16.171 -0.5169 -0.2810  0.2764
  911MPD2     C13389   4.231   3.019  15.897 -0.5444  0.7585  0.3608
  911MPD2    C113390   4.220   3.082  16.020 -0.6296 -0.7559 -0.4641
  911MPD2    C213391   4.199   3.220  16.026  0.4680 -0.2566  0.3344
  911MPD2    C313392   4.185   3.303  15.917 -0.0748  0.4328 -0.1373
  911MPD2    C413393   4.205   3.241  15.790  0.6633  0.3207 -0.6008
  911MPD2    C513394   4.224   3.101  15.784 -0.3543 -0.7379  0.3545
  911MPD2     H13395   4.184   3.259  16.126 -1.1051  1.3977 -0.5353
  911MPD2    H113396   4.194   3.306  15.704  0.4591 -0.1242 -0.9088
  911MPD2    H213397   4.258   2.914  15.885 -0.3498  1.0475 -1.7991
  911MPD2    H313398   4.245   3.047  15.692  1.4473  0.4543  0.0466
  911MPD2     N13399   4.154   3.446  15.914 -0.4840 -0.2013 -0.3289
  911MPD2    H513400   4.156   3.498  15.827  0.4628 -1.1353 -0.8646
  911MPD2    N113401   4.229   2.997  16.132  0.4694 -0.2780  0.2586
  911MPD2    H713402   4.222   2.899  16.109 -1.4021 -0.8266  3.1982
  912MPD2     C13403   3.886   3.302  15.564 -0.6834  0.2244 -0.1011
  912MPD2    C113404   3.861   3.360  15.687 -0.1880  0.1132  0.1805
  912MPD2    C213405   3.850   3.276  15.796  0.5945  0.6473 -0.0062
  912MPD2    C313406   3.861   3.139  15.785  0.1869  0.3801 -0.3902
  912MPD2    C413407   3.879   3.084  15.658 -0.0683 -0.1536  0.0013
  912MPD2    C513408   3.896   3.167  15.549 -0.3293  0.5104 -0.8008
  912MPD2     H13409   3.852   3.312  15.898 -0.2467 -0.1453  0.2898
  912MPD2    H113410   3.885   2.978  15.636  0.5470 -0.0242 -0.4614
  912MPD2    H213411   3.919   3.361  15.480  0.2740 -0.3796 -0.1453
  912MPD2    H313412   3.921   3.130  15.450 -1.5081 -0.7738 -0.6202
  912MPD2     N13413   3.840   3.066  15.903 -0.7330 -0.8750  0.1128
  912MPD2    H513414   3.805   3.114  15.985 -0.2383 -2.5432  1.3060
  912MPD2    N113415   3.860   3.499  15.706  0.6956 -0.3298  0.1272
  912MPD2    H713416   3.900   3.563  15.637 -0.3607 -1.9017 -1.9489
  913MPD2     C13417   4.118   1.047  10.075 -0.0912  0.2764  0.4447
  913MPD2    C113418   4.228   0.993  10.134  0.2751  0.8636  0.7532
  913MPD2    C213419   4.328   1.070  10.182  0.9640 -0.3810  0.2184
  913MPD2    C313420   4.317   1.208  10.151 -0.5386  0.4087  0.7868
  913MPD2    C413421   4.203   1.262  10.085 -0.4749 -0.4995 -0.5511
  913MPD2    C513422   4.102   1.177  10.057 -0.1490 -0.0863 -0.6747
  913MPD2     H13423   4.425   1.028  10.204  0.9050  0.1198  1.4165
  913MPD2    H113424   4.190   1.370  10.080  1.2437 -0.2454  0.2275
  913MPD2    H213425   4.043   0.980  10.035 -1.9362  2.3528  0.4286
  913MPD2    H313426   4.006   1.208  10.017 -1.5196 -0.2655  2.5363
  913MPD2     N13427   4.425   1.293  10.180  0.1929 -0.1194  0.1933
  913MPD2    H513428   4.418   1.390  10.153 -2.6015 -0.8643 -1.7698
  913MPD2    N113429   4.243   0.855  10.131  0.4962  0.4209  0.2498
  913MPD2    H713430   4.174   0.800  10.080  1.0478  1.1110 -1.2300
  914MPD2     C13431   1.803   4.566  12.043  0.7149  0.2214  0.6061
  914MPD2    C113432   1.847   4.638  12.151 -0.2880  0.9108  0.2179
  914MPD2    C213433   1.957   4.580  12.219  0.0901 -0.7608 -0.0135
  914MPD2    C313434   2.013   4.456  12.181 -0.4223 -0.4585  0.5889
  914MPD2    C413435   1.964   4.400  12.065  0.3991  0.2663 -0.3539
  914MPD2    C513436   1.854   4.450  11.999 -0.1412 -0.1773 -0.2007
  914MPD2     H13437   1.985   4.634  12.308 -3.0368 -0.6385  0.9148
  914MPD2    H113438   1.984   4.296  12.041 -0.5498  0.3134 -1.3436
  914MPD2    H213439   1.713   4.607  11.998 -0.1528 -1.1751  1.0797
  914MPD2    H313440   1.804   4.395  11.920 -0.2223 -0.0293 -0.2514
  914MPD2     N13441   2.111   4.398  12.267  0.6196  0.3025 -0.0590
  914MPD2    H513442   2.123   4.444  12.357 -1.2478  0.2965  0.1913
  914MPD2    N113443   1.790   0.022  12.178 -0.1296  1.0800  0.4733
  914MPD2    H713444   1.712   0.054  12.121 -1.8722 -1.1470  1.5703
  915MPD2     C13445   0.533   4.334  15.673 -0.4655  0.8601  0.0660
  915MPD2    C113446   0.431   4.407  15.615  0.2724  0.4378 -0.0374
  915MPD2    C213447   0.351   4.486  15.700  0.0127  0.4079  0.2632
  915MPD2    C313448   0.389   4.515  15.828  0.3229 -0.5352 -1.0172
  915MPD2    C413449   0.482   4.434  15.891 -0.0548 -0.1851 -0.0159
  915MPD2    C513450   0.555   4.344  15.810 -0.2047  0.1749 -0.2604
  915MPD2     H13451   0.263   4.537  15.664  0.6745  1.9736  0.8586
  915MPD2    H113452   0.512   4.435  15.995 -1.5622  1.5156  0.3910
  915MPD2    H213453   0.609   4.274  15.623 -0.4689  0.1936  0.8584
  915MPD2    H313454   0.633   4.295  15.867 -0.3229  0.1789 -0.0963
  915MPD2     N13455   0.306   4.608  15.898 -0.0520 -0.2820 -0.4904
  915MPD2    H513456   0.217   4.635  15.856 -1.1469 -0.4860  1.6752
  915MPD2    N113457   0.413   4.390  15.481 -0.0100  0.1603 -0.0735
  915MPD2    H713458   0.472   4.315  15.447 -2.8852 -2.2520  0.2310
  916MPD2     C13459   3.503   3.223  15.964 -1.1202 -0.2405 -0.1725
  916MPD2    C113460   3.452   3.111  16.033  0.3760 -0.2079 -0.4965
  916MPD2    C213461   3.428   2.996  15.958 -0.3120  0.0436  0.9597
  916MPD2    C313462   3.464   2.986  15.823  0.3280  0.0997 -0.0957
  916MPD2    C413463   3.513   3.091  15.753  0.2478  0.1468 -0.2164
  916MPD2    C513464   3.535   3.213  15.827 -0.1012 -0.3784  0.3489
  916MPD2     H13465   3.386   2.909  16.007  0.3312 -1.1635 -0.6413
  916MPD2    H113466   3.549   3.089  15.651  0.6116  1.1774 -0.1013
  916MPD2    H213467   3.532   3.317  16.010  0.2446  0.4042 -2.3446
  916MPD2    H313468   3.575   3.298  15.772  0.0475 -2.2732 -2.4849
  916MPD2     N13469   3.463   2.857  15.766  0.3361 -0.2298 -0.1927
  916MPD2    H513470   3.460   2.784  15.836 -0.8916 -0.3112 -0.3379
  916MPD2    N113471   3.409   3.134  16.165 -0.5188 -0.0517  0.0706
  916MPD2    H713472   3.440   3.221  16.206  2.7298 -1.2362  0.0936
  917MPD2     C13473   3.640   0.341  11.357  0.3641  0.0247 -0.6474
  917MPD2    C113474   3.546   0.408  11.279  0.2550 -0.6196 -0.6482
  917MPD2    C213475   3.588   0.506  11.189 -0.1359 -0.4497  0.4998
  917MPD2    C313476   3.722   0.541  11.177  0.3275 -0.0017 -0.5911
  917MPD2    C413477   3.814   0.466  11.249 -0.5278  0.2697 -0.4218
  917MPD2    C513478   3.772   0.375  11.345 -0.2775  1.0684  0.0686
  917MPD2     H13479   3.518   0.569  11.135  0.1554  0.4487  1.1784
  917MPD2    H113480   3.917   0.499  11.244 -0.9287  1.3415 -1.6329
  917MPD2    H213481   3.614   0.264  11.429  0.4847  1.2223  0.6869
  917MPD2    H313482   3.847   0.329  11.408 -0.7471  1.5011  0.9369
  917MPD2     N13483   3.775   0.662  11.129  0.2452 -0.0120  0.0604
  917MPD2    H513484   3.872   0.689  11.137  0.2911 -0.1423 -0.0460
  917MPD2    N113485   3.412   0.381  11.315  0.7765 -0.4960  0.2921
  917MPD2    H713486   3.392   0.319  11.393 -0.5669 -2.6959 -1.7814
  918MPD2     C13487   3.262   0.928  11.959 -0.0882 -0.4474  0.0802
  918MPD2    C113488   3.360   0.910  11.865 -0.2253  0.1259  0.7164
  918MPD2    C213489   3.329   0.824  11.768 -0.1145 -0.2839 -0.6231
  918MPD2    C313490   3.213   0.761  11.751  0.3452  0.5601 -0.1764
  918MPD2    C413491   3.111   0.802  11.829 -0.2389  0.0451  0.1272
  918MPD2    C513492   3.130   0.886  11.931 -0.0748 -0.0463  0.9923
  918MPD2     H13493   3.409   0.802  11.700  0.9135  2.6149 -0.3807
  918MPD2    H113494   3.009   0.771  11.809  0.2669 -2.1475  0.9774
  918MPD2    H213495   3.273   1.001  12.038 -0.6313 -0.0401 -0.2226
  918MPD2    H313496   3.055   0.916  12.004  0.8277  1.7647  1.1810
  918MPD2     N13497   3.204   0.664  11.655 -0.6651 -0.5345  0.6212
  918MPD2    H513498   3.277   0.653  11.586 -0.1327  0.4024  1.0489
  918MPD2    N113499   3.493   0.946  11.885 -0.1019 -1.2711  0.0785
  918MPD2    H713500   3.563   0.904  11.825 -0.7547 -0.7803 -1.0456
  919MPD2     C13501   3.698   4.709  11.721  0.1486  0.9387  0.9882
  919MPD2    C113502   3.765   4.588  11.685 -0.0154  0.0340  0.1707
  919MPD2    C213503   3.768   4.548  11.551  0.6577  0.1043 -0.2641
  919MPD2    C313504   3.711   4.623  11.450  0.0723  0.3108 -0.8220
  919MPD2    C413505   3.645   4.733  11.486  1.1089  0.7624  0.7430
  919MPD2    C513506   3.631   0.030  11.620 -0.2394 -0.2814  0.2199
  919MPD2     H13507   3.805   4.448  11.528 -0.3287 -0.0930 -0.9751
  919MPD2    H113508   3.606   0.056  11.406 -1.8107 -1.3623  0.5668
  919MPD2    H213509   3.680   0.012  11.820 -0.9497 -1.3817  1.7427
  919MPD2    H313510   3.583   0.124  11.642  3.0931  1.2206  1.1033
  919MPD2     N13511   3.702   4.584  11.318 -0.0543  0.0712  0.4826
  919MPD2    H513512   3.653   4.654  11.265 -0.0250 -0.7924 -0.6732
  919MPD2    N113513   3.814   4.500  11.784 -0.0188  0.1287 -0.5736
  919MPD2    H713514   3.856   4.413  11.751  2.6573  0.6292  1.4490
  920MPD2     C13515   3.510   0.185  10.466 -0.7002  0.1811 -1.3460
  920MPD2    C113516   3.428   0.077  10.461 -0.0351  0.0441  0.5630
  920MPD2    C213517   3.438   4.716  10.560 -0.2784  0.2672  0.7879
  920MPD2    C313518   3.543   4.713  10.643 -1.1480  0.5438 -0.1394
  920MPD2    C413519   3.636   0.076  10.636  0.2907  0.0264 -0.3231
  920MPD2    C513520   3.614   0.181  10.558 -0.0373 -0.0244  0.2067
  920MPD2     H13521   3.381   4.624  10.559  0.0730  0.0553 -0.3958
  920MPD2    H113522   3.712   0.086  10.714  0.9412 -0.7309 -0.8508
  920MPD2    H213523   3.500   0.270  10.399 -2.3458 -0.9175 -2.5013
  920MPD2    H313524   3.685   0.264  10.558 -0.4425  0.3292 -1.3347
  920MPD2     N13525   3.552   4.609  10.735  0.2340  0.1152  0.0237
  920MPD2    H513526   3.496   4.528  10.712 -0.5681 -0.3992  3.7972
  920MPD2    N113527   3.330   0.076  10.362 -0.4153  0.2614  0.4859
  920MPD2    H713528   3.327   0.156  10.300 -0.0985  0.7211  1.0633
  921MPD2     C13529   0.089   3.355  16.356 -0.0234  0.1204 -0.3745
  921MPD2    C113530   0.128   3.232  16.404 -0.0915  0.4728  0.7468
  921MPD2    C213531   0.039   3.136  16.447  0.1021  0.5063  0.2676
  921MPD2    C313532   4.643   3.158  16.417 -0.4660  0.6072  0.9818
  921MPD2    C413533   4.601   3.283  16.370 -0.6825 -0.6073 -0.2161
  921MPD2    C513534   4.699   3.379  16.346 -0.0814 -0.2667  0.2150
  921MPD2     H13535   0.077   3.039  16.478  0.0466 -0.2087 -1.8775
  921MPD2    H113536   4.497   3.312  16.361  0.9399  5.7303  1.4894
  921MPD2    H213537   0.150   3.444  16.344 -0.1411  0.1948 -0.4165
  921MPD2    H313538   4.674   3.479  16.313  1.3505  0.0870  0.1933
  921MPD2     N13539   4.541   3.072  16.453 -0.4360 -0.0761 -0.3391
  921MPD2    H513540   4.449   3.101  16.422 -0.9669 -0.6060  0.7578
  921MPD2    N113541   0.268   3.220  16.405  0.4781 -0.1098 -0.7580
  921MPD2    H713542   0.315   3.299  16.363 -0.3817  1.8079  1.9289
  922MPD2     C13543   1.273   1.649  16.706  0.5053  0.3418  0.0627
  922MPD2    C113544   1.217   1.616  16.827 -0.0059  0.1440  0.6966
  922MPD2    C213545   1.182   1.482  16.852 -0.1155 -0.4770 -0.0266
  922MPD2    C313546   1.193   1.388  16.757 -0.1762 -0.5018 -0.1939
  922MPD2    C413547   1.236   1.425  16.628  0.2148  0.0069 -0.7730
  922MPD2    C513548   1.279   1.556  16.612 -0.3612 -0.0586  0.5728
  922MPD2     H13549   1.149   1.456  16.952 -0.1796  0.5059  0.2033
  922MPD2    H113550   1.243   1.358  16.543  1.4530  0.3213 -0.9328
  922MPD2    H213551   1.327   1.742  16.685 -0.3902  1.3467  2.2526
  922MPD2    H313552   1.311   1.590  16.515 -1.6101 -1.8483 -0.4546
  922MPD2     N13553   1.168   1.257  16.792  0.2478 -0.2681 -0.0721
  922MPD2    H513554   1.140   1.238  16.887 -0.6826  0.3396 -0.2277
  922MPD2    N113555   1.188   1.712  16.931  0.4029 -0.0800  0.3933
  922MPD2    H713556   1.166   1.669  17.020  2.1322 -0.4778  0.6199
  923MPD2     C13557   2.027   3.690   8.767 -0.4638 -0.4886 -0.3980
  923MPD2    C113558   2.044   3.804   8.839  0.2581 -0.2300 -0.1231
  923MPD2    C213559   2.163   3.810   8.917  0.4552 -0.6511  0.4789
  923MPD2    C313560   2.261   3.710   8.912 -0.0022  0.6709  0.2127
  923MPD2    C413561   2.235   3.594   8.836  0.5043  0.1199  0.0001
  923MPD2    C513562   2.120   3.592   8.760  0.5252 -1.0997 -0.2748
  923MPD2     H13563   2.180   3.899   8.976 -1.3518  0.0659 -0.0932
  923MPD2    H113564   2.309   3.516   8.837 -0.6084 -0.9338  0.3435
  923MPD2    H213565   1.942   3.684   8.700 -0.5941 -1.4248 -0.1497
  923MPD2    H313566   2.100   3.495   8.716  1.0003 -0.6287 -1.5192
  923MPD2     N13567   2.377   3.705   8.995  0.5624 -0.0509  0.4124
  923MPD2    H513568   2.408   3.613   9.022 -0.0510 -0.5000 -0.4416
  923MPD2    N113569   1.942   3.901   8.828 -0.1561 -0.2554  0.0158
  923MPD2    H713570   1.854   3.878   8.784  1.2599 -1.2778 -2.2541
  924MPD2     C13571   2.554   1.606  15.425  0.4290 -0.6850 -0.1229
  924MPD2    C113572   2.559   1.637  15.561 -0.0956 -0.5792  0.1791
  924MPD2    C213573   2.494   1.759  15.600 -0.4492 -0.9207  0.4448
  924MPD2    C313574   2.429   1.839  15.509  0.2070  0.1747 -0.5643
  924MPD2    C413575   2.427   1.803  15.381  0.2561 -0.0836 -0.9331
  924MPD2    C513576   2.481   1.684  15.341  0.1785 -0.1269 -0.2197
  924MPD2     H13577   2.480   1.789  15.703  1.4133  1.0339  0.1243
  924MPD2    H113578   2.387   1.867  15.303  1.1309  1.5207 -0.0757
  924MPD2    H213579   2.579   1.508  15.386  3.5020  0.5488 -1.2711
  924MPD2    H313580   2.481   1.662  15.235 -0.8927  2.7685 -0.8331
  924MPD2     N13581   2.362   1.959  15.542 -0.6642  0.3511  0.3627
  924MPD2    H513582   2.302   1.996  15.469  0.1725  1.1945  0.0986
  924MPD2    N113583   2.612   1.540  15.651  0.0620  0.1768 -0.9565
  924MPD2    H713584   2.665   1.461  15.615 -1.1023 -0.9009 -0.3004
  925MPD2     C13585   1.582   3.281  14.970  0.0601  0.0734  0.4027
  925MPD2    C113586   1.474   3.370  14.952 -0.2896  0.4957 -0.2891
  925MPD2    C213587   1.378   3.368  15.052 -0.0680  0.0367 -0.0693
  925MPD2    C313588   1.391   3.298  15.173 -0.0737  0.5171  0.0600
  925MPD2    C413589   1.498   3.211  15.197 -0.8411  0.1988 -0.3106
  925MPD2    C513590   1.593   3.212  15.094  0.1756 -0.6382 -0.2911
  925MPD2     H13591   1.300   3.442  15.037  0.0042  0.3713  1.2629
  925MPD2    H113592   1.505   3.150  15.286 -0.6884 -0.9866 -1.1335
  925MPD2    H213593   1.655   3.263  14.893 -2.4362 -0.9058 -1.7196
  925MPD2    H313594   1.671   3.138  15.108 -0.5970 -1.1446  1.4261
  925MPD2     N13595   1.298   3.305  15.274  0.7789  0.5003  0.5485
  925MPD2    H513596   1.313   3.245  15.355 -1.2264 -1.1988 -0.3235
  925MPD2    N113597   1.464   3.462  14.844  0.2691  0.3232  0.1112
  925MPD2    H713598   1.381   3.520  14.841  0.2456  0.1866 -1.7559
  926MPD2     C13599   4.548   2.129  13.606  0.6600 -0.4516  0.3318
  926MPD2    C113600   4.452   2.192  13.527  1.4670  0.4032 -0.0417
  926MPD2    C213601   4.501   2.258  13.418  0.3416  0.0115 -0.1229
  926MPD2    C313602   4.632   2.257  13.383  0.9716  0.0411  0.4364
  926MPD2    C413603   4.725   2.194  13.459 -0.2192 -0.1203  0.2575
  926MPD2    C513604   4.679   2.132  13.580  0.2903  0.1516  0.1982
  926MPD2     H13605   4.427   2.308  13.357 -0.8233  0.7506  1.8641
  926MPD2    H113606   0.091   2.217  13.442 -0.5989  0.5956 -1.0801
  926MPD2    H213607   4.518   2.076  13.696  0.1711 -2.5530 -1.0575
  926MPD2    H313608   0.010   2.086  13.651 -1.7324 -1.0752  1.3497
  926MPD2     N13609   4.687   2.320  13.272  0.2949 -0.0259 -0.2040
  926MPD2    H513610   0.050   2.333  13.263  0.1201  3.0997  2.1826
  926MPD2    N113611   4.315   2.198  13.549  0.1706 -0.4950 -0.5334
  926MPD2    H713612   4.261   2.243  13.476 -2.3594 -3.5266 -0.5402
  927MPD2     C13613   0.196   4.718   0.063 -0.3121  0.8685  0.4162
  927MPD2    C113614   0.094   0.036   0.000 -0.3240  0.0666  0.3565
  927MPD2    C213615   0.111   0.080  17.617 -0.9784 -0.1356 -0.0922
  927MPD2    C313616   0.225   0.061  17.542 -0.4756 -0.1401 -0.3367
  927MPD2    C413617   0.328   4.733  17.610 -0.1746  0.5080  0.1036
  927MPD2    C513618   0.315   4.701  17.744 -0.1952 -0.0319 -0.4059
  927MPD2     H13619   0.026   0.122  17.565 -1.2478  1.3078  1.5086
  927MPD2    H113620   0.422   4.703  17.564  0.5149 -1.2813  2.6900
  927MPD2    H213621   0.188   4.697   0.169  2.5272  1.3211  0.7058
  927MPD2    H313622   0.393   4.647   0.046  0.8851  1.4784 -0.4569
  927MPD2     N13623   0.228   0.094  17.406  0.4433 -0.1711 -0.1223
  927MPD2    H513624   0.151   0.146  17.365  0.8148  0.2709 -0.2726
  927MPD2    N113625   4.715   0.057   0.073 -0.9620  0.0662  0.2656
  927MPD2    H713626   4.714   0.003   0.159  0.6118  0.2631  0.4105
  928MPD2     C13627   2.537   3.777   1.070 -0.6661 -0.4071  0.4273
  928MPD2    C113628   2.653   3.710   1.087  0.3690  0.1489 -0.2919
  928MPD2    C213629   2.719   3.660   0.969  0.6828 -0.0882 -0.6767
  928MPD2    C313630   2.671   3.680   0.845  0.3912  0.0273 -0.1787
  928MPD2    C413631   2.551   3.750   0.830  0.4476  0.2898 -0.1098
  928MPD2    C513632   2.484   3.795   0.947 -0.6009 -0.1451  0.2829
  928MPD2     H13633   2.817   3.615   0.981  1.3205  0.9822 -1.9291
  928MPD2    H113634   2.502   3.765   0.734 -0.5414 -2.1564  0.0131
  928MPD2    H213635   2.483   3.826   1.150  2.4907  0.1917  2.2155
  928MPD2    H313636   2.391   3.850   0.940 -0.1639  0.4045 -1.1038
  928MPD2     N13637   2.747   3.641   0.734  0.3481 -0.4268 -0.4999
  928MPD2    H513638   2.847   3.623   0.741  0.7486  1.4788 -1.5492
  928MPD2    N113639   2.710   3.719   1.217  0.5366  0.0325  0.3411
  928MPD2    H713640   2.657   3.781   1.278  0.1812  0.9493 -0.9023
  929MPD2     C13641   2.731   3.494  10.053 -0.4004 -0.1011 -0.3066
  929MPD2    C113642   2.593   3.479  10.075  0.9286  0.0534 -1.1811
  929MPD2    C213643   2.512   3.552   9.991 -0.1083  1.0113 -0.4541
  929MPD2    C313644   2.561   3.641   9.894 -0.2068  0.0413  0.0208
  929MPD2    C413645   2.701   3.655   9.881  0.2133  0.3151  0.0795
  929MPD2    C513646   2.782   3.578   9.958  0.1396  0.6913 -0.0957
  929MPD2     H13647   2.404   3.546  10.002 -0.1201  0.7378 -0.7202
  929MPD2    H113648   2.739   3.727   9.810 -1.6675  0.4831 -0.7334
  929MPD2    H213649   2.799   3.444  10.120 -0.0037 -0.0068 -0.6398
  929MPD2    H313650   2.888   3.593   9.942  0.4323 -1.7985 -0.4027
  929MPD2     N13651   2.474   3.727   9.816  0.1205 -0.4237  0.4301
  929MPD2    H513652   2.520   3.783   9.745  0.7586  0.1324  1.2892
  929MPD2    N113653   2.550   3.392  10.171 -0.5326 -0.2414 -0.3349
  929MPD2    H713654   2.623   3.334  10.210  1.7906  2.2627 -0.9886
  930MPD2     C13655   3.851   0.439  14.035 -0.5696 -0.0721 -0.0123
  930MPD2    C113656   3.978   0.393  14.031 -0.2325  0.4102 -0.6018
  930MPD2    C213657   4.022   0.323  13.916 -0.0331  0.0726 -0.3640
  930MPD2    C313658   3.928   0.312  13.812 -0.1786  0.0994  0.5310
  930MPD2    C413659   3.802   0.361  13.822 -0.4759 -0.6479  0.1221
  930MPD2    C513660   3.765   0.422  13.939  0.0574 -0.1510 -0.6152
  930MPD2     H13661   4.123   0.287  13.901 -0.3182 -0.6035 -0.6492
  930MPD2    H113662   3.730   0.359  13.741 -0.0638  0.2073 -0.2684
  930MPD2    H213663   3.828   0.499  14.122  0.6809 -0.8870  0.8936
  930MPD2    H313664   3.664   0.458  13.954  0.2085 -0.0950  0.2872
  930MPD2     N13665   3.971   0.281  13.677  0.0482 -0.3652 -0.4548
  930MPD2    H513666   3.906   0.292  13.600  1.6199  2.1281 -1.4078
  930MPD2    N113667   4.063   0.431  14.144  0.2195 -0.3890 -0.1562
  930MPD2    H713668   4.029   0.499  14.211  1.0577 -0.4555  0.3404
  931MPD2     C13669   4.321   0.406   0.715  0.0517  0.1384 -0.2747
  931MPD2    C113670   4.411   0.305   0.676  0.6405  1.0259  0.0999
  931MPD2    C213671   4.502   0.257   0.762 -0.5331  0.4408 -0.3147
  931MPD2    C313672   4.493   0.294   0.896 -0.2255 -0.2501  0.5671
  931MPD2    C413673   4.420   0.407   0.924 -0.1374 -0.5513 -0.1478
  931MPD2    C513674   4.332   0.462   0.838  0.3205 -0.5547 -0.6640
  931MPD2     H13675   4.585   0.190   0.742 -0.4288  0.4284  0.1403
  931MPD2    H113676   4.414   0.441   1.027 -0.1857 -1.2181  0.0707
  931MPD2    H213677   4.255   0.463   0.649 -0.2200 -1.1765 -1.1255
  931MPD2    H313678   4.262   0.543   0.857  0.4749 -0.1980 -1.6354
  931MPD2     N13679   4.584   0.250   1.000  0.6755  0.6453  0.0229
  931MPD2    H513680   4.582   0.305   1.085  3.3067 -1.0546  1.2047
  931MPD2    N113681   4.400   0.249   0.543 -0.8305  0.3387  0.1183
  931MPD2    H713682   4.328   0.297   0.489  1.2760  1.2387 -1.8597
  932MPD2     C13683   1.315   3.589  11.025 -0.2435 -0.0529  0.9232
  932MPD2    C113684   1.364   3.627  11.147 -0.6062 -0.5288 -0.3589
  932MPD2    C213685   1.458   3.555  11.207 -0.8356 -0.5526  0.2708
  932MPD2    C313686   1.514   3.440  11.151  0.7422  0.3010 -0.2803
  932MPD2    C413687   1.480   3.413  11.023 -0.5719  0.1792  0.1091
  932MPD2    C513688   1.374   3.482  10.962  0.2419  0.1382  0.8450
  932MPD2     H13689   1.491   3.592  11.303  0.3127  1.7895 -1.0098
  932MPD2    H113690   1.523   3.329  10.969 -1.4708 -0.4546  0.3702
  932MPD2    H213691   1.236   3.649  10.980 -0.4883 -1.0254  0.0663
  932MPD2    H313692   1.348   3.456  10.860  2.7717 -0.6077  0.4017
  932MPD2     N13693   1.624   3.369  11.209 -0.2494  0.0511  0.2914
  932MPD2    H513694   1.676   3.302  11.153  0.0005  1.1254 -0.7626
  932MPD2    N113695   1.315   3.734  11.217  0.1315 -0.0472  0.0989
  932MPD2    H713696   1.352   3.744  11.311  0.4881 -0.9247  0.0515
  933MPD2     C13697   2.708   4.115   1.944 -0.3375  0.9200 -0.2498
  933MPD2    C113698   2.660   4.036   1.841  0.3386 -0.1581  0.0782
  933MPD2    C213699   2.538   4.074   1.789  0.3537  0.1014 -0.8124
  933MPD2    C313700   2.455   4.173   1.840  0.1527  0.3392 -0.0983
  933MPD2    C413701   2.511   4.251   1.939 -0.1802  0.1723  0.2688
  933MPD2    C513702   2.627   4.215   1.998  0.1646  0.2616 -0.3552
  933MPD2     H13703   2.505   4.019   1.701 -1.4005  1.3225 -0.8962
  933MPD2    H113704   2.464   4.345   1.964  0.4656  0.9213 -1.3616
  933MPD2    H213705   2.805   4.088   1.983 -0.7891 -0.3092  0.0074
  933MPD2    H313706   2.663   4.269   2.085 -1.5340  1.3330 -0.3062
  933MPD2     N13707   2.342   4.215   1.769  0.2177 -0.4480 -0.3878
  933MPD2    H513708   2.324   4.161   1.684  1.7971 -0.9052 -0.4293
  933MPD2    N113709   2.751   3.937   1.787  0.5482 -0.7619  0.3927
  933MPD2    H713710   2.850   3.939   1.811  0.4989 -1.2713  0.6294
  934MPD2     C13711   2.955   0.997   1.603 -0.2086 -0.4851 -0.6036
  934MPD2    C113712   3.064   0.981   1.511 -0.3344 -0.4656  0.1414
  934MPD2    C213713   3.061   0.875   1.425 -0.2222  0.1813 -0.7516
  934MPD2    C313714   2.954   0.781   1.430  0.4038  0.1636 -0.3355
  934MPD2    C413715   2.857   0.797   1.529 -0.6310  0.5022  0.9743
  934MPD2    C513716   2.857   0.905   1.608  0.1105  1.0480 -0.2815
  934MPD2     H13717   3.140   0.868   1.351  0.2902  0.7515 -0.2554
  934MPD2    H113718   2.777   0.726   1.545 -1.4733  0.7037 -2.2801
  934MPD2    H213719   2.958   1.078   1.675  0.1799 -1.0376 -0.0062
  934MPD2    H313720   2.776   0.908   1.680  0.7013  1.7254  0.3567
  934MPD2     N13721   2.936   0.677   1.336 -0.6671 -0.0292  0.1352
  934MPD2    H513722   2.855   0.618   1.352 -0.0682 -0.7952  0.3632
  934MPD2    N113723   3.174   1.066   1.499 -0.1476 -0.6515 -0.0842
  934MPD2    H713724   3.236   1.035   1.425 -2.6386  1.7536 -3.1649
  935MPD2     C13725   3.498   0.194   0.648  0.1036 -0.4673 -0.3265
  935MPD2    C113726   3.394   0.103   0.682 -0.2030 -0.3686  0.6366
  935MPD2    C213727   3.283   0.139   0.759 -0.6129  0.2037 -0.3134
  935MPD2    C313728   3.294   0.259   0.820 -0.9558 -0.6100 -0.0895
  935MPD2    C413729   3.397   0.343   0.795 -0.0789  0.0307  0.0555
  935MPD2    C513730   3.504   0.313   0.717 -0.1791  0.2700 -0.4048
  935MPD2     H13731   3.202   0.072   0.783 -0.1687 -0.3606 -0.3778
  935MPD2    H113732   3.407   0.435   0.852 -0.0215  0.0704 -0.0185
  935MPD2    H213733   3.578   0.173   0.577 -1.9714 -1.9186 -2.2256
  935MPD2    H313734   3.583   0.386   0.704  0.3319 -0.0413  0.9789
  935MPD2     N13735   3.204   0.305   0.926 -0.0934  0.0655  0.1853
  935MPD2    H513736   3.233   0.391   0.972 -1.5482  1.0738 -0.8372
  935MPD2    N113737   3.398   4.703   0.639 -0.3967  0.1023 -0.4862
  935MPD2    H713738   3.315   4.649   0.663  1.4094 -1.2001  2.7244
  936MPD2     C13739   1.834   2.640  12.315  0.3445  0.3810  0.3741
  936MPD2    C113740   1.891   2.514  12.331 -0.0007  0.2955  0.4348
  936MPD2    C213741   2.022   2.507  12.379 -1.0017 -0.0418 -0.0714
  936MPD2    C313742   2.092   2.624  12.414  0.4427  0.1517  0.5579
  936MPD2    C413743   2.029   2.745  12.399  0.0415 -0.0323 -0.6501
  936MPD2    C513744   1.899   2.755  12.352  0.2227  0.2614  0.0957
  936MPD2     H13745   2.076   2.414  12.394 -0.3640  0.6035  1.6340
  936MPD2    H113746   2.087   2.835  12.416 -1.2300  0.6740 -0.0497
  936MPD2    H213747   1.731   2.649  12.282 -0.1154  2.4636  2.3978
  936MPD2    H313748   1.855   2.853  12.341  0.3620  0.2668 -0.3863
  936MPD2     N13749   2.220   2.610  12.474 -0.8974  0.4316  0.4370
  936MPD2    H513750   2.264   2.519  12.477  2.3423  1.9332 -1.0788
  936MPD2    N113751   1.817   2.397  12.307 -0.3771  0.2841  0.2123
  936MPD2    H713752   1.870   2.312  12.318  1.0700  1.5308  2.9419
  937MPD2     C13753   4.345   4.008  11.889  0.0611 -0.0542  0.6789
  937MPD2    C113754   4.272   4.115  11.840 -0.3680 -0.3989 -0.3687
  937MPD2    C213755   4.276   4.133  11.700  0.0179 -0.5196 -0.7900
  937MPD2    C313756   4.365   4.071  11.619  0.8281  0.5178  0.0622
  937MPD2    C413757   4.448   3.980  11.678 -0.4146  0.3425 -1.1615
  937MPD2    C513758   4.432   3.947  11.809  0.5238 -0.6612 -0.5042
  937MPD2     H13759   4.207   4.209  11.665  0.1933  0.4304  0.9340
  937MPD2    H113760   4.534   3.941  11.625 -0.5010 -3.0731  1.2546
  937MPD2    H213761   4.342   3.971  11.991  2.8979  1.1926  1.2205
  937MPD2    H313762   4.500   3.877  11.855  1.7526  1.6058  1.1709
  937MPD2     N13763   4.337   4.086  11.482  0.0747 -0.0264 -0.0734
  937MPD2    H513764   4.280   4.167  11.457 -1.0159 -0.9480 -0.5796
  937MPD2    N113765   4.156   4.176  11.899 -0.2393 -0.0503 -0.4257
  937MPD2    H713766   4.102   4.230  11.832 -1.8320 -2.9388 -1.4853
  938MPD2     C13767   2.361   4.617   0.368 -0.8430  0.4696  0.0380
  938MPD2    C113768   2.355   4.729   0.443  0.2355  0.5340 -0.3753
  938MPD2    C213769   2.331   4.712   0.572  0.5545  0.2023  0.2278
  938MPD2    C313770   2.311   4.586   0.634  0.5281 -0.2027  0.0323
  938MPD2    C413771   2.338   4.473   0.553  0.3847 -0.1064 -0.0617
  938MPD2    C513772   2.354   4.490   0.416  0.4311  0.2960 -0.4900
  938MPD2     H13773   2.331   0.064   0.632 -0.7013 -0.1085  0.6934
  938MPD2    H113774   2.318   4.371   0.581 -0.2684 -0.0811 -0.4233
  938MPD2    H213775   2.344   4.628   0.262 -1.0928  0.5407  0.0847
  938MPD2    H313776   2.349   4.403   0.352  0.1467 -0.4608  0.5602
  938MPD2     N13777   2.259   4.578   0.770  0.3318  0.6915  0.0001
  938MPD2    H513778   2.252   4.489   0.819  0.4251  1.1895  0.9178
  938MPD2    N113779   2.357   0.125   0.386 -0.5952  0.0105 -0.0296
  938MPD2    H713780   2.375   0.207   0.443  0.5933 -0.7896  0.7501
  939MPD2     C13781   3.255   1.248   0.448  0.1473  0.8778 -0.1143
  939MPD2    C113782   3.371   1.310   0.400  1.0630 -0.0640 -0.0486
  939MPD2    C213783   3.461   1.228   0.331 -0.5735  0.1938  0.4743
  939MPD2    C313784   3.444   1.094   0.316  0.6709  0.1099 -0.7855
  939MPD2    C413785   3.331   1.032   0.359 -0.3310 -0.5069 -0.5985
  939MPD2    C513786   3.238   1.113   0.425  0.3167  0.7484 -0.1621
  939MPD2     H13787   3.554   1.274   0.299  0.4494 -2.1313  0.1580
  939MPD2    H113788   3.313   0.926   0.349  0.1957 -0.4591 -2.0602
  939MPD2    H213789   3.171   1.299   0.493 -1.7501  0.5126 -3.2413
  939MPD2    H313790   3.146   1.064   0.457  0.3168 -0.3555 -1.8753
  939MPD2     N13791   3.542   1.028   0.248 -0.3897  0.2380  0.2367
  939MPD2    H513792   3.627   1.079   0.224  1.4900 -2.7462  0.5163
  939MPD2    N113793   3.375   1.453   0.412 -0.4249  0.3595 -0.2332
  939MPD2    H713794   3.305   1.497   0.472 -0.9264  0.9709 -1.2648
  940MPD2     C13795   2.271   1.832  14.057 -0.5030 -0.0629 -0.3116
  940MPD2    C113796   2.194   1.812  13.948 -0.6602 -0.2100  0.5510
  940MPD2    C213797   2.257   1.779  13.830 -0.0046  0.0256  0.6161
  940MPD2    C313798   2.395   1.745  13.828 -0.4827  0.5777  0.1362
  940MPD2    C413799   2.473   1.766  13.937 -0.6982  0.0675  0.0326
  940MPD2    C513800   2.411   1.814  14.050 -0.1902  0.0100 -0.8014
  940MPD2     H13801   2.204   1.768  13.736 -2.0145  1.3431  1.6017
  940MPD2    H113802   2.579   1.748  13.937 -0.8182 -0.6240  0.0945
  940MPD2    H213803   2.231   1.862  14.153  1.0911 -0.4658  0.4742
  940MPD2    H313804   2.467   1.825  14.143  0.1395  0.4393 -1.0509
  940MPD2     N13805   2.456   1.692  13.712  0.5844  0.3514  0.3974
  940MPD2    H513806   2.555   1.668  13.710  0.7951  1.2018  0.6847
  940MPD2    N113807   2.060   1.842  13.945  0.2891 -0.2849  0.1236
  940MPD2    H713808   2.005   1.840  13.859  0.4710 -0.4579  0.0135
  941MPD2     C13809   1.071   2.301  10.246  0.6085  0.6965  0.8211
  941MPD2    C113810   1.176   2.236  10.285  0.2814 -0.3323 -0.0398
  941MPD2    C213811   1.173   2.094  10.272  0.9805  0.6548  0.1552
  941MPD2    C313812   1.056   2.032  10.232  0.1839 -0.1574 -0.0257
  941MPD2    C413813   0.945   2.104  10.198 -0.1801  0.2683  0.0044
  941MPD2    C513814   0.962   2.240  10.204  0.0145  0.1423 -0.1689
  941MPD2     H13815   1.254   2.033  10.310 -1.5211 -2.8663 -0.1470
  941MPD2    H113816   0.857   2.059  10.152  0.0448 -1.2755  1.0864
  941MPD2    H213817   1.069   2.409  10.255 -1.8403  0.7329 -0.3827
  941MPD2    H313818   0.886   2.307  10.165 -1.1240 -1.1583 -0.1707
  941MPD2     N13819   1.031   1.894  10.215  0.3301  0.3562 -0.2777
  941MPD2    H513820   0.938   1.881  10.179 -0.2586  2.9873  0.2972
  941MPD2    N113821   1.293   2.290  10.332  0.3381  0.1533  0.0099
  941MPD2    H713822   1.358   2.217  10.361  1.4209  1.8919  1.9331
  942MPD2     C13823   1.508   4.295   9.461  0.5609  0.0820  0.0190
  942MPD2    C113824   1.463   4.237   9.342 -0.1452 -0.9278 -0.0513
  942MPD2    C213825   1.519   4.126   9.289  0.5023  0.2238 -0.1042
  942MPD2    C313826   1.630   4.068   9.349 -0.2611 -0.4723 -0.0871
  942MPD2    C413827   1.677   4.123   9.470 -0.8442  0.3151  0.2760
  942MPD2    C513828   1.613   4.233   9.522 -0.4037  0.9600 -0.1794
  942MPD2     H13829   1.483   4.086   9.195  0.7175 -0.0708 -0.0613
  942MPD2    H113830   1.765   4.087   9.522 -0.7575  2.1278  1.3720
  942MPD2    H213831   1.458   4.383   9.500  0.5816  0.1004  0.0039
  942MPD2    H313832   1.656   4.270   9.614  1.1488 -0.8768 -0.1787
  942MPD2     N13833   1.699   3.960   9.304 -0.4998 -0.1894 -0.0123
  942MPD2    H513834   1.779   3.925   9.355 -1.4050  0.4090  1.7980
  942MPD2    N113835   1.359   4.290   9.258  0.3963 -0.1811 -0.5276
  942MPD2    H713836   1.338   4.254   9.165 -0.7852  0.2791 -0.4390
  943MPD2     C13837   1.183   1.991  10.695 -1.2323 -0.1943 -0.0737
  943MPD2    C113838   1.072   1.929  10.640 -0.7376  0.3423  0.0581
  943MPD2    C213839   0.972   2.012  10.595  0.3964  0.0160  0.2765
  943MPD2    C313840   0.991   2.153  10.592 -0.0705  0.0069  0.4957
  943MPD2    C413841   1.105   2.210  10.644 -0.2353 -0.6806 -0.0579
  943MPD2    C513842   1.202   2.128  10.697 -0.1407  0.4187  0.1429
  943MPD2     H13843   0.875   1.982  10.556  1.6303  0.6377 -3.3210
  943MPD2    H113844   1.131   2.315  10.633 -0.3054 -0.8708 -1.9061
  943MPD2    H213845   1.270   1.928  10.712 -0.1517  1.2119 -0.4135
  943MPD2    H313846   1.297   2.174  10.723 -0.0528 -0.5496  1.5578
  943MPD2     N13847   0.881   2.224  10.538  0.1510 -0.1003 -0.1258
  943MPD2    H513848   0.802   2.169  10.506  1.1012 -0.6156 -1.5987
  943MPD2    N113849   1.069   1.790  10.622 -0.2516 -0.1877  0.0365
  943MPD2    H713850   1.146   1.728  10.647  0.1407 -0.5533 -2.0923
  944MPD2     C13851   0.135   0.653  10.676  0.0528 -0.2064 -0.0755
  944MPD2    C113852   0.105   0.780  10.637 -0.3416 -0.7698 -0.8752
  944MPD2    C213853   0.034   0.865  10.723 -0.1047 -0.0409 -0.0855
  944MPD2    C313854   4.719   0.816  10.840  1.0245 -0.7362  0.1640
  944MPD2    C413855   0.019   0.692  10.884  0.9990  0.2702  0.2131
  944MPD2    C513856   0.089   0.613  10.799 -0.0448 -0.0450  0.1889
  944MPD2     H13857   0.008   0.967  10.698  0.8694  0.4138  0.7808
  944MPD2    H113858   0.001   0.651  10.983  0.3251 -2.0529 -0.8724
  944MPD2    H213859   0.188   0.577  10.619 -3.6592 -0.9544 -2.5952
  944MPD2    H313860   0.104   0.516  10.846  1.4025  1.2002  2.2995
  944MPD2     N13861   4.649   0.908  10.923 -0.0399 -0.3326 -0.1508
  944MPD2    H513862   4.646   1.005  10.894  1.2706 -0.4053 -0.5627
  944MPD2    N113863   0.130   0.809  10.503  0.1897  0.1709 -0.3257
  944MPD2    H713864   0.174   0.736  10.448 -0.1989 -2.6658  3.0717
    1TMC1    C113865   3.021   1.461  14.833  0.0915 -0.0338 -0.3514
    1TMC1    C213866   3.095   1.459  14.720  0.0130 -0.0154  0.1588
    1TMC1    C313867   3.176   1.348  14.698  0.2731  0.0186  0.2940
    1TMC1    C413868   3.017   1.357  14.919  0.3473  0.0629  0.2188
    1TMC1    C513869   3.084   1.245  14.884  0.8901  0.1636  0.3864
    1TMC1    C613870   3.167   1.241  14.780  0.7102  0.4513  0.5208
    1TMC1     C13871   3.024   1.595  14.901 -0.7493 -0.5971 -0.8500
    1TMC1     O13872   3.068   1.592  15.013 -0.2537  0.4341  0.4795
    1TMC1     H13873   3.098   1.544  14.654  0.9053  0.1398  0.4040
    1TMC1    H113874   2.956   1.360  15.009 -2.2212  0.5003 -1.5366
    1TMC1    H213875   3.239   1.161  14.775 -0.0319 -0.0993 -1.7040
    1TMC1    C713876   3.121   1.158  14.996  0.0197 -0.1838 -0.2016
    1TMC1    C813877   3.308   1.362  14.637 -0.3072 -0.8886  0.2305
    1TMC1    O113878   3.098   1.202  15.110  0.1484  0.1030  0.0835
    1TMC1    O213879   3.370   1.266  14.591  0.4255 -0.0572  0.0680
    1TMC1    O313880   3.080   1.035  14.950 -0.0084  0.3130 -0.3241
    1TMC1    H313881   3.075   1.036  14.852  0.9238  0.7083 -0.3749
    1TMC1    O513882   3.331   1.493  14.611 -0.3142  0.3142  0.3651
    1TMC1    H513883   3.280   1.567  14.651  0.0135 -0.2126  1.7543
    2MPD2     C13884   2.885   2.079  14.938  0.3041  0.4765 -0.3402
    2MPD2    C113885   2.830   2.026  14.822 -0.7609  0.2105 -0.3432
    2MPD2    C213886   2.854   1.898  14.790  0.0123 -0.0630 -0.5317
    2MPD2    C313887   2.938   1.832  14.873 -0.4178  0.5788  0.4801
    2MPD2    C413888   3.001   1.885  14.982 -0.0422  0.2951 -0.4496
    2MPD2    C513889   2.976   2.009  15.015  0.7273  0.1318  0.2054
    2MPD2     H13890   2.804   1.838  14.714 -2.1406  1.0707  0.0125
    2MPD2    H113891   3.057   1.828  15.054  0.8687  2.1803  0.3285
    2MPD2    H213892   2.870   2.186  14.954 -1.0114  0.1041  0.9316
    2MPD2    H313893   3.031   2.040  15.103 -0.8721  0.2660  1.1709
    2MPD2     N13894   2.959   1.693  14.831 -0.0474  0.1239 -0.3146
    2MPD2    H513895   2.913   1.663  14.747 -0.5337 -0.5228  0.1826
    2MPD2    N113896   2.739   2.103  14.753 -0.4334 -0.1174  0.4222
    2MPD2    H713897   2.729   2.201  14.776 -0.4703 -0.4155  1.6878
    3TMC2    C113898   2.567   2.148  14.613  0.5077  0.2033 -0.5885
    3TMC2    C213899   2.529   2.244  14.698  0.2952 -0.1686 -0.5286
    3TMC2    C313900   2.452   2.340  14.645  0.1898  0.4482  0.2625
    3TMC2    C413901   2.547   2.149  14.479 -0.1881 -0.0621  0.0511
    3TMC2    C513902   2.479   2.256  14.429 -0.3777  0.0647  0.2436
    3TMC2    C613903   2.426   2.351  14.512 -0.2943  0.0962 -0.4222
    3TMC2     C13904   2.670   2.052  14.645 -0.1043 -0.0736  0.2154
    3TMC2     O13905   2.697   1.969  14.559  0.1986  0.1912 -0.4727
    3TMC2     H13906   2.547   2.230  14.804 -1.3629 -1.8123 -0.4517
    3TMC2    H113907   2.576   2.065  14.416  1.2701  0.5561 -0.0885
    3TMC2    H213908   2.345   2.406  14.467 -2.0588 -0.1628  2.4161
    3TMC2    C713909   2.465   2.263  14.285 -0.3020 -0.1889  0.0627
    3TMC2    C813910   2.348   2.393  14.734 -0.1836 -0.4430  0.3267
    3TMC2    O113911   2.494   2.160  14.225 -0.1084  0.7924  0.4933
    3TMC2    O213912   2.311   2.338  14.839  0.5490  0.6991  0.4313
    3TMC2    O513913   2.305   2.507  14.694 -0.3288  0.6713  0.1325
    3TMC2    H513914   2.340   2.534  14.606  0.1580 -0.3362  0.0201
    4TMC2    C113915   2.096   1.986  13.540  0.3545 -0.3246 -0.5735
    4TMC2    C213916   2.181   1.980  13.435  0.5796 -0.2673  0.6376
    4TMC2    C313917   2.310   2.017  13.455 -0.0940  0.6522 -0.4219
    4TMC2    C413918   2.134   2.054  13.658  0.1890 -0.1722  0.2301
    4TMC2    C513919   2.259   2.108  13.661  0.7882  0.3483  0.1601
    4TMC2    C613920   2.349   2.088  13.564 -0.3338  0.3459  0.1602
    4TMC2     C13921   1.954   1.993  13.512 -0.2219 -0.4095  0.2126
    4TMC2     O13922   1.875   1.986  13.605 -0.0814  0.7337  0.0233
    4TMC2     H13923   2.164   1.909  13.355  1.4552  0.6392 -0.3599
    4TMC2    H113924   2.071   2.070  13.745  0.4107 -2.3935  0.8006
    4TMC2    H213925   2.453   2.112  13.582  0.3216 -1.1422 -1.6362
    4TMC2    C713926   2.298   2.181  13.780  0.1539 -0.7393  0.2011
    4TMC2    C813927   2.417   1.990  13.373  0.0441  0.0366  0.2538
    4TMC2    O113928   2.273   2.115  13.881 -0.3059 -0.0861 -0.2150
    4TMC2    O213929   2.539   1.994  13.396 -0.1836 -0.2091 -0.0951
    4TMC2    O513930   2.365   1.998  13.247 -0.1854  0.3279 -0.3440
    4TMC2    H513931   2.269   2.022  13.242 -0.7737 -1.6814  1.4602
    5MPD2     C13932   1.558   2.140  13.229 -0.1252 -0.2397  0.3627
    5MPD2    C113933   1.664   2.143  13.147 -0.7636 -0.2489 -0.3623
    5MPD2    C213934   1.782   2.097  13.200 -0.1012 -0.2555 -0.9078
    5MPD2    C313935   1.798   2.050  13.328 -0.1049 -0.1474 -0.0619
    5MPD2    C413936   1.680   2.045  13.402 -0.6083  0.1408 -0.7592
    5MPD2    C513937   1.566   2.081  13.353 -0.4462  0.2542 -0.1456
    5MPD2     H13938   1.877   2.098  13.146 -0.3098 -1.3991 -1.2966
    5MPD2    H113939   1.672   2.015  13.506 -1.2377  1.8995 -0.3076
    5MPD2    H213940   1.457   2.164  13.196  0.0832 -1.5067 -1.1985
    5MPD2    H313941   1.479   2.090  13.417 -0.4151  1.3729 -0.2525
    5MPD2     N13942   1.931   2.015  13.379 -0.1147  0.0819  0.0463
    5MPD2    H513943   2.015   2.032  13.326  0.1400 -1.3351  0.0035
    5MPD2    N113944   1.645   2.181  13.007  0.3383  0.2695  0.2166
    5MPD2    H713945   1.551   2.210  12.983  0.8954 -0.3463 -2.7399
    6MPD1     C13946   2.072   3.062  14.038  0.2731 -0.1900 -0.4451
    6MPD1    C113947   1.961   2.981  14.022  0.1944  0.5685 -0.0007
    6MPD1    C213948   1.902   2.988  13.898 -0.4846  0.5086 -0.7649
    6MPD1    C313949   1.930   3.088  13.805 -0.4794  0.9663 -0.1961
    6MPD1    C413950   2.025   3.181  13.834  0.5649 -0.4234 -0.4999
    6MPD1    C513951   2.096   3.161  13.949 -0.0671 -0.0688  0.4057
    6MPD1     H13952   1.815   2.924  13.886 -1.2750  1.0557  2.0055
    6MPD1    H113953   2.042   3.265  13.767  0.5965  1.0849  1.3667
    6MPD1    H213954   2.140   3.050  14.122  1.4571 -2.9493 -1.7743
    6MPD1    H313955   2.184   3.223  13.966  0.9596 -1.6674  0.9424
    6MPD1     N13956   1.865   3.101  13.687  0.2302 -0.2789  0.0783
    6MPD1    H513957   1.892   3.168  13.616 -0.2357  0.4019  0.5480
    6MPD1    N113958   1.932   2.882  14.120 -0.4130  0.4855 -0.2601
    6MPD1    H613959   1.832   2.863  14.120 -0.3712  0.2610 -1.3235
    6MPD1    H713960   1.951   2.919  14.212  1.9562 -0.3982 -0.4162
    7MPD2     C13961   1.253   2.793  13.162 -0.4717 -0.0214 -0.3317
    7MPD2    C113962   1.370   2.826  13.106 -0.3563 -0.3011 -0.3595
    7MPD2    C213963   1.423   2.748  13.002  1.0373  1.1649  0.0054
    7MPD2    C313964   1.361   2.643  12.949 -0.4161 -0.4431 -0.3326
    7MPD2    C413965   1.242   2.615  13.010 -0.3914  0.4882  0.0184
    7MPD2    C513966   1.178   2.692  13.102  0.0239  0.1702  0.3354
    7MPD2     H13967   1.519   2.777  12.961  2.1747  0.3953  2.1243
    7MPD2    H113968   1.193   2.521  12.988  0.9304 -0.1066 -0.4208
    7MPD2    H213969   1.230   2.819  13.264 -1.0937 -1.1523 -0.1749
    7MPD2    H313970   1.083   2.669  13.149  2.5118 -2.3757  4.1110
    7MPD2     N13971   1.419   2.546  12.862 -0.6198  0.0192 -0.6835
    7MPD2    H513972   1.366   2.466  12.830 -0.0977  0.5636 -2.9340
    7MPD2    N113973   1.457   2.921  13.170 -0.2992  0.1439  0.1192
    7MPD2    H713974   1.543   2.950  13.123  0.4559 -2.2129  0.0526
    8TMC3    C113975   1.583   2.452  12.708 -0.1174  0.5212 -0.8897
    8TMC3    C213976   1.592   2.343  12.791  0.1504 -0.4249 -0.2770
    8TMC3    C313977   1.715   2.273  12.797  0.2573  0.1493  0.6212
    8TMC3    C413978   1.699   2.493  12.644  0.6276 -0.2696 -0.1991
    8TMC3    C513979   1.815   2.431  12.658  0.7553  0.6703  0.1015
    8TMC3    C613980   1.821   2.322  12.730  0.1035  0.0162 -0.6688
    8TMC3     C13981   1.529   2.572  12.786 -0.2780 -0.7637  0.4209
    8TMC3     O13982   1.592   2.676  12.772 -1.0625 -0.3842  0.1579
    8TMC3     H13983   1.511   2.304  12.851 -1.0151  2.2174 -0.1367
    8TMC3    H113984   1.697   2.580  12.579 -0.8616 -0.1792 -0.0434
    8TMC3    H213985   1.918   2.276  12.745 -1.8720 -4.3097 -1.1275
    8TMC3    C713986   1.927   2.519  12.696 -0.4369 -0.0953  0.4900
    8TMC3    C813987   1.748   2.186  12.908 -0.0266  0.4816 -0.3264
    8TMC3    O113988   2.032   2.468  12.707  0.0579  0.3872  0.3235
    8TMC3    O213989   1.869   2.163  12.927  0.2279 -0.4042 -0.3220
    9TMC3    C113990   1.719   3.055  13.518 -0.1423  0.0656  0.8458
    9TMC3    C213991   1.824   3.066  13.430 -0.4057  0.2011 -0.6932
    9TMC3    C313992   1.793   3.072  13.296  0.0693  0.3745  0.0181
    9TMC3    C413993   1.590   3.035  13.475  0.2008  0.0959 -0.2174
    9TMC3    C513994   1.565   3.044  13.333 -1.1659  0.0983 -0.5898
    9TMC3    C613995   1.669   3.059  13.243  0.0738  0.6985 -0.3438
    9TMC3     C13996   1.752   3.039  13.654 -0.5905 -0.1263 -0.5801
    9TMC3     O13997   1.680   2.964  13.721 -0.0815  0.4959 -0.1535
    9TMC3     H13998   1.929   3.066  13.456 -0.7335 -0.0547  0.6740
    9TMC3    H113999   1.523   3.007  13.556 -1.5298  1.9018 -1.0352
    9TMC3    H214000   1.665   3.082  13.137 -0.0393 -0.0306 -0.4931
    9TMC3    C714001   1.439   2.979  13.294 -0.3421 -0.5835 -0.5205
    9TMC3    C814002   1.899   3.031  13.205 -0.3635  0.4308  0.3162
    9TMC3    O114003   1.360   2.958  13.382 -0.5996  0.1965  0.0343
    9TMC3    O214004   2.014   3.022  13.247  0.6655 -0.0399  0.0462
   10MPD2     C14005   2.085   2.737  12.823  0.2451  0.4004 -0.1776
   10MPD2    C114006   1.949   2.718  12.833 -0.0990  0.5736 -0.5429
   10MPD2    C214007   1.877   2.801  12.911  0.0849 -0.2648 -0.1839
   10MPD2    C314008   1.940   2.881  13.003 -0.4228  0.3348 -0.4432
   10MPD2    C414009   2.079   2.865  13.014  0.3867  0.3384 -0.0385
   10MPD2    C514010   2.155   2.808  12.917 -0.8167 -0.6522 -0.2281
   10MPD2     H14011   1.769   2.807  12.909  0.0120 -1.0132  1.1379
   10MPD2    H114012   2.144   2.919  13.082  1.9581 -3.0498  1.1437
   10MPD2    H214013   2.137   2.673  12.752  0.1902 -0.1718  0.2946
   10MPD2    H314014   2.263   2.801  12.912 -0.7148  0.3271  0.6108
   10MPD2     N14015   1.858   2.961  13.092 -0.3265 -0.2970 -0.0489
   10MPD2    H514016   1.762   2.964  13.058 -0.4046  0.4950  0.2493
   10MPD2    N114017   1.873   2.630  12.761  0.2094 -0.2310  0.1851
   10MPD2    H714018   1.773   2.648  12.759  0.6195  2.0454  0.3308
   11MPD2     C14019   2.505   2.559  14.063 -0.0069 -0.1849  0.1391
   11MPD2    C114020   2.461   2.432  14.100  0.6857 -0.8196 -0.5219
   11MPD2    C214021   2.407   2.351  14.001 -0.2642 -0.3006 -0.5365
   11MPD2    C314022   2.397   2.392  13.870 -0.2311  0.0822 -0.2784
   11MPD2    C414023   2.444   2.515  13.838  0.3833  0.8347 -0.6180
   11MPD2    C514024   2.504   2.597  13.932 -0.4442  0.4581  0.3567
   11MPD2     H14025   2.365   2.255  14.030 -2.6059  1.1324  0.8574
   11MPD2    H114026   2.445   2.549  13.735 -0.4813 -1.5340 -1.4085
   11MPD2    H214027   2.553   2.622  14.137  1.8645 -1.0691 -0.3201
   11MPD2    H314028   2.551   2.690  13.901 -1.5311  0.7674 -0.3649
   11MPD2     N14029   2.357   2.303  13.764 -0.8492 -0.2901  0.0358
   11MPD2    H514030   2.353   2.339  13.669  1.2795  0.0194  0.0585
   11MPD2    N114031   2.464   2.395  14.238 -0.2224 -0.1696  0.4146
   11MPD2    H714032   2.499   2.465  14.302  0.9547 -1.3713  1.0872
    1MPD1     C14033   1.566   3.367  16.332  0.2359  0.2717 -0.5167
    1MPD1    C114034   1.576   3.473  16.247 -0.0582 -0.6913 -0.2467
    1MPD1    C214035   1.455   3.542  16.220 -0.4144 -0.3492 -0.0274
    1MPD1    C314036   1.334   3.496  16.263 -0.1944 -0.3639 -0.3033
    1MPD1    C414037   1.331   3.387  16.348 -0.1045  0.5429 -0.2670
    1MPD1    C514038   1.447   3.324  16.377 -0.0747 -0.0484 -0.4605
    1MPD1     H14039   1.458   3.631  16.158 -0.1191  0.7150  1.5194
    1MPD1    H114040   1.234   3.351  16.380  0.1634  0.4197  0.3853
    1MPD1    H214041   1.649   3.303  16.362  0.4107  1.2744  1.1420
    1MPD1    H314042   1.436   3.234  16.436 -1.3320  0.4010 -0.0063
    1MPD1     N14043   1.206   3.555  16.252  0.5102  0.0277 -0.0363
    1MPD1    H514044   1.123   3.515  16.295  0.6498  1.3157  1.4216
    1MPD1    N114045   1.703   3.517  16.203 -0.1646  0.8672  0.2860
    1MPD1    H614046   1.699   3.544  16.105  0.0929  1.8025  0.5300
    1MPD1    H714047   1.758   3.432  16.204 -0.4404  0.6730 -1.7448
    2MPD1     C14048   1.049   4.346  16.588  0.2601  0.1117 -0.4516
    2MPD1    C114049   1.156   4.267  16.537  0.2881  0.2450 -0.6593
    2MPD1    C214050   1.118   4.161  16.456  0.5649 -0.0724  0.4923
    2MPD1    C314051   0.991   4.142  16.408  0.1122  1.1019  0.2855
    2MPD1    C414052   0.886   4.213  16.463 -0.1557  0.1101  0.3086
    2MPD1    C514053   0.920   4.312  16.555 -0.3973 -0.5507 -0.1251
    2MPD1     H14054   1.197   4.095  16.422  1.6532  0.8886  1.1548
    2MPD1    H114055   0.779   4.209  16.443 -0.4080 -1.6974  1.9962
    2MPD1    H214056   1.062   4.418  16.668  3.0757 -1.6650  0.6808
    2MPD1    H314057   0.838   4.364  16.604  0.2271 -0.9813  1.3649
    2MPD1     N14058   0.977   4.032  16.319 -0.4260  0.0124 -0.6463
    2MPD1    H514059   1.048   3.960  16.320 -1.0764 -0.6274 -1.1367
    2MPD1    N114060   1.295   4.286  16.563 -0.6934 -0.0524 -0.8804
    2MPD1    H614061   1.304   4.387  16.575 -0.9366 -0.1143 -0.1257
    2MPD1    H714062   1.348   4.264  16.479 -0.2170 -0.1888 -0.5433
    3TMC3    C114063   0.879   3.864  16.195 -0.1731 -0.0071 -0.1807
    3TMC3    C214064   0.793   3.781  16.256 -0.1422  0.1625  0.5067
    3TMC3    C314065   0.822   3.647  16.262  0.5452  0.5731  0.3961
    3TMC3    C414066   1.006   3.825  16.157 -0.3530 -0.3492  0.8979
    3TMC3    C514067   1.035   3.689  16.166 -0.1173  0.1205 -0.4705
    3TMC3    C614068   0.940   3.602  16.212  0.1347  0.8713 -0.6384
    3TMC3     C14069   0.863   3.999  16.251  0.2429  0.0242  0.3654
    3TMC3     O14070   0.754   4.055  16.260  0.2542 -0.3223  0.3511
    3TMC3     H14071   0.704   3.822  16.301 -0.5621  0.6603 -0.7751
    3TMC3    H114072   1.080   3.895  16.120  0.2115 -1.8049 -0.7096
    3TMC3    H214073   0.965   3.497  16.207  1.3421  1.1182  0.2999
    3TMC3    C714074   1.179   3.657  16.170 -0.2616 -0.7511 -0.2164
    3TMC3    C814075   0.748   3.572  16.364  0.6925 -0.2481 -0.4516
    3TMC3    O114076   1.253   3.734  16.109 -0.6547 -0.3028  0.0701
    3TMC3    O214077   0.810   3.470  16.398  0.1908  0.5331 -0.5712
    4MPD1     C14078   0.347   3.430  16.635 -0.0021 -0.0266  0.3558
    4MPD1    C114079   0.292   3.527  16.554  0.1499 -0.4472 -0.0900
    4MPD1    C214080   0.388   3.592  16.470 -0.0538  0.0353 -0.3392
    4MPD1    C314081   0.522   3.550  16.470  0.2053 -0.0697  0.2181
    4MPD1    C414082   0.564   3.449  16.556  1.0507 -0.1029  0.0522
    4MPD1    C514083   0.469   3.383  16.628 -0.4092  0.0719  0.5643
    4MPD1     H14084   0.354   3.672  16.405 -0.4945 -1.7105 -2.2839
    4MPD1    H114085   0.670   3.435  16.577  0.5425 -1.2298  1.7635
    4MPD1    H214086   0.277   3.380  16.702  1.1524  1.0941  2.4218
    4MPD1    H314087   0.486   3.299  16.693 -2.5831 -1.2061 -0.5133
    4MPD1     N14088   0.619   3.614  16.387 -0.4375 -0.4615  0.0108
    4MPD1    H514089   0.582   3.692  16.334 -0.1109 -0.2154  0.1417
    4MPD1    N114090   0.168   3.572  16.594  0.2680  0.1384 -0.9032
    4MPD1    H614091   0.132   3.629  16.517  0.8639  2.4523  0.5147
    4MPD1    H714092   0.108   3.490  16.601 -0.4598  0.7162 -0.2985
    1TCq1    O114093   1.318   2.733  11.090 -0.0449 -0.1573  0.4085
    1TCq1    C114094   1.317   2.772  10.955  1.5037  0.5824 -0.5789
    1TCq1    O214095   1.226   2.819  10.888 -0.8007  0.2078 -0.0969
    1TCq1    C214096   1.459   2.753  10.916  0.0877  0.0586  0.4974
    1TCq1    C314097   1.516   2.859  10.850 -0.3130  0.0902 -0.2150
    1TCq1    C414098   1.654   2.862  10.838 -0.5852  0.1099 -0.0500
    1TCq1    C514099   1.728   2.760  10.902  0.2667 -0.4086  0.2008
    1TCq1    C614100   1.666   2.665  10.982  0.3119 -0.6127 -0.0207
    1TCq1    C714101   1.528   2.658  10.986 -0.0448 -0.3550 -0.2556
    1TCq1    C814102   1.742   2.574  11.059  0.3315  0.9307 -0.7405
    1TCq1    O414103   1.709   2.456  11.074 -0.4811 -0.1206  0.1733
    1TCq1    C914104   1.719   2.988  10.809  0.6113 -0.1062 -0.2513
    1TCq1    O514105   1.647   3.081  10.762 -0.4220  0.1474  0.1311
    1TCq1    O614106   1.835   3.011  10.858 -0.1237 -0.3649 -0.0671
    1TCq1    H114107   1.405   2.721  11.134  0.8696 -1.9783 -1.9385
    1TCq1    H214108   1.447   2.936  10.821 -0.4165 -0.0133 -0.2455
    1TCq1    H314109   1.834   2.776  10.890  0.0572 -1.4961 -3.1546
    1TCq1    H414110   1.483   2.574  11.037 -0.8483 -0.2266 -0.7658
    2MPD1     C14111   2.123   2.497  11.391  0.2992  0.7191 -0.5917
    2MPD1    C114112   2.149   2.610  11.322  0.1721 -0.0925 -0.0783
    2MPD1    C214113   2.049   2.662  11.244 -0.0935  0.0635  0.1722
    2MPD1    C314114   1.945   2.584  11.195 -0.2085 -1.4483 -0.5599
    2MPD1    C414115   1.926   2.457  11.253  0.2688  0.0367 -0.1620
    2MPD1    C514116   2.010   2.420  11.356  0.3551  0.1548  0.4294
    2MPD1     H14117   2.060   2.760  11.198 -0.2250 -1.0433 -2.2568
    2MPD1    H114118   1.843   2.393  11.225 -0.7613  1.4223 -0.2861
    2MPD1    H214119   2.198   2.454  11.456  0.4563  2.2410  0.2242
    2MPD1    H314120   1.988   2.329  11.411  1.5989  0.5639  1.6039
    2MPD1     N14121   1.861   2.635  11.096 -0.5363  0.0757 -0.1392
    2MPD1    H514122   1.894   2.721  11.053 -1.8191 -0.3773 -2.0435
    2MPD1    N114123   2.248   2.701  11.354 -0.4310  0.1016  0.2777
    2MPD1    H614124   2.333   2.661  11.393  0.7247 -0.2716 -2.6021
    2MPD1    H714125   2.271   2.767  11.280  2.3382 -2.1034 -0.8507
    1TMC1    C114126   0.450   0.277   0.654 -0.2136 -0.1124 -0.4589
    1TMC1    C214127   0.497   0.404   0.632  0.4965  0.9714 -0.1966
    1TMC1    C314128   0.539   0.478   0.741 -0.5498  0.6023 -0.2795
    1TMC1    C414129   0.441   0.229   0.781 -0.2861 -0.2174  0.3124
    1TMC1    C514130   0.470   0.311   0.886  0.5326  0.3930  0.5708
    1TMC1    C614131   0.526   0.433   0.872 -0.4004 -0.8577 -0.1421
    1TMC1     C14132   0.459   0.176   0.549  0.1293  0.3177 -0.9387
    1TMC1     O14133   0.517   0.214   0.450 -0.2770 -0.1946 -0.3190
    1TMC1     H14134   0.495   0.445   0.531 -0.7123  0.3032 -0.4376
    1TMC1    H114135   0.416   0.125   0.800 -0.0750 -0.8864 -3.0546
    1TMC1    H214136   0.538   0.490   0.964 -2.3480 -1.2579  0.3674
    1TMC1    C714137   0.421   0.282   1.011 -0.2544  0.1690 -0.3704
    1TMC1    C814138   0.555   0.624   0.718 -0.9312 -0.1635 -0.1527
    1TMC1    O114139   0.449   0.345   1.112  0.3123  0.1242  0.4705
    1TMC1    O214140   0.584   0.666   0.607 -0.5564  0.4667 -0.2854
    1TMC1    O314141   0.306   0.224   0.987  0.4910  0.0121 -0.0165
    1TMC1    H314142   0.305   0.175   0.902 -1.8064  1.0615 -0.5945
    1TMC1    O514143   0.540   0.705   0.821 -0.3023  0.2687  0.1381
    1TMC1    H514144   0.531   0.678   0.914  1.6433  0.3109  0.3438
    2MPD1     C14145   0.343   4.463   0.340 -0.3388 -0.8513 -0.1283
    2MPD1    C114146   0.253   4.476   0.447 -0.0583 -0.0916  0.8926
    2MPD1    C214147   0.277   4.593   0.517  0.1403 -0.2358 -0.7783
    2MPD1    C314148   0.375   4.689   0.496  0.0155  0.2796  0.4989
    2MPD1    C414149   0.467   4.673   0.401  0.0164 -0.2132 -0.2832
    2MPD1    C514150   0.447   4.554   0.331  0.7132  0.1511 -0.0085
    2MPD1     H14151   0.199   4.609   0.591 -0.1004 -1.2211 -0.8278
    2MPD1    H114152   0.554   4.733   0.377 -1.4793  0.2111 -4.6366
    2MPD1    H214153   0.336   4.382   0.269  1.8709 -0.4238 -0.8242
    2MPD1    H314154   0.522   4.536   0.255  2.4704  2.7253  1.0989
    2MPD1     N14155   0.376   0.069   0.572 -0.2039  0.3662 -0.2117
    2MPD1    H514156   0.306   0.076   0.646  2.8503 -2.2831  2.9215
    2MPD1    N114157   0.130   4.407   0.451  0.0216 -0.3508 -0.1439
    2MPD1    H614158   0.100   4.401   0.548 -2.0148 -0.3495 -0.7631
    2MPD1    H714159   0.138   4.310   0.420  1.4934 -0.4511  0.5620
    1MPD1     C14160   2.965   3.210  12.281  0.7340 -0.5410 -0.8254
    1MPD1    C114161   2.919   3.279  12.170  0.4568 -0.3215  0.3649
    1MPD1    C214162   2.954   3.414  12.152 -0.2324 -0.6260  0.3190
    1MPD1    C314163   3.022   3.477  12.251  0.0253 -0.3886  0.0391
    1MPD1    C414164   3.075   3.409  12.359  0.5177 -0.9042 -0.2175
    1MPD1    C514165   3.046   3.277  12.371 -0.8317  0.0842  0.0158
    1MPD1     H14166   2.928   3.466  12.060  1.8176 -2.6372 -1.3831
    1MPD1    H114167   3.120   3.459  12.445  0.4721  0.7380 -1.1442
    1MPD1    H214168   2.943   3.105  12.292  1.1138 -0.8178 -2.7388
    1MPD1    H314169   3.077   3.219  12.457  0.4962  2.2465  0.9722
    1MPD1     N14170   3.040   3.615  12.233  0.4145  0.1578 -0.3993
    1MPD1    H514171   2.990   3.669  12.163  1.0898 -0.6113 -1.4674
    1MPD1    N114172   2.859   3.217  12.057 -0.4227  0.1032 -0.4168
    1MPD1    H614173   2.801   3.137  12.081 -0.9436  1.2523  2.1691
    1MPD1    H714174   2.804   3.278  11.998 -2.3011 -1.5126 -0.3186
    2MPD1     C14175   2.473   4.124  10.657 -0.4586 -0.2348  0.4682
    2MPD1    C114176   2.571   4.087  10.748  0.2885 -0.4218 -0.0321
    2MPD1    C214177   2.704   4.086  10.715  0.4618 -0.1272 -0.1889
    2MPD1    C314178   2.733   4.137  10.586 -0.0996 -0.6379  0.4550
    2MPD1    C414179   2.635   4.171  10.499  0.4969  0.7957  0.1158
    2MPD1    C514180   2.503   4.159  10.528  0.0610  0.0184  0.7687
    2MPD1     H14181   2.768   4.041  10.791 -1.3052  0.2462  1.5301
    2MPD1    H114182   2.667   4.219  10.407  2.0385  0.6698  0.5913
    2MPD1    H214183   2.370   4.107  10.686 -0.8402  0.9810 -0.2115
    2MPD1    H314184   2.427   4.186  10.455 -0.5582  0.5128  1.5914
    2MPD1     N14185   2.863   4.164  10.547 -0.2407  0.2153 -0.6078
    2MPD1    H514186   2.886   4.194  10.453  0.2054  0.5510 -0.3923
    2MPD1    N114187   2.528   4.029  10.867  0.2705  0.2223 -0.4101
    2MPD1    H614188   2.591   4.050  10.945 -0.3522 -2.6486  0.8696
    2MPD1    H714189   2.441   4.075  10.894  0.0955 -1.0489  1.2161
    3MPD1     C14190   3.012   3.887   9.811 -1.2169 -0.1860 -0.4093
    3MPD1    C114191   2.924   3.975   9.878 -0.7428 -0.3664 -0.2661
    3MPD1    C214192   2.969   4.036   9.992 -0.2618  0.0733  0.6462
    3MPD1    C314193   3.096   4.022  10.043 -0.0000  0.6904 -0.4417
    3MPD1    C414194   3.189   3.955   9.968 -0.3803 -0.8204  0.6822
    3MPD1    C514195   3.143   3.891   9.856 -0.7030 -0.4695 -0.2715
    3MPD1     H14196   2.900   4.095  10.052 -1.7039 -0.4299 -0.4930
    3MPD1    H114197   3.288   3.927  10.003 -0.0888 -1.6469 -0.7966
    3MPD1    H214198   2.981   3.817   9.734  0.5912 -2.0076  0.5328
    3MPD1    H314199   3.211   3.824   9.805 -0.6433 -1.3818  1.0138
    3MPD1     N14200   3.115   4.069  10.173  0.7887 -0.3327  0.1312
    3MPD1    H514201   3.038   4.126  10.206  0.1369 -0.9837 -0.2372
    3MPD1    N114202   2.790   3.973   9.842  0.7491 -0.0512 -0.6949
    3MPD1    H614203   2.774   3.961   9.743 -2.0117 -0.3703 -0.2096
    3MPD1    H714204   2.748   4.061   9.872 -0.8759 -1.0643  0.0541
    4MPD2     C14205   2.843   4.036  11.776  0.7754  0.1871  0.5296
    4MPD2    C114206   2.942   4.098  11.850 -0.2693 -0.0348 -0.0995
    4MPD2    C214207   3.045   4.171  11.784  0.0376  0.2942 -0.1777
    4MPD2    C314208   3.042   4.177  11.646  0.1244  0.4803  0.3446
    4MPD2    C414209   2.945   4.104  11.579 -0.3487  0.1080 -0.2061
    4MPD2    C514210   2.847   4.043  11.642  0.3185 -0.3519  0.4103
    4MPD2     H14211   3.117   4.234  11.834 -0.6659  1.1263 -0.2141
    4MPD2    H114212   2.940   4.107  11.471  0.6381 -0.6742 -0.2761
    4MPD2    H214213   2.753   4.001  11.827  1.0271  0.4942  1.1874
    4MPD2    H314214   2.760   4.030  11.578 -1.3507  1.1461  2.3802
    4MPD2     N14215   3.143   4.239  11.567 -0.0899  0.3747  0.0563
    4MPD2    H514216   3.125   4.243  11.467  0.8050 -2.6622 -0.2268
    4MPD2    N114217   2.946   4.087  11.992 -0.5379  0.5420  0.3136
    4MPD2    H714218   3.023   4.144  12.025  1.5808 -1.6623 -0.7631
    5TMC3    C114219   2.930   4.000  12.199  0.6656  0.3151 -0.1008
    5TMC3    C214220   2.951   3.869  12.236 -0.1079  0.3703  0.0486
    5TMC3    C314221   3.078   3.839  12.281  0.0470  0.0535 -0.3902
    5TMC3    C414222   3.017   4.104  12.222 -0.6138  0.4038  0.3704
    5TMC3    C514223   3.147   4.070  12.269  0.6568  0.7377  0.1154
    5TMC3    C614224   3.174   3.938  12.305  0.5075  0.0308  0.4253
    5TMC3     C14225   2.868   4.010  12.073  0.7447 -1.0549 -0.3922
    5TMC3     O14226   2.769   3.941  12.044 -0.7621 -0.2881  0.9068
    5TMC3     H14227   2.880   3.793  12.206 -0.1029  0.4079 -0.0598
    5TMC3    H114228   2.980   4.202  12.194 -2.5104 -0.8172 -1.4203
    5TMC3    H214229   3.263   3.910  12.360  0.3129  0.6519  1.0559
    5TMC3    C714230   3.244   4.123  12.173 -0.0971  0.5071 -0.6845
    5TMC3    C814231   3.124   3.705  12.300  0.0624 -0.6076 -0.3674
    5TMC3    O114232   3.218   4.215  12.099 -0.2392 -0.2023 -0.7815
    5TMC3    O214233   3.216   3.680  12.380  0.3435 -0.3422 -0.2798
    6TMC3    C114234   3.086   4.173  10.565  0.4237 -0.5750 -0.2143
    6TMC3    C214235   3.101   4.108  10.443 -0.1758 -0.1274 -0.3683
    6TMC3    C314236   3.219   4.118  10.379  0.3992  0.4634  0.7689
    6TMC3    C414237   3.186   4.240  10.627 -0.7860 -0.6526 -0.3682
    6TMC3    C514238   3.309   4.245  10.559  0.1328 -0.5877  0.6101
    6TMC3    C614239   3.327   4.177  10.441  0.1795  0.1229 -0.2369
    6TMC3     C14240   2.962   4.163  10.638 -0.4105 -0.5716  0.7718
    6TMC3     O14241   2.971   4.184  10.759 -0.5689 -0.2619 -0.6155
    6TMC3     H14242   3.022   4.055  10.391  0.0637  0.0608 -0.9258
    6TMC3    H114243   3.176   4.278  10.728 -0.5503 -1.0134 -0.2096
    6TMC3    H214244   3.428   4.177  10.402 -0.6008 -0.0554 -2.2562
    6TMC3    C714245   3.410   4.244  10.657 -0.3486  0.3636 -0.3799
    6TMC3    C814246   3.235   4.056  10.248 -0.7595  1.3274  0.2595
    6TMC3    O114247   3.408   4.335  10.741  0.0988  0.2898 -0.0947
    6TMC3    O214248   3.346   4.018  10.219 -0.3794 -0.1377 -0.1757
    7MPD2     C14249   3.692   4.076  11.903  0.0142  0.7360 -0.0480
    7MPD2    C114250   3.585   4.158  11.883  0.8315 -0.4582  1.0640
    7MPD2    C214251   3.475   4.152  11.964 -0.0083  0.9668  0.5654
    7MPD2    C314252   3.472   4.070  12.078 -0.8183 -0.2541 -0.2193
    7MPD2    C414253   3.577   3.981  12.093  0.9078 -0.0229 -0.1036
    7MPD2    C514254   3.690   3.989  12.009 -0.0466  0.2085  0.2468
    7MPD2     H14255   3.394   4.220  11.940 -1.0124 -0.0845  1.0214
    7MPD2    H114256   3.580   3.915  12.179  1.8290 -0.5696 -0.5604
    7MPD2    H214257   3.780   4.082  11.840  0.0279 -1.1002 -0.1949
    7MPD2    H314258   3.765   3.911  12.017 -1.8138 -1.4761  0.5391
    7MPD2     N14259   3.363   4.058  12.170  0.0332 -0.0646  0.2159
    7MPD2    H514260   3.382   3.991  12.244  2.2358  2.2349  1.7256
    7MPD2    N114261   3.563   4.231  11.765  0.3984 -0.4386 -0.2964
    7MPD2    H714262   3.470   4.273  11.764 -0.0146 -1.3898 -1.7450
    8TMC3    C114263   3.565   4.290  11.533 -0.6010  0.5676 -0.3543
    8TMC3    C214264   3.565   4.218  11.410  0.1077  0.1845 -0.0891
    8TMC3    C314265   3.451   4.230  11.337 -0.1476  0.3357 -0.0672
    8TMC3    C414266   3.461   4.358  11.577 -0.0464  0.7984  0.6532
    8TMC3    C514267   3.345   4.353  11.505 -0.0464  0.5341 -0.2602
    8TMC3    C614268   3.337   4.292  11.385 -0.7481  0.1511  0.6834
    8TMC3     C14269   3.632   4.220  11.646  0.2834 -0.2470 -0.0894
    8TMC3     O14270   3.732   4.158  11.614 -0.3613 -0.7044 -0.7923
    8TMC3     H14271   3.651   4.164  11.373  0.8269  0.9419  0.4755
    8TMC3    H114272   3.469   4.417  11.667  0.3602  1.0694  0.4385
    8TMC3    H214273   3.248   4.286  11.324  0.3598 -0.8428 -0.8429
    8TMC3    C714274   3.253   4.311  11.609 -0.4868 -0.3922 -0.0548
    8TMC3    C814275   3.458   4.203  11.193  0.2743  0.2642 -0.0073
    8TMC3    O114276   3.294   4.320  11.724 -0.0518  0.2726 -0.5238
    8TMC3    O214277   3.357   4.232  11.133  0.0522 -0.0925  0.0258
    9MPD2     C14278   3.698   4.007  11.000  0.3084 -0.2170 -0.5212
    9MPD2    C114279   3.591   4.090  11.015 -0.3727 -0.1535 -0.1577
    9MPD2    C214280   3.522   4.133  10.912 -0.0189  0.4331  1.1692
    9MPD2    C314281   3.548   4.082  10.783  0.1953  0.0776 -0.5360
    9MPD2    C414282   3.646   3.988  10.767 -0.5066 -0.7792  0.0818
    9MPD2    C514283   3.733   3.971  10.872  0.0556 -0.2060  0.2424
    9MPD2     H14284   3.441   4.205  10.920  0.4306  0.8891  1.5326
    9MPD2    H114285   3.667   3.962  10.664  2.8637  1.0952  0.3268
    9MPD2    H214286   3.749   3.965  11.086  0.3151 -0.0878 -0.4627
    9MPD2    H314287   3.812   3.898  10.860 -0.0582  0.2406 -3.2824
    9MPD2     N14288   3.476   4.122  10.665  0.9742 -0.0595 -0.0645
    9MPD2    H514289   3.483   4.061  10.584  0.8722  0.1835 -0.2589
    9MPD2    N114290   3.563   4.121  11.154 -0.5296 -0.3635  0.1851
    9MPD2    H714291   3.619   4.073  11.223 -0.9609  2.4507  2.5041
    1MPD1     C14292   3.564   2.696  16.971  0.0366  0.1492 -0.9766
    1MPD1    C114293   3.569   2.779  16.866  0.0274 -0.4175 -0.4999
    1MPD1    C214294   3.495   2.752  16.754  0.1234 -0.4525  0.2248
    1MPD1    C314295   3.419   2.638  16.748 -0.6995  0.7956 -0.8146
    1MPD1    C414296   3.408   2.551  16.857 -0.1975  0.2310  0.3571
    1MPD1    C514297   3.480   2.583  16.962 -0.2130  0.4629  0.6331
    1MPD1     H14298   3.512   2.820  16.672  0.3214 -0.4570  0.2606
    1MPD1    H114299   3.349   2.460  16.849 -0.8479  0.7169 -0.4334
    1MPD1    H214300   3.628   2.707  17.057 -0.4975 -0.5446 -0.4889
    1MPD1    H314301   3.469   2.516  17.047 -0.3808 -0.2265  0.0705
    1MPD1     N14302   3.344   2.596  16.635 -0.1995  0.4446 -0.2325
    1MPD1    H514303   3.291   2.510  16.640 -0.7460  0.8752  1.3411
    1MPD1    N114304   3.664   2.880  16.867  0.5848  0.0924  1.3033
    1MPD1    H614305   3.646   2.952  16.798  1.4980  0.2139  1.2006
    1MPD1    H714306   3.692   2.922  16.956  1.6688  2.5985 -0.2418
    2TMC2    C114307   3.083   2.668  16.243 -0.9686  0.4182 -0.5484
    2TMC2    C214308   2.972   2.599  16.308  0.7301 -0.1709 -0.3918
    2TMC2    C314309   2.979   2.566  16.440  0.0757 -0.1300 -0.6879
    2TMC2    C414310   3.203   2.676  16.309  0.4245  0.0710 -0.2422
    2TMC2    C514311   3.210   2.629  16.442 -0.2866  0.0534  0.0577
    2TMC2    C614312   3.097   2.579  16.511  0.4352 -0.5783  0.0636
    2TMC2     C14313   3.075   2.706  16.108 -0.0690  0.0657  0.2686
    2TMC2     O14314   2.980   2.777  16.075 -0.1403 -0.2364 -0.2650
    2TMC2     H14315   2.881   2.588  16.250  0.5179 -2.5213  0.3956
    2TMC2    H114316   3.291   2.715  16.260  0.3911 -1.4562 -1.5333
    2TMC2    H214317   3.102   2.549  16.615  1.2976 -2.0053 -0.4017
    2TMC2    C714318   3.327   2.669  16.523 -0.1093 -0.5420 -0.7105
    2TMC2    C814319   2.877   2.485  16.503 -0.7102 -0.1955  0.2640
    2TMC2    O114320   3.379   2.772  16.486 -0.4132  0.0561  0.4841
    2TMC2    O214321   2.906   2.404  16.589 -0.1568 -0.0103  0.0866
    2TMC2    O514322   2.763   2.518  16.443 -0.0948  0.0431 -0.0368
    2TMC2    H514323   2.778   2.594  16.383 -0.9376  1.2937  1.3378
    3MPD1     C14324   3.142   2.618  15.616 -0.4490 -0.5087  0.0019
    3MPD1    C114325   3.179   2.506  15.682 -0.2406 -0.2731 -0.2777
    3MPD1    C214326   3.179   2.509  15.823 -0.3061 -0.3721 -0.4399
    3MPD1    C314327   3.140   2.625  15.894  0.1992  0.2923 -0.7718
    3MPD1    C414328   3.110   2.730  15.826  0.4709  0.0814  0.5360
    3MPD1    C514329   3.109   2.727  15.689 -0.3988 -0.1694  0.2671
    3MPD1     H14330   3.214   2.423  15.879  1.1960  1.9149  2.1154
    3MPD1    H114331   3.085   2.825  15.872  0.6402  1.1177 -1.4789
    3MPD1    H214332   3.134   2.623  15.508 -0.3592 -1.3321 -0.0418
    3MPD1    H314333   3.073   2.815  15.636 -0.1438  0.0354  0.4314
    3MPD1     N14334   3.144   2.626  16.031 -0.0676 -0.4178  0.2713
    3MPD1    H514335   3.179   2.542  16.075 -0.0461 -0.3909  0.3056
    3MPD1    N114336   3.212   2.394  15.610  0.0263  0.1824 -0.2865
    3MPD1    H614337   3.173   2.323  15.673  1.5446  0.6709  1.2289
    3MPD1    H714338   3.147   2.376  15.534 -2.1350  1.2903  1.3091
    1TMC1    C114339   1.081   1.328  13.148 -0.3290 -0.4632  0.2326
    1TMC1    C214340   1.125   1.222  13.220 -0.6783 -0.1942  0.6007
    1TMC1    C314341   1.028   1.142  13.274 -0.1118 -0.0151 -0.5404
    1TMC1    C414342   0.950   1.360  13.124 -0.0679 -0.3843 -0.7248
    1TMC1    C514343   0.858   1.276  13.180  0.5119  0.1611 -1.2539
    1TMC1    C614344   0.896   1.179  13.270  0.1820 -0.0004 -0.0192
    1TMC1     C14345   1.176   1.405  13.071 -0.0044  0.2254 -0.0667
    1TMC1     O14346   1.128   1.458  12.970 -0.0440 -0.4338 -0.0302
    1TMC1     H14347   1.231   1.201  13.216 -0.9949 -1.6181 -0.3541
    1TMC1    H114348   0.918   1.447  13.068 -1.4751  0.6875  1.7362
    1TMC1    H214349   0.825   1.119  13.326  0.0195 -2.2859 -2.6553
    1TMC1    C714350   0.732   1.338  13.199 -0.7878 -0.0425 -0.3008
    1TMC1    C814351   1.079   1.023  13.325  0.2788 -0.0235 -0.2529
    1TMC1    O114352   0.720   1.462  13.215 -0.1543 -0.3855  0.1501
    1TMC1    O214353   1.195   1.000  13.304 -0.1490  0.2507  0.3859
    1TMC1    O314354   0.649   1.250  13.260 -0.7152  0.1679 -0.1356
    1TMC1    H314355   0.662   1.156  13.234 -0.7253 -0.1693  1.1109
    1TMC1    O514356   0.981   0.933  13.331  0.2321 -0.1035 -0.8388
    1TMC1    H514357   0.904   0.965  13.383  1.2687 -0.1371  0.7481
    2MPD2     C14358   1.423   1.474  12.930  0.0827 -0.7632 -0.1390
    2MPD2    C114359   1.421   1.426  13.056 -0.3219 -0.3627 -0.6640
    2MPD2    C214360   1.537   1.401  13.124  0.0915 -0.0389 -0.5485
    2MPD2    C314361   1.659   1.408  13.056 -0.3221  0.2594  0.1436
    2MPD2    C414362   1.657   1.448  12.926  0.1620  0.1353 -0.8289
    2MPD2    C514363   1.540   1.491  12.864  0.3121 -0.1520  1.0291
    2MPD2     H14364   1.532   1.359  13.223  2.7664 -0.6636 -0.6797
    2MPD2    H114365   1.740   1.453  12.858  0.3335 -1.7663 -0.7459
    2MPD2    H214366   1.331   1.477  12.872  1.1311 -1.7528 -1.8399
    2MPD2    H314367   1.553   1.510  12.758  2.9231  0.1468  1.4118
    2MPD2     N14368   1.775   1.366  13.128  0.4298  0.0766 -0.1058
    2MPD2    H514369   1.763   1.313  13.214  0.5319  2.2681  1.2693
    2MPD2    N114370   1.301   1.395  13.122  0.1899  0.1866  0.7659
    2MPD2    H714371   1.307   1.357  13.216 -0.7563  2.6070  1.8130
    3TCq1    O114372   2.264   1.072  13.016  0.3059  0.2072 -0.4464
    3TCq1    C114373   2.267   1.076  13.153 -0.2414 -0.1902 -0.0170
    3TCq1    O214374   2.367   1.055  13.218 -0.2371 -0.2630  0.2371
    3TCq1    C214375   2.177   1.176  13.202  0.1547 -0.1536  0.6877
    3TCq1    C314376   2.157   1.172  13.342 -0.1850  0.5246 -0.8898
    3TCq1    C414377   2.048   1.240  13.388  0.3734 -0.4157  0.0478
    3TCq1    C514378   1.975   1.321  13.311  0.1338 -0.3856  0.1048
    3TCq1    C614379   2.001   1.331  13.176 -0.5918 -0.1637  0.0474
    3TCq1    C714380   2.100   1.258  13.121 -0.1571  0.4499  1.0304
    3TCq1    C814381   1.904   1.388  13.089  0.4084 -0.2893  0.1908
    3TCq1    O414382   1.930   1.453  12.988  0.2830  0.0237  0.2767
    3TCq1    C914383   2.003   1.208  13.524 -0.0381 -0.0673 -0.5470
    3TCq1    O514384   1.876   1.194  13.528 -0.8341 -0.2273 -0.3476
    3TCq1    O614385   2.092   1.169  13.601  0.1977 -0.5339 -0.0635
    3TCq1    H114386   2.170   1.075  12.988 -0.0063 -1.3953  0.4229
    3TCq1    H214387   2.218   1.103  13.400  1.3799  1.1795 -1.7441
    3TCq1    H314388   1.893   1.373  13.360 -1.4870 -2.1608 -0.7534
    3TCq1    H414389   2.105   1.255  13.013  1.8035 -0.4160  1.1534
    1MPD2     C14390   1.046   2.349  14.501  0.2915  0.0176 -0.0509
    1MPD2    C114391   0.906   2.349  14.497 -0.6988  0.2209  0.4188
    1MPD2    C214392   0.840   2.235  14.455 -0.3134 -0.0604  0.6526
    1MPD2    C314393   0.908   2.116  14.426 -0.3588  0.0247 -0.4947
    1MPD2    C414394   1.045   2.111  14.447  0.2255 -0.0572  1.0630
    1MPD2    C514395   1.111   2.228  14.485 -0.0299 -0.1544  0.9134
    1MPD2     H14396   0.732   2.233  14.449 -0.4985  0.5203  3.8699
    1MPD2    H114397   1.104   2.027  14.411 -2.9289 -1.1741 -1.4876
    1MPD2    H214398   1.102   2.441  14.513 -1.1884  0.9327 -0.1368
    1MPD2    H314399   1.219   2.232  14.477 -0.2428  0.0362 -1.8738
    1MPD2     N14400   0.832   1.999  14.389 -0.5691  0.4615  0.4134
    1MPD2    H514401   0.891   1.921  14.361 -0.1086  0.4942  1.2891
    1MPD2    N114402   0.833   2.465  14.536  0.0615  0.0750 -0.1591
    1MPD2    H714403   0.880   2.553  14.555  0.2641  0.4602 -2.5370
    2TMC3    C114404   0.639   2.600  14.591  0.0198  0.0835  0.1827
    2TMC3    C214405   0.513   2.593  14.647  0.8134  0.6893  0.3376
    2TMC3    C314406   0.404   2.652  14.591  0.7539  0.4491  0.2256
    2TMC3    C414407   0.656   2.675  14.481 -0.3317 -0.4525 -0.6025
    2TMC3    C514408   0.545   2.741  14.430  0.5471  0.8363  0.5411
    2TMC3    C614409   0.423   2.743  14.496 -0.1281  1.2995 -0.3605
    2TMC3     C14410   0.699   2.469  14.570 -0.3252 -0.5160  0.4994
    2TMC3     O14411   0.611   2.384  14.577 -0.6600  0.0195 -0.4716
    2TMC3     H14412   0.495   2.525  14.730  1.7712 -1.8058 -1.4981
    2TMC3    H114413   0.742   2.674  14.416 -0.1150 -0.4917 -0.3153
    2TMC3    H214414   0.337   2.771  14.437  0.3409  1.0599 -1.1646
    2TMC3    C714415   0.578   2.835  14.322  0.3773 -0.2810 -0.0474
    2TMC3    C814416   0.288   2.568  14.574 -0.4339 -0.1692  1.0305
    2TMC3    O114417   0.649   2.807  14.226  0.6788 -0.7203 -0.0915
    2TMC3    O214418   0.179   2.615  14.567 -0.3450 -0.1692  0.1412
    3TCq1    O114419   0.477   4.061  14.226  0.4820 -0.3689  0.2174
    3TCq1    C114420   0.420   4.029  14.346 -0.5922 -0.0850 -0.0700
    3TCq1    O214421   0.370   4.114  14.422  0.2706 -0.1252 -0.1668
    3TCq1    C214422   0.457   3.892  14.395 -0.0700  0.2696 -0.6294
    3TCq1    C314423   0.475   3.870  14.526 -0.2266  1.2021 -0.7507
    3TCq1    C414424   0.540   3.755  14.567  0.5438 -0.7274 -0.2580
    3TCq1    C514425   0.560   3.655  14.481  0.1789 -0.2947  0.5447
    3TCq1    C614426   0.513   3.672  14.352  0.9040 -0.7169 -0.3374
    3TCq1    C714427   0.471   3.797  14.301  0.3526  0.0185  0.2568
    3TCq1    C814428   0.491   3.560  14.260  0.0206  0.2385  0.6682
    3TCq1    O414429   0.472   3.580  14.142  0.2816 -0.9134 -0.3694
    3TCq1    C914430   0.568   3.737  14.704 -0.2125 -0.0954  0.3995
    3TCq1    O514431   0.517   3.821  14.783  0.1466  0.1958 -0.2014
    3TCq1    O614432   0.679   3.685  14.729 -0.1756  0.0955  0.3130
    3TCq1    H114433   0.536   3.995  14.183  0.0727 -0.7846  0.2849
    3TCq1    H214434   0.470   3.952  14.597  0.1672  0.7372 -0.1900
    3TCq1    H314435   0.618   3.569  14.512  0.2525 -0.0244  1.1483
    3TCq1    H414436   0.440   3.815  14.199  2.5141  0.0130 -0.3846
    4MPD2     C14437   0.508   3.298  14.115 -0.1392  0.0080 -0.0563
    4MPD2    C114438   0.500   3.310  14.253  0.2590  0.6456  0.1290
    4MPD2    C214439   0.501   3.197  14.325  0.3245 -0.4482  0.4711
    4MPD2    C314440   0.524   3.075  14.267  0.0081  0.0327  0.3297
    4MPD2    C414441   0.541   3.064  14.131 -0.0842 -0.2465  0.0052
    4MPD2    C514442   0.533   3.175  14.057 -0.1912  0.0669 -0.4023
    4MPD2     H14443   0.489   3.211  14.432 -1.5812  0.7044  0.1003
    4MPD2    H114444   0.565   2.969  14.084 -1.6893  0.0827 -1.4571
    4MPD2    H214445   0.514   3.375  14.040 -0.8310  1.1301  1.0458
    4MPD2    H314446   0.556   3.171  13.951 -0.8515  0.6535 -0.5662
    4MPD2     N14447   0.524   2.957  14.350 -0.0590  0.3174 -0.6196
    4MPD2    H514448   0.495   2.979  14.445  1.0676  1.1678 -0.4698
    4MPD2    N114449   0.492   3.437  14.320 -0.7826  0.1645  0.4614
    4MPD2    H714450   0.507   3.445  14.420 -1.5199 -1.3095  0.6857
    5TMC2    C114451   0.420   1.769  14.411 -0.7027 -0.4911  0.3605
    5TMC2    C214452   0.472   1.668  14.491 -0.1258 -0.3103 -0.5550
    5TMC2    C314453   0.605   1.674  14.505 -0.2570  0.8790  0.8224
    5TMC2    C414454   0.509   1.856  14.352  0.0013  0.7623  0.1191
    5TMC2    C514455   0.647   1.854  14.363 -0.4328 -0.3930 -0.1011
    5TMC2    C614456   0.693   1.751  14.443 -0.4459  0.7169  0.4600
    5TMC2     C14457   0.307   1.838  14.475 -0.1588  0.0634 -0.0453
    5TMC2     O14458   0.243   1.791  14.570 -0.2407  0.1396  0.5039
    5TMC2     H14459   0.417   1.601  14.556  1.3519 -1.7837 -0.8232
    5TMC2    H114460   0.463   1.907  14.268 -0.6333  0.6320  0.3904
    5TMC2    H214461   0.798   1.748  14.470  0.2728 -2.0410 -2.6371
    5TMC2    C714462   0.696   1.993  14.377 -0.4697 -0.0826 -0.2700
    5TMC2    C814463   0.659   1.586  14.603  0.4821 -0.2443 -0.5205
    5TMC2    O114464   0.599   2.059  14.413  0.0970  0.2813 -0.4721
    5TMC2    O214465   0.713   1.482  14.570  0.6668  0.1849  0.3022
    5TMC2    O514466   0.688   1.665  14.705 -0.2373 -0.4484 -0.0644
    5TMC2    H514467   0.658   1.758  14.698 -1.9088 -1.1331 -2.0637
    6MPD2     C14468   0.146   2.315  14.608 -0.6166  0.9711  0.0646
    6MPD2    C114469   0.264   2.321  14.551  0.4902  1.0201  0.4178
    6MPD2    C214470   0.331   2.211  14.508 -0.4882 -1.0264 -0.0794
    6MPD2    C314471   0.272   2.082  14.511  0.7747 -0.1477 -0.7672
    6MPD2    C414472   0.144   2.081  14.565 -0.1015 -0.7478  0.1765
    6MPD2    C514473   0.084   2.193  14.611 -0.1157  0.6450 -0.0041
    6MPD2     H14474   0.434   2.226  14.477  0.2187  0.4572  2.9550
    6MPD2    H114475   0.098   1.984  14.577 -0.6297 -0.3894  1.0900
    6MPD2    H214476   0.093   2.397  14.656 -3.0680  0.8954 -2.5408
    6MPD2    H314477   4.723   2.192  14.655 -0.3403  0.5760 -0.5111
    6MPD2     N14478   0.343   1.973  14.463  0.7920 -0.6829  0.6054
    6MPD2    H514479   0.435   1.999  14.431  0.3093 -0.0330 -0.2583
    6MPD2    N114480   0.335   2.443  14.554  0.3206  0.4795 -0.0170
    6MPD2    H714481   0.433   2.437  14.529 -0.2186 -0.9806 -1.7464
  945NH3     N114482   2.602   2.745  12.188 -0.1253 -0.6354 -0.3498
  945NH3     H214483   2.553   2.803  12.256  2.2237  3.4159 -2.1040
  945NH3     H314484   2.545   2.729  12.106  0.3434  1.2674 -1.0351
  945NH3     H414485   2.679   2.796  12.146  0.2818 -0.7925  0.2003
  946SOD     NA14486   1.075   0.261   4.282 -0.4544 -0.0824 -0.2811
  947SOD     NA14487   1.189   3.559  12.683  0.3304  0.6205 -0.3154
  948SOD     NA14488   2.138   3.492  16.246 -0.7907 -0.4544 -0.3127
  949SOD     NA14489   3.812   1.160  13.057 -0.1769 -0.6324  0.3855
  950SOD     NA14490   2.375   4.333   6.260 -0.1219  0.2607  0.0927
  951SOD     NA14491   4.339   0.897   9.654  0.1687 -0.0638 -0.0809
  952SOD     NA14492   1.343   2.238  15.607  0.5162 -0.5578 -0.1102
  953SOD     NA14493   1.581   0.143  17.142 -0.1557  0.2011  0.1328
  954SOL     OW14494   2.309   3.465   1.625  0.2516  0.3138  0.5450
  954SOL    HW114495   2.356   3.438   1.546  0.7923  1.1571  0.5862
  954SOL    HW214496   2.370   3.527   1.664  0.7551  0.6614 -0.7878
  955SOL     OW14497   3.802   0.091   5.268  0.8415  0.4810 -0.1205
  955SOL    HW114498   3.781   0.183   5.280  2.9526  1.1415 -1.5695
  955SOL    HW214499   3.834   0.060   5.353  0.9221  1.0293  0.0478
  956SOL     OW14500   1.476   3.547   1.406  0.0504  0.6981  0.0727
  956SOL    HW114501   1.500   3.576   1.318  0.9102 -1.4048 -0.3857
  956SOL    HW214502   1.564   3.542   1.442  0.2950 -0.4236 -0.6805
  957SOL     OW14503   4.733   1.459   8.385 -0.7592 -0.4324 -0.2979
  957SOL    HW114504   4.654   1.405   8.391 -2.9200  3.1100  3.1067
  957SOL    HW214505   4.703   1.547   8.407  1.6776  0.1389  0.7149
  958SOL     OW14506   0.932   2.439   2.537  0.1620  0.2806  0.5494
  958SOL    HW114507   0.946   2.351   2.501 -0.4714 -0.4198  2.0307
  958SOL    HW214508   1.009   2.479   2.497  0.9847 -1.5119  0.3519
  959SOL     OW14509   1.000   1.378   4.663 -0.2605  0.4324  0.8098
  959SOL    HW114510   0.957   1.298   4.634  1.8203 -0.4443  0.1235
  959SOL    HW214511   0.977   1.440   4.594  0.1700  1.7520  1.8324
  960SOL     OW14512   1.057   3.393   1.629  0.4276  0.3552 -0.4100
  960SOL    HW114513   1.141   3.383   1.674  0.8630  0.2807 -1.2434
  960SOL    HW214514   1.032   3.308   1.595  1.2610  1.0718 -2.7887
  961SOL     OW14515   3.478   4.700  14.510  0.9459 -1.4264 -0.0154
  961SOL    HW114516   3.431   0.039  14.540 -1.3962 -2.6999 -0.4062
  961SOL    HW214517   3.407   4.644  14.476  0.8825 -2.1729  1.3592
  962SOL     OW14518   2.467   4.158   3.105  0.3977  0.4736 -0.7437
  962SOL    HW114519   2.486   4.078   3.153 -0.0715 -1.0629 -3.1082
  962SOL    HW214520   2.380   4.146   3.068  0.2366  0.7914 -0.4675
  963SOL     OW14521   3.084   1.880   9.054  0.3979 -0.1675 -0.1083
  963SOL    HW114522   3.000   1.838   9.073 -0.1091  0.7010 -0.4613
  963SOL    HW214523   3.111   1.905   9.143  2.5114  2.3330 -1.4654
  964SOL     OW14524   1.656   2.902   1.887  0.7513  0.0967 -0.1287
  964SOL    HW114525   1.667   2.975   1.826 -2.3768 -0.0078 -0.7935
  964SOL    HW214526   1.745   2.869   1.900  0.8343 -0.3465 -1.8996
  965SOL     OW14527   1.763   3.116   8.959 -0.0770  0.2485  0.0064
  965SOL    HW114528   1.746   3.206   8.987 -0.8664  0.3778 -0.8867
  965SOL    HW214529   1.689   3.066   8.995  0.0126 -1.0434 -1.6235
  966SOL     OW14530   1.513   3.291   0.808  0.3805  0.1008  0.7162
  966SOL    HW114531   1.526   3.355   0.739 -1.2286  0.8956  1.1481
  966SOL    HW214532   1.585   3.309   0.868 -0.2331  0.4300  1.3585
  967SOL     OW14533   3.973   0.205   4.446  0.3175 -0.0050 -0.0430
  967SOL    HW114534   3.988   0.176   4.357  0.1684 -0.6896  0.1552
  967SOL    HW214535   4.023   0.139   4.495  0.3879 -0.8941 -1.3070
  968SOL     OW14536   0.368   2.669   8.086 -0.6146  0.5840 -0.4612
  968SOL    HW114537   0.304   2.678   8.156 -0.9078  0.1289 -0.6742
  968SOL    HW214538   0.372   2.576   8.063 -1.5268  0.6573 -0.8909
  969SOL     OW14539   4.601   0.123   5.530 -0.4982 -0.0456  0.2602
  969SOL    HW114540   4.520   0.152   5.573  0.3224  0.8211  1.2080
  969SOL    HW214541   4.585   0.031   5.510 -0.9737  0.4679 -1.7909
  970SOL     OW14542   2.309   1.282   7.169 -0.4073 -0.0445 -0.4339
  970SOL    HW114543   2.322   1.197   7.128  0.0969 -0.3597  0.3846
  970SOL    HW214544   2.400   1.303   7.190 -0.9792  2.0623  0.0223
  971SOL     OW14545   0.680   3.577   5.514 -0.2144 -0.6820 -0.0482
  971SOL    HW114546   0.636   3.498   5.545 -0.4558 -0.8506 -0.8104
  971SOL    HW214547   0.668   3.569   5.419  1.4261  1.1679 -0.4127
  972SOL     OW14548   4.123   3.006   8.610  0.0370 -0.4770 -0.3904
  972SOL    HW114549   4.199   3.035   8.560  1.5511 -2.3152  0.8470
  972SOL    HW214550   4.163   3.003   8.697 -0.2931  3.1228 -0.1204
  973SOL     OW14551   2.670   0.840   3.586  0.6032 -0.2745  0.8511
  973SOL    HW114552   2.749   0.894   3.590  1.5076 -1.6157  1.3237
  973SOL    HW214553   2.603   0.903   3.610 -0.2538 -0.4609 -1.0414
  974SOL     OW14554   3.635   0.230   9.374 -0.2153 -0.0652 -0.2396
  974SOL    HW114555   3.570   0.280   9.325  0.3510  0.4814 -0.4257
  974SOL    HW214556   3.604   0.141   9.355  1.3978 -0.5767 -0.4826
  975SOL     OW14557   4.014   0.186   1.945  0.1659  0.2091 -0.8059
  975SOL    HW114558   3.966   0.248   1.890  0.8442  0.6256 -0.9279
  975SOL    HW214559   3.976   0.102   1.921  2.1447 -0.4603 -1.5755
  976SOL     OW14560   4.516   4.452   7.183 -0.5277  0.7536 -0.5125
  976SOL    HW114561   4.498   4.496   7.100 -1.0922  0.8609 -0.3329
  976SOL    HW214562   4.599   4.418   7.150 -0.7420 -1.4269  1.2031
  977SOL     OW14563   1.566   4.033  17.719  0.7098 -0.6447 -0.5985
  977SOL    HW114564   1.598   4.026  17.629  0.8253 -1.5856 -0.4747
  977SOL    HW214565   1.567   4.129  17.727 -0.3131 -0.4944 -2.1271
  978SOL     OW14566   1.257   0.124   3.737 -0.1349  0.3352  0.1605
  978SOL    HW114567   1.310   0.195   3.702 -0.9826  0.4306 -0.9547
  978SOL    HW214568   1.171   0.167   3.735 -0.8992 -1.1046  1.6582
  979SOL     OW14569   0.104   0.075   3.496  0.5409 -0.4748 -0.2046
  979SOL    HW114570   0.051   0.086   3.574 -1.2331 -1.8359 -1.2336
  979SOL    HW214571   0.159   0.002   3.525  1.4303  0.4843  0.5175
  980SOL     OW14572   2.494   1.479  14.133 -0.9772 -0.0820  0.1933
  980SOL    HW114573   2.430   1.482  14.062 -0.5875 -0.6806 -0.1906
  980SOL    HW214574   2.436   1.433  14.193 -0.8937  1.2219  1.2675
  981SOL     OW14575   2.487   2.293   4.559 -0.1727  0.6426  0.3962
  981SOL    HW114576   2.513   2.378   4.595 -2.9981  2.1896 -1.2922
  981SOL    HW214577   2.500   2.307   4.466 -0.4903 -2.5851 -0.1320
  982SOL     OW14578   3.567   4.667   3.740 -0.0102 -0.1915 -0.0700
  982SOL    HW114579   3.529   4.696   3.824 -0.8701  0.7389 -0.7746
  982SOL    HW214580   3.496   4.620   3.696  2.3676 -1.9580 -1.9734
  983SOL     OW14581   1.654   2.941   1.100 -0.1671  0.3702 -0.0839
  983SOL    HW114582   1.707   2.927   1.023  0.6526  1.8408  0.2144
  983SOL    HW214583   1.568   2.923   1.061  0.2020  0.1413 -0.7857
  984SOL     OW14584   2.664   2.311   2.980 -0.1646  0.1635  0.1653
  984SOL    HW114585   2.609   2.282   2.907  2.1791 -1.6526 -0.8728
  984SOL    HW214586   2.658   2.405   2.962  0.8476  0.1186 -0.4148
  985SOL     OW14587   1.540   2.564  17.134 -1.1769  0.4320 -0.2811
  985SOL    HW114588   1.598   2.496  17.100 -1.0497 -1.4602  3.6891
  985SOL    HW214589   1.458   2.525  17.103 -1.6881  1.0727  0.2698
  986SOL     OW14590   1.400   0.345   3.681  0.2306  0.0827 -0.5295
  986SOL    HW114591   1.329   0.397   3.643 -1.4351 -1.1330  0.8453
  986SOL    HW214592   1.448   0.425   3.702  0.0689  0.3116 -1.0454
  987SOL     OW14593   1.606   1.286   7.172 -0.2894 -0.5356 -0.6679
  987SOL    HW114594   1.530   1.339   7.150 -0.8601 -1.5344 -1.1143
  987SOL    HW214595   1.667   1.346   7.213 -0.6694 -0.5492 -0.0876
  988SOL     OW14596   3.354   3.220   3.917 -0.4543 -0.1512  0.4486
  988SOL    HW114597   3.288   3.154   3.937 -2.2564  1.4771 -0.1392
  988SOL    HW214598   3.302   3.285   3.871 -0.9464 -1.7551 -1.2647
  989SOL     OW14599   3.802   0.721   6.763 -0.3743 -0.4220 -0.3399
  989SOL    HW114600   3.893   0.739   6.788 -1.2882  2.2685  1.0888
  989SOL    HW214601   3.819   0.731   6.669 -2.1809 -1.0093 -0.7129
  990SOL     OW14602   4.067   0.379  10.455 -0.4578  0.3041 -0.4279
  990SOL    HW114603   4.055   0.296  10.408 -0.5577 -0.0517  0.2364
  990SOL    HW214604   4.109   0.342  10.532 -2.5868  0.1676  0.6755
  991SOL     OW14605   1.095   3.763   0.695  0.1232 -0.4142 -0.6639
  991SOL    HW114606   1.028   3.792   0.757 -0.8303  2.1097 -2.8671
  991SOL    HW214607   1.162   3.722   0.750 -2.1688 -0.2691  2.2215
  992SOL     OW14608   3.141   4.639   9.382 -0.5028 -0.5026 -0.0139
  992SOL    HW114609   3.160   4.556   9.427  0.1612 -1.5078 -2.1597
  992SOL    HW214610   3.126   4.611   9.292  2.4091  0.8478 -0.9271
  993SOL     OW14611   0.080   2.134   5.758 -0.1327  0.0393 -0.0027
  993SOL    HW114612   0.146   2.116   5.690  0.1653 -3.1306  1.1037
  993SOL    HW214613   0.018   2.194   5.717 -0.4669 -0.1956  0.1566
  994SOL     OW14614   0.060   3.765   3.319 -0.7351 -0.0888  0.3374
  994SOL    HW114615   0.011   3.811   3.251 -2.5189  0.6541  2.1390
  994SOL    HW214616   0.115   3.710   3.264 -1.4846  1.2800 -1.7719
  995SOL     OW14617   0.907   0.939   1.634 -0.1500  0.0500  0.2890
  995SOL    HW114618   0.927   0.899   1.549 -1.6868  1.2253 -0.6386
  995SOL    HW214619   0.994   0.969   1.658 -1.7442  3.2137  2.0724
  996SOL     OW14620   4.220   3.756   5.481  0.3764  0.3090  0.2435
  996SOL    HW114621   4.286   3.703   5.526  0.4639 -0.5832 -0.9304
  996SOL    HW214622   4.146   3.697   5.468 -0.1110  0.8735  0.4676
  997SOL     OW14623   3.188   3.015   1.556 -0.1352 -0.0028 -0.0661
  997SOL    HW114624   3.135   3.092   1.534 -0.0684  0.3353  0.9443
  997SOL    HW214625   3.249   3.029   1.484  0.2283  0.6434  0.3654
  998SOL     OW14626   2.581   2.431   1.595  0.0980 -0.3347 -0.3959
  998SOL    HW114627   2.622   2.518   1.589  0.1540 -0.3917 -0.8326
  998SOL    HW214628   2.525   2.425   1.518  1.4112  1.6111 -1.5234
  999SOL     OW14629   0.850   4.611   8.027  0.4397 -0.0909  0.1833
  999SOL    HW114630   0.827   4.701   8.053 -0.3767 -0.4942  0.8540
  999SOL    HW214631   0.925   4.623   7.968  1.8114 -2.6679  1.4082
 1000SOL     OW14632   2.698   0.113   7.307 -0.5395 -0.3507  0.3437
 1000SOL    HW114633   2.656   0.168   7.241 -2.8259 -1.1053  1.1766
 1000SOL    HW214634   2.651   0.134   7.388  0.0519  2.0665  0.0531
 1001SOL     OW14635   3.145   2.376   0.645 -0.0385  0.1769 -0.4808
 1001SOL    HW114636   3.057   2.407   0.669  0.3370  0.9958 -0.1458
 1001SOL    HW214637   3.178   2.356   0.732 -0.8610  2.3497  0.3495
 1002SOL     OW14638   0.826   2.327   8.480 -0.0072 -0.4700  0.9253
 1002SOL    HW114639   0.856   2.247   8.436  1.6545  0.6420  0.0483
 1002SOL    HW214640   0.875   2.399   8.441 -1.7738 -0.4582 -1.2530
 1003SOL     OW14641   1.921   0.614   1.146  0.6089  0.0820 -0.3766
 1003SOL    HW114642   1.980   0.679   1.184  0.1597 -1.6563  3.2599
 1003SOL    HW214643   1.855   0.663   1.096  0.0753  0.1452  0.3937
 1004SOL     OW14644   0.921   0.443   4.327 -0.1609 -0.0251 -0.2088
 1004SOL    HW114645   0.848   0.403   4.374  0.6920 -1.5924 -0.1874
 1004SOL    HW214646   0.929   0.528   4.370  1.6027  0.0775 -0.7391
 1005SOL     OW14647   2.074   4.488   3.117  0.5941 -0.0638 -0.4181
 1005SOL    HW114648   2.155   4.537   3.129  0.2815 -0.2451  2.3284
 1005SOL    HW214649   2.060   4.462   3.208 -0.4783  0.7764 -0.3530
 1006SOL     OW14650   3.379   3.626   7.550 -0.3129 -0.0978  0.3201
 1006SOL    HW114651   3.289   3.615   7.579 -0.6091  1.3129 -0.0421
 1006SOL    HW214652   3.403   3.566   7.479  3.5976  0.4764  1.1477
 1007SOL     OW14653   1.243   2.372  17.665  0.3975 -0.3761 -0.0980
 1007SOL    HW114654   1.178   2.315  17.707 -0.1564  0.5753  0.3519
 1007SOL    HW214655   1.313   2.362  17.729  1.3230 -0.7858 -1.1755
 1008SOL     OW14656   0.413   1.743  12.467 -0.4985 -0.3570  0.7615
 1008SOL    HW114657   0.317   1.743  12.459 -0.4485 -0.1510  0.1613
 1008SOL    HW214658   0.432   1.649  12.470 -0.2279 -0.3875 -2.1989
 1009SOL     OW14659   4.093   3.335   7.073 -0.1238  0.3489  0.4551
 1009SOL    HW114660   4.029   3.318   7.005  0.6139 -0.5703  0.0015
 1009SOL    HW214661   4.111   3.428   7.055  1.3652 -0.3151 -1.4920
 1010SOL     OW14662   1.240   1.979   4.371  0.8460  0.1639  0.1971
 1010SOL    HW114663   1.305   1.996   4.304 -0.5511  2.8804 -0.4968
 1010SOL    HW214664   1.223   1.885   4.366  0.1286  0.3935 -1.7230
 1011SOL     OW14665   0.494   4.213  12.945  0.1121  0.4106 -0.8663
 1011SOL    HW114666   0.486   4.309  12.950 -1.6628  0.2649 -0.8555
 1011SOL    HW214667   0.564   4.204  12.881  1.9907  1.1308  1.0631
 1012SOL     OW14668   2.500   2.955  15.509  0.1290  0.3046 -0.5265
 1012SOL    HW114669   2.573   2.960  15.570  0.2091  2.1997 -0.8002
 1012SOL    HW214670   2.496   3.050  15.501  0.6201  0.1151 -3.0788
 1013SOL     OW14671   0.370   0.609   8.087 -0.3489  0.2752 -0.5155
 1013SOL    HW114672   0.408   0.680   8.036  1.4022  1.4728  2.3967
 1013SOL    HW214673   0.307   0.582   8.021 -1.7437  1.0739  0.5054
 1014SOL     OW14674   2.340   1.556   2.901  0.2115  0.0263 -0.1643
 1014SOL    HW114675   2.319   1.465   2.922 -0.8986  0.5787  1.0963
 1014SOL    HW214676   2.432   1.542   2.879 -0.5053 -1.3649 -2.1909
 1015SOL     OW14677   2.704   4.710  13.388 -0.0505 -0.0154 -0.6687
 1015SOL    HW114678   2.797   4.700  13.408 -0.2668  1.6061  1.2435
 1015SOL    HW214679   2.667   4.731  13.474  0.7535  0.3717 -0.4230
 1016SOL     OW14680   0.600   0.280   6.902  0.5920  0.1879  0.0167
 1016SOL    HW114681   0.598   0.251   6.994  1.0443 -2.4205 -0.7805
 1016SOL    HW214682   0.693   0.272   6.882  0.6109  1.2195 -0.3037
 1017SOL     OW14683   2.051   4.462   4.747 -0.4182 -0.4401 -0.0235
 1017SOL    HW114684   2.055   4.520   4.671 -0.3262 -1.5086 -0.8288
 1017SOL    HW214685   2.096   4.387   4.709  0.3911 -0.3276  0.7179
 1018SOL     OW14686   4.495   4.178   6.407  0.7990  0.2637  0.2329
 1018SOL    HW114687   4.562   4.239   6.377 -1.4124  2.5585 -0.0654
 1018SOL    HW214688   4.434   4.237   6.451 -0.5915 -0.6064 -0.5251
 1019SOL     OW14689   4.031   1.383   0.089  0.1522  0.1575  0.1964
 1019SOL    HW114690   4.102   1.442   0.062  0.4145 -0.4141 -0.3822
 1019SOL    HW214691   4.082   1.351   0.163 -0.7223 -0.1902  0.6506
 1020SOL     OW14692   2.942   0.076  10.828  0.0621 -0.0051 -0.4794
 1020SOL    HW114693   2.867   0.124  10.794 -0.4747  0.1053  0.8406
 1020SOL    HW214694   2.946   4.735  10.774 -0.5927  0.3517 -1.0355
 1021SOL     OW14695   2.646   3.921  12.835  0.2530  0.3857  0.4574
 1021SOL    HW114696   2.581   3.941  12.767 -0.2524 -0.9181  0.5600
 1021SOL    HW214697   2.709   3.882  12.774  0.2678  1.9692 -0.5500
 1022SOL     OW14698   2.048   3.378   4.304 -0.4928 -0.4166  0.2803
 1022SOL    HW114699   1.978   3.324   4.343 -0.5290 -1.0562 -0.6940
 1022SOL    HW214700   2.093   3.309   4.257  1.5667  1.2702 -0.2152
 1023SOL     OW14701   4.413   4.437   2.487  0.4099 -0.1619  0.3721
 1023SOL    HW114702   4.498   4.400   2.463  0.5028  0.5369 -0.3813
 1023SOL    HW214703   4.398   4.400   2.574  0.0976 -3.7574 -1.2215
 1024SOL     OW14704   0.860   4.070  12.242  0.0696 -0.1479  0.3758
 1024SOL    HW114705   0.943   4.033  12.275 -0.1369 -0.1598  0.8793
 1024SOL    HW214706   0.887   4.115  12.163  1.2554  0.1856  0.9635
 1025SOL     OW14707   1.707   0.372  13.100  0.3919 -0.3011 -0.0835
 1025SOL    HW114708   1.792   0.390  13.059  0.4364  2.7769  1.3646
 1025SOL    HW214709   1.721   0.281  13.127  0.3068 -0.2108  0.2580
 1026SOL     OW14710   2.388   0.265   7.589 -0.1556 -0.7066  0.1299
 1026SOL    HW114711   2.366   0.289   7.498 -1.9516  0.0775  0.7552
 1026SOL    HW214712   2.323   0.203   7.622 -1.7234  1.1264  0.5476
 1027SOL     OW14713   0.732   3.728   4.547 -0.7064 -0.5984  0.1483
 1027SOL    HW114714   0.760   3.688   4.464  0.4242 -0.6185  0.5464
 1027SOL    HW214715   0.706   3.648   4.593  2.5653 -1.1047  1.0990
 1028SOL     OW14716   1.226   3.768   7.388  0.2643 -0.2698  0.4039
 1028SOL    HW114717   1.150   3.824   7.374 -1.2101 -2.5678 -0.8568
 1028SOL    HW214718   1.293   3.821   7.430 -2.9795  2.2095  2.3830
 1029SOL     OW14719   0.331   1.468   2.256  0.0274  0.1820  0.2245
 1029SOL    HW114720   0.261   1.524   2.222  0.0302  1.0553  1.6623
 1029SOL    HW214721   0.322   1.384   2.210  1.0882 -0.8769  1.9813
 1030SOL     OW14722   4.099   0.353  17.313 -0.4759  0.0094 -0.1900
 1030SOL    HW114723   4.063   0.424  17.258 -0.3443 -0.9363 -1.5102
 1030SOL    HW214724   4.184   0.340  17.272 -0.8194 -1.6507 -0.3594
 1031SOL     OW14725   2.836   2.140   4.989 -0.6569  0.0938 -0.2990
 1031SOL    HW114726   2.874   2.081   5.054 -0.8914 -1.3391 -1.4677
 1031SOL    HW214727   2.861   2.222   5.033  0.4592 -1.8573  2.7017
 1032SOL     OW14728   3.904   3.500  11.882  0.3852 -0.3398 -0.2705
 1032SOL    HW114729   3.948   3.476  11.964  0.6006 -0.8700 -0.5468
 1032SOL    HW214730   3.821   3.455  11.898  0.5892 -0.0091  1.7575
 1033SOL     OW14731   2.629   3.617   3.866 -0.3877 -0.2970  0.1017
 1033SOL    HW114732   2.667   3.696   3.902  0.5503 -1.3895  1.5139
 1033SOL    HW214733   2.599   3.572   3.946  1.1755 -0.1389  0.7665
 1034SOL     OW14734   2.973   1.777   9.818  0.3667 -0.3845 -0.4708
 1034SOL    HW114735   3.053   1.821   9.845  0.1493 -0.0681 -0.3289
 1034SOL    HW214736   2.909   1.848   9.829 -0.2529 -1.1345  0.8640
 1035SOL     OW14737   2.384   0.017  15.992 -0.2303  0.2393  0.2914
 1035SOL    HW114738   2.330   0.088  16.027 -1.3103 -0.0567 -0.7889
 1035SOL    HW214739   2.428   0.059  15.919 -0.1209 -1.8912 -0.8702
 1036SOL     OW14740   2.840   4.551   2.174  0.0575  0.1949  0.3151
 1036SOL    HW114741   2.752   4.537   2.141  0.4669 -1.7148  0.0048
 1036SOL    HW214742   2.853   4.646   2.173  1.1867  0.0575  1.3631
 1037SOL     OW14743   4.110   0.103   5.714  0.4702 -0.1417 -0.1569
 1037SOL    HW114744   4.061   0.133   5.637  0.2385  0.5890  0.2786
 1037SOL    HW214745   4.041   0.085   5.777 -0.0752  0.2438 -0.6423
 1038SOL     OW14746   0.841   0.403  12.113  0.8814 -0.4024  0.1439
 1038SOL    HW114747   0.772   0.395  12.047 -1.3170  2.7174  2.0732
 1038SOL    HW214748   0.880   0.477  12.066  1.5609 -0.3354  0.8223
 1039SOL     OW14749   3.966   0.028  10.950 -0.3246 -0.0977  0.1199
 1039SOL    HW114750   3.966   0.123  10.937  0.4638 -0.0422  0.5649
 1039SOL    HW214751   3.877   4.734  10.931 -0.9274  1.2326  0.7724
 1040SOL     OW14752   0.754   2.322   3.803  0.1879  0.0321  0.5931
 1040SOL    HW114753   0.809   2.271   3.744 -0.0698 -0.5228  0.8339
 1040SOL    HW214754   0.671   2.294   3.765 -0.4768  2.5108  0.2475
 1041SOL     OW14755   2.836   1.768  13.742  0.3865  0.4166  0.0131
 1041SOL    HW114756   2.814   1.681  13.774  1.4902  0.9718  2.2292
 1041SOL    HW214757   2.908   1.792  13.800  1.5079  1.6940 -1.8907
 1042SOL     OW14758   1.298   3.179   8.766  0.6960  0.7346 -0.4605
 1042SOL    HW114759   1.304   3.156   8.859 -0.0009  0.1976 -0.5488
 1042SOL    HW214760   1.342   3.264   8.762  0.2281  0.9495 -1.0410
 1043SOL     OW14761   2.814   2.600  17.523  0.2520 -0.2212  0.0705
 1043SOL    HW114762   2.730   2.607  17.479  0.0102  1.8355  0.8865
 1043SOL    HW214763   2.860   2.678  17.491 -2.9841  1.7822  0.3746
 1044SOL     OW14764   2.673   3.198   4.104 -0.7693 -0.0888 -0.5991
 1044SOL    HW114765   2.694   3.121   4.156 -2.0032 -2.3630 -3.5052
 1044SOL    HW214766   2.596   3.227   4.152 -0.6066 -0.6354 -0.0161
 1045SOL     OW14767   1.977   3.339  13.530 -0.2727 -0.6478 -0.8233
 1045SOL    HW114768   2.066   3.320  13.559  0.5677  3.9490 -0.4616
 1045SOL    HW214769   1.970   3.434  13.522  2.3939 -0.5473 -1.9434
 1046SOL     OW14770   3.013   2.820  14.569 -0.5574  0.3860  0.4798
 1046SOL    HW114771   3.031   2.913  14.554 -1.1844  0.6645  1.4550
 1046SOL    HW214772   2.917   2.812  14.562 -0.6155  2.8323 -1.3412
 1047SOL     OW14773   1.036   2.678   9.419  0.0451 -0.1970  0.3506
 1047SOL    HW114774   1.011   2.601   9.470  1.3598 -1.5555 -1.0166
 1047SOL    HW214775   1.049   2.739   9.491  0.9070 -0.7829  0.7017
 1048SOL     OW14776   0.992   0.097   3.931  0.0713 -0.3162  0.0703
 1048SOL    HW114777   1.032   0.010   3.925  1.9677  0.5053  0.7627
 1048SOL    HW214778   0.961   0.116   3.842 -0.5649 -1.1157  0.1265
 1049SOL     OW14779   3.583   3.758  11.520 -0.1877  0.2452  0.0008
 1049SOL    HW114780   3.623   3.681  11.481  3.0615  0.7550  2.2749
 1049SOL    HW214781   3.574   3.735  11.613  3.3486 -2.1243 -0.2594
 1050SOL     OW14782   4.221   3.269   3.817  0.3466 -0.1077 -0.0154
 1050SOL    HW114783   4.189   3.330   3.885  1.8506 -1.4611  1.9013
 1050SOL    HW214784   4.296   3.317   3.782 -1.0186  1.7164 -0.4813
 1051SOL     OW14785   2.184   2.787  16.190 -0.4547 -0.2532  0.3768
 1051SOL    HW114786   2.201   2.875  16.224 -0.0806 -1.7998  4.2717
 1051SOL    HW214787   2.268   2.750  16.217 -1.0353 -1.3535  0.6596
 1052SOL     OW14788   3.979   4.554   4.088  0.3235 -0.3639 -0.5732
 1052SOL    HW114789   3.892   4.560   4.049  0.2235  1.1649 -0.1382
 1052SOL    HW214790   4.052   4.577   4.030  0.9591  0.4340  0.5279
 1053SOL     OW14791   2.069   1.065   9.714  0.0291 -0.0374  0.1994
 1053SOL    HW114792   2.146   1.120   9.703 -0.2308  0.2791 -0.0602
 1053SOL    HW214793   2.008   1.076   9.640 -2.4091 -0.8768  2.0777
 1054SOL     OW14794   3.393   1.157   6.671 -0.4824  0.2827  0.2192
 1054SOL    HW114795   3.488   1.169   6.679 -0.3507  0.0242 -0.9514
 1054SOL    HW214796   3.364   1.220   6.737  0.2407  0.5185  0.3133
 1055SOL     OW14797   3.455   1.558   3.907 -0.3093 -0.0602  0.5434
 1055SOL    HW114798   3.488   1.516   3.986 -0.9213  0.4239  1.0571
 1055SOL    HW214799   3.416   1.636   3.946  0.6682  0.2402  0.9312
 1056SOL     OW14800   3.882   4.721   9.926 -0.0737 -0.7985  0.1975
 1056SOL    HW114801   3.928   0.003  10.008 -0.2809  0.3490  0.0428
 1056SOL    HW214802   3.929   4.646   9.890 -0.7107 -0.7805 -0.6835
 1057SOL     OW14803   3.605   3.815   1.333  0.3711  0.0768 -0.0462
 1057SOL    HW114804   3.530   3.779   1.285  1.6801 -0.3088 -1.7971
 1057SOL    HW214805   3.624   3.761   1.409  0.5791 -0.2870 -0.3528
 1058SOL     OW14806   4.681   0.471   6.790 -0.1522  0.4505 -0.4660
 1058SOL    HW114807   0.011   0.537   6.776 -0.3149  0.6686 -0.2355
 1058SOL    HW214808   4.728   0.399   6.747 -0.6355 -0.9904  1.4352
 1059SOL     OW14809   0.336   0.272   7.258  0.5457 -0.2235 -0.1139
 1059SOL    HW114810   0.323   0.179   7.275 -1.5945  0.3128  1.3113
 1059SOL    HW214811   0.423   0.270   7.219  0.3217 -0.0674 -0.6253
 1060SOL     OW14812   2.198   1.165   6.719 -0.4073 -0.6457  0.0077
 1060SOL    HW114813   2.293   1.162   6.726 -0.5308 -0.4600  1.7492
 1060SOL    HW214814   2.158   1.114   6.790 -0.9879  1.5763  1.2622
 1061SOL     OW14815   2.755   4.142   5.549  0.1386  0.3878  0.3816
 1061SOL    HW114816   2.805   4.214   5.588 -0.4405  0.2247  1.4068
 1061SOL    HW214817   2.812   4.123   5.474  0.8732  1.7387  0.6047
 1062SOL     OW14818   2.827   0.444   5.109  0.1225 -0.0253 -0.3943
 1062SOL    HW114819   2.869   0.362   5.134  1.4025  0.0717 -2.2549
 1062SOL    HW214820   2.800   0.482   5.193  0.9821 -2.1263  0.8340
 1063SOL     OW14821   0.462   1.328  10.036 -0.3796 -0.1149  0.1054
 1063SOL    HW114822   0.441   1.327  10.129 -0.3639 -0.2495  0.1076
 1063SOL    HW214823   0.556   1.315  10.041 -0.3804 -0.2035 -0.1236
 1064SOL     OW14824   1.450   4.041  15.674  0.0401  0.3641  0.2051
 1064SOL    HW114825   1.397   4.064  15.597 -0.1317  2.9309  1.0988
 1064SOL    HW214826   1.513   4.113  15.676  0.9385 -0.3667 -2.0019
 1065SOL     OW14827   4.589   2.369  15.505 -0.3189 -0.0635  0.0686
 1065SOL    HW114828   4.612   2.376  15.412 -0.0322  1.4303  0.2424
 1065SOL    HW214829   4.504   2.413  15.510  0.1595  0.8115  0.5599
 1066SOL     OW14830   3.071   2.756   2.888 -0.1636  0.1238  0.3846
 1066SOL    HW114831   3.161   2.727   2.878 -0.1610  0.1129  0.4409
 1066SOL    HW214832   3.022   2.677   2.911  1.3608 -0.9002  0.1174
 1067SOL     OW14833   2.260   4.734   4.815  0.3334 -0.7045 -0.6058
 1067SOL    HW114834   2.300   4.679   4.748 -0.2804 -1.2810 -0.5055
 1067SOL    HW214835   2.271   4.688   4.899  2.7520 -0.2051 -0.6521
 1068SOL     OW14836   1.581   0.947  17.107  0.0355  0.5374  0.1452
 1068SOL    HW114837   1.497   0.922  17.069  0.7003 -1.9014  0.2443
 1068SOL    HW214838   1.579   1.036  17.071 -0.5795  0.5844  0.2994
 1069SOL     OW14839   1.982   1.652  14.947  0.0725  0.0442  0.5761
 1069SOL    HW114840   2.016   1.563  14.949 -0.4479 -0.1703 -0.1567
 1069SOL    HW214841   2.007   1.669  15.038  0.2989 -1.4241  0.7949
 1070SOL     OW14842   3.128   3.208  11.904 -0.3423  0.4457 -0.0724
 1070SOL    HW114843   3.062   3.218  11.973 -0.1098 -0.3432  0.2692
 1070SOL    HW214844   3.162   3.297  11.904  1.5673 -0.2890 -1.0774
 1071SOL     OW14845   0.372   3.126   6.253  0.1021 -0.5613  0.5095
 1071SOL    HW114846   0.441   3.106   6.190 -2.3189 -0.9320 -2.0191
 1071SOL    HW214847   0.398   3.216   6.274 -0.1003 -0.5041  0.5231
 1072SOL     OW14848   3.705   0.183   1.719 -0.1025  0.7755  0.2798
 1072SOL    HW114849   3.689   0.098   1.679  0.1657  0.7753  0.1754
 1072SOL    HW214850   3.617   0.221   1.722 -0.7783 -0.8076  0.2900
 1073SOL     OW14851   1.954   2.845   7.427  0.7348 -0.5391 -0.3216
 1073SOL    HW114852   1.875   2.806   7.389  0.3679 -0.6116  0.5085
 1073SOL    HW214853   1.974   2.772   7.486  0.4117 -1.1335 -0.9402
 1074SOL     OW14854   3.013   0.434   2.194  0.1041 -0.0673 -0.1225
 1074SOL    HW114855   3.092   0.454   2.143  1.6215 -0.1552  2.1673
 1074SOL    HW214856   2.942   0.434   2.130 -0.1266 -0.0094  0.1344
 1075SOL     OW14857   1.826   3.725   3.359  0.1941 -0.1384  0.0274
 1075SOL    HW114858   1.762   3.748   3.291  1.8612  1.1458 -1.1165
 1075SOL    HW214859   1.896   3.692   3.302 -1.2804 -0.9124 -1.3648
 1076SOL     OW14860   0.028   3.245   8.251 -0.0008  0.4247 -0.4871
 1076SOL    HW114861   4.681   3.209   8.275  0.4381  2.3865  3.9279
 1076SOL    HW214862   0.093   3.208   8.310 -1.6629  0.7406  1.5184
 1077SOL     OW14863   4.102   2.382  14.279 -0.2681 -0.0075 -0.4912
 1077SOL    HW114864   4.159   2.438  14.226 -0.9277  0.0834 -1.1031
 1077SOL    HW214865   4.153   2.377  14.359 -1.0224 -0.7899 -0.0494
 1078SOL     OW14866   0.172   4.346   0.915  0.3989  0.0621  0.3365
 1078SOL    HW114867   0.105   4.319   0.852  0.9208  0.3368 -0.3285
 1078SOL    HW214868   0.129   4.329   0.999 -2.0627  0.4945 -0.8326
 1079SOL     OW14869   3.294   2.583   9.574 -0.4475  0.1228  0.0214
 1079SOL    HW114870   3.289   2.515   9.507  1.7067  0.6217 -0.6310
 1079SOL    HW214871   3.317   2.529   9.650  0.9313  0.0360 -0.4482
 1080SOL     OW14872   1.736   0.030   7.539 -0.0461  0.2678  0.1708
 1080SOL    HW114873   1.773   4.714   7.469  1.3622 -0.0079  1.1113
 1080SOL    HW214874   1.811   0.069   7.584 -0.4447  0.7267  0.4400
 1081SOL     OW14875   2.658   3.957   6.450  0.0899  0.3285 -0.0023
 1081SOL    HW114876   2.583   3.904   6.479 -0.0375  1.9484  2.6670
 1081SOL    HW214877   2.734   3.906   6.480  0.7962  0.9032 -0.8193
 1082SOL     OW14878   0.467   2.478  13.242  0.5013  0.4851 -0.1640
 1082SOL    HW114879   0.547   2.465  13.292  1.6538  2.3331 -1.5163
 1082SOL    HW214880   0.430   2.555  13.284 -1.4624 -0.0538 -0.9220
 1083SOL     OW14881   3.463   0.679   6.186 -0.5038 -0.3805  0.0862
 1083SOL    HW114882   3.422   0.707   6.104  1.1276  1.4321 -0.1222
 1083SOL    HW214883   3.401   0.613   6.214  0.2400 -0.8663  0.5837
 1084SOL     OW14884   0.742   0.495   4.665  0.1260 -0.4915 -0.4810
 1084SOL    HW114885   0.834   0.515   4.682 -0.4564  1.3959  0.3978
 1084SOL    HW214886   0.735   0.407   4.702 -1.5098  0.3206  1.1262
 1085SOL     OW14887   1.123   1.986   2.197  0.1173  0.4093  0.8719
 1085SOL    HW114888   1.029   2.004   2.201  0.1602  0.2946  2.1863
 1085SOL    HW214889   1.161   2.031   2.273  0.0796  0.6961  0.7207
 1086SOL     OW14890   3.041   1.543  16.526 -0.1797  0.2734  0.4715
 1086SOL    HW114891   3.002   1.505  16.447  0.1554  0.2072  0.3367
 1086SOL    HW214892   2.964   1.552  16.582 -0.0697  0.8236  0.5320
 1087SOL     OW14893   3.334   1.713   9.088 -0.4365 -0.4004 -0.0407
 1087SOL    HW114894   3.261   1.761   9.049  0.4871  1.1816  0.1620
 1087SOL    HW214895   3.366   1.771   9.158 -0.7550 -1.2023  0.7625
 1088SOL     OW14896   1.775   3.253  10.985 -0.3602 -0.3071 -0.1994
 1088SOL    HW114897   1.797   3.173  10.937  0.5848 -1.1626  1.6535
 1088SOL    HW214898   1.719   3.289  10.916  0.9951 -1.8867 -2.1099
 1089SOL     OW14899   4.173   3.562   1.063 -0.1056  0.4526  0.6902
 1089SOL    HW114900   4.120   3.606   1.128  0.9907  2.0255  0.5176
 1089SOL    HW214901   4.190   3.478   1.106  2.2157  1.6894  2.1580
 1090SOL     OW14902   1.245   2.391   2.055 -0.2453 -1.0338  0.0439
 1090SOL    HW114903   1.265   2.307   2.013  0.7496 -0.8218  0.1151
 1090SOL    HW214904   1.327   2.440   2.050 -0.5796 -0.2819  2.4101
 1091SOL     OW14905   0.188   2.406   6.951  0.2076 -0.4635 -0.3133
 1091SOL    HW114906   0.277   2.416   6.984  0.0075  0.0844  0.0555
 1091SOL    HW214907   0.179   2.311   6.950 -0.3070 -0.4157 -0.2835
 1092SOL     OW14908   1.975   2.001  17.097  0.6250 -0.4561  0.4949
 1092SOL    HW114909   1.882   2.025  17.096  0.4539 -0.9994  2.2211
 1092SOL    HW214910   2.007   2.091  17.101 -0.6512  0.0718 -1.0758
 1093SOL     OW14911   4.642   1.766   2.745  0.1274 -0.4214 -0.2012
 1093SOL    HW114912   4.661   1.679   2.779  1.5250  0.3303  0.9457
 1093SOL    HW214913   4.552   1.753   2.714  0.2762 -1.9396  0.0162
 1094SOL     OW14914   0.163   0.180   7.565  0.3819 -0.2343 -0.2705
 1094SOL    HW114915   0.072   0.164   7.590  0.0691  1.3286 -0.3947
 1094SOL    HW214916   0.174   0.119   7.492  2.3182 -0.6973  0.4293
 1095SOL     OW14917   2.261   3.837   6.977 -0.0646 -0.2518 -0.2449
 1095SOL    HW114918   2.294   3.748   6.967  0.5307 -0.3180  2.3508
 1095SOL    HW214919   2.244   3.837   7.071  3.1745 -0.4082  0.3354
 1096SOL     OW14920   1.568   4.697  13.847 -0.5089  0.1072 -0.5179
 1096SOL    HW114921   1.645   4.738  13.806  0.5436 -0.9860  0.3974
 1096SOL    HW214922   1.609   4.626  13.896 -0.2949 -0.8980 -2.1540
 1097SOL     OW14923   0.303   3.244   8.475  0.0493  0.5591 -0.4118
 1097SOL    HW114924   0.265   3.161   8.447 -0.3697  0.6967 -0.2435
 1097SOL    HW214925   0.380   3.213   8.523 -1.9270  1.3178  3.1532
 1098SOL     OW14926   0.904   3.504   4.789 -0.1963 -0.7381 -0.3821
 1098SOL    HW114927   0.900   3.427   4.732  4.0700 -3.0149  2.3550
 1098SOL    HW214928   0.982   3.548   4.755 -0.7114 -0.3755 -1.0952
 1099SOL     OW14929   2.119   1.313   0.489 -0.6076  0.2437 -0.4150
 1099SOL    HW114930   2.073   1.390   0.456  1.8541  1.2597 -1.4695
 1099SOL    HW214931   2.145   1.259   0.415  0.2277  1.3239 -0.9073
 1100SOL     OW14932   1.745   2.746   7.990 -0.3696 -0.1454  0.0468
 1100SOL    HW114933   1.770   2.653   7.998 -2.2827 -0.6497  0.1837
 1100SOL    HW214934   1.690   2.761   8.066 -1.2703  1.0975 -0.8489
 1101SOL     OW14935   2.479   3.137   7.948 -0.3905  0.1229 -0.2550
 1101SOL    HW114936   2.479   3.053   7.994 -1.5829  0.5356  0.4959
 1101SOL    HW214937   2.410   3.175   8.002  0.3887  1.9309 -0.5303
 1102SOL     OW14938   1.888   4.342   2.141 -0.2076  0.2027 -0.1926
 1102SOL    HW114939   1.854   4.276   2.081  0.4035 -0.2939  0.0040
 1102SOL    HW214940   1.880   4.291   2.221 -0.1707 -0.2711 -0.4882
 1103SOL     OW14941   0.530   2.123   8.639  0.9244 -0.6693  0.1764
 1103SOL    HW114942   0.573   2.063   8.700  1.8800  0.2215  0.3721
 1103SOL    HW214943   0.527   2.071   8.559 -2.6682  0.3802 -0.3431
 1104SOL     OW14944   3.151   4.173   2.860  0.0034  0.4513  0.2992
 1104SOL    HW114945   3.083   4.198   2.922  1.6732  0.5521  2.0899
 1104SOL    HW214946   3.192   4.259   2.852  1.7602 -0.2802  1.4653
 1105SOL     OW14947   1.208   1.263   4.516  0.2925 -0.0280 -0.1952
 1105SOL    HW114948   1.219   1.250   4.610 -0.0737 -0.1344 -0.1666
 1105SOL    HW214949   1.242   1.352   4.512 -1.3629  0.6190 -0.1339
 1106SOL     OW14950   1.086   0.616   8.296  0.0934  0.2333 -0.0889
 1106SOL    HW114951   1.143   0.578   8.363  0.5369 -1.9215 -1.6903
 1106SOL    HW214952   1.124   0.703   8.283  0.5577 -0.0781 -0.7870
 1107SOL     OW14953   1.907   2.609   4.752  0.7495  0.0562  0.2020
 1107SOL    HW114954   1.868   2.636   4.836 -1.4439 -0.3914 -0.6670
 1107SOL    HW214955   1.835   2.555   4.718 -0.1907  0.6302  1.2670
 1108SOL     OW14956   3.961   1.996   7.677  0.5866 -0.0611  0.2493
 1108SOL    HW114957   3.912   1.915   7.689  0.2402  0.2585  1.0431
 1108SOL    HW214958   3.937   2.053   7.750  1.2279  0.5042  0.0213
 1109SOL     OW14959   0.545   1.597   8.034 -0.4118  0.6455  0.3639
 1109SOL    HW114960   0.491   1.539   7.980 -1.0331  1.0478  0.5451
 1109SOL    HW214961   0.561   1.543   8.112  1.3902 -1.8001 -1.7201
 1110SOL     OW14962   1.324   4.463  13.500  0.1500 -0.0811 -0.8999
 1110SOL    HW114963   1.405   4.513  13.494  0.3653 -0.1485  1.3642
 1110SOL    HW214964   1.355   4.374  13.482 -2.1786 -0.8379 -1.1410
 1111SOL     OW14965   3.715   1.410   0.061  0.5196  0.4457  0.2195
 1111SOL    HW114966   3.650   1.456   0.113  0.4806  1.1002 -0.3942
 1111SOL    HW214967   3.786   1.429   0.122  0.1105 -1.0050  1.1383
 1112SOL     OW14968   3.685   2.407   2.766 -0.9018  0.1327  0.4022
 1112SOL    HW114969   3.743   2.408   2.690 -1.0813  0.8236  0.2739
 1112SOL    HW214970   3.606   2.379   2.719 -1.2960  0.6923  0.7210
 1113SOL     OW14971   0.864   1.081   2.431  0.2299 -0.2555  0.3151
 1113SOL    HW114972   0.864   1.037   2.515  3.1946 -0.4742  0.1923
 1113SOL    HW214973   0.952   1.118   2.422  0.0842  0.4127  1.7547
 1114SOL     OW14974   3.391   2.044   7.261 -0.2150  0.2463  0.0053
 1114SOL    HW114975   3.468   2.101   7.262 -1.4254  1.8880  0.6638
 1114SOL    HW214976   3.421   1.972   7.316 -0.4432  0.6191  0.6208
 1115SOL     OW14977   3.405   0.973   8.905 -0.5216 -0.1689 -0.4881
 1115SOL    HW114978   3.375   1.000   8.992 -0.8113  0.3258 -0.7407
 1115SOL    HW214979   3.500   0.986   8.899 -0.4385 -1.5082 -2.1263
 1116SOL     OW14980   3.073   1.199   0.959  0.7314 -0.3103 -0.0204
 1116SOL    HW114981   3.129   1.219   0.884 -2.1278  1.2051 -1.7303
 1116SOL    HW214982   3.038   1.118   0.922  0.2352 -0.2806  0.3866
 1117SOL     OW14983   1.959   0.374   1.247 -0.8474 -0.3504  0.1925
 1117SOL    HW114984   1.911   0.308   1.197 -1.8771 -0.2336  1.0175
 1117SOL    HW214985   1.933   0.456   1.205  0.1475  0.0764  0.3976
 1118SOL     OW14986   3.651   1.940   6.924  0.2050  0.4207 -0.3944
 1118SOL    HW114987   3.594   1.940   7.001 -1.6561 -2.6353 -1.7693
 1118SOL    HW214988   3.734   1.953   6.969 -0.0907  0.2233  0.2131
 1119SOL     OW14989   2.697   1.257   3.193 -0.4523 -0.2183  0.5705
 1119SOL    HW114990   2.689   1.338   3.243  0.7023 -0.3452  0.9662
 1119SOL    HW214991   2.746   1.204   3.256 -0.4129  0.7848  1.3754
 1120SOL     OW14992   3.046   3.216   2.926  0.3570  0.6506  0.1032
 1120SOL    HW114993   3.076   3.217   3.016  0.4347 -0.3962  0.0876
 1120SOL    HW214994   2.978   3.281   2.945 -0.4782 -0.4320  0.7351
 1121SOL     OW14995   4.438   0.512  15.369 -0.4795 -0.1847  0.0993
 1121SOL    HW114996   4.375   0.467  15.313  1.2058  0.1724 -2.0896
 1121SOL    HW214997   4.426   0.604  15.346  1.1266 -0.0348 -0.1610
 1122SOL     OW14998   0.249   0.969   7.546 -0.0672  0.6492 -0.3543
 1122SOL    HW114999   0.318   0.910   7.576  0.3596  2.6028  2.4836
 1122SOL    HW215000   0.285   0.978   7.458 -2.2085 -1.0532 -1.4136
 1123SOL     OW15001   1.106   1.757   8.256  0.4611  0.1061  0.4577
 1123SOL    HW115002   1.176   1.691   8.266  1.7465  1.6967  1.8577
 1123SOL    HW215003   1.083   1.735   8.166  2.1149  0.7611 -0.1194
 1124SOL     OW15004   4.729   4.413  10.247  0.0412 -0.1879 -0.5313
 1124SOL    HW115005   0.038   4.490  10.280  1.8984 -1.2067 -0.7443
 1124SOL    HW215006   4.661   4.465  10.205 -1.0915 -1.4810 -0.2795
 1125SOL     OW15007   3.309   2.348  14.598  0.0034  0.3110 -0.0845
 1125SOL    HW115008   3.328   2.324  14.508  3.1500 -0.4300  0.7741
 1125SOL    HW215009   3.303   2.444  14.593 -0.2575  0.3651  1.1101
 1126SOL     OW15010   4.182   2.009   2.379 -0.5739  0.0719  0.7210
 1126SOL    HW115011   4.197   1.917   2.361 -0.1017  0.5166 -1.1119
 1126SOL    HW215012   4.102   2.019   2.327  0.6073 -1.7482 -1.4004
 1127SOL     OW15013   1.298   0.508  15.518  0.1613 -0.1012 -0.4985
 1127SOL    HW115014   1.338   0.587  15.481 -0.3776  0.7527  0.7462
 1127SOL    HW215015   1.337   0.504  15.606 -1.1451  0.0446  0.0946
 1128SOL     OW15016   0.148   4.267  15.870 -0.0043 -0.0225  0.0786
 1128SOL    HW115017   0.054   4.264  15.850 -0.0424 -2.3939  0.6367
 1128SOL    HW215018   0.193   4.338  15.824  0.8737  0.3183  1.4714
 1129SOL     OW15019   0.775   3.779   6.927  0.1901 -0.6220 -0.0045
 1129SOL    HW115020   0.739   3.701   6.970  0.8086  0.1243  1.8679
 1129SOL    HW215021   0.704   3.825   6.881  0.0080 -0.8325  0.0650
 1130SOL     OW15022   2.050   0.710   7.815  0.3396 -0.1957  0.2402
 1130SOL    HW115023   1.969   0.671   7.845  1.3100 -0.7280  2.1193
 1130SOL    HW215024   2.028   0.803   7.818 -1.9466 -0.9056  3.8039
 1131SOL     OW15025   4.608   0.835   6.451 -0.3288 -0.5449  0.4516
 1131SOL    HW115026   4.680   0.772   6.457 -1.3650 -1.8600 -0.7372
 1131SOL    HW215027   4.540   0.805   6.512 -0.5833  1.2900  1.0924
 1132SOL     OW15028   1.256   3.542   0.143  0.7310 -0.5811 -0.6769
 1132SOL    HW115029   1.259   3.451   0.171  1.3958 -0.8394 -1.6028
 1132SOL    HW215030   1.163   3.549   0.121 -0.0015 -2.3270  1.9652
 1133SOL     OW15031   0.414   4.390   1.722 -0.3484  0.6039  0.1171
 1133SOL    HW115032   0.492   4.421   1.676 -0.4729  0.4327 -0.2019
 1133SOL    HW215033   0.455   4.332   1.786  0.6828  0.9298 -0.2451
 1134SOL     OW15034   4.214   2.418   3.594  0.0547 -0.4805  0.5389
 1134SOL    HW115035   4.167   2.499   3.578  0.6583 -0.5188 -1.4499
 1134SOL    HW215036   4.148   2.349   3.604 -0.0719 -0.2512  1.2927
 1135SOL     OW15037   3.078   0.372   4.839 -0.0742  0.8476 -0.0947
 1135SOL    HW115038   3.016   0.300   4.843  0.8523  0.0713  0.5410
 1135SOL    HW215039   3.016   0.441   4.863 -0.2353  0.6789 -0.0281
 1136SOL     OW15040   3.061   4.230   9.100  0.1186 -0.4134 -0.2790
 1136SOL    HW115041   3.076   4.151   9.048 -0.7388 -0.5030 -0.3862
 1136SOL    HW215042   3.101   4.196   9.180 -0.0866 -0.4640 -0.1986
 1137SOL     OW15043   2.377   0.395   8.753  0.2698  0.6490 -0.5988
 1137SOL    HW115044   2.307   0.457   8.731  0.2841  1.1175  0.6837
 1137SOL    HW215045   2.334   0.333   8.812  1.6310 -1.0849 -1.4312
 1138SOL     OW15046   3.357   0.497  13.306 -0.2781 -0.1347  0.0184
 1138SOL    HW115047   3.428   0.434  13.297  0.4273  0.8424 -1.3359
 1138SOL    HW215048   3.408   0.575  13.285  1.1665 -0.9864  0.3422
 1139SOL     OW15049   4.473   4.190   5.474  0.0787  0.1395  0.7395
 1139SOL    HW115050   4.497   4.193   5.567  1.1015 -1.5023  0.5345
 1139SOL    HW215051   4.562   4.177   5.441  0.1265  0.4733  0.7371
 1140SOL     OW15052   1.327   2.694   7.519 -0.4639  0.2418  0.0395
 1140SOL    HW115053   1.376   2.746   7.583  0.7567  0.2661 -0.9226
 1140SOL    HW215054   1.308   2.620   7.577  3.6745 -1.9208 -1.3632
 1141SOL     OW15055   4.378   3.980   9.557 -0.3568 -0.1153 -0.4710
 1141SOL    HW115056   4.375   3.964   9.463  1.6356  1.2049 -0.7561
 1141SOL    HW215057   4.292   3.948   9.586  0.0734  1.3478  2.4446
 1142SOL     OW15058   1.243   3.945   4.302  0.4002 -0.0749 -0.0598
 1142SOL    HW115059   1.303   3.995   4.247 -0.1671  3.0310  2.1702
 1142SOL    HW215060   1.197   3.891   4.238  1.3741 -1.1979  0.1853
 1143SOL     OW15061   1.446   3.349  16.733 -0.0573 -0.5026  0.1771
 1143SOL    HW115062   1.378   3.398  16.688  1.5749  0.9673 -0.6794
 1143SOL    HW215063   1.492   3.422  16.776  1.3419 -0.3099 -1.6526
 1144SOL     OW15064   0.863   3.443   9.494 -0.1117 -0.2801  0.0401
 1144SOL    HW115065   0.864   3.530   9.534 -0.8982  0.6271 -1.9397
 1144SOL    HW215066   0.795   3.397   9.544 -0.6553  0.5798  0.0943
 1145SOL     OW15067   4.303   0.217   5.329 -0.1273 -0.8818  0.4078
 1145SOL    HW115068   4.326   0.285   5.392 -0.5201  0.9402 -1.4520
 1145SOL    HW215069   4.210   0.234   5.310  0.3114  1.5488  0.4519
 1146SOL     OW15070   0.606   4.428  11.490 -0.3984 -0.3296  0.2472
 1146SOL    HW115071   0.670   4.499  11.483  0.2399 -0.9619 -0.3996
 1146SOL    HW215072   0.529   4.461  11.445  1.1937  2.8901 -0.1255
 1147SOL     OW15073   2.446   2.190   7.259 -0.1927  0.2435  0.0723
 1147SOL    HW115074   2.401   2.131   7.321 -0.2246  0.5943  0.3799
 1147SOL    HW215075   2.486   2.240   7.330  1.4684 -1.2436  0.1786
 1148SOL     OW15076   4.588   0.483  14.702  0.3283  0.4445 -0.5232
 1148SOL    HW115077   4.634   0.467  14.785  0.7775 -0.3045 -0.9168
 1148SOL    HW215078   4.499   0.456  14.722  0.6141  0.2559  0.5341
 1149SOL     OW15079   0.798   2.792  17.699  0.1134  0.4933  0.1034
 1149SOL    HW115080   0.848   2.728  17.649  0.9019  0.9874  0.2517
 1149SOL    HW215081   0.721   2.802  17.644  1.2767  0.0257 -1.6063
 1150SOL     OW15082   3.916   2.220   5.557  0.0888  0.2549 -0.9081
 1150SOL    HW115083   3.964   2.192   5.479  1.0379 -2.0537  0.4948
 1150SOL    HW215084   3.990   2.227   5.618 -0.7589  0.1333  0.1425
 1151SOL     OW15085   2.761   4.455   6.358 -0.2126 -0.0376 -0.1662
 1151SOL    HW115086   2.670   4.427   6.362 -0.7055  1.9009  1.7906
 1151SOL    HW215087   2.766   4.503   6.275  2.8688  2.5025  1.4569
 1152SOL     OW15088   1.218   1.928   8.987  0.0958  0.4920 -0.3367
 1152SOL    HW115089   1.260   1.854   9.030  2.0053  2.4792  1.2301
 1152SOL    HW215090   1.198   1.993   9.055 -2.3786 -2.3508  1.6346
 1153SOL     OW15091   2.162   3.541   4.507 -1.0872  0.0912  0.0624
 1153SOL    HW115092   2.145   3.506   4.594 -1.5133  0.9279  0.3142
 1153SOL    HW215093   2.102   3.486   4.456  0.2465 -0.9013 -0.4165
 1154SOL     OW15094   0.495   2.478  12.096 -0.1539  0.2833 -0.7174
 1154SOL    HW115095   0.466   2.566  12.073  0.4584  0.6995  0.1168
 1154SOL    HW215096   0.562   2.471  12.027 -0.4491  2.0565 -1.1676
 1155SOL     OW15097   0.903   4.282   5.317  0.2605 -0.3075  0.2621
 1155SOL    HW115098   0.821   4.241   5.288  0.1171 -0.2645  0.6027
 1155SOL    HW215099   0.965   4.211   5.306 -1.8205 -2.2757  1.2015
 1156SOL     OW15100   1.240   1.819  16.477 -0.0413 -0.1162  0.7117
 1156SOL    HW115101   1.224   1.779  16.563  0.2590 -2.2123 -0.1981
 1156SOL    HW215102   1.198   1.752  16.422 -1.3157  0.2721  1.2090
 1157SOL     OW15103   0.516   4.577   8.616 -0.1698 -0.1462  0.6416
 1157SOL    HW115104   0.493   4.565   8.524  0.5708 -0.2220  0.4617
 1157SOL    HW215105   0.493   4.669   8.628 -1.5742 -0.2675 -1.1581
 1158SOL     OW15106   1.932   0.855   4.711 -0.0796  0.0382 -0.2202
 1158SOL    HW115107   2.015   0.851   4.663  0.7222 -3.3611  1.4769
 1158SOL    HW215108   1.961   0.869   4.801 -0.2745  0.6425 -0.2476
 1159SOL     OW15109   2.651   0.546   2.494 -0.4520  0.1548 -0.1147
 1159SOL    HW115110   2.602   0.603   2.553  1.7016  1.4593  0.4307
 1159SOL    HW215111   2.579   0.526   2.435  0.5667  1.2872 -1.7571
 1160SOL     OW15112   2.940   4.081   5.366  0.1803  0.3744  0.0564
 1160SOL    HW115113   2.915   4.085   5.273  0.7905  0.5641 -0.1045
 1160SOL    HW215114   3.016   4.140   5.361  1.6488 -1.3908  1.3958
 1161SOL     OW15115   2.983   2.809  13.350 -0.0569 -0.6106 -0.0639
 1161SOL    HW115116   3.002   2.903  13.353  0.9905 -0.8285  0.0065
 1161SOL    HW215117   2.990   2.793  13.444 -0.8366  3.4910  0.7029
 1162SOL     OW15118   0.898   4.187   9.288  0.3007 -0.8212 -0.3623
 1162SOL    HW115119   0.824   4.157   9.342 -0.7989  1.7611 -0.4345
 1162SOL    HW215120   0.942   4.109   9.253  0.6441 -0.8530  0.1372
 1163SOL     OW15121   2.398   0.409   4.552  0.1079  0.6151 -0.3911
 1163SOL    HW115122   2.490   0.387   4.558 -0.1071 -0.5724 -1.5231
 1163SOL    HW215123   2.390   0.445   4.463  1.4697 -1.2463 -1.2612
 1164SOL     OW15124   4.480   0.727   1.736 -0.5339  0.2032  0.7807
 1164SOL    HW115125   4.495   0.662   1.805 -0.2890 -4.3253 -3.5175
 1164SOL    HW215126   4.387   0.709   1.720 -0.2499 -1.0052  0.4273
 1165SOL     OW15127   0.996   3.515   3.959 -0.2701 -0.6320  0.1492
 1165SOL    HW115128   0.988   3.506   4.054 -3.2618  0.1104 -0.0292
 1165SOL    HW215129   1.072   3.574   3.959 -0.0500 -0.9148 -0.0614
 1166SOL     OW15130   3.864   2.186   5.224  1.0043 -0.3729  0.9663
 1166SOL    HW115131   3.898   2.131   5.154 -0.1772  1.3749 -0.9596
 1166SOL    HW215132   3.948   2.201   5.268  1.3968 -0.1573  0.1391
 1167SOL     OW15133   0.158   3.347  15.236 -0.8071 -0.5096 -0.1117
 1167SOL    HW115134   0.151   3.328  15.143  0.3762 -1.5487  0.0037
 1167SOL    HW215135   0.069   3.320  15.257 -1.4477  0.8243 -1.1020
 1168SOL     OW15136   1.294   3.266   2.174 -0.0108  0.5594 -0.7697
 1168SOL    HW115137   1.248   3.271   2.090 -0.9137  1.8367 -0.1974
 1168SOL    HW215138   1.374   3.219   2.150  0.1091 -0.3610  1.4111
 1169SOL     OW15139   1.936   0.009   1.519  0.0959 -0.0349  0.0563
 1169SOL    HW115140   1.951   0.102   1.498  1.2937  0.4392  3.0121
 1169SOL    HW215141   1.875   0.030   1.590 -1.9744  0.8173 -1.9783
 1170SOL     OW15142   1.342   3.329  11.458  0.5130 -0.8565 -0.0355
 1170SOL    HW115143   1.434   3.338  11.433  0.4358  1.3008  0.4243
 1170SOL    HW215144   1.356   3.272  11.533  1.3261  0.3496  0.7358
 1171SOL     OW15145   4.066   0.350   5.267 -0.4518  0.0347 -0.3781
 1171SOL    HW115146   4.060   0.285   5.197  0.4998  2.3164 -2.5751
 1171SOL    HW215147   4.081   0.426   5.210 -0.2006  0.4456  0.2342
 1172SOL     OW15148   3.497   3.659   2.325 -0.7526 -0.1593 -0.4030
 1172SOL    HW115149   3.426   3.600   2.296 -2.2717  2.3252 -1.7790
 1172SOL    HW215150   3.575   3.605   2.322 -0.9328 -0.4350 -0.1567
 1173SOL     OW15151   4.393   2.013  12.208 -0.4741  0.3088  0.5068
 1173SOL    HW115152   4.378   2.084  12.271  1.4949 -0.8247  2.2119
 1173SOL    HW215153   4.312   1.963  12.219  0.9180 -1.9851  0.3263
 1174SOL     OW15154   2.112   2.284   6.052 -0.0401 -0.9710 -0.1993
 1174SOL    HW115155   2.084   2.303   5.963  2.9867 -1.5848 -1.2801
 1174SOL    HW215156   2.207   2.289   6.040 -0.1487  0.4661 -0.5084
 1175SOL     OW15157   0.156   2.622   1.118 -0.0538  0.3968  0.0522
 1175SOL    HW115158   0.137   2.549   1.176  2.9257 -0.6285 -0.2962
 1175SOL    HW215159   0.134   2.580   1.035  0.8853 -1.0337  0.5286
 1176SOL     OW15160   0.606   3.426   3.435  0.4467  0.5475  0.2400
 1176SOL    HW115161   0.563   3.341   3.437  0.6594  0.3300 -4.0691
 1176SOL    HW215162   0.645   3.438   3.348 -0.2981  0.0945 -0.1568
 1177SOL     OW15163   3.042   2.346   2.414  0.0449 -0.0079 -0.0612
 1177SOL    HW115164   3.080   2.428   2.444 -1.4391  0.5182  0.3830
 1177SOL    HW215165   2.965   2.336   2.470 -1.2302  0.9694 -1.6443
 1178SOL     OW15166   4.053   3.176  14.446 -0.5176  0.3884 -0.1894
 1178SOL    HW115167   4.115   3.111  14.411  0.9386  2.4196 -1.3935
 1178SOL    HW215168   4.083   3.192  14.536 -2.5793 -3.1602  1.1115
 1179SOL     OW15169   0.373   2.881  11.033  0.2520  0.3453 -0.2845
 1179SOL    HW115170   0.438   2.811  11.046 -1.5147 -1.3418 -0.5310
 1179SOL    HW215171   0.431   2.957  11.041  0.1480  0.3121  0.8418
 1180SOL     OW15172   2.281   2.494  12.996 -0.3443 -0.5256 -0.1104
 1180SOL    HW115173   2.257   2.563  13.058 -3.0793  0.3733 -2.1927
 1180SOL    HW215174   2.204   2.439  12.981 -0.2773 -1.2118  1.9526
 1181SOL     OW15175   4.719   3.026  11.497 -0.4333  0.0486 -0.6136
 1181SOL    HW115176   0.014   3.011  11.586  0.1988 -0.6222 -0.9512
 1181SOL    HW215177   4.625   3.012  11.507 -0.9946  3.0295 -1.8051
 1182SOL     OW15178   0.934   3.341   5.476 -1.1467 -0.6005  0.3904
 1182SOL    HW115179   0.953   3.354   5.569  0.2113  2.0612 -0.2319
 1182SOL    HW215180   1.015   3.306   5.439 -0.9519 -0.1810  0.4114
 1183SOL     OW15181   4.600   2.580   3.352 -0.5301 -0.5238  0.1554
 1183SOL    HW115182   4.568   2.590   3.262  1.5985 -1.0339 -0.6543
 1183SOL    HW215183   4.622   2.487   3.357 -2.2527 -0.9163  0.2462
 1184SOL     OW15184   2.114   3.353   7.805  0.3635  0.1952  0.0593
 1184SOL    HW115185   2.208   3.345   7.789  0.5295 -0.1863  1.2454
 1184SOL    HW215186   2.090   3.372   7.714  2.2775 -0.7763 -0.6639
 1185SOL     OW15187   4.271   1.839  14.450 -0.3925  0.0961  0.4312
 1185SOL    HW115188   4.251   1.774  14.382 -1.1076  0.2953  0.4526
 1185SOL    HW215189   4.350   1.801  14.487 -0.7092  0.0122  1.0090
 1186SOL     OW15190   2.114   1.300   2.666  0.0536 -0.4125 -0.6672
 1186SOL    HW115191   2.155   1.292   2.580  2.2740 -2.0344  0.5642
 1186SOL    HW215192   2.031   1.347   2.654 -0.0492 -0.9818 -2.0904
 1187SOL     OW15193   4.683   0.113  16.775  0.6648 -0.0611 -0.1983
 1187SOL    HW115194   0.014   0.157  16.725  1.4598 -1.3985 -0.2987
 1187SOL    HW215195   4.622   0.182  16.798 -0.6773 -1.0696 -0.7645
 1188SOL     OW15196   1.123   2.973   6.217 -0.0140  0.9055  0.3687
 1188SOL    HW115197   1.078   3.007   6.294 -0.2369  0.3598  0.4760
 1188SOL    HW215198   1.205   2.952   6.262 -0.7063  0.3569  1.3741
 1189SOL     OW15199   3.561   3.845   3.297 -0.1450  0.0510 -0.1770
 1189SOL    HW115200   3.520   3.909   3.238  0.9221  0.5373 -0.3943
 1189SOL    HW215201   3.631   3.815   3.239  0.6457  0.6823  0.4525
 1190SOL     OW15202   3.897   4.645   7.248  0.1503  0.1388  0.0778
 1190SOL    HW115203   3.990   4.632   7.232  0.2963  3.8316 -1.8919
 1190SOL    HW215204   3.906   4.735   7.280  0.0338 -0.8580  2.9202
 1191SOL     OW15205   4.154   3.416   3.047 -0.6340 -0.1336 -0.6440
 1191SOL    HW115206   4.188   3.413   3.136 -3.5972  0.2675  0.5042
 1191SOL    HW215207   4.081   3.479   3.048 -0.0214  0.5901 -1.1889
 1192SOL     OW15208   0.137   2.451   4.371  0.5769 -0.3996 -0.1805
 1192SOL    HW115209   0.167   2.541   4.385 -0.4224  0.0537 -0.9630
 1192SOL    HW215210   0.044   2.464   4.351  0.6983 -0.2786 -0.6656
 1193SOL     OW15211   2.524   2.459   8.424  0.2658 -0.5342  0.1360
 1193SOL    HW115212   2.464   2.465   8.499  0.3280 -0.5632  0.1873
 1193SOL    HW215213   2.485   2.386   8.376 -0.0091 -1.4534  1.7878
 1194SOL     OW15214   2.342   3.106  11.504 -0.5864 -0.2096  0.2223
 1194SOL    HW115215   2.354   3.148  11.418  2.0671 -1.0490  0.1670
 1194SOL    HW215216   2.402   3.155  11.559 -2.7179  1.9860  0.5905
 1195SOL     OW15217   0.097   1.845   0.265  0.0477 -0.1370  0.2340
 1195SOL    HW115218   0.036   1.916   0.243 -1.7365 -1.6930  0.1349
 1195SOL    HW215219   0.043   1.773   0.231  0.4426 -0.2132 -0.2291
 1196SOL     OW15220   4.383   2.917   5.548 -0.5426  0.2054  0.5250
 1196SOL    HW115221   4.356   2.841   5.598 -1.6611  0.0017 -0.3918
 1196SOL    HW215222   4.471   2.905   5.512  0.6539 -0.4297  3.6259
 1197SOL     OW15223   0.946   1.504   2.604 -0.1420 -0.1681 -0.5327
 1197SOL    HW115224   0.888   1.568   2.647 -0.3385 -0.3875 -0.4709
 1197SOL    HW215225   0.929   1.430   2.663  0.4464  1.2219  1.3724
 1198SOL     OW15226   2.630   0.826   6.006  0.3644 -0.0988  0.4512
 1198SOL    HW115227   2.671   0.883   6.072 -0.2000  1.6474 -0.7096
 1198SOL    HW215228   2.688   0.751   6.016 -0.1434 -0.5983 -0.3346
 1199SOL     OW15229   4.011   4.324   7.985 -0.3091  0.3301 -0.3203
 1199SOL    HW115230   4.052   4.386   7.924 -0.9929  1.1906  0.0848
 1199SOL    HW215231   4.085   4.274   8.019 -0.0805  0.5417 -0.4986
 1200SOL     OW15232   1.600   2.505   2.369  0.6571  0.0235 -0.0399
 1200SOL    HW115233   1.679   2.518   2.422 -0.8711 -1.8762  2.6827
 1200SOL    HW215234   1.565   2.594   2.375  0.7862  0.0410  0.4302
 1201SOL     OW15235   4.588   4.133   5.716 -0.6181  0.6209 -0.0779
 1201SOL    HW115236   4.603   4.153   5.808 -0.6304  0.4956 -0.0491
 1201SOL    HW215237   4.672   4.104   5.679 -0.7809  2.2877 -1.7741
 1202SOL     OW15238   3.665   3.814   9.817  0.7544 -0.8055 -0.2411
 1202SOL    HW115239   3.572   3.811   9.795  0.4878 -1.1981  0.9314
 1202SOL    HW215240   3.665   3.760   9.897 -1.7485  0.4260  0.5798
 1203SOL     OW15241   3.342   0.839   0.889 -0.1374 -0.8917  0.9087
 1203SOL    HW115242   3.258   0.868   0.927 -0.8098  1.4469 -2.3138
 1203SOL    HW215243   3.324   0.750   0.858  1.7674 -0.8120 -0.4158
 1204SOL     OW15244   1.856   3.551   6.656  0.7565 -0.1911  1.0305
 1204SOL    HW115245   1.777   3.567   6.603  1.7275 -0.3714 -0.4722
 1204SOL    HW215246   1.817   3.533   6.742  0.7616  3.9832  1.9115
 1205SOL     OW15247   4.085   2.403   6.542  0.2719 -0.0889  0.2379
 1205SOL    HW115248   4.133   2.470   6.590  0.9907 -0.8505  0.5975
 1205SOL    HW215249   4.010   2.400   6.602 -1.3296 -0.3674 -1.7890
 1206SOL     OW15250   2.251   1.611   2.011  0.0510 -0.2061  0.3465
 1206SOL    HW115251   2.174   1.642   1.964  0.2852 -0.3829 -0.1648
 1206SOL    HW215252   2.219   1.558   2.084 -2.1735  0.1947 -0.3520
 1207SOL     OW15253   4.357   1.477   3.866  0.3238 -0.4794 -0.1946
 1207SOL    HW115254   4.400   1.546   3.917  1.5972 -0.9619 -0.6254
 1207SOL    HW215255   4.411   1.399   3.874  0.4097 -0.0003  3.7850
 1208SOL     OW15256   2.775   2.984  13.240 -0.7001 -0.4127 -0.1337
 1208SOL    HW115257   2.807   2.899  13.210 -1.8495 -0.2882 -1.6493
 1208SOL    HW215258   2.738   3.021  13.161 -1.2435 -0.8609 -0.0891
 1209SOL     OW15259   4.460   3.044   6.682  0.3002  0.1821  0.2500
 1209SOL    HW115260   4.415   2.995   6.613  0.9607 -0.4346  0.2564
 1209SOL    HW215261   4.540   2.994   6.696 -0.2108 -1.0306 -1.1092
 1210SOL     OW15262   2.339   3.850  12.881  0.2964 -0.4075 -0.1281
 1210SOL    HW115263   2.260   3.901  12.897  2.2260  2.2198  0.9256
 1210SOL    HW215264   2.402   3.895  12.937  1.1366 -2.9262  0.9708
 1211SOL     OW15265   0.907   3.023   4.917  0.4688 -0.5796  0.0051
 1211SOL    HW115266   0.917   3.068   5.001 -1.2759 -0.2234  0.0284
 1211SOL    HW215267   0.837   3.075   4.877 -0.0171 -1.3498 -0.1373
 1212SOL     OW15268   4.021   4.614   2.652  0.0050 -0.2124  0.1182
 1212SOL    HW115269   4.089   4.656   2.705 -0.1641 -0.5407  0.5917
 1212SOL    HW215270   4.032   4.664   2.571 -1.9824 -0.2178 -0.1595
 1213SOL     OW15271   1.506   2.619  11.285 -0.5513  0.2086  0.3710
 1213SOL    HW115272   1.443   2.630  11.355  0.5979 -1.7220  1.7048
 1213SOL    HW215273   1.586   2.598  11.332 -0.8160 -0.2554  0.6066
 1214SOL     OW15274   2.154   3.272   0.689 -0.2450  0.2439  0.4186
 1214SOL    HW115275   2.165   3.331   0.615  2.2359 -1.5534 -0.6356
 1214SOL    HW215276   2.218   3.202   0.674 -1.4763 -1.3013  2.3474
 1215SOL     OW15277   3.640   3.474   5.528 -0.5733 -0.5037  0.3693
 1215SOL    HW115278   3.579   3.506   5.461 -0.0306 -1.6554 -0.6692
 1215SOL    HW215279   3.694   3.552   5.538  1.5611 -1.5189 -3.2982
 1216SOL     OW15280   1.151   1.854   5.690  0.7131  0.3253  0.3668
 1216SOL    HW115281   1.184   1.905   5.764  1.0267  0.1318  0.3590
 1216SOL    HW215282   1.233   1.819   5.655  0.3883  0.8976 -0.9854
 1217SOL     OW15283   3.153   3.262   2.260 -0.3390 -0.6306 -0.2566
 1217SOL    HW115284   3.180   3.238   2.348  1.6710 -1.1271 -0.9988
 1217SOL    HW215285   3.058   3.257   2.271 -0.1046 -0.0796  1.9704
 1218SOL     OW15286   1.060   1.804   0.449  0.4667  0.3060  0.1755
 1218SOL    HW115287   1.034   1.721   0.488  0.4186 -0.2808 -1.1018
 1218SOL    HW215288   1.018   1.790   0.364 -0.5566  1.3078  0.5227
 1219SOL     OW15289   0.287   4.182  11.789  0.5317 -0.0166 -0.2031
 1219SOL    HW115290   0.208   4.145  11.828  0.5281 -1.1058 -1.2500
 1219SOL    HW215291   0.338   4.194  11.869  0.3071  0.9858 -0.2050
 1220SOL     OW15292   4.033   0.309   8.854  0.0565  0.0961  0.4067
 1220SOL    HW115293   4.045   0.359   8.935  0.9150 -0.7197  0.7828
 1220SOL    HW215294   3.968   0.366   8.813  1.1833 -0.2633 -1.8964
 1221SOL     OW15295   1.661   1.517  16.097  0.0927  0.4583  0.8203
 1221SOL    HW115296   1.706   1.450  16.045 -1.2504  1.0624 -1.1324
 1221SOL    HW215297   1.606   1.461  16.151 -0.8229 -0.1698 -0.7435
 1222SOL     OW15298   0.047   3.141   7.147  0.1597  0.4715  0.2260
 1222SOL    HW115299   0.015   3.163   7.235 -1.2165  1.4950 -0.5253
 1222SOL    HW215300   0.059   3.047   7.155  1.7101  0.8081  1.9431
 1223SOL     OW15301   4.287   2.243  14.819  0.1189  0.1592  0.0170
 1223SOL    HW115302   4.316   2.333  14.802 -0.4265  0.1088 -1.2164
 1223SOL    HW215303   4.193   2.241  14.800  0.2255 -1.1683 -0.3519
 1224SOL     OW15304   2.837   1.857  12.976  0.4535 -0.0834 -0.3934
 1224SOL    HW115305   2.832   1.932  13.036  3.7207  0.5408 -0.8618
 1224SOL    HW215306   2.756   1.862  12.925 -0.2325  0.2168  0.7462
 1225SOL     OW15307   2.738   0.685   2.237  0.0272 -0.0614 -0.2775
 1225SOL    HW115308   2.792   0.616   2.274 -1.1344  0.2096  1.9584
 1225SOL    HW215309   2.720   0.658   2.147  0.1319  2.7861 -1.1592
 1226SOL     OW15310   0.481   4.728  12.003  0.1074 -0.0357  0.0554
 1226SOL    HW115311   0.451   4.670  12.073  0.4996 -0.5229 -0.1808
 1226SOL    HW215312   0.425   0.067  12.015 -0.4339 -0.3239 -0.6070
 1227SOL     OW15313   3.071   3.803   5.683 -0.2243  0.4603 -0.7855
 1227SOL    HW115314   3.064   3.727   5.741 -1.0113 -0.0638 -1.5693
 1227SOL    HW215315   2.980   3.835   5.678 -0.3442  0.0198 -1.4349
 1228SOL     OW15316   0.276   4.086   4.001 -0.1354  0.4749 -0.2071
 1228SOL    HW115317   0.237   4.092   3.913  1.1987  1.5520 -0.7213
 1228SOL    HW215318   0.267   3.992   4.013  0.8571  0.2753 -1.0727
 1229SOL     OW15319   2.250   2.830   1.594  0.0166 -0.6574  0.1026
 1229SOL    HW115320   2.291   2.860   1.675 -0.7292 -0.9976  0.6045
 1229SOL    HW215321   2.218   2.745   1.623  0.4442 -0.7736  0.2397
 1230SOL     OW15322   3.367   0.960  12.284  0.4095 -0.1255 -0.1891
 1230SOL    HW115323   3.273   0.975  12.292 -0.1355 -3.2159 -0.8050
 1230SOL    HW215324   3.378   1.008  12.202 -0.1548 -0.6052 -0.5500
 1231SOL     OW15325   3.080   2.754   9.604 -0.3433 -0.0708  0.3677
 1231SOL    HW115326   3.167   2.715   9.590 -0.2426  0.1876  0.2707
 1231SOL    HW215327   3.093   2.761   9.698  2.5724 -0.7627  0.0328
 1232SOL     OW15328   2.342   1.698   9.474 -0.2799  0.2303 -0.0612
 1232SOL    HW115329   2.319   1.750   9.397  0.0729 -0.3456 -0.5581
 1232SOL    HW215330   2.259   1.667   9.508  0.4459 -1.8910 -0.1743
 1233SOL     OW15331   2.759   1.995   2.348 -0.6331  0.3106 -0.0446
 1233SOL    HW115332   2.712   1.921   2.309 -0.3847 -1.2369  2.6485
 1233SOL    HW215333   2.740   2.057   2.278  3.9891  0.9192 -0.8025
 1234SOL     OW15334   4.462   2.307  15.048 -0.6237  0.6513 -0.1171
 1234SOL    HW115335   4.392   2.274  14.992 -1.7506 -0.4156  1.9286
 1234SOL    HW215336   4.540   2.290  14.995  0.4629 -2.0243  2.3180
 1235SOL     OW15337   0.890   0.705   6.959 -0.0672  0.3662 -0.3512
 1235SOL    HW115338   0.801   0.716   6.925 -0.1237  0.9764 -0.0019
 1235SOL    HW215339   0.873   0.627   7.013  1.3666  1.1053  1.1582
 1236SOL     OW15340   3.485   3.702  10.931 -0.3145  0.9486 -0.1528
 1236SOL    HW115341   3.574   3.735  10.946 -0.2663  0.8803 -0.2842
 1236SOL    HW215342   3.428   3.757  10.985  0.2733  0.4525  0.9650
 1237SOL     OW15343   3.800   0.040   9.132  0.0398  0.0197 -0.0990
 1237SOL    HW115344   3.722   0.008   9.087  0.3384 -0.4636 -0.2799
 1237SOL    HW215345   3.800   4.729   9.214 -1.5625 -0.3510 -0.3226
 1238SOL     OW15346   3.356   0.031   7.539  0.5435  0.0692  0.2192
 1238SOL    HW115347   3.291   4.701   7.521  1.1122  0.0226 -1.6944
 1238SOL    HW215348   3.365   0.077   7.455  0.0186  1.2856  0.8283
 1239SOL     OW15349   2.580   3.126  17.589  0.2242 -0.2500  0.1318
 1239SOL    HW115350   2.523   3.201  17.602  0.0867 -0.2010 -0.7690
 1239SOL    HW215351   2.597   3.135  17.495 -0.2468  1.6120  0.2350
 1240SOL     OW15352   1.005   3.311  16.331 -0.5713  0.5209  0.3165
 1240SOL    HW115353   0.923   3.356  16.352  0.0996  0.5835  2.9033
 1240SOL    HW215354   0.991   3.248  16.402  0.0386 -1.0055 -0.9386
 1241SOL     OW15355   3.432   3.109   6.373  0.2001  0.3452  0.0715
 1241SOL    HW115356   3.494   3.180   6.355  0.5382 -0.0204 -0.2067
 1241SOL    HW215357   3.499   3.049   6.406 -1.4831 -0.8581  1.2620
 1242SOL     OW15358   3.425   1.558  11.850 -0.0950 -0.0475  0.3575
 1242SOL    HW115359   3.427   1.478  11.901 -0.9797 -1.5816 -2.0239
 1242SOL    HW215360   3.368   1.610  11.907  1.8760 -0.3181  2.5628
 1243SOL     OW15361   3.748   3.246   5.640  0.1151 -0.1934  0.3084
 1243SOL    HW115362   3.832   3.264   5.598  0.2227  0.6816  0.9176
 1243SOL    HW215363   3.689   3.302   5.590 -2.6238 -1.7909  1.7419
 1244SOL     OW15364   1.349   1.607  11.710 -0.5019 -0.0954 -0.9606
 1244SOL    HW115365   1.322   1.585  11.800 -1.0259 -1.5997 -1.4879
 1244SOL    HW215366   1.305   1.537  11.662 -0.0429 -1.8274  1.1001
 1245SOL     OW15367   4.444   1.353  16.223 -0.3659 -0.1832  0.7582
 1245SOL    HW115368   4.534   1.342  16.193 -0.2309 -2.2854  1.9741
 1245SOL    HW215369   4.466   1.367  16.315  3.1472  0.9137 -0.2602
 1246SOL     OW15370   1.702   4.448   3.596 -0.0864  0.0859  0.3799
 1246SOL    HW115371   1.704   4.532   3.642 -1.7991  0.5822 -0.4652
 1246SOL    HW215372   1.784   4.459   3.547  0.0045  0.0294  0.5191
 1247SOL     OW15373   1.740   4.171   3.653  0.2643 -0.8537 -0.0026
 1247SOL    HW115374   1.718   4.263   3.669 -1.5023 -1.3113  0.1946
 1247SOL    HW215375   1.681   4.135   3.587  0.6734 -0.5871 -0.5128
 1248SOL     OW15376   3.392   1.921   9.278  0.2351  0.5038  0.2831
 1248SOL    HW115377   3.464   1.894   9.335 -0.0429  1.1029  0.9095
 1248SOL    HW215378   3.337   1.981   9.328 -0.3263 -0.5923  0.9707
 1249SOL     OW15379   0.488   3.115  10.993  1.1265 -0.2598  0.6714
 1249SOL    HW115380   0.582   3.119  11.012  0.9465  0.6560  1.3919
 1249SOL    HW215381   0.480   3.211  10.990  1.8234 -0.1839  1.1869
 1250SOL     OW15382   0.833   4.307   4.669 -0.4957  0.2625 -0.6334
 1250SOL    HW115383   0.779   4.265   4.603 -3.0138 -0.3845  1.8372
 1250SOL    HW215384   0.908   4.251   4.649 -0.6638 -0.2652  0.2137
 1251SOL     OW15385   3.248   2.538   4.647  0.0146 -0.0777 -0.2403
 1251SOL    HW115386   3.308   2.464   4.656 -0.5568 -0.2928  1.8101
 1251SOL    HW215387   3.187   2.513   4.717 -0.3732 -0.0107 -0.5503
 1252SOL     OW15388   2.710   0.889   5.531  0.5313 -0.5166 -0.0510
 1252SOL    HW115389   2.743   0.960   5.586  2.6125 -0.9566 -0.6989
 1252SOL    HW215390   2.753   0.811   5.566 -1.3075 -1.4727  0.0723
 1253SOL     OW15391   2.366   4.157  12.862 -0.3939  0.1613  0.6240
 1253SOL    HW115392   2.393   4.097  12.932  1.4348  0.6044  0.3049
 1253SOL    HW215393   2.360   4.248  12.889  0.0704 -0.1575  1.8140
 1254SOL     OW15394   3.619   0.279   4.849  0.2514  0.1148 -0.2293
 1254SOL    HW115395   3.670   0.199   4.852  1.6520  0.8858 -3.0047
 1254SOL    HW215396   3.688   0.343   4.830  0.5020 -0.4939 -1.3752
 1255SOL     OW15397   1.919   0.677   6.851 -0.1516  0.2467 -0.3251
 1255SOL    HW115398   2.000   0.671   6.800 -0.1229  1.9060 -0.4653
 1255SOL    HW215399   1.876   0.738   6.791  0.8144  1.7118  0.4684
 1256SOL     OW15400   1.195   2.461   9.330  0.2731 -0.1550 -0.2548
 1256SOL    HW115401   1.166   2.415   9.251 -4.0446 -2.7281  2.8286
 1256SOL    HW215402   1.147   2.543   9.321 -0.5905 -0.5230  1.0516
 1257SOL     OW15403   2.772   3.979   3.455 -0.0977 -0.1758 -1.1177
 1257SOL    HW115404   2.833   4.043   3.490 -0.0409 -0.2064 -1.1610
 1257SOL    HW215405   2.794   3.905   3.512  0.8953  1.1860  0.2808
 1258SOL     OW15406   0.012   3.493   4.257 -0.2984 -0.1357 -0.2408
 1258SOL    HW115407   4.675   3.469   4.311 -0.2832  0.7221  0.1718
 1258SOL    HW215408   4.713   3.579   4.236 -2.1000 -1.3723 -2.0512
 1259SOL     OW15409   1.336   0.744  15.363  0.4534 -0.3440 -0.1482
 1259SOL    HW115410   1.342   0.775  15.272 -0.2055 -2.6395 -0.9985
 1259SOL    HW215411   1.258   0.780  15.404  0.5745 -0.5618  0.2770
 1260SOL     OW15412   3.397   2.255   8.217  0.0151 -0.3330 -1.1068
 1260SOL    HW115413   3.455   2.314   8.169  5.9827 -2.8069  3.0658
 1260SOL    HW215414   3.337   2.218   8.152 -2.1953  0.6091  0.3583
 1261SOL     OW15415   2.802   2.974   7.096 -0.2685 -0.4841 -0.0235
 1261SOL    HW115416   2.842   2.890   7.115 -0.5711 -0.1873  1.9427
 1261SOL    HW215417   2.781   2.998   7.186  2.4844  3.0481 -0.2985
 1262SOL     OW15418   2.864   1.989   9.923  0.0807  0.0590  0.1337
 1262SOL    HW115419   2.905   2.054   9.981  1.0667 -1.5207  1.2108
 1262SOL    HW215420   2.781   2.032   9.906 -0.4780 -0.8349  0.6165
 1263SOL     OW15421   3.074   4.539   5.803  0.3178  0.3310 -0.3445
 1263SOL    HW115422   3.135   4.487   5.855  2.0674  1.6654 -1.0336
 1263SOL    HW215423   3.129   4.614   5.778  2.1638 -1.0836 -0.5368
 1264SOL     OW15424   0.703   3.356   8.500  0.0945  0.1334 -0.1652
 1264SOL    HW115425   0.758   3.434   8.495  1.9049 -1.3196 -2.8714
 1264SOL    HW215426   0.658   3.387   8.578 -1.3679 -0.5242 -0.7462
 1265SOL     OW15427   1.866   2.626   3.389  0.0295  0.4834 -0.1193
 1265SOL    HW115428   1.953   2.661   3.370  0.6169 -0.2712  1.2108
 1265SOL    HW215429   1.815   2.704   3.370  3.4564  2.7463  0.0046
 1266SOL     OW15430   2.721   2.008   5.370  0.0241  0.1813  0.7527
 1266SOL    HW115431   2.806   2.033   5.407 -0.9447  2.4776  1.3923
 1266SOL    HW215432   2.661   2.023   5.442 -1.3803 -2.3902  0.1081
 1267SOL     OW15433   4.180   0.657   6.262  0.1413  0.0636 -0.0659
 1267SOL    HW115434   4.093   0.675   6.227 -0.4038 -0.0419  1.2387
 1267SOL    HW215435   4.201   0.740   6.306 -1.4182  1.6764 -2.4107
 1268SOL     OW15436   0.677   0.098  14.338  0.0660  0.4234 -0.3900
 1268SOL    HW115437   0.632   0.057  14.412  1.9584 -1.1127 -0.0767
 1268SOL    HW215438   0.768   0.072  14.352  0.5141  1.8536 -0.6180
 1269SOL     OW15439   3.758   4.672   4.781 -0.3845  0.4148 -0.5545
 1269SOL    HW115440   3.774   4.693   4.689  1.6322 -0.6568 -0.4517
 1269SOL    HW215441   3.817   4.596   4.790 -1.3869 -0.4836 -1.5711
 1270SOL     OW15442   1.880   1.523  15.262 -0.1741  0.3285  0.1613
 1270SOL    HW115443   1.931   1.443  15.274  2.3434  2.1511  1.8159
 1270SOL    HW215444   1.946   1.593  15.267 -0.6386  0.8200 -0.5242
 1271SOL     OW15445   0.281   3.817   3.937  0.3691 -0.1836 -0.1985
 1271SOL    HW115446   0.289   3.725   3.961  0.1887 -0.2599 -0.4414
 1271SOL    HW215447   0.315   3.817   3.848  0.8472  0.6644 -0.0237
 1272SOL     OW15448   1.778   2.188   3.235  0.5805 -0.2037  0.5540
 1272SOL    HW115449   1.717   2.146   3.296 -4.1925  1.6325 -2.9095
 1272SOL    HW215450   1.857   2.151   3.274  0.7461  1.6276  1.9385
 1273SOL     OW15451   1.727   2.927   4.724 -0.3314 -0.0495 -0.0645
 1273SOL    HW115452   1.688   2.892   4.804  3.6998 -1.8187  1.1461
 1273SOL    HW215453   1.703   3.019   4.737 -3.1501 -0.5788 -1.5569
 1274SOL     OW15454   1.752   2.215  15.079  0.2152 -0.3059  0.4679
 1274SOL    HW115455   1.673   2.205  15.026  1.3933  0.7927 -1.4635
 1274SOL    HW215456   1.736   2.146  15.144  0.0613  1.5717  2.4163
 1275SOL     OW15457   0.053   3.822   5.030  0.4709  0.4184  0.2966
 1275SOL    HW115458   0.121   3.881   5.062  1.5752 -0.9166  0.4486
 1275SOL    HW215459   0.095   3.736   5.026 -1.3293 -0.4734  0.4748
 1276SOL     OW15460   0.019   3.982   3.481  0.2455  0.2507  0.6040
 1276SOL    HW115461   0.106   4.022   3.490  0.3852  0.0121  0.3416
 1276SOL    HW215462   0.041   3.899   3.438 -2.4891  1.2171 -2.6141
 1277SOL     OW15463   1.572   0.941   4.198 -0.4463 -0.1949  0.3038
 1277SOL    HW115464   1.551   1.032   4.221  0.7535  0.5060 -1.4389
 1277SOL    HW215465   1.498   0.915   4.144  0.2168  0.9195 -1.1214
 1278SOL     OW15466   3.981   1.354   4.743 -0.6539 -0.1033 -0.2202
 1278SOL    HW115467   3.932   1.291   4.795 -1.4404 -1.2134 -2.3075
 1278SOL    HW215468   3.951   1.322   4.658  1.8719  0.2888 -1.2523
 1279SOL     OW15469   1.630   3.733   7.807  0.2031  0.3740  0.0795
 1279SOL    HW115470   1.666   3.757   7.721  0.8174  1.0230  0.5223
 1279SOL    HW215471   1.634   3.637   7.813  0.3133  0.2694 -1.6717
 1280SOL     OW15472   0.708   0.347   3.233 -0.0468 -0.0756  0.0802
 1280SOL    HW115473   0.661   0.381   3.309  0.9042  1.7204 -0.1341
 1280SOL    HW215474   0.686   0.415   3.169  3.9196  0.4765 -0.6811
 1281SOL     OW15475   1.606   0.241  11.649 -0.5973 -0.1651 -0.0618
 1281SOL    HW115476   1.682   0.283  11.607 -0.1726 -0.6670  0.2122
 1281SOL    HW215477   1.581   0.316  11.703  0.9533 -0.1928  0.6779
 1282SOL     OW15478   1.388   2.758   7.940  0.1845 -0.5323  0.2977
 1282SOL    HW115479   1.311   2.815   7.933  1.3304  0.6906 -2.4539
 1282SOL    HW215480   1.418   2.802   8.020 -0.9865 -0.0264  0.4618
 1283SOL     OW15481   0.108   3.987  11.569 -0.1076  0.5788  0.2028
 1283SOL    HW115482   0.154   3.919  11.618 -0.2218 -0.6092 -1.3328
 1283SOL    HW215483   0.066   3.942  11.495 -1.8466 -0.7245  1.9712
 1284SOL     OW15484   4.304   4.085   6.203 -0.1669 -0.1169  0.7619
 1284SOL    HW115485   4.368   4.133   6.254  0.6068 -0.5346  0.1838
 1284SOL    HW215486   4.353   4.007   6.177 -0.8567  0.2186 -1.5881
 1285SOL     OW15487   3.716   1.357   8.069 -0.1425 -0.4547  0.1911
 1285SOL    HW115488   3.625   1.375   8.046 -0.2966  0.2256  1.2946
 1285SOL    HW215489   3.735   1.445   8.104  0.0269 -0.8685  1.1526
 1286SOL     OW15490   0.699   4.015  10.940  0.9029 -0.0063 -0.2153
 1286SOL    HW115491   0.633   4.074  10.975 -0.5232 -0.7259 -1.6888
 1286SOL    HW215492   0.656   3.964  10.871 -2.5115  1.8549  0.5864
 1287SOL     OW15493   4.252   4.229  16.385  0.4573  0.0869 -0.0248
 1287SOL    HW115494   4.227   4.293  16.318 -0.9125  0.1231  0.5136
 1287SOL    HW215495   4.174   4.224  16.439 -0.5610  1.3459 -1.3486
 1288SOL     OW15496   4.418   3.809   2.574 -0.1735  0.5076  0.3843
 1288SOL    HW115497   4.359   3.758   2.630  0.7907 -1.4707 -0.4272
 1288SOL    HW215498   4.370   3.802   2.492  0.8085 -2.4396  0.0519
 1289SOL     OW15499   1.798   3.435   0.128  0.0678 -0.1081 -0.0076
 1289SOL    HW115500   1.773   3.396   0.045  1.0287 -1.8038  0.5028
 1289SOL    HW215501   1.722   3.493   0.134  1.0882  1.6916 -4.0290
 1290SOL     OW15502   0.943   3.852   4.307  0.2322  0.0915  0.2300
 1290SOL    HW115503   0.967   3.764   4.279 -1.9236 -0.6328  0.7164
 1290SOL    HW215504   0.873   3.880   4.248  0.9068 -1.0775 -1.1358
 1291SOL     OW15505   1.095   2.030   5.140  0.0260  0.3000  0.0821
 1291SOL    HW115506   1.012   2.071   5.163 -0.6260 -1.1576  0.3274
 1291SOL    HW215507   1.078   1.938   5.161 -0.0091  0.5794  1.2637
 1292SOL     OW15508   3.411   2.855   1.228 -0.7994 -0.0012 -0.0290
 1292SOL    HW115509   3.396   2.797   1.154 -1.3774  2.1489 -1.5801
 1292SOL    HW215510   3.390   2.790   1.295  0.2506  0.0197  0.3308
 1293SOL     OW15511   1.387   0.067   4.553 -0.1169 -0.1931  0.1744
 1293SOL    HW115512   1.384   0.149   4.505 -1.1811  0.8546  2.0075
 1293SOL    HW215513   1.474   0.072   4.592  0.2109 -0.0489 -0.5928
 1294SOL     OW15514   2.265   0.642  15.380 -0.3588 -0.0776  0.3804
 1294SOL    HW115515   2.264   0.737  15.377  0.6840 -0.0904 -0.4941
 1294SOL    HW215516   2.223   0.626  15.464 -1.2154  1.8248  0.2913
 1295SOL     OW15517   0.320   1.953  11.918 -0.2302 -0.4405  0.1165
 1295SOL    HW115518   0.311   1.918  12.007  1.9663  2.9280  1.6612
 1295SOL    HW215519   0.404   1.996  11.936 -1.1246  1.7734 -0.9645
 1296SOL     OW15520   2.390   3.123   8.589  0.3129  0.1792  1.1529
 1296SOL    HW115521   2.367   3.215   8.604  0.2131  0.7588 -2.3951
 1296SOL    HW215522   2.396   3.122   8.493 -0.1216 -0.5234  1.1280
 1297SOL     OW15523   3.436   0.681   7.385  0.4170 -0.1524  0.3648
 1297SOL    HW115524   3.454   0.620   7.456 -0.2386 -1.8783 -0.9508
 1297SOL    HW215525   3.459   0.616   7.319 -0.9475  0.0088 -0.2727
 1298SOL     OW15526   1.986   3.805   7.109 -0.3018  0.3575  0.1062
 1298SOL    HW115527   1.986   3.805   7.013  0.2437 -1.9594  0.0962
 1298SOL    HW215528   2.075   3.772   7.125 -1.2768 -1.0338  2.6872
 1299SOL     OW15529   0.536   1.103  16.726 -0.2618  0.0090 -0.0825
 1299SOL    HW115530   0.530   1.196  16.702 -0.1185  0.1946  0.5991
 1299SOL    HW215531   0.582   1.088  16.809  0.5519  0.7475 -0.3920
 1300SOL     OW15532   1.101   0.636   6.327  0.3911  0.0231  0.7149
 1300SOL    HW115533   1.049   0.667   6.402  1.1212 -0.8818  1.6023
 1300SOL    HW215534   1.061   0.681   6.252 -3.4092  1.1303  3.3762
 1301SOL     OW15535   3.427   0.167   1.589 -0.8554 -0.1360  0.3212
 1301SOL    HW115536   3.419   0.072   1.578  1.9022 -0.3173 -0.1206
 1301SOL    HW215537   3.364   0.183   1.659 -2.3070  1.1538 -1.2980
 1302SOL     OW15538   1.445   3.107   3.744 -0.0240 -0.0158  0.0478
 1302SOL    HW115539   1.518   3.046   3.743  1.6461  2.0314 -1.9172
 1302SOL    HW215540   1.403   3.088   3.660  4.1478  0.5890 -2.1445
 1303SOL     OW15541   1.826   4.510   6.205 -0.2244  0.4709  0.0332
 1303SOL    HW115542   1.829   4.606   6.213  1.0198  0.4126  0.3772
 1303SOL    HW215543   1.859   4.479   6.290 -0.4008  1.2522  0.3864
 1304SOL     OW15544   4.239   1.286   4.856  0.0365 -0.4264  0.1048
 1304SOL    HW115545   4.191   1.317   4.933  0.5986  0.8594 -0.0739
 1304SOL    HW215546   4.214   1.354   4.794 -0.4926  1.1821  2.0933
 1305SOL     OW15547   2.357   0.737   9.493 -0.1269 -0.3941  0.0210
 1305SOL    HW115548   2.289   0.676   9.521 -0.1553  0.4338  1.7509
 1305SOL    HW215549   2.388   0.697   9.412  1.7064  1.0991 -0.0206
 1306SOL     OW15550   1.929   2.909   4.984 -0.2257 -0.2872  0.5648
 1306SOL    HW115551   1.861   2.845   5.008 -0.7348  0.4323  1.0366
 1306SOL    HW215552   1.988   2.898   5.058  0.3295 -0.8064  0.0390
 1307SOL     OW15553   3.624   3.286   6.417  0.2357  0.1223 -0.4274
 1307SOL    HW115554   3.649   3.371   6.455  1.0217 -1.4903  2.6606
 1307SOL    HW215555   3.707   3.239   6.418 -0.4123 -0.9904  0.5003
 1308SOL     OW15556   1.635   3.576   3.818  0.2822 -0.8291  0.0148
 1308SOL    HW115557   1.662   3.624   3.740  3.3239 -0.0807  1.5101
 1308SOL    HW215558   1.600   3.496   3.779 -0.5978 -0.3765 -0.1106
 1309SOL     OW15559   0.441   4.603   5.489  0.2177 -0.0418 -0.7701
 1309SOL    HW115560   0.466   4.663   5.560 -1.0733 -0.4673  0.0485
 1309SOL    HW215561   0.498   4.531   5.518 -1.7386 -1.6284 -0.8770
 1310SOL     OW15562   1.219   4.327  12.059  0.4086  0.2091  0.3009
 1310SOL    HW115563   1.191   4.419  12.055 -2.7729 -0.9273 -3.3007
 1310SOL    HW215564   1.257   4.321  11.971 -0.4861 -0.9162 -0.0126
 1311SOL     OW15565   3.521   0.187   2.599 -0.2147  0.1815 -0.2694
 1311SOL    HW115566   3.566   0.271   2.600  0.0981 -0.0090  0.8356
 1311SOL    HW215567   3.539   0.166   2.507 -0.9694  3.4781 -1.1420
 1312SOL     OW15568   0.358   3.560   3.673  0.2619 -0.7129 -0.5527
 1312SOL    HW115569   0.334   3.641   3.628  2.1024  0.2157  0.1132
 1312SOL    HW215570   0.291   3.499   3.645 -0.3537 -0.5113  0.4639
 1313SOL     OW15571   2.737   4.137   2.890 -0.0157 -0.1887 -0.9198
 1313SOL    HW115572   2.795   4.186   2.948 -0.0397 -1.1961 -0.0405
 1313SOL    HW215573   2.709   4.205   2.828  0.7976  1.1872  0.2209
 1314SOL     OW15574   0.823   1.982   4.384  0.3929  0.2171 -0.1175
 1314SOL    HW115575   0.819   2.046   4.455 -2.7371  1.1642 -1.1256
 1314SOL    HW215576   0.797   1.906   4.436 -1.0165  0.9019  0.1721
 1315SOL     OW15577   1.237   4.244   8.545  0.1654 -0.5523  0.4797
 1315SOL    HW115578   1.231   4.328   8.591 -3.6903 -0.6226  0.0728
 1315SOL    HW215579   1.200   4.188   8.613  2.9690 -0.0396  2.4426
 1316SOL     OW15580   2.412   3.462   8.260  0.2933  0.0720  0.1061
 1316SOL    HW115581   2.345   3.490   8.322 -2.9417 -2.6983 -2.1936
 1316SOL    HW215582   2.356   3.434   8.189 -2.6182  1.6739  1.7523
 1317SOL     OW15583   4.529   4.727   4.940  0.2789  0.0932  0.3124
 1317SOL    HW115584   4.457   4.700   4.997 -1.7037 -2.2994 -3.2664
 1317SOL    HW215585   4.492   0.071   4.905  2.4802  1.1244  0.4433
 1318SOL     OW15586   4.199   2.696   3.908 -0.3290 -0.0936 -0.0052
 1318SOL    HW115587   4.208   2.708   4.003  0.2650  1.4013 -0.2465
 1318SOL    HW215588   4.198   2.787   3.879 -1.3305 -0.7280 -1.9892
 1319SOL     OW15589   3.322   1.285   8.431  0.4043 -0.0212  0.2572
 1319SOL    HW115590   3.326   1.216   8.366  0.1528  1.6548 -1.5479
 1319SOL    HW215591   3.335   1.237   8.513 -2.3891  0.5493  1.0440
 1320SOL     OW15592   3.274   1.400   7.650  0.3059 -0.4807 -0.0711
 1320SOL    HW115593   3.304   1.343   7.579  1.1887 -2.5153  1.9518
 1320SOL    HW215594   3.294   1.334   7.715  1.0129  0.2912  0.4994
 1321SOL     OW15595   4.419   0.221   4.841 -0.5172  0.2675 -0.4934
 1321SOL    HW115596   4.410   0.313   4.816  0.8972  0.0487 -1.8473
 1321SOL    HW215597   4.365   0.181   4.772  0.6673  0.0209 -1.2805
 1322SOL     OW15598   2.745   0.531   7.393  0.2889 -0.5408 -0.0994
 1322SOL    HW115599   2.798   0.490   7.462  0.7172  1.1717  0.5877
 1322SOL    HW215600   2.727   0.616   7.432  1.6714 -0.6325  0.7464
 1323SOL     OW15601   3.593   4.678  10.217  0.0834  0.2375 -0.2315
 1323SOL    HW115602   3.605   4.584  10.204 -1.6784  0.0556 -0.4623
 1323SOL    HW215603   3.541   4.683  10.297  0.2083 -3.4638  0.0760
 1324SOL     OW15604   0.920   2.723   5.416  0.4435 -0.2365  0.0140
 1324SOL    HW115605   1.011   2.698   5.431  1.5174  2.8386 -1.4987
 1324SOL    HW215606   0.903   2.739   5.509  0.5703  2.7248 -0.4711
 1325SOL     OW15607   1.590   1.991   4.829  0.1744  0.2412  0.1942
 1325SOL    HW115608   1.559   1.912   4.873 -0.6928  1.0101  0.9659
 1325SOL    HW215609   1.570   2.059   4.893 -0.3976  0.7068 -0.4758
 1326SOL     OW15610   3.100   4.462   7.228  0.0108  0.4672 -0.2140
 1326SOL    HW115611   3.045   4.413   7.167 -0.3495 -1.2181  1.4727
 1326SOL    HW215612   3.060   4.549   7.227 -0.9094  0.0694  1.1274
 1327SOL     OW15613   2.657   1.785   3.257 -0.3181  0.0335 -0.1605
 1327SOL    HW115614   2.701   1.868   3.240 -0.3498  0.0376 -0.2237
 1327SOL    HW215615   2.626   1.760   3.170  1.2928  1.5862 -1.1886
 1328SOL     OW15616   1.575   4.346   7.117 -0.1580  0.0447 -0.7615
 1328SOL    HW115617   1.520   4.361   7.040 -2.5246 -1.3254  0.6351
 1328SOL    HW215618   1.591   4.251   7.110  0.2116  0.1655 -1.5625
 1329SOL     OW15619   0.895   1.382   9.529  0.0779 -0.3606  0.0765
 1329SOL    HW115620   0.854   1.461   9.564 -0.4822  0.1881 -1.8414
 1329SOL    HW215621   0.987   1.405   9.522 -0.2299  0.8971  0.1968
 1330SOL     OW15622   1.321   1.357   2.800 -0.3406  0.0274  0.1369
 1330SOL    HW115623   1.239   1.367   2.848 -1.5538 -1.6375 -1.5760
 1330SOL    HW215624   1.311   1.422   2.731  0.2571 -0.5382 -0.4957
 1331SOL     OW15625   4.046   2.465   8.221  0.1797  0.1046 -0.3693
 1331SOL    HW115626   4.116   2.529   8.232 -0.5436  0.8802 -0.2943
 1331SOL    HW215627   3.982   2.497   8.286  0.8043  1.4834 -0.4373
 1332SOL     OW15628   1.278   4.649  13.737  0.5082 -0.3708 -0.7334
 1332SOL    HW115629   1.274   4.645  13.641  2.3482 -0.5614 -0.7879
 1332SOL    HW215630   1.370   4.634  13.755 -0.0937 -1.6028  1.2399
 1333SOL     OW15631   2.720   1.826   3.529 -0.1959 -0.1860  0.3912
 1333SOL    HW115632   2.656   1.818   3.458 -0.8803  0.8907  0.8907
 1333SOL    HW215633   2.802   1.819   3.480  0.6945  2.0121  1.6015
 1334SOL     OW15634   1.706   4.458  13.965 -0.0774 -0.0200  0.2504
 1334SOL    HW115635   1.679   4.415  14.046  0.0107 -1.1208 -0.2996
 1334SOL    HW215636   1.719   4.376  13.916  0.5424  1.4479 -2.0164
 1335SOL     OW15637   0.607   1.722   5.961  0.8624  0.3605  0.1680
 1335SOL    HW115638   0.632   1.813   5.948 -0.4537  0.8756  1.2488
 1335SOL    HW215639   0.543   1.711   5.890  0.2033  2.4755  0.4390
 1336SOL     OW15640   1.508   3.779  15.665  0.2659 -0.3173  0.1814
 1336SOL    HW115641   1.440   3.741  15.721  0.2312 -1.6115 -0.7494
 1336SOL    HW215642   1.487   3.871  15.679  0.4811 -0.2391 -0.0153
 1337SOL     OW15643   0.534   3.529   8.228  0.3500  0.2377 -0.1164
 1337SOL    HW115644   0.540   3.576   8.144  1.1198  1.5781  0.6828
 1337SOL    HW215645   0.473   3.586   8.274 -0.2975 -0.0943 -0.5770
 1338SOL     OW15646   0.512   4.014  10.412  0.3700 -0.0933  0.9936
 1338SOL    HW115647   0.603   4.041  10.401  0.3390  0.6951  2.6686
 1338SOL    HW215648   0.519   3.952  10.339  1.0154 -1.9740  2.6698
 1339SOL     OW15649   0.614   0.112  11.568 -0.6400 -0.3985 -0.2321
 1339SOL    HW115650   0.594   0.022  11.595  1.5908 -1.1810 -1.2491
 1339SOL    HW215651   0.610   0.162  11.650 -0.9902 -2.1545  0.8178
 1340SOL     OW15652   2.764   0.567  15.175  0.4458  0.0228  0.4606
 1340SOL    HW115653   2.736   0.658  15.186  0.8007  0.1443  0.3592
 1340SOL    HW215654   2.856   0.558  15.200  0.2025 -2.2759  0.4687
 1341SOL     OW15655   3.388   1.181   9.531 -0.2206  0.3928 -0.9944
 1341SOL    HW115656   3.389   1.104   9.473 -2.8594 -1.2651  1.2055
 1341SOL    HW215657   3.447   1.149   9.599  0.5342  1.2798 -1.2160
 1342SOL     OW15658   4.307   0.112   6.029  0.1349  0.2888 -0.2802
 1342SOL    HW115659   4.232   0.089   5.974 -0.4572  2.7195 -0.4909
 1342SOL    HW215660   4.322   0.203   6.002  0.5587  1.5364  4.2327
 1343SOL     OW15661   4.337   4.597   7.731 -0.0540 -0.0814  0.0203
 1343SOL    HW115662   4.382   4.549   7.800  1.7176 -0.7985 -1.6400
 1343SOL    HW215663   4.385   4.563   7.655 -0.7238 -0.8542 -0.0583
 1344SOL     OW15664   0.265   3.199   3.796 -0.0032 -0.3705  0.3313
 1344SOL    HW115665   0.233   3.271   3.742  2.6440  0.5199 -0.0423
 1344SOL    HW215666   0.311   3.142   3.734  1.6475  0.3321  0.9204
 1345SOL     OW15667   0.796   1.093   1.989 -0.0123  0.0689 -0.1244
 1345SOL    HW115668   0.874   1.038   1.980 -0.8876 -0.9835 -1.1863
 1345SOL    HW215669   0.779   1.125   1.900 -2.3195  1.0010  0.6565
 1346SOL     OW15670   3.522   4.682   9.346 -0.2652  0.7189 -0.1293
 1346SOL    HW115671   3.460   4.609   9.341 -0.1427  0.6709 -1.0032
 1346SOL    HW215672   3.569   4.654   9.424 -1.1613 -2.6887 -0.8098
 1347SOL     OW15673   1.157   1.005   2.574  0.1992  0.4121  0.0316
 1347SOL    HW115674   1.134   0.912   2.577  0.6324  0.3264  0.7500
 1347SOL    HW215675   1.173   1.036   2.485 -0.8112 -0.3844 -0.4293
 1348SOL     OW15676   3.807   0.666   2.552  0.2871  0.0125 -0.1724
 1348SOL    HW115677   3.896   0.678   2.518 -0.1265  0.2733 -1.1780
 1348SOL    HW215678   3.761   0.732   2.501 -3.2370 -1.7540  0.6894
 1349SOL     OW15679   2.502   4.630   2.707 -0.4016  0.0529  0.3338
 1349SOL    HW115680   2.595   4.607   2.705 -0.4204  0.0548 -0.3208
 1349SOL    HW215681   2.509   4.681   2.626  1.2901 -1.4586 -0.4731
 1350SOL     OW15682   4.368   4.079   1.053 -0.2508 -0.1263  0.2630
 1350SOL    HW115683   4.451   4.060   1.009 -1.7683 -0.5970 -2.3939
 1350SOL    HW215684   4.329   3.995   1.028 -1.5717  1.2621 -2.4217
 1351SOL     OW15685   2.602   2.596   5.506  0.1223 -0.2971 -0.0542
 1351SOL    HW115686   2.660   2.655   5.553  1.0153 -1.8143  0.7512
 1351SOL    HW215687   2.666   2.531   5.479  1.5366  0.3592  1.7416
 1352SOL     OW15688   1.827   0.222   6.777  0.3894 -0.6477  0.4140
 1352SOL    HW115689   1.752   0.265   6.817  1.7093  1.2688  0.8646
 1352SOL    HW215690   1.893   0.204   6.844  0.7061 -1.3245 -0.0799
 1353SOL     OW15691   0.895   3.866  11.376  0.4002  0.0141  0.1310
 1353SOL    HW115692   0.892   3.864  11.280  0.1374  0.6525  0.1267
 1353SOL    HW215693   0.896   3.773  11.397  1.8220  0.3439  1.4724
 1354SOL     OW15694   2.363   3.117   3.772  0.4605  0.7313  0.3179
 1354SOL    HW115695   2.374   3.212   3.781  2.2256  0.4341  1.2093
 1354SOL    HW215696   2.267   3.119   3.775  0.5092 -0.7280  2.3838
 1355SOL     OW15697   3.744   3.528   6.523  0.4117 -0.3983 -0.4177
 1355SOL    HW115698   3.687   3.595   6.484  1.8892  1.9545  1.4949
 1355SOL    HW215699   3.818   3.584   6.546 -0.4595  0.3744  0.5357
 1356SOL     OW15700   0.092   2.808  10.369  0.1385 -0.2215  0.5402
 1356SOL    HW115701   0.026   2.857  10.320  1.0569  0.3108 -0.1574
 1356SOL    HW215702   0.137   2.768  10.294 -1.2427  4.3695 -2.7821
 1357SOL     OW15703   0.679   1.847   5.163 -0.4566  0.1406  0.2509
 1357SOL    HW115704   0.726   1.779   5.210  1.8975 -0.0875 -2.4704
 1357SOL    HW215705   0.723   1.924   5.198 -0.4535  0.2027  0.1112
 1358SOL     OW15706   0.663   1.419   0.093 -0.6994 -0.0850 -0.2171
 1358SOL    HW115707   0.666   1.333   0.050  1.2095 -0.9054  1.5892
 1358SOL    HW215708   0.568   1.430   0.099 -0.8566 -0.4240 -2.3049
 1359SOL     OW15709   2.320   2.253   7.871 -0.6429  0.4253  0.3270
 1359SOL    HW115710   2.300   2.292   7.786  0.7105  0.2488 -0.0761
 1359SOL    HW215711   2.270   2.172   7.868 -0.0005  0.0745 -0.9283
 1360SOL     OW15712   1.530   1.707   2.773  0.2276 -0.1756  0.4067
 1360SOL    HW115713   1.545   1.759   2.695  0.7742  0.3371  0.8522
 1360SOL    HW215714   1.454   1.654   2.749 -0.8345  0.0385  3.2213
 1361SOL     OW15715   0.847   1.191   4.541  0.3889 -0.2059 -0.4595
 1361SOL    HW115716   0.775   1.228   4.592  1.8164  0.9125  0.7553
 1361SOL    HW215717   0.795   1.143   4.476  0.8521 -2.9651  1.1707
 1362SOL     OW15718   3.742   3.529   4.355 -0.6323  0.5657 -0.4036
 1362SOL    HW115719   3.821   3.580   4.339  0.6691 -1.9213 -1.8026
 1362SOL    HW215720   3.712   3.562   4.440  2.3422 -0.1211  0.9001
 1363SOL     OW15721   4.354   4.201   7.778 -0.1625  0.3173  0.1559
 1363SOL    HW115722   4.391   4.124   7.735  0.8057 -0.8921  3.1432
 1363SOL    HW215723   4.259   4.202   7.769 -0.3294 -1.5949  1.7221
 1364SOL     OW15724   2.030   1.967  14.479  0.0470  0.4024 -0.1272
 1364SOL    HW115725   2.043   1.915  14.558 -0.2366  0.8451  0.2153
 1364SOL    HW215726   1.943   1.938  14.453  0.6435 -3.4530  2.2514
 1365SOL     OW15727   2.728   0.983   4.669 -0.3419 -0.1804  0.2973
 1365SOL    HW115728   2.773   1.048   4.722  1.7536 -0.5919 -0.9705
 1365SOL    HW215729   2.797   0.968   4.605 -2.0268  1.1759 -1.8427
 1366SOL     OW15730   3.242   2.706   7.160  0.1253 -0.1754 -0.5500
 1366SOL    HW115731   3.191   2.680   7.238  1.0690 -1.6352 -0.4271
 1366SOL    HW215732   3.190   2.661   7.094 -0.7438 -1.9761  1.3285
 1367SOL     OW15733   1.158   2.682   8.748 -0.0742 -0.3847  0.0156
 1367SOL    HW115734   1.174   2.713   8.659  0.4074 -1.0474 -0.1199
 1367SOL    HW215735   1.063   2.676   8.734 -0.1762  0.5290  0.2938
 1368SOL     OW15736   2.370   4.453   3.931  0.2647 -0.5855 -0.7405
 1368SOL    HW115737   2.302   4.501   3.885  0.7938 -0.4184 -1.3552
 1368SOL    HW215738   2.437   4.494   3.876 -0.0283 -1.7881 -1.9973
 1369SOL     OW15739   0.055   2.104   3.108  0.1318 -0.4019 -0.0181
 1369SOL    HW115740   4.700   2.082   3.104 -0.3286  1.2702  1.4989
 1369SOL    HW215741   0.073   2.071   3.197 -2.4841 -0.3603  0.5329
 1370SOL     OW15742   2.529   2.242   7.607 -0.1044 -0.0406 -0.3431
 1370SOL    HW115743   2.505   2.267   7.696 -0.5125  0.6629 -0.6477
 1370SOL    HW215744   2.477   2.305   7.558 -0.8682  1.5422  2.5070
 1371SOL     OW15745   3.519   2.710  12.556 -0.1372  0.0906 -0.1784
 1371SOL    HW115746   3.551   2.619  12.556  1.1745  0.5537  0.4897
 1371SOL    HW215747   3.495   2.717  12.463 -0.4198 -0.6423 -0.1616
 1372SOL     OW15748   1.511   1.499   8.238 -0.0022 -0.1324  0.3109
 1372SOL    HW115749   1.581   1.526   8.179 -0.2861  1.4914  0.7089
 1372SOL    HW215750   1.538   1.409   8.256 -0.8403 -0.5420 -0.4540
 1373SOL     OW15751   0.759   0.149   4.510 -0.3868 -0.2065 -0.0686
 1373SOL    HW115752   0.794   0.176   4.594 -0.6835  0.4781 -0.1632
 1373SOL    HW215753   0.670   0.125   4.535 -0.7047  1.6790  0.5425
 1374SOL     OW15754   1.439   4.043   7.384 -0.3656  0.1543  0.0159
 1374SOL    HW115755   1.433   4.121   7.329 -0.3009 -0.7666 -1.2816
 1374SOL    HW215756   1.496   4.072   7.456  0.6324  2.7364 -1.7685
 1375SOL     OW15757   0.480   3.966  10.676 -0.7159  0.7838  0.1227
 1375SOL    HW115758   0.510   3.875  10.671 -3.6763 -0.1089 -1.1449
 1375SOL    HW215759   0.501   3.994  10.587  0.8949 -1.0360 -0.0627
 1376SOL     OW15760   2.128   3.791   5.823  0.5926 -0.2684 -0.0814
 1376SOL    HW115761   2.122   3.877   5.782  1.2494 -0.5811 -0.8331
 1376SOL    HW215762   2.058   3.750   5.773 -0.2197 -0.3093  1.0852
 1377SOL     OW15763   1.623   1.736  16.474  0.0579  0.2009  0.2717
 1377SOL    HW115764   1.565   1.715  16.400 -0.1826 -0.5877  0.6937
 1377SOL    HW215765   1.700   1.704  16.426  0.0509 -2.1342  1.8422
 1378SOL     OW15766   2.251   4.255   4.918 -0.4195 -0.1642 -0.2619
 1378SOL    HW115767   2.215   4.253   4.829  1.6806 -1.7165 -1.0669
 1378SOL    HW215768   2.183   4.209   4.968 -0.9860  0.3927 -0.5299
 1379SOL     OW15769   1.479   3.759   3.423  0.2225 -0.4519  0.0027
 1379SOL    HW115770   1.401   3.721   3.463 -0.4891  0.8738 -0.1643
 1379SOL    HW215771   1.457   3.760   3.330 -1.4228  0.1737  0.3995
 1380SOL     OW15772   3.325   3.833   8.065 -0.2520 -0.1121 -0.2103
 1380SOL    HW115773   3.366   3.795   8.142  2.5062  1.0649 -1.0850
 1380SOL    HW215774   3.244   3.869   8.100  1.3480  3.4492 -0.1601
 1381SOL     OW15775   0.860   3.865  11.117  0.2300 -0.0822  0.7568
 1381SOL    HW115776   0.841   3.903  11.031  1.7074 -0.3712  0.2888
 1381SOL    HW215777   0.955   3.854  11.117  0.3474  1.1230  3.6193
 1382SOL     OW15778   4.395   1.740   7.954 -0.1200 -0.0207 -0.1403
 1382SOL    HW115779   4.470   1.681   7.945  0.5644  0.4662  2.2984
 1382SOL    HW215780   4.417   1.792   8.032 -0.3666 -0.9932  0.5674
 1383SOL     OW15781   3.199   4.683   0.368 -0.1220  0.1759 -0.4727
 1383SOL    HW115782   3.227   0.006   0.300 -1.6340  0.9114 -0.4281
 1383SOL    HW215783   3.147   0.011   0.414 -0.9273 -1.3673  0.8195
 1384SOL     OW15784   1.674   0.431  16.650 -0.1541 -1.1020 -0.1909
 1384SOL    HW115785   1.760   0.408  16.686 -0.7188 -0.9058  1.3102
 1384SOL    HW215786   1.630   0.485  16.717 -0.5032 -0.1225 -1.2169
 1385SOL     OW15787   1.597   1.462   5.196  0.0741  0.0570 -0.1512
 1385SOL    HW115788   1.620   1.530   5.133  0.3668  0.7708  0.7283
 1385SOL    HW215789   1.683   1.454   5.237 -0.4890  1.6753  1.3322
 1386SOL     OW15790   0.489   1.022   5.773 -0.6075  0.1515  0.1830
 1386SOL    HW115791   0.483   0.964   5.697  3.0500 -2.4726  1.8749
 1386SOL    HW215792   0.490   0.953   5.839  1.8266 -0.3578 -0.3704
 1387SOL     OW15793   3.834   0.323   8.367  0.1406  0.3302 -0.3931
 1387SOL    HW115794   3.866   0.234   8.379 -2.0570 -0.3932  0.0788
 1387SOL    HW215795   3.758   0.319   8.426  0.2059 -0.2611 -0.3517
 1388SOL     OW15796   4.490   0.757   6.179  0.4944  0.3205  1.0581
 1388SOL    HW115797   4.529   0.801   6.254 -0.6377  1.7122  0.8292
 1388SOL    HW215798   4.403   0.729   6.208  0.4377  0.5159  1.0754
 1389SOL     OW15799   4.047   1.546   7.618  0.2017 -0.1121 -0.3480
 1389SOL    HW115800   4.120   1.494   7.584  0.1195 -0.7409  0.4550
 1389SOL    HW215801   4.008   1.579   7.537 -2.6539 -1.4426  0.4991
 1390SOL     OW15802   4.671   1.958  12.107  0.2017  0.7270 -0.1766
 1390SOL    HW115803   4.719   2.035  12.137  0.2486 -0.4425  2.8493
 1390SOL    HW215804   4.581   1.990  12.102 -0.9109 -2.5995 -1.4653
 1391SOL     OW15805   2.774   0.078  11.755 -0.0891 -0.3791 -0.4997
 1391SOL    HW115806   2.804   0.144  11.817 -0.0122 -0.7148 -0.1773
 1391SOL    HW215807   2.836   0.088  11.684  1.6329 -3.6116  0.5242
 1392SOL     OW15808   0.945   4.438  13.265 -0.4767  0.3103  0.1986
 1392SOL    HW115809   0.917   4.529  13.261  0.2187  0.4445 -1.7965
 1392SOL    HW215810   0.936   4.424  13.359 -4.2104  0.9862 -0.0554
 1393SOL     OW15811   4.039   4.453   3.534 -0.0959  0.1271  0.0295
 1393SOL    HW115812   3.953   4.477   3.568  0.6374  0.1490  1.8230
 1393SOL    HW215813   4.015   4.403   3.456  0.7201 -0.2028 -0.0068
 1394SOL     OW15814   4.013   4.543   0.972 -0.3502 -0.0337 -0.0848
 1394SOL    HW115815   4.083   4.482   0.995 -1.6840 -1.1694  1.0180
 1394SOL    HW215816   4.054   4.574   0.892 -1.7665  0.7407 -0.5100
 1395SOL     OW15817   3.603   0.210   7.598  0.2020  0.3379 -0.4136
 1395SOL    HW115818   3.578   0.121   7.573 -2.8606  0.8638  0.8237
 1395SOL    HW215819   3.696   0.198   7.619 -0.1237 -1.7937 -0.1909
 1396SOL     OW15820   1.156   4.006   7.941 -0.1605 -0.4809  0.3187
 1396SOL    HW115821   1.202   3.993   8.024 -1.3915 -2.9080  0.5918
 1396SOL    HW215822   1.174   3.928   7.890 -2.0290 -1.5033  1.2431
 1397SOL     OW15823   0.530   0.527   6.990 -0.2287  0.4313  0.1276
 1397SOL    HW115824   0.578   0.452   6.954 -1.5423  0.4852 -1.7291
 1397SOL    HW215825   0.555   0.517   7.081 -1.1410  2.8730  0.6400
 1398SOL     OW15826   0.416   0.139   9.277 -0.2678 -0.4119 -0.6451
 1398SOL    HW115827   0.501   0.173   9.306 -0.2797 -0.9879  0.0716
 1398SOL    HW215828   0.371   0.205   9.225 -0.8209  0.2134  0.6207
 1399SOL     OW15829   2.629   1.729  14.483 -0.1174  0.1527  0.4387
 1399SOL    HW115830   2.661   1.816  14.507 -2.3340  1.1486 -0.3052
 1399SOL    HW215831   2.536   1.733  14.505 -0.4241  0.9808 -1.0171
 1400SOL     OW15832   0.188   4.207   6.646  0.2150  0.4640  0.1642
 1400SOL    HW115833   0.272   4.247   6.623  1.0183  0.3250  2.7657
 1400SOL    HW215834   0.179   4.233   6.738  3.4479 -0.2285  0.7105
 1401SOL     OW15835   4.036   2.368   8.962  0.1415  0.3393 -0.3936
 1401SOL    HW115836   4.115   2.406   8.925  0.5124 -1.0315 -0.9854
 1401SOL    HW215837   4.005   2.431   9.027 -1.4580  0.1198 -0.9188
 1402SOL     OW15838   4.412   4.065   4.070  0.3971 -0.0317 -0.3897
 1402SOL    HW115839   4.503   4.056   4.100  0.1490  3.3069  1.2536
 1402SOL    HW215840   4.381   3.974   4.065  1.9027 -0.5952  0.4895
 1403SOL     OW15841   2.159   2.744  14.011  0.4627 -0.2830 -0.9587
 1403SOL    HW115842   2.073   2.784  14.028 -0.0177 -1.5196 -0.5107
 1403SOL    HW215843   2.171   2.775  13.921 -0.9363  1.4120 -0.5856
 1404SOL     OW15844   2.914   2.204   7.927  0.7114  0.1826  0.1613
 1404SOL    HW115845   2.874   2.237   7.846 -0.0644 -0.2613  0.3649
 1404SOL    HW215846   2.916   2.111   7.907 -1.9358  0.2105 -0.2229
 1405SOL     OW15847   3.188   4.202   6.856  0.0586  0.6115  0.0208
 1405SOL    HW115848   3.185   4.268   6.787  1.6409 -0.0674 -0.7135
 1405SOL    HW215849   3.115   4.237   6.907 -1.4341 -0.5960 -1.2682
 1406SOL     OW15850   4.555   2.702   7.807 -0.0356 -0.3561 -0.0223
 1406SOL    HW115851   4.492   2.733   7.872  2.4276  0.2511  2.0826
 1406SOL    HW215852   4.628   2.755   7.839 -0.6890  0.1552  0.6055
 1407SOL     OW15853   4.200   0.377  11.676 -0.0490 -0.5672 -0.0378
 1407SOL    HW115854   4.221   0.397  11.767  1.3514 -1.7519 -0.1076
 1407SOL    HW215855   4.128   0.315  11.685 -0.2387 -0.3799 -0.2554
 1408SOL     OW15856   3.348   4.089  13.632  0.5384 -0.0159  0.9133
 1408SOL    HW115857   3.367   4.057  13.720  1.3247  2.6275  1.7215
 1408SOL    HW215858   3.267   4.134  13.656  0.2946  0.5028 -0.8839
 1409SOL     OW15859   1.581   0.375   5.191 -0.1028  0.1010 -0.2093
 1409SOL    HW115860   1.545   0.406   5.107  1.3020 -1.5633 -1.4327
 1409SOL    HW215861   1.590   0.280   5.176  1.6751  0.0991  1.0035
 1410SOL     OW15862   1.062   3.694   1.493 -0.0541 -0.2247 -0.0986
 1410SOL    HW115863   1.052   3.650   1.409 -0.6195 -1.1687  0.4662
 1410SOL    HW215864   0.986   3.665   1.544  1.3500 -1.6926  1.1599
 1411SOL     OW15865   0.082   4.033   0.669 -0.7439  0.1298 -0.4067
 1411SOL    HW115866   0.144   4.070   0.606  1.2284  1.1349  2.1789
 1411SOL    HW215867   0.131   3.958   0.700  3.1836  3.0057  0.3073
 1412SOL     OW15868   4.436   3.414   3.740  0.0580  0.3994  0.2334
 1412SOL    HW115869   4.518   3.410   3.788  0.1480 -0.2550  0.0301
 1412SOL    HW215870   4.410   3.505   3.757  0.2343  0.2532  1.2738
 1413SOL     OW15871   4.272   1.483   7.964 -0.0597 -0.7445 -0.0383
 1413SOL    HW115872   4.255   1.567   8.006  0.0542  0.6136 -2.7397
 1413SOL    HW215873   4.350   1.446   8.006  1.6816  0.2565 -2.3842
 1414SOL     OW15874   4.175   3.301   5.884  0.1713 -0.3948  0.4650
 1414SOL    HW115875   4.199   3.226   5.831 -0.0048 -0.5110  0.5515
 1414SOL    HW215876   4.121   3.254   5.948 -0.1200 -0.8555 -0.1299
 1415SOL     OW15877   3.331   0.766   4.106 -0.8001  0.1175 -0.2663
 1415SOL    HW115878   3.256   0.824   4.121  1.0596  1.9024  2.1301
 1415SOL    HW215879   3.400   0.832   4.111 -2.1802  1.3857  1.8897
 1416SOL     OW15880   3.214   3.370   4.731  0.1955  0.1032 -0.3303
 1416SOL    HW115881   3.146   3.418   4.780  0.7165  1.4438 -0.9089
 1416SOL    HW215882   3.252   3.310   4.795  0.4692  2.4655  1.7173
 1417SOL     OW15883   1.103   2.441   5.053  0.1915 -0.4776 -0.0067
 1417SOL    HW115884   1.130   2.447   5.145 -0.3453 -0.0514  0.1213
 1417SOL    HW215885   1.132   2.352   5.030  0.9586 -0.2098 -0.0563
 1418SOL     OW15886   3.723   2.041  13.257  0.3005  0.8568  0.4587
 1418SOL    HW115887   3.771   2.112  13.213  1.2279  0.6455  1.1331
 1418SOL    HW215888   3.716   1.969  13.193 -1.7955  0.2114  1.4261
 1419SOL     OW15889   1.459   1.417  17.097 -0.2646  0.9126 -0.8241
 1419SOL    HW115890   1.520   1.434  17.169  0.1243 -1.5575 -0.5520
 1419SOL    HW215891   1.375   1.425  17.143 -0.3778 -2.0550 -0.4597
 1420SOL     OW15892   1.196   3.349   0.328 -0.2096  0.0290  0.0060
 1420SOL    HW115893   1.184   3.356   0.422  0.8469 -1.2372  0.2279
 1420SOL    HW215894   1.108   3.347   0.289 -1.2644  3.8655  2.2259
 1421SOL     OW15895   1.122   3.859   5.493 -0.3804  0.3610 -0.1943
 1421SOL    HW115896   1.057   3.915   5.452 -2.1967 -1.9225 -0.4401
 1421SOL    HW215897   1.072   3.779   5.511  1.7201 -1.0570 -0.6251
 1422SOL     OW15898   2.266   2.152  15.057 -0.2558  0.4500 -0.1682
 1422SOL    HW115899   2.282   2.161  14.964 -2.2293  1.7329 -0.3930
 1422SOL    HW215900   2.353   2.130  15.088 -0.5199 -0.0775  0.2026
 1423SOL     OW15901   4.062   2.703   7.067 -0.2650 -0.3045 -0.0623
 1423SOL    HW115902   3.995   2.748   7.118 -0.0146  2.9161 -2.5693
 1423SOL    HW215903   4.133   2.723   7.129 -0.9703  1.0038  0.3407
 1424SOL     OW15904   0.437   3.029  11.372 -0.1668  0.3025  0.7892
 1424SOL    HW115905   0.466   3.109  11.327 -0.0099  0.1095  0.5433
 1424SOL    HW215906   0.345   3.035  11.345  0.0140 -0.5891 -0.0451
 1425SOL     OW15907   4.103   0.602   5.106  0.1438  0.0554 -0.3717
 1425SOL    HW115908   4.016   0.639   5.090 -0.0282 -0.5717 -0.8837
 1425SOL    HW215909   4.143   0.676   5.151 -0.0720 -1.8697  3.0502
 1426SOL     OW15910   1.833   0.783   8.753  0.0446  0.5481 -0.1793
 1426SOL    HW115911   1.916   0.750   8.789  0.2400 -0.7333 -1.8369
 1426SOL    HW215912   1.860   0.874   8.737  1.5003  0.2786  0.7148
 1427SOL     OW15913   0.112   4.738   8.781 -0.1176 -0.2419  0.3406
 1427SOL    HW115914   0.028   4.692   8.783 -0.0041 -0.4736 -0.4552
 1427SOL    HW215915   0.163   4.698   8.852  1.8351 -1.7285 -1.8814
 1428SOL     OW15916   0.137   0.668   8.573 -0.0975  0.0712  0.1012
 1428SOL    HW115917   0.051   0.667   8.532  0.2550 -3.7408 -0.5771
 1428SOL    HW215918   0.196   0.649   8.500 -0.7777 -0.3040 -0.3509
 1429SOL     OW15919   1.394   1.787   5.615 -0.1205  0.5663  0.1530
 1429SOL    HW115920   1.435   1.796   5.701  2.8946 -0.8738 -1.1478
 1429SOL    HW215921   1.469   1.754   5.566  0.0873  0.3470  0.6268
 1430SOL     OW15922   3.479   0.184   5.615 -0.1362  0.0846 -0.1402
 1430SOL    HW115923   3.567   0.163   5.647 -0.9930 -0.4429  1.8982
 1430SOL    HW215924   3.454   0.118   5.550 -0.0560  1.0015 -1.1042
 1431SOL     OW15925   0.940   4.625   4.933  0.0756  0.1495 -0.4671
 1431SOL    HW115926   0.996   4.552   4.907  2.0495  1.2329  0.8203
 1431SOL    HW215927   0.989   4.669   5.002  0.7514 -0.9873 -0.2181
 1432SOL     OW15928   2.991   0.817   4.117  0.1365 -0.0409  0.0327
 1432SOL    HW115929   2.929   0.763   4.166  0.3688  1.2971  1.8210
 1432SOL    HW215930   2.987   0.788   4.026  0.9435 -0.4968  0.1418
 1433SOL     OW15931   3.042   3.065   9.605 -0.4883  0.2777  0.3123
 1433SOL    HW115932   3.020   3.158   9.602 -0.4665  0.2837  0.3439
 1433SOL    HW215933   3.085   3.056   9.520 -0.0231  2.5607  0.3076
 1434SOL     OW15934   0.811   2.183   7.933  0.2348  0.2314 -0.0720
 1434SOL    HW115935   0.808   2.108   7.993  2.6526  1.6914  1.8581
 1434SOL    HW215936   0.738   2.162   7.874  1.0939 -2.1137 -0.3265
 1435SOL     OW15937   0.704   3.868  17.531  0.0158 -0.2398 -0.2572
 1435SOL    HW115938   0.753   3.911  17.602 -1.3846 -0.5158  0.8973
 1435SOL    HW215939   0.736   3.914  17.454  0.3373 -0.8502 -0.4842
 1436SOL     OW15940   1.090   4.678  16.931 -0.4911 -0.4022  0.5105
 1436SOL    HW115941   1.157   4.710  16.992 -0.7796  0.7980  0.1875
 1436SOL    HW215942   1.117   4.587  16.917 -1.6403 -0.5072 -0.9821
 1437SOL     OW15943   2.684   1.671  14.184  0.6147 -0.0932  0.2736
 1437SOL    HW115944   2.629   1.594  14.172 -1.3757  0.9721  2.5285
 1437SOL    HW215945   2.664   1.699  14.273  0.4537  1.1264 -0.1400
 1438SOL     OW15946   2.306   1.232   6.161 -0.3985  0.3627 -0.4208
 1438SOL    HW115947   2.246   1.185   6.104 -0.3259 -2.2633  1.6672
 1438SOL    HW215948   2.391   1.216   6.120  0.0397 -2.8857  1.7496
 1439SOL     OW15949   4.388   3.755   7.445  0.3867  0.0297  0.3104
 1439SOL    HW115950   4.480   3.739   7.468  0.6419 -0.6385 -1.1635
 1439SOL    HW215951   4.356   3.814   7.514 -0.8546 -0.6230  0.2934
 1440SOL     OW15952   4.298   0.525  17.127  0.1363  0.8271  0.0879
 1440SOL    HW115953   4.333   0.451  17.077 -0.4034  1.2918 -0.9682
 1440SOL    HW215954   4.374   0.546  17.181 -0.4381  3.2306 -0.0755
 1441SOL     OW15955   2.556   3.234  13.892 -0.3651  0.8216  0.1878
 1441SOL    HW115956   2.520   3.210  13.806  0.2810  3.9368 -0.9557
 1441SOL    HW215957   2.617   3.161  13.894  0.3010  1.3810  0.0679
 1442SOL     OW15958   1.927   0.950  10.881  0.2485  0.1483  0.0909
 1442SOL    HW115959   1.973   1.021  10.837 -0.4646  0.3985 -0.2541
 1442SOL    HW215960   2.000   0.902  10.920 -0.1230 -1.0061 -0.6117
 1443SOL     OW15961   4.110   2.612   3.394  0.7074  0.1275 -0.1936
 1443SOL    HW115962   4.180   2.642   3.337 -0.0779  0.1684 -1.1224
 1443SOL    HW215963   4.092   2.691   3.445 -1.8023  0.0172 -0.9149
 1444SOL     OW15964   3.993   2.825   6.619 -0.2133 -0.2384  0.1034
 1444SOL    HW115965   4.074   2.821   6.569 -1.5105 -1.6020 -1.8775
 1444SOL    HW215966   4.018   2.756   6.680 -0.8873  0.0543  0.7138
 1445SOL     OW15967   0.248   0.379   2.166 -0.5697  0.0348  0.3262
 1445SOL    HW115968   0.239   0.467   2.201  1.3851  0.3250  0.0983
 1445SOL    HW215969   0.174   0.335   2.209 -1.6271 -0.7950 -2.3493
 1446SOL     OW15970   3.806   2.581   6.537 -0.1075 -0.3220  0.2735
 1446SOL    HW115971   3.832   2.581   6.629 -0.8003  0.4797  0.4740
 1446SOL    HW215972   3.812   2.676   6.524 -0.5050 -0.3867 -0.3872
 1447SOL     OW15973   1.379   0.975  16.872  0.1870 -0.0256 -0.2597
 1447SOL    HW115974   1.422   1.058  16.894  0.7371 -0.5005  0.4294
 1447SOL    HW215975   1.426   0.943  16.795 -1.8433  2.3216 -2.4960
 1448SOL     OW15976   1.455   3.625   4.982  0.5560 -0.8601 -0.0689
 1448SOL    HW115977   1.467   3.717   5.004 -3.0944  0.0071 -1.5369
 1448SOL    HW215978   1.458   3.638   4.887  0.1476  1.1774  0.1978
 1449SOL     OW15979   2.798   1.725   7.734  0.0365  0.0174  0.0880
 1449SOL    HW115980   2.734   1.751   7.668  0.4356 -1.9346 -1.0469
 1449SOL    HW215981   2.867   1.789   7.715  0.2056  0.5752  2.6387
 1450SOL     OW15982   2.211   1.598   3.187  0.0570 -0.9767 -0.3259
 1450SOL    HW115983   2.277   1.609   3.256 -0.7956 -1.0594  0.4977
 1450SOL    HW215984   2.173   1.514   3.210  1.4239 -2.2620 -2.7490
 1451SOL     OW15985   1.371   0.583   6.329 -0.0162  0.9023  0.3830
 1451SOL    HW115986   1.279   0.602   6.345 -0.0429  0.5911  0.5957
 1451SOL    HW215987   1.412   0.666   6.354 -0.0120  1.5726 -1.8491
 1452SOL     OW15988   4.010   0.969   3.412  0.2396 -0.7687  0.1779
 1452SOL    HW115989   4.106   0.972   3.414  0.2593 -0.9727 -0.2781
 1452SOL    HW215990   4.008   1.046   3.356 -1.8004 -0.5018  0.6127
 1453SOL     OW15991   0.562   2.526   5.848 -0.3591  0.0954 -0.2250
 1453SOL    HW115992   0.617   2.595   5.813  1.3042 -0.3966  1.4293
 1453SOL    HW215993   0.585   2.544   5.939 -0.9148 -1.4764  0.2448
 1454SOL     OW15994   0.496   4.362   7.734  0.1388  0.0680 -0.6796
 1454SOL    HW115995   0.457   4.448   7.750 -0.0974 -0.0874 -0.4236
 1454SOL    HW215996   0.547   4.343   7.813 -1.2044  1.4749  0.5370
 1455SOL     OW15997   3.207   1.351   9.137  0.0200 -0.7131 -0.1007
 1455SOL    HW115998   3.271   1.404   9.089  0.3077 -0.0278  1.0486
 1455SOL    HW215999   3.226   1.379   9.226  0.2530  0.4761 -0.5231
 1456SOL     OW16000   0.528   0.030  11.301 -0.2615  0.6894  0.4445
 1456SOL    HW116001   0.555   0.104  11.246 -2.1847 -0.2749 -1.7958
 1456SOL    HW216002   0.568   0.060  11.383 -0.0949 -0.1502  0.6679
 1457SOL     OW16003   3.562   0.737   9.598 -0.6004 -0.5273  0.1935
 1457SOL    HW116004   3.535   0.710   9.510  0.3752  0.0034 -0.2677
 1457SOL    HW216005   3.652   0.704   9.602 -0.6936 -0.7753  0.2856
 1458SOL     OW16006   0.384   0.232  11.947  0.0467 -0.2121 -0.0943
 1458SOL    HW116007   0.377   0.205  11.856  0.0394  0.2576 -0.2340
 1458SOL    HW216008   0.444   0.305  11.956 -0.8721  0.3645  1.5049
 1459SOL     OW16009   2.250   1.521   4.983 -0.3767  0.4740 -0.3160
 1459SOL    HW116010   2.277   1.501   5.072 -1.8877 -1.1068 -0.2113
 1459SOL    HW216011   2.234   1.437   4.939  1.3087 -0.7805  1.4831
 1460SOL     OW16012   2.691   3.316   5.324  0.6385  0.5897  0.1729
 1460SOL    HW116013   2.678   3.385   5.389 -0.6980 -0.6349  1.1925
 1460SOL    HW216014   2.686   3.370   5.245 -1.1296  1.6911  1.0448
 1461SOL     OW16015   2.645   0.637  12.415 -0.1923 -0.1399  0.0794
 1461SOL    HW116016   2.583   0.709  12.430 -3.8478 -3.1904 -0.2805
 1461SOL    HW216017   2.695   0.652  12.335 -0.0949  3.4887  0.8247
 1462SOL     OW16018   1.136   1.894   4.776 -0.7398 -0.5149  0.1881
 1462SOL    HW116019   1.070   1.961   4.794  1.2865  1.1043  1.5540
 1462SOL    HW216020   1.196   1.944   4.720 -2.3071  0.7971 -0.3406
 1463SOL     OW16021   2.304   3.779   4.589 -0.8992 -0.3353  0.0745
 1463SOL    HW116022   2.331   3.838   4.520 -1.2870  0.7200  0.8250
 1463SOL    HW216023   2.269   3.701   4.545 -1.9179  0.0100  0.2810
 1464SOL     OW16024   1.498   3.625   4.733  0.2561 -0.5584 -0.4644
 1464SOL    HW116025   1.585   3.632   4.693  0.0088  2.5361 -0.4828
 1464SOL    HW216026   1.459   3.564   4.670 -1.8714  0.5642 -0.2511
 1465SOL     OW16027   3.844   2.827   7.712  0.0935  0.0074 -0.3982
 1465SOL    HW116028   3.865   2.769   7.639 -1.6857 -1.7064  0.4508
 1465SOL    HW216029   3.748   2.832   7.712  0.0488 -0.8381  0.1109
 1466SOL     OW16030   2.126   3.965  17.715 -0.2555 -0.6867 -0.0662
 1466SOL    HW116031   2.198   3.939   0.022  0.7324  1.5746 -0.2899
 1466SOL    HW216032   2.101   3.886  17.667 -1.1263  1.2511 -2.8665
 1467SOL     OW16033   3.435   2.294   4.760  0.0137  0.0200 -0.0566
 1467SOL    HW116034   3.449   2.242   4.681 -1.7414 -0.1903 -0.2343
 1467SOL    HW216035   3.420   2.221   4.821 -0.0391 -0.8988 -1.1817
 1468SOL     OW16036   0.515   0.434  11.671  0.3465  0.1319 -0.0735
 1468SOL    HW116037   0.436   0.397  11.711 -0.3705  2.9229  1.0976
 1468SOL    HW216038   0.496   0.434  11.577  1.4183 -0.9042 -0.2771
 1469SOL     OW16039   2.066   0.912  16.087  0.0797 -0.0724  1.1857
 1469SOL    HW116040   2.066   0.874  16.175 -0.2424 -2.6938  0.0569
 1469SOL    HW216041   2.048   1.003  16.111 -3.0339 -0.4263  0.1585
 1470SOL     OW16042   2.285   4.001   1.546  1.0039  0.1302  0.0598
 1470SOL    HW116043   2.224   3.931   1.570 -0.0751  1.5203  1.2746
 1470SOL    HW216044   2.251   4.019   1.458  1.5930 -1.2567 -0.4565
 1471SOL     OW16045   0.886   4.017   4.650 -0.0351  0.3970  0.2253
 1471SOL    HW116046   0.934   4.040   4.570 -2.0385  2.1242 -0.4757
 1471SOL    HW216047   0.833   3.945   4.616 -1.8940  1.5867  0.6107
 1472SOL     OW16048   4.259   0.260  12.388 -0.1126 -0.1436 -0.1012
 1472SOL    HW116049   4.166   0.263  12.363 -0.2147 -0.1171  0.2800
 1472SOL    HW216050   4.286   0.177  12.348  1.2979 -0.4444  1.4833
 1473SOL     OW16051   3.568   1.465   2.238 -0.1211  0.4669  0.1863
 1473SOL    HW116052   3.598   1.556   2.241  1.9934 -0.2467  0.7666
 1473SOL    HW216053   3.482   1.481   2.277 -0.5449  0.3966 -0.7242
 1474SOL     OW16054   2.786   3.012  17.747  0.2244  0.9216 -0.4621
 1474SOL    HW116055   2.711   3.005  17.689  1.0979 -3.3973 -1.0947
 1474SOL    HW216056   2.745   3.055   0.072 -2.7884  0.4790 -1.8977
 1475SOL     OW16057   0.907   4.001   7.016 -0.2064 -0.3553 -0.4232
 1475SOL    HW116058   0.893   4.073   6.954 -2.1388 -1.4720 -1.2932
 1475SOL    HW216059   0.878   3.920   6.973  1.1567 -0.1842 -1.6616
 1476SOL     OW16060   2.513   2.283  15.816 -0.0872  0.2385 -0.4503
 1476SOL    HW116061   2.539   2.196  15.786 -0.4301  0.2950 -0.9094
 1476SOL    HW216062   2.453   2.313  15.749 -0.1410 -0.2284 -0.6133
 1477SOL     OW16063   4.144   4.010  10.015  0.9312 -1.1322 -0.3794
 1477SOL    HW116064   4.226   3.964   9.997  0.4331 -1.7222 -1.1529
 1477SOL    HW216065   4.172   4.077   9.953 -0.1111 -0.2550  0.0863
 1478SOL     OW16066   0.037   2.727   7.961 -0.4130 -0.5625 -0.1288
 1478SOL    HW116067   4.736   2.648   7.997 -0.1914 -0.2948  0.6957
 1478SOL    HW216068   0.048   2.785   8.037  0.6581 -1.1695  0.1796
 1479SOL     OW16069   3.255   3.543   9.603  0.2534 -0.2103  0.2090
 1479SOL    HW116070   3.183   3.598   9.573  0.6920  0.0194 -0.4133
 1479SOL    HW216071   3.240   3.465   9.550 -2.1237 -1.4566  2.6934
 1480SOL     OW16072   4.215   2.480   4.207  0.1054 -0.2708  0.4265
 1480SOL    HW116073   4.250   2.532   4.135  1.0751 -0.1474  0.9824
 1480SOL    HW216074   4.256   2.395   4.189  0.3794  0.1487 -0.9675
 1481SOL     OW16075   4.408   1.961  15.696 -0.2186  0.1295  0.2379
 1481SOL    HW116076   4.496   1.942  15.663 -0.8658  0.7867 -1.8427
 1481SOL    HW216077   4.385   1.884  15.747  0.5439 -0.9026 -0.9943
 1482SOL     OW16078   3.581   3.951   5.952  0.3103  0.3101  0.3735
 1482SOL    HW116079   3.589   3.974   5.860  2.5035  2.5826  1.1179
 1482SOL    HW216080   3.652   4.010   5.979  1.0751 -0.5218  0.1386
 1483SOL     OW16081   2.411   1.949   9.023  0.3748  0.2199  0.6227
 1483SOL    HW116082   2.394   1.931   8.931 -1.4394 -1.3709  1.2663
 1483SOL    HW216083   2.506   1.945   9.014  0.4641 -0.5545  1.8866
 1484SOL     OW16084   1.981   2.980   2.144  0.8964 -0.4921 -0.7909
 1484SOL    HW116085   1.894   3.001   2.178  0.9866 -1.5586  0.1061
 1484SOL    HW216086   2.023   3.066   2.143  0.5832 -0.3258  1.4173
 1485SOL     OW16087   4.324   2.788   7.967 -0.5274  0.4292 -0.1715
 1485SOL    HW116088   4.351   2.878   7.985  2.0873  0.0993 -2.2822
 1485SOL    HW216089   4.236   2.813   7.941 -0.7533  1.6425  1.8088
 1486SOL     OW16090   0.299   1.563   7.623 -0.3301 -0.0135 -0.5085
 1486SOL    HW116091   0.205   1.561   7.639  0.0212  0.3751  1.5739
 1486SOL    HW216092   0.329   1.472   7.630 -1.2625 -0.1215  2.0365
 1487SOL     OW16093   2.259   4.158   9.002 -0.1372 -0.0001  0.1172
 1487SOL    HW116094   2.178   4.120   8.967  0.2428  0.1126 -0.8748
 1487SOL    HW216095   2.317   4.083   9.013 -1.0085 -0.8273 -0.9610
 1488SOL     OW16096   1.662   3.484  17.232  0.1151  0.1239 -0.2426
 1488SOL    HW116097   1.611   3.562  17.254 -0.6265  0.0131 -1.5461
 1488SOL    HW216098   1.587   3.426  17.219 -0.0057 -0.0129  1.0399
 1489SOL     OW16099   2.948   4.643   6.975 -0.4214  0.1057  0.1425
 1489SOL    HW116100   2.908   4.691   7.048  0.2753 -2.0350  1.9237
 1489SOL    HW216101   3.023   4.703   6.971 -0.9190  0.7871  0.9092
 1490SOL     OW16102   2.127   3.845   1.700 -0.4321 -0.2122 -0.3893
 1490SOL    HW116103   2.206   3.794   1.714 -1.3004 -1.6061 -0.5083
 1490SOL    HW216104   2.121   3.899   1.779  1.2982 -1.6279  0.7033
 1491SOL     OW16105   4.039   0.603   0.545 -0.3002  0.3107  0.7591
 1491SOL    HW116106   3.947   0.602   0.520 -0.1521 -2.2860  0.2732
 1491SOL    HW216107   4.028   0.582   0.637  0.6154  0.3302  0.8744
 1492SOL     OW16108   3.777   1.991   5.453 -0.1704  0.4846  0.4651
 1492SOL    HW116109   3.819   2.069   5.490  2.8765 -1.9749  2.1592
 1492SOL    HW216110   3.847   1.942   5.411 -0.0213 -0.9207  2.3444
 1493SOL     OW16111   3.863   0.199   7.731 -0.2966  0.2889  0.4646
 1493SOL    HW116112   3.887   0.113   7.764  1.8216  1.7317  2.7167
 1493SOL    HW216113   3.817   0.243   7.803  0.0565  1.2232  0.1278
 1494SOL     OW16114   1.849   0.398  11.041  0.7183  0.3406 -0.2934
 1494SOL    HW116115   1.778   0.386  11.104  2.4687 -0.2886  1.5707
 1494SOL    HW216116   1.838   0.324  10.981 -0.2857  0.3675 -0.1419
 1495SOL     OW16117   2.549   3.959   8.427 -0.3534  0.9512  0.3868
 1495SOL    HW116118   2.590   4.046   8.431 -0.8077  1.2568 -1.8262
 1495SOL    HW216119   2.456   3.979   8.437 -0.6044  0.2585 -0.6123
 1496SOL     OW16120   1.955   3.617  16.322  0.1297 -0.2452  0.3275
 1496SOL    HW116121   1.869   3.595  16.287 -1.1074  1.5634  2.2651
 1496SOL    HW216122   1.952   3.713  16.323 -0.0612 -0.2726  1.9650
 1497SOL     OW16123   0.545   0.355  10.692  0.2069  0.1649 -0.3634
 1497SOL    HW116124   0.636   0.359  10.724  0.1086  2.3334 -0.3715
 1497SOL    HW216125   0.507   0.435  10.728 -1.5869 -1.4728  1.3406
 1498SOL     OW16126   3.056   1.776   2.743  0.5346 -0.3810 -0.0337
 1498SOL    HW116127   3.149   1.798   2.733  0.4705  0.3988  1.1242
 1498SOL    HW216128   3.026   1.867   2.744 -0.2876 -0.6560  0.1577
 1499SOL     OW16129   2.750   2.310   5.925 -0.8079  0.8141  0.0636
 1499SOL    HW116130   2.702   2.254   5.864 -1.4466  0.9654  0.4209
 1499SOL    HW216131   2.809   2.241   5.957  0.2683  0.7743 -1.9882
 1500SOL     OW16132   2.066   2.381   7.645  0.3014  0.2615 -0.0281
 1500SOL    HW116133   2.073   2.368   7.551  2.5425  0.7898  0.0698
 1500SOL    HW216134   2.057   2.292   7.681 -0.4784 -0.3634 -1.7667
 1501SOL     OW16135   3.835   1.405  11.864  0.0206  0.1930  0.1035
 1501SOL    HW116136   3.794   1.425  11.949 -2.9300 -1.2243 -0.9564
 1501SOL    HW216137   3.752   1.381  11.822 -0.6013 -1.3104  2.1932
 1502SOL     OW16138   0.134   3.086   4.869 -0.1740  0.4181  0.3807
 1502SOL    HW116139   0.046   3.059   4.843  0.0871  0.3815 -0.4744
 1502SOL    HW216140   0.178   3.078   4.784  0.2143 -1.5396  0.7425
 1503SOL     OW16141   3.342   3.590   4.397 -0.0365  0.4675 -0.0967
 1503SOL    HW116142   3.408   3.557   4.336 -0.6425 -0.1012 -0.4402
 1503SOL    HW216143   3.279   3.519   4.389 -1.4440  1.6393  0.6091
 1504SOL     OW16144   4.456   3.679   3.839  0.3630 -0.7346 -0.2953
 1504SOL    HW116145   4.449   3.749   3.904  1.3691  0.8461 -1.8750
 1504SOL    HW216146   4.490   3.730   3.765  1.8866 -0.4621  0.5998
 1505SOL     OW16147   4.690   0.496   1.144 -0.6251  0.0734 -0.2664
 1505SOL    HW116148   0.028   0.496   1.202 -0.2090 -0.5854 -0.7978
 1505SOL    HW216149   4.710   0.559   1.074 -0.7012  0.8229  0.3881
 1506SOL     OW16150   3.983   4.205   4.811 -0.1349  0.7165  1.0411
 1506SOL    HW116151   4.003   4.145   4.740  2.0149  1.6085  0.8982
 1506SOL    HW216152   4.060   4.200   4.868 -1.0717  0.0983  2.2671
 1507SOL     OW16153   4.272   4.260   0.442 -0.0300  0.1827  0.1737
 1507SOL    HW116154   4.197   4.314   0.418  1.9671  1.9564 -2.0343
 1507SOL    HW216155   4.252   4.177   0.398 -1.3322  0.8400 -0.4686
 1508SOL     OW16156   3.800   0.501   5.580  0.0973  0.4643  0.3373
 1508SOL    HW116157   3.787   0.406   5.579 -1.0383  0.6246 -0.3209
 1508SOL    HW216158   3.710   0.533   5.581 -0.1843 -0.1971 -2.5546
 1509SOL     OW16159   2.992   4.197   5.723 -0.6649  0.1293 -0.0856
 1509SOL    HW116160   3.034   4.276   5.688 -0.0486  0.2325  0.8872
 1509SOL    HW216161   3.049   4.125   5.696 -1.0505  0.7515 -2.5403
 1510SOL     OW16162   0.598   2.053   9.658 -0.3542  0.2707  0.0041
 1510SOL    HW116163   0.675   2.000   9.680  0.5001  1.6584  0.3560
 1510SOL    HW216164   0.532   1.986   9.677  0.9918 -0.7221  1.2171
 1511SOL     OW16165   4.285   4.193   9.881 -1.1086  0.1925 -0.2716
 1511SOL    HW116166   4.314   4.275   9.841 -1.6785 -0.0780 -1.2400
 1511SOL    HW216167   4.372   4.158   9.896  0.8215  5.8546  1.8303
 1512SOL     OW16168   3.616   1.613  17.378  0.0023  0.4208  0.2087
 1512SOL    HW116169   3.664   1.693  17.356  0.6892 -0.7081 -2.4025
 1512SOL    HW216170   3.542   1.653  17.425  0.6485  0.3674  1.2624
 1513SOL     OW16171   2.281   1.317   2.435  0.2636 -0.0605  0.2343
 1513SOL    HW116172   2.325   1.239   2.402 -0.3090 -0.1305 -0.3425
 1513SOL    HW216173   2.360   1.351   2.477  0.6560  0.3091 -0.7963
 1514SOL     OW16174   2.294   2.532  12.078  0.0488  0.0625 -0.0841
 1514SOL    HW116175   2.375   2.503  12.120 -0.3899 -0.4822  0.3820
 1514SOL    HW216176   2.243   2.451  12.087  1.2651 -0.5561  1.2428
 1515SOL     OW16177   2.351   1.842   2.151  0.2892  0.3675  0.4217
 1515SOL    HW116178   2.340   1.783   2.076  5.4477  0.9767 -0.8385
 1515SOL    HW216179   2.295   1.913   2.121  1.8192  1.4442  0.1048
 1516SOL     OW16180   0.121   3.030   8.429  0.3185 -0.3084 -0.5351
 1516SOL    HW116181   0.179   2.955   8.439 -1.9896 -2.2941 -1.9845
 1516SOL    HW216182   0.048   2.985   8.473 -0.5440 -1.0798 -2.7481
 1517SOL     OW16183   4.260   1.457  13.924  0.5413 -0.0152  0.0878
 1517SOL    HW116184   4.238   1.400  13.997 -2.4646 -0.8661 -1.4953
 1517SOL    HW216185   4.355   1.466  13.932  0.7424 -1.9579 -0.2565
 1518SOL     OW16186   3.744   0.031  13.822 -0.0914  0.0709 -0.6399
 1518SOL    HW116187   3.815   0.084  13.857  0.4319 -3.0278  2.9751
 1518SOL    HW216188   3.769   4.726  13.740 -0.2125  0.1091 -0.6981
 1519SOL     OW16189   4.698   3.018   7.433 -0.2758 -0.1060  0.2952
 1519SOL    HW116190   4.720   2.954   7.502  2.6579  2.0270  1.3279
 1519SOL    HW216191   4.607   2.994   7.417 -0.4856  1.1165 -0.3517
 1520SOL     OW16192   3.127   1.596   8.492 -0.4184  0.3826 -0.1002
 1520SOL    HW116193   3.204   1.570   8.543  1.0018 -0.4293 -2.6587
 1520SOL    HW216194   3.150   1.586   8.400 -3.5197 -0.6962 -0.7799
 1521SOL     OW16195   2.889   3.277   2.090  0.3925  0.2775  0.2971
 1521SOL    HW116196   2.832   3.200   2.100 -1.4849  1.6689  0.2848
 1521SOL    HW216197   2.885   3.315   2.178  0.6104  0.1879  0.3464
 1522SOL     OW16198   3.560   2.164   4.539  0.5309  0.5771 -0.4279
 1522SOL    HW116199   3.645   2.142   4.499  1.1451 -1.6398  2.1096
 1522SOL    HW216200   3.546   2.079   4.579  0.6876  0.2077 -1.1572
 1523SOL     OW16201   2.202   3.959   7.452 -0.3890  0.3290  0.0801
 1523SOL    HW116202   2.185   3.890   7.516  0.8566  0.0133  0.0811
 1523SOL    HW216203   2.119   3.966   7.405  1.4675  1.4434 -3.0245
 1524SOL     OW16204   4.720   1.018  13.799 -0.4302 -0.7581  0.2811
 1524SOL    HW116205   4.709   0.923  13.799  0.2883 -0.8395  0.0610
 1524SOL    HW216206   4.628   1.040  13.784 -0.2310 -0.4219 -0.4397
 1525SOL     OW16207   1.338   4.633  16.298  0.1403 -0.4644  0.2201
 1525SOL    HW116208   1.281   4.709  16.290  0.0089 -0.6509 -0.6453
 1525SOL    HW216209   1.406   4.650  16.233 -0.1987 -0.0375 -0.0183
 1526SOL     OW16210   2.190   1.749  12.142 -0.4073 -0.2861 -0.0811
 1526SOL    HW116211   2.258   1.723  12.080 -0.5681 -0.9764  0.0379
 1526SOL    HW216212   2.197   1.692  12.218 -1.1121 -1.6540 -1.0543
 1527SOL     OW16213   4.029   1.272  11.327  0.6130  0.6833 -0.2593
 1527SOL    HW116214   4.048   1.210  11.397  0.8161 -0.4266 -1.3012
 1527SOL    HW216215   4.083   1.341  11.365  0.2902  1.7880 -1.7996
 1528SOL     OW16216   3.368   3.435   2.226 -0.1489 -0.2868  0.1213
 1528SOL    HW116217   3.307   3.361   2.235 -0.2737 -0.6206 -3.3049
 1528SOL    HW216218   3.437   3.388   2.179 -1.1498 -0.9597 -0.6726
 1529SOL     OW16219   3.220   1.485   3.808  0.0095 -0.8067 -0.1615
 1529SOL    HW116220   3.307   1.492   3.847 -1.3249 -0.2906  2.7217
 1529SOL    HW216221   3.173   1.413   3.851 -0.6109 -0.0794  0.3957
 1530SOL     OW16222   4.617   3.460   2.025 -0.1436 -0.7780 -0.2003
 1530SOL    HW116223   4.682   3.482   1.958 -0.1318 -0.8365 -0.2083
 1530SOL    HW216224   4.585   3.549   2.031  0.5967 -0.3188 -3.0033
 1531SOL     OW16225   0.176   0.558  13.789 -0.8066 -0.2573  0.7403
 1531SOL    HW116226   0.101   0.617  13.785  0.4051  1.4569  3.1548
 1531SOL    HW216227   0.138   0.481  13.746  0.5505 -1.2492  1.3150
 1532SOL     OW16228   2.235   4.017  13.448  0.5489  0.1262 -0.2230
 1532SOL    HW116229   2.305   4.071  13.484  0.6003 -0.6629  0.8727
 1532SOL    HW216230   2.285   3.955  13.395  0.8484  1.4354 -1.4807
 1533SOL     OW16231   2.538   3.708  15.138  0.0362  0.2406 -0.4950
 1533SOL    HW116232   2.617   3.746  15.101  1.4710 -1.0298  1.2570
 1533SOL    HW216233   2.522   3.778  15.202  1.8287 -1.1977  1.4970
 1534SOL     OW16234   1.848   0.425   6.582  0.4362 -0.1037 -0.2442
 1534SOL    HW116235   1.920   0.377   6.542  1.1845  0.0210  0.9708
 1534SOL    HW216236   1.839   0.405   6.675  0.2297 -0.4938 -0.3481
 1535SOL     OW16237   1.555   1.101   2.548  0.0982  0.2988  0.5618
 1535SOL    HW116238   1.608   1.124   2.625  0.1905  1.9924 -0.0056
 1535SOL    HW216239   1.487   1.168   2.550 -0.4319 -0.2341  0.4204
 1536SOL     OW16240   0.125   4.504   5.701  0.1410  0.3219  0.2246
 1536SOL    HW116241   0.133   4.591   5.739 -5.0948  0.5684  0.8139
 1536SOL    HW216242   0.053   4.468   5.753 -0.6558 -0.6520 -1.5355
 1537SOL     OW16243   0.894   0.337   8.164  0.2935  0.0813  0.1832
 1537SOL    HW116244   0.935   0.421   8.147 -0.6334  0.0064 -2.4109
 1537SOL    HW216245   0.872   0.336   8.257 -0.3778 -1.0524  0.0203
 1538SOL     OW16246   1.019   3.487   6.594  0.4463 -0.5037  0.4152
 1538SOL    HW116247   1.101   3.473   6.642  0.5056 -2.2170 -0.1838
 1538SOL    HW216248   1.017   3.582   6.592  0.7168 -0.5290 -1.1588
 1539SOL     OW16249   3.723   1.447   5.413 -0.0690 -0.3788  0.0615
 1539SOL    HW116250   3.753   1.500   5.487 -1.6778 -1.7592  1.7038
 1539SOL    HW216251   3.773   1.368   5.435 -0.6470 -0.7823 -0.0587
 1540SOL     OW16252   0.527   0.408   3.632  0.8825  0.0771 -0.0836
 1540SOL    HW116253   0.534   0.363   3.717  0.4265 -1.1529 -0.6956
 1540SOL    HW216254   0.466   0.344   3.596 -1.1767  0.2390  3.0477
 1541SOL     OW16255   2.138   4.303   2.909 -0.1454 -0.2634 -0.0804
 1541SOL    HW116256   2.158   4.390   2.945 -2.9660  0.0185  0.7826
 1541SOL    HW216257   2.077   4.268   2.974 -0.9467 -0.2367 -0.8330
 1542SOL     OW16258   0.679   2.184   0.163 -0.0366  0.2530 -0.0265
 1542SOL    HW116259   0.587   2.193   0.136 -0.0547  0.4897  0.1201
 1542SOL    HW216260   0.661   2.154   0.252  0.6179 -1.2667 -0.4078
 1543SOL     OW16261   3.516   0.881  12.540  0.1981 -0.0291  0.1335
 1543SOL    HW116262   3.477   0.887  12.453  0.0966  2.3135  0.3416
 1543SOL    HW216263   3.595   0.828  12.533 -0.1394 -0.3409 -1.2549
 1544SOL     OW16264   0.748   1.863   3.696  0.5164  0.0370  0.4857
 1544SOL    HW116265   0.678   1.801   3.716  2.1692 -1.8620  0.4117
 1544SOL    HW216266   0.708   1.910   3.623  1.4738  2.8757  1.7973
 1545SOL     OW16267   2.803   2.772  14.314 -0.2268  0.3456  0.2001
 1545SOL    HW116268   2.897   2.775  14.296  0.1068  2.1915  2.3159
 1545SOL    HW216269   2.764   2.792  14.229 -0.6134  1.0135  0.5349
 1546SOL     OW16270   2.763   4.523   8.552 -0.9562  0.1028  0.1171
 1546SOL    HW116271   2.814   4.470   8.490 -1.0814  0.8018 -0.5709
 1546SOL    HW216272   2.818   4.540   8.629 -1.4093  1.9048  0.0418
 1547SOL     OW16273   3.039   0.808   3.142 -0.2285 -0.5329 -0.0662
 1547SOL    HW116274   3.108   0.853   3.093  2.0343 -0.3977  3.2195
 1547SOL    HW216275   2.991   0.764   3.071 -1.1228 -0.5517  0.5463
 1548SOL     OW16276   3.279   1.435   6.434  0.9172  0.0787 -0.4525
 1548SOL    HW116277   3.289   1.484   6.515 -0.4207 -0.6532  0.1632
 1548SOL    HW216278   3.229   1.499   6.383 -1.2695 -0.0464  1.5460
 1549SOL     OW16279   1.568   4.041   3.414  0.2563 -0.3830  0.4152
 1549SOL    HW116280   1.535   3.951   3.423 -0.1110 -0.5295 -2.5004
 1549SOL    HW216281   1.490   4.085   3.379 -0.1186  0.1014  1.8331
 1550SOL     OW16282   0.106   1.926   2.026  0.2738 -0.2634  0.1178
 1550SOL    HW116283   0.029   1.946   1.972  1.4959 -0.5324 -1.7115
 1550SOL    HW216284   0.072   1.939   2.115 -2.1102  0.4038 -0.8992
 1551SOL     OW16285   4.473   1.432   5.225  0.2024  0.0790 -0.5190
 1551SOL    HW116286   4.403   1.374   5.253 -1.5314  1.3515 -2.1643
 1551SOL    HW216287   4.532   1.357   5.218  0.4746  0.3566 -1.1996
 1552SOL     OW16288   1.682   2.530   5.851  0.5337 -0.1816 -0.5895
 1552SOL    HW116289   1.702   2.521   5.944  1.8000 -1.1746 -0.9617
 1552SOL    HW216290   1.724   2.449   5.820  1.3336  0.3721 -0.9305
 1553SOL     OW16291   1.257   0.459   8.428 -0.1147 -0.4067  0.1925
 1553SOL    HW116292   1.322   0.500   8.371  0.3506 -0.8951  0.3721
 1553SOL    HW216293   1.285   0.368   8.421 -1.0798 -0.6503 -0.4658
 1554SOL     OW16294   3.460   1.191   7.747 -0.4159  0.1027 -0.4600
 1554SOL    HW116295   3.500   1.170   7.662 -0.6933  1.0968 -0.8384
 1554SOL    HW216296   3.535   1.245   7.772 -1.5663  0.3901  2.3372
 1555SOL     OW16297   3.061   2.808  12.127  0.0956  0.0856 -0.5991
 1555SOL    HW116298   3.099   2.895  12.114  1.6209 -0.5832 -0.5209
 1555SOL    HW216299   2.989   2.821  12.189  1.3854  0.6364  0.7636
 1556SOL     OW16300   3.280   3.341  12.136  0.0940 -0.6365 -0.2065
 1556SOL    HW116301   3.297   3.419  12.083 -4.4052  0.6516  0.2723
 1556SOL    HW216302   3.202   3.365  12.185  0.5423  1.2457 -0.4087
 1557SOL     OW16303   1.258   0.125   5.983  0.1051 -0.4296 -0.2090
 1557SOL    HW116304   1.343   0.101   6.021 -0.6535 -0.3425  1.5403
 1557SOL    HW216305   1.273   0.090   5.895 -1.4042 -1.9228  0.1288
 1558SOL     OW16306   0.129   2.256   2.187 -0.1073  0.1359 -0.0536
 1558SOL    HW116307   0.127   2.352   2.186 -2.1388  0.1075  2.1220
 1558SOL    HW216308   0.057   2.246   2.249  1.2959  1.3230  1.7652
 1559SOL     OW16309   0.779   1.580   0.280 -0.3402  0.3250 -0.0334
 1559SOL    HW116310   0.784   1.511   0.213 -2.1711 -1.5346  1.7263
 1559SOL    HW216311   0.745   1.659   0.239  2.3835 -0.1993 -3.3136
 1560SOL     OW16312   0.843   1.862  15.289 -0.1822 -0.0974  0.7680
 1560SOL    HW116313   0.867   1.802  15.359 -3.4951  0.5778  2.4770
 1560SOL    HW216314   0.757   1.888  15.323 -1.2116 -0.2472 -1.6973
 1561SOL     OW16315   0.972   1.550   0.939 -0.2340  1.0138 -0.6225
 1561SOL    HW116316   0.896   1.572   0.992  0.8330 -1.0046  1.7722
 1561SOL    HW216317   0.973   1.624   0.879  0.0706  2.2672  0.9176
 1562SOL     OW16318   4.446   3.186   8.308 -0.2402  0.0958  0.2856
 1562SOL    HW116319   4.463   3.263   8.255 -0.5627 -0.5193 -0.7017
 1562SOL    HW216320   4.351   3.195   8.311 -0.2436  0.1432 -0.0262
 1563SOL     OW16321   2.073   3.047   9.220  0.5643  0.2657  0.0367
 1563SOL    HW116322   2.073   3.077   9.310 -0.6989 -0.0999  0.1578
 1563SOL    HW216323   2.167   3.033   9.205  0.4543 -1.6496  1.1461
 1564SOL     OW16324   3.724   1.557   4.661  0.3955 -0.0623 -0.0383
 1564SOL    HW116325   3.735   1.590   4.751  0.0596  1.7241 -0.6520
 1564SOL    HW216326   3.702   1.468   4.687 -0.0407  0.0072 -0.1608
 1565SOL     OW16327   0.522   1.512  11.433  0.0082 -0.0163  0.1315
 1565SOL    HW116328   0.532   1.448  11.504 -0.9501 -1.1700 -0.7730
 1565SOL    HW216329   0.535   1.591  11.486  1.7278 -0.2354  0.0517
 1566SOL     OW16330   4.157   1.040   7.599 -0.2289 -0.1323 -0.2218
 1566SOL    HW116331   4.151   1.069   7.508 -2.5836  1.1544  0.3425
 1566SOL    HW216332   4.186   1.120   7.643  0.0908  1.2092 -2.8673
 1567SOL     OW16333   0.771   2.359   9.235 -0.4366 -0.2035 -0.5235
 1567SOL    HW116334   0.827   2.343   9.312  0.5091  0.9857 -0.9610
 1567SOL    HW216335   0.821   2.311   9.169  0.1004 -0.2444 -0.1002
 1568SOL     OW16336   2.638   3.416   2.860  0.6343  0.5694 -0.3641
 1568SOL    HW116337   2.729   3.406   2.887  0.5335  1.7025  0.3518
 1568SOL    HW216338   2.644   3.471   2.782  0.7420 -1.1869 -1.6118
 1569SOL     OW16339   1.108   0.332   2.908  0.1792 -0.3592 -0.0839
 1569SOL    HW116340   1.013   0.337   2.901  0.3065  2.3417  0.1739
 1569SOL    HW216341   1.126   0.363   2.996 -1.6623  0.7189 -0.0818
 1570SOL     OW16342   2.037   2.640   2.345  0.3343  0.1180  0.4098
 1570SOL    HW116343   2.062   2.726   2.312 -2.1720  0.2131 -1.2289
 1570SOL    HW216344   2.116   2.625   2.397  0.5102  1.9700  0.6517
 1571SOL     OW16345   3.992   1.507   4.372 -0.2771  0.0161 -0.0808
 1571SOL    HW116346   4.065   1.530   4.316  0.7902  0.2721  1.4095
 1571SOL    HW216347   4.003   1.414   4.392  0.2560 -0.0831 -0.8323
 1572SOL     OW16348   1.043   0.080   2.407  0.0846  0.7354  0.1853
 1572SOL    HW116349   1.089   4.734   2.400  2.7603  2.2482 -0.2772
 1572SOL    HW216350   1.031   0.081   2.502 -0.5835 -0.5240  0.1100
 1573SOL     OW16351   3.498   1.883  17.210  0.6327 -0.9209  0.2294
 1573SOL    HW116352   3.413   1.842  17.196  0.0293  0.6100 -0.6495
 1573SOL    HW216353   3.542   1.833  17.141 -1.2973  0.8221 -2.2620
 1574SOL     OW16354   1.079   4.370   5.674  0.3034  0.1430  0.0732
 1574SOL    HW116355   1.096   4.380   5.581 -1.0465  2.0608  0.0225
 1574SOL    HW216356   1.153   4.400   5.727  0.3406  2.6342 -1.3882
 1575SOL     OW16357   1.359   3.891  17.460 -0.5518 -0.2389  0.7351
 1575SOL    HW116358   1.355   3.971  17.512 -0.1729  1.2060 -1.4511
 1575SOL    HW216359   1.448   3.905  17.427 -0.8361 -1.6455 -0.6500
 1576SOL     OW16360   1.659   0.366   5.458  0.4377  0.2722 -0.4872
 1576SOL    HW116361   1.617   0.392   5.376 -0.3725  2.1374  0.5135
 1576SOL    HW216362   1.752   0.358   5.436 -0.2191  1.2170 -3.5076
 1577SOL     OW16363   2.016   1.190   7.338  0.2730  1.0276 -0.8370
 1577SOL    HW116364   2.022   1.107   7.386 -0.1484  1.8267  0.5976
 1577SOL    HW216365   2.051   1.249   7.405  2.3743 -1.3311  0.1686
 1578SOL     OW16366   1.750   2.818  15.578  0.1696 -0.2903 -0.0777
 1578SOL    HW116367   1.806   2.770  15.640  0.3495  2.0457  1.5921
 1578SOL    HW216368   1.770   2.776  15.495  1.4000  0.6852 -0.2661
 1579SOL     OW16369   1.907   2.811   1.457  0.3201  0.0489  0.1355
 1579SOL    HW116370   1.983   2.868   1.452  0.8906 -0.7274  0.0305
 1579SOL    HW216371   1.953   2.736   1.495 -1.4499 -0.7373  0.7476
 1580SOL     OW16372   0.431   0.659  13.772  0.1605  0.8603  0.3566
 1580SOL    HW116373   0.350   0.608  13.771  1.1914 -0.7460 -2.1014
 1580SOL    HW216374   0.384   0.740  13.793 -0.4266  0.9803 -1.4363
 1581SOL     OW16375   2.123   4.197   7.689  0.2790  0.1518 -0.3604
 1581SOL    HW116376   2.140   4.290   7.705  1.7728 -0.6092  2.5911
 1581SOL    HW216377   2.193   4.177   7.627 -0.8782  0.6547 -1.8235
 1582SOL     OW16378   3.829   4.604   9.336  0.2150 -0.3021  0.1478
 1582SOL    HW116379   3.917   4.572   9.314 -0.0654 -1.3020  0.4633
 1582SOL    HW216380   3.849   4.658   9.412  1.0427 -2.6711  1.6329
 1583SOL     OW16381   0.223   4.214   9.648  0.0262  0.4806 -0.2632
 1583SOL    HW116382   0.139   4.188   9.687  1.1864 -1.0882  1.1686
 1583SOL    HW216383   0.194   4.259   9.569 -0.5630 -0.0969 -0.3759
 1584SOL     OW16384   0.948   0.081   4.330 -0.1606 -0.3705 -0.6948
 1584SOL    HW116385   0.986   0.014   4.388 -0.5324  0.9559  1.0824
 1584SOL    HW216386   0.880   0.115   4.388 -0.6190 -2.3255 -0.0793
 1585SOL     OW16387   1.057   3.204   2.603  0.0288  0.5324 -0.2625
 1585SOL    HW116388   1.071   3.270   2.671 -2.4079  0.2316  0.5213
 1585SOL    HW216389   1.040   3.248   2.520  2.1379  1.7855 -0.0295
 1586SOL     OW16390   4.451   4.307   2.724 -0.1378 -0.0099 -0.2293
 1586SOL    HW116391   4.357   4.291   2.714  0.0059 -0.6829 -0.5434
 1586SOL    HW216392   4.490   4.219   2.725  0.2203  0.1289 -1.3699
 1587SOL     OW16393   1.684   0.101   5.913 -0.1867 -0.3442 -0.2498
 1587SOL    HW116394   1.620   0.112   5.842 -1.2183 -0.7949  0.6139
 1587SOL    HW216395   1.631   0.049   5.974  0.3673  1.3351  1.6577
 1588SOL     OW16396   3.820   0.260   2.286 -0.1627 -0.0408  0.5172
 1588SOL    HW116397   3.837   0.301   2.371 -2.6988  0.3436  0.8443
 1588SOL    HW216398   3.901   0.217   2.261  0.3967  0.8216  0.8446
 1589SOL     OW16399   2.032   4.380  12.733 -0.0443 -0.7061  0.1133
 1589SOL    HW116400   2.062   4.451  12.675 -1.2411 -1.0686 -0.9481
 1589SOL    HW216401   1.947   4.360  12.695 -0.8042  0.5577  1.1359
 1590SOL     OW16402   4.655   0.069   5.174 -0.4322 -0.4894 -0.4017
 1590SOL    HW116403   4.604   0.052   5.095 -0.5285 -1.5642 -0.1163
 1590SOL    HW216404   4.652   0.164   5.170  0.9727 -0.4065  0.6168
 1591SOL     OW16405   3.506   1.545   8.987  0.2588  0.2480  0.1950
 1591SOL    HW116406   3.439   1.608   9.014 -2.3215 -1.4982 -2.1444
 1591SOL    HW216407   3.552   1.599   8.922 -2.0830 -2.6632 -3.8684
 1592SOL     OW16408   3.420   3.186   9.853 -0.0852  0.5572 -0.2605
 1592SOL    HW116409   3.384   3.127   9.919 -0.0259  1.3490  0.4755
 1592SOL    HW216410   3.510   3.157   9.842 -0.5271 -0.4767 -1.2516
 1593SOL     OW16411   0.777   1.427   9.253  0.2454  0.7682 -0.0967
 1593SOL    HW116412   0.812   1.452   9.339 -0.1087  2.7376 -0.5314
 1593SOL    HW216413   0.697   1.378   9.272  0.0380  1.9391  2.0258
 1594SOL     OW16414   3.611   3.458  11.923 -0.1577 -0.3253 -0.1459
 1594SOL    HW116415   3.546   3.492  11.985 -0.2365  0.6035 -0.7307
 1594SOL    HW216416   3.593   3.365  11.933  0.8369 -0.7525 -2.3783
 1595SOL     OW16417   2.900   0.792  14.977  0.2906 -0.1469 -0.0884
 1595SOL    HW116418   2.971   0.727  14.971  0.3523 -0.0924  0.0529
 1595SOL    HW216419   2.881   0.802  14.883  0.0250  1.3672  0.1204
 1596SOL     OW16420   2.053   1.431   3.530  0.0031 -0.3547  0.2608
 1596SOL    HW116421   2.100   1.414   3.448  0.1837 -1.1605  0.5376
 1596SOL    HW216422   2.115   1.482   3.583 -0.3115  0.1735  0.1179
 1597SOL     OW16423   1.575   4.407  16.585 -0.1152  0.1399 -0.0886
 1597SOL    HW116424   1.516   4.395  16.660  1.3436  0.1416  1.0699
 1597SOL    HW216425   1.556   4.500  16.575 -0.3826  0.3176  1.9083
 1598SOL     OW16426   0.870   1.000  11.760 -0.3265 -0.2367  0.4751
 1598SOL    HW116427   0.850   0.946  11.836 -2.4543  1.5075  1.1581
 1598SOL    HW216428   0.909   1.081  11.794 -0.0318  0.4197 -1.3837
 1599SOL     OW16429   2.002   4.531   5.592 -0.3054 -0.1773 -0.4382
 1599SOL    HW116430   1.953   4.527   5.510 -0.2440  2.0996 -0.5728
 1599SOL    HW216431   1.954   4.465   5.642 -1.8269 -0.5691 -2.4564
 1600SOL     OW16432   0.660   3.072   7.374  0.1349  0.0852 -0.2198
 1600SOL    HW116433   0.671   3.016   7.298  0.8866 -0.7784  0.5323
 1600SOL    HW216434   0.571   3.040   7.393  0.3105  0.5902  1.4672
 1601SOL     OW16435   1.540   2.535   0.966 -0.1153  0.3398  0.5738
 1601SOL    HW116436   1.623   2.542   0.920 -1.1738 -0.0087 -1.3674
 1601SOL    HW216437   1.493   2.459   0.932  0.0394  0.8882 -0.8649
 1602SOL     OW16438   1.087   3.298  14.914  0.1321  0.2067 -0.6804
 1602SOL    HW116439   1.132   3.362  14.970 -0.6176  0.5150 -0.4229
 1602SOL    HW216440   1.126   3.219  14.954  0.9992  0.9803  0.0191
 1603SOL     OW16441   3.496   4.267   2.012 -0.4966  0.0057 -0.5128
 1603SOL    HW116442   3.507   4.187   2.063  2.7640 -0.6420 -2.1806
 1603SOL    HW216443   3.516   4.227   1.927 -3.4900  0.3449 -1.3527
 1604SOL     OW16444   4.622   1.789   6.439  0.0613  0.4570  0.2837
 1604SOL    HW116445   4.593   1.816   6.352 -0.0812 -0.4175  0.0647
 1604SOL    HW216446   4.714   1.763   6.430  0.5925  2.2487  0.4812
 1605SOL     OW16447   3.450   0.048   3.992  0.4845  0.4470 -0.3771
 1605SOL    HW116448   3.367   0.074   3.955  0.1347 -3.0722 -2.0333
 1605SOL    HW216449   3.426   0.045   4.085  1.5834 -0.5515 -0.1130
 1606SOL     OW16450   3.476   2.240   5.088 -0.2837  0.0966  0.7937
 1606SOL    HW116451   3.382   2.223   5.081 -0.1693 -0.4119  0.4478
 1606SOL    HW216452   3.512   2.213   5.003  0.4828  1.1700  0.7738
 1607SOL     OW16453   2.658   0.881   1.295  0.0567  0.0221 -0.3970
 1607SOL    HW116454   2.601   0.812   1.327  1.8471 -0.9158  0.8176
 1607SOL    HW216455   2.727   0.868   1.361 -0.7461 -3.2572 -0.2402
 1608SOL     OW16456   3.846   3.605   6.110  0.9587  0.0156 -0.3607
 1608SOL    HW116457   3.900   3.598   6.189 -0.0001 -1.5018  0.1463
 1608SOL    HW216458   3.771   3.659   6.137 -0.0920 -1.7548  0.2349
 1609SOL     OW16459   1.597   4.255  15.578  0.0458 -0.3936  0.0325
 1609SOL    HW116460   1.583   4.247  15.483 -0.8570 -1.5776  0.2690
 1609SOL    HW216461   1.639   4.341  15.574 -0.3030 -0.1776  1.0203
 1610SOL     OW16462   3.922   0.675   2.834  0.2910  0.3813  0.2976
 1610SOL    HW116463   3.850   0.693   2.774  1.2405  0.8668 -0.6861
 1610SOL    HW216464   3.923   0.580   2.844  0.4293  0.6673  3.1332
 1611SOL     OW16465   0.040   3.019   3.086  0.3267  0.6451  0.2531
 1611SOL    HW116466   4.731   3.066   3.155 -0.4373 -1.5968  1.2778
 1611SOL    HW216467   0.114   2.966   3.119 -0.4211 -0.9799 -0.6598
 1612SOL     OW16468   0.484   0.850   3.358  0.7179 -0.1334 -0.2029
 1612SOL    HW116469   0.464   0.821   3.447  2.0653  2.5005  0.9420
 1612SOL    HW216470   0.441   0.935   3.369 -0.7913 -0.5524 -2.8858
 1613SOL     OW16471   1.803   3.156   5.128 -0.3839 -0.6467 -0.7764
 1613SOL    HW116472   1.861   3.096   5.082  1.3879 -0.0563  0.7119
 1613SOL    HW216473   1.845   3.153   5.214 -2.4502 -0.0413  0.2619
 1614SOL     OW16474   1.425   3.475   8.029  0.5954  0.1495  0.2331
 1614SOL    HW116475   1.386   3.557   8.060  0.4495 -0.0462  0.5669
 1614SOL    HW216476   1.384   3.483   7.943 -0.1962 -0.7704  0.5286
 1615SOL     OW16477   2.914   3.978   5.967 -0.1671 -0.1566 -0.2662
 1615SOL    HW116478   2.897   3.916   5.895 -1.7462 -0.4398  0.3464
 1615SOL    HW216479   3.009   3.986   5.974 -0.3739  1.5671  0.5101
 1616SOL     OW16480   4.492   0.163   9.124 -0.5116 -0.3862  0.5592
 1616SOL    HW116481   4.501   0.088   9.182 -2.2380 -0.7588  0.3648
 1616SOL    HW216482   4.495   0.236   9.186  2.3103 -1.2468  1.4004
 1617SOL     OW16483   1.778   3.330   4.550 -0.9026 -0.9587  0.0206
 1617SOL    HW116484   1.727   3.359   4.474  1.1049  3.3644  0.3715
 1617SOL    HW216485   1.828   3.257   4.513 -0.5305 -0.3459 -0.6880
 1618SOL     OW16486   1.746   4.732   5.376  0.0692  0.3860 -0.3108
 1618SOL    HW116487   1.789   0.025   5.296 -0.0981  1.6333  0.0780
 1618SOL    HW216488   1.743   0.078   5.423  1.0483  0.8584 -1.0870
 1619SOL     OW16489   2.477   4.007  13.093 -0.4482  0.2444  0.1298
 1619SOL    HW116490   2.572   4.019  13.091 -0.3843 -0.3039 -0.0602
 1619SOL    HW216491   2.474   3.960  13.176 -2.4566  1.2066  0.6139
 1620SOL     OW16492   1.258   1.501  12.399 -0.9034  0.3676  0.3098
 1620SOL    HW116493   1.257   1.410  12.428 -1.1362 -0.1680 -1.3884
 1620SOL    HW216494   1.176   1.532  12.437 -2.7171 -2.8656 -1.0164
 1621SOL     OW16495   2.420   2.745   0.331 -0.1370 -0.1882 -0.0743
 1621SOL    HW116496   2.454   2.657   0.316 -0.7433 -0.6437  1.2773
 1621SOL    HW216497   2.500   2.795   0.313 -0.6734  0.6659 -0.0546
 1622SOL     OW16498   2.443   0.968  13.492  0.5029  0.5130 -0.4793
 1622SOL    HW116499   2.538   0.958  13.486  0.5557  0.8890 -0.3081
 1622SOL    HW216500   2.427   1.023  13.416  0.3531 -0.8132 -1.4006
 1623SOL     OW16501   2.944   2.857   5.416  0.2397  0.3155  0.3323
 1623SOL    HW116502   2.944   2.947   5.383 -1.5160  0.3154  0.3024
 1623SOL    HW216503   2.879   2.868   5.485 -1.5496 -2.6138 -0.9030
 1624SOL     OW16504   4.627   3.372  11.946  0.3456  0.5657  0.0902
 1624SOL    HW116505   4.701   3.385  12.006 -0.5468  0.3962  1.2355
 1624SOL    HW216506   4.618   3.467  11.935 -0.2752  0.7156  1.9270
 1625SOL     OW16507   3.636   4.098  13.588 -0.1400  0.1616 -0.4106
 1625SOL    HW116508   3.643   4.036  13.661  0.2920 -3.5042 -3.5804
 1625SOL    HW216509   3.541   4.097  13.578 -0.2617  3.7209  0.3674
 1626SOL     OW16510   1.535   3.009   6.694 -0.2121  0.2464  0.4114
 1626SOL    HW116511   1.514   2.916   6.705 -2.5406  0.6850 -0.3197
 1626SOL    HW216512   1.543   3.017   6.599 -0.2151 -2.2138  0.1845
 1627SOL     OW16513   1.567   3.619   6.079 -0.1715  0.6766 -0.6475
 1627SOL    HW116514   1.543   3.632   6.171 -0.2168  2.8807 -0.9769
 1627SOL    HW216515   1.487   3.625   6.027  0.4788 -0.7285 -1.7919
 1628SOL     OW16516   0.780   2.343  15.954  0.1343  0.3572 -0.6598
 1628SOL    HW116517   0.699   2.301  15.925  1.5093 -2.2603 -0.6932
 1628SOL    HW216518   0.774   2.436  15.934 -0.0658  0.2591 -1.0539
 1629SOL     OW16519   4.568   0.863   9.078 -0.0211  0.2392  0.1350
 1629SOL    HW116520   4.628   0.907   9.138 -0.1692  0.6274 -0.0020
 1629SOL    HW216521   4.629   0.808   9.027 -1.6634 -2.4787  1.0807
 1630SOL     OW16522   4.316   4.277   6.586  0.4022 -0.1752  0.0808
 1630SOL    HW116523   4.272   4.329   6.520  1.1848  0.6342  0.1975
 1630SOL    HW216524   4.242   4.222   6.612 -0.7013  0.9375 -0.7447
 1631SOL     OW16525   1.016   0.908   2.019 -0.6448 -0.0354 -0.0775
 1631SOL    HW116526   0.943   0.849   2.038  0.1997 -0.9144  0.4252
 1631SOL    HW216527   1.055   0.910   2.106 -1.4472 -1.6349  0.3128
 1632SOL     OW16528   3.712   1.265   4.699  0.1773 -0.4679  0.3711
 1632SOL    HW116529   3.621   1.237   4.693  0.2000 -0.0686 -1.8217
 1632SOL    HW216530   3.758   1.206   4.639  0.1498  2.6878 -2.7028
 1633SOL     OW16531   0.854   4.060   2.372 -0.6034  0.4834  0.1005
 1633SOL    HW116532   0.793   4.127   2.341 -0.5056  0.3270 -0.4294
 1633SOL    HW216533   0.856   3.989   2.307 -0.5539  1.6023 -1.1056
 1634SOL     OW16534   0.321   4.031   2.733 -0.0102  0.1898 -0.2619
 1634SOL    HW116535   0.335   3.941   2.763 -2.3097 -0.7940 -2.1195
 1634SOL    HW216536   0.246   4.030   2.673 -0.2769  0.1645  0.0713
 1635SOL     OW16537   4.579   0.348   3.085 -0.2279  0.5137 -0.2006
 1635SOL    HW116538   4.624   0.264   3.092  0.5223  0.8102 -1.2792
 1635SOL    HW216539   4.616   0.387   3.005  0.9590  1.5668  0.8710
 1636SOL     OW16540   4.653   4.293   7.508 -0.5692 -0.3035  0.5785
 1636SOL    HW116541   4.636   4.213   7.458 -2.4587  0.1706  0.4515
 1636SOL    HW216542   4.737   4.319   7.470 -1.1757 -0.1046 -0.6106
 1637SOL     OW16543   2.860   1.302   4.640  0.6614  0.3476 -0.1430
 1637SOL    HW116544   2.771   1.295   4.673  1.1536  0.6567  1.2557
 1637SOL    HW216545   2.905   1.371   4.689  0.1713  0.3238  0.3367
 1638SOL     OW16546   4.106   3.055   7.288  0.2758 -0.3370 -0.0404
 1638SOL    HW116547   4.141   3.071   7.200  1.7841  0.1064  0.6508
 1638SOL    HW216548   4.117   3.139   7.331 -2.9364 -0.1262  0.4253
 1639SOL     OW16549   1.032   4.095  17.229  0.0018 -0.4770  0.1282
 1639SOL    HW116550   1.048   4.071  17.320  2.1650  0.6460  0.0355
 1639SOL    HW216551   0.994   4.010  17.205 -1.2072 -0.1648  0.9073
 1640SOL     OW16552   2.049   0.989   6.887  0.0725 -0.0181 -0.0739
 1640SOL    HW116553   2.039   0.901   6.850 -0.7176  0.0547 -0.0324
 1640SOL    HW216554   1.962   1.020   6.910  0.6640  0.8049  1.0582
 1641SOL     OW16555   3.433   1.193   8.109  0.2062 -0.4111 -0.2297
 1641SOL    HW116556   3.403   1.271   8.061 -0.2239 -0.6139 -0.2888
 1641SOL    HW216557   3.514   1.181   8.058 -0.3865  0.0307 -1.2897
 1642SOL     OW16558   2.485   4.103   4.272  0.0169 -0.0412 -0.1775
 1642SOL    HW116559   2.579   4.119   4.262 -0.1207 -0.8647 -2.5698
 1642SOL    HW216560   2.448   4.172   4.217 -2.0482 -1.3956 -0.4727
 1643SOL     OW16561   1.941   4.167   3.020  0.0740  0.3826  0.2832
 1643SOL    HW116562   1.864   4.187   2.966  1.6916  0.1307 -2.1371
 1643SOL    HW216563   1.905   4.167   3.108  0.7889 -0.0644  0.5691
 1644SOL     OW16564   2.441   2.366  10.275 -0.1835 -0.5644 -0.3256
 1644SOL    HW116565   2.477   2.453  10.292 -1.7789 -0.0838  0.7200
 1644SOL    HW216566   2.512   2.303  10.285 -1.0181 -1.2034  1.7501
 1645SOL     OW16567   0.246   4.094   8.202 -0.6766 -0.1486 -0.3528
 1645SOL    HW116568   0.180   4.051   8.257  1.1591 -1.5589  0.7268
 1645SOL    HW216569   0.183   4.163   8.183  0.5780  0.6577 -1.5725
 1646SOL     OW16570   2.974   2.598  17.243  0.0832 -0.3195 -0.0248
 1646SOL    HW116571   2.987   2.687  17.278 -0.3590 -0.4587  0.4871
 1646SOL    HW216572   2.880   2.585  17.252 -0.2825  2.0710 -0.1827
 1647SOL     OW16573   3.366   1.154  13.715  0.6407  0.4528 -0.4209
 1647SOL    HW116574   3.438   1.127  13.772  0.5927  0.5835 -0.2968
 1647SOL    HW216575   3.405   1.120  13.635  1.6034 -0.3484  0.3847
 1648SOL     OW16576   4.307   1.028   9.019  1.1033 -0.0834 -0.7114
 1648SOL    HW116577   4.289   1.079   9.099  0.4745  1.0839 -1.5987
 1648SOL    HW216578   4.392   0.993   9.047  0.8141  1.4426  2.1352
 1649SOL     OW16579   0.883   3.038   9.019 -0.3870 -0.5553  0.5102
 1649SOL    HW116580   0.932   2.992   8.951  3.2346  0.8042  2.2432
 1649SOL    HW216581   0.907   2.988   9.097 -0.5990  0.7710  1.4166
 1650SOL     OW16582   1.560   3.801   5.780  0.3786 -0.2601  0.6605
 1650SOL    HW116583   1.468   3.828   5.782  0.5790  0.4385  0.4382
 1650SOL    HW216584   1.600   3.867   5.836  1.6835  0.4410 -1.1216
 1651SOL     OW16585   3.942   0.545   7.341  0.7366  0.1542  0.4153
 1651SOL    HW116586   4.035   0.540   7.318  0.4897  2.0936 -1.0790
 1651SOL    HW216587   3.935   0.515   7.431  4.9984  1.9355  1.3214
 1652SOL     OW16588   2.746   4.464   4.087 -0.2304 -0.0396 -0.1963
 1652SOL    HW116589   2.755   4.379   4.130 -1.8534 -0.6475 -1.0466
 1652SOL    HW216590   2.773   4.438   3.999  1.2295 -1.0216  0.5446
 1653SOL     OW16591   3.042   2.885  12.654 -0.0848 -0.1646 -0.0793
 1653SOL    HW116592   3.064   2.801  12.694  0.7381 -0.5644 -1.3448
 1653SOL    HW216593   3.124   2.930  12.676 -0.3645  0.6432 -0.6617
 1654SOL     OW16594   0.454   0.829   8.242  0.6322  0.0046 -0.1659
 1654SOL    HW116595   0.400   0.793   8.172  1.4341  0.6792 -1.1320
 1654SOL    HW216596   0.459   0.768   8.315 -0.5940 -0.1981 -0.2629
 1655SOL     OW16597   0.527   2.445   3.156 -0.2508 -0.1100  0.5600
 1655SOL    HW116598   0.533   2.361   3.111  0.8621  0.7078 -0.8032
 1655SOL    HW216599   0.445   2.481   3.123  0.8717  0.7936 -1.1907
 1656SOL     OW16600   3.651   2.491   4.676 -0.0029 -0.6146  0.6351
 1656SOL    HW116601   3.565   2.453   4.661 -1.6182  3.2859  0.1249
 1656SOL    HW216602   3.707   2.415   4.695  1.4724  0.6214  1.2410
 1657SOL     OW16603   0.598   0.949   7.323  0.2804 -0.3586 -0.0558
 1657SOL    HW116604   0.633   0.903   7.247 -1.6426 -0.0693 -1.1016
 1657SOL    HW216605   0.506   0.925   7.325  0.8292 -2.2648  3.1213
 1658SOL     OW16606   2.372   3.374   2.866 -0.1179 -0.2292 -0.4651
 1658SOL    HW116607   2.349   3.425   2.944 -1.5221 -1.5051 -0.0371
 1658SOL    HW216608   2.466   3.386   2.857  0.2171 -0.8070  2.2665
 1659SOL     OW16609   2.750   3.342   6.268 -0.1834 -0.1614 -0.3291
 1659SOL    HW116610   2.693   3.416   6.288  4.1809  3.4362 -1.3246
 1659SOL    HW216611   2.803   3.369   6.193  0.6751 -4.0440 -1.1556
 1660SOL     OW16612   3.165   1.169   6.492 -0.3298 -0.0615  0.8212
 1660SOL    HW116613   3.206   1.253   6.473  0.2174 -0.4802  0.1497
 1660SOL    HW216614   3.214   1.145   6.571 -0.5815 -1.7046  0.4819
 1661SOL     OW16615   2.985   2.290  13.667  0.2688 -0.1339 -0.3294
 1661SOL    HW116616   2.894   2.286  13.637  1.1241  1.0699 -3.1192
 1661SOL    HW216617   3.013   2.377  13.638 -0.3113  0.7676  1.8097
 1662SOL     OW16618   1.880   2.613   2.891 -0.1763  0.3401  0.3783
 1662SOL    HW116619   1.972   2.588   2.898  0.1151  1.3886  0.3202
 1662SOL    HW216620   1.887   2.701   2.929  0.3820  0.4667 -0.0166
 1663SOL     OW16621   3.276   0.028   9.107  1.1997 -0.0459 -0.6806
 1663SOL    HW116622   3.221   4.687   9.107 -0.2870  0.9617  1.4446
 1663SOL    HW216623   3.242   0.078   9.033 -2.5752 -0.7456  0.5664
 1664SOL     OW16624   3.761   1.641   1.967  0.0724 -0.5598 -0.4882
 1664SOL    HW116625   3.716   1.600   1.893 -0.5633 -0.1497 -0.3245
 1664SOL    HW216626   3.778   1.575   2.035 -1.8807 -2.1571 -1.5357
 1665SOL     OW16627   0.418   1.564   4.304  0.1364  0.2844  0.1432
 1665SOL    HW116628   0.431   1.534   4.394 -1.4669  1.5416  0.7952
 1665SOL    HW216629   0.459   1.492   4.255  1.6107  2.1669 -1.3603
 1666SOL     OW16630   2.473   2.424   3.864 -0.1941 -0.0575  0.4831
 1666SOL    HW116631   2.550   2.368   3.858  0.7993  1.3651 -0.1501
 1666SOL    HW216632   2.500   2.514   3.846  2.9764 -0.8817  1.0997
 1667SOL     OW16633   3.783   0.329  13.481 -0.4415 -0.4701  0.0515
 1667SOL    HW116634   3.750   0.409  13.521  0.8527 -0.3103  0.8097
 1667SOL    HW216635   3.760   0.335  13.388 -0.2683  2.4788  0.2095
 1668SOL     OW16636   2.098   4.360   9.111  0.1977 -0.2754 -0.0823
 1668SOL    HW116637   2.129   4.297   9.045 -0.5127 -0.1159 -0.5660
 1668SOL    HW216638   2.135   4.323   9.191 -0.8239 -0.0019  0.5018
 1669SOL     OW16639   3.306   4.252   6.489  0.4059  0.6335 -0.6673
 1669SOL    HW116640   3.369   4.259   6.418  2.5540 -1.6884  0.9884
 1669SOL    HW216641   3.357   4.199   6.551 -0.4624  0.3829 -0.1594
 1670SOL     OW16642   3.953   2.623   4.688 -0.2094 -0.2266 -0.1325
 1670SOL    HW116643   3.876   2.574   4.660  0.0511  0.3552 -1.8927
 1670SOL    HW216644   3.928   2.710   4.655 -0.2926 -0.1262  0.2002
 1671SOL     OW16645   0.125   4.096   3.781 -0.2667 -0.5340  0.2274
 1671SOL    HW116646   0.146   4.148   3.704  1.4205  1.2392  1.8862
 1671SOL    HW216647   0.048   4.142   3.813 -0.0730 -0.4921  0.6378
 1672SOL     OW16648   0.309   1.215   7.100  0.1943  0.5062 -0.0556
 1672SOL    HW116649   0.403   1.205   7.083 -0.2116 -0.0657 -1.9706
 1672SOL    HW216650   0.309   1.254   7.188 -0.9907  1.0513 -0.3002
 1673SOL     OW16651   1.299   2.883   2.060  0.0512  1.1527  0.1537
 1673SOL    HW116652   1.353   2.807   2.085 -1.8763  0.0526  0.9992
 1673SOL    HW216653   1.370   2.940   2.031  0.9049  1.1058  2.1394
 1674SOL     OW16654   1.360   3.942   3.035  0.0981 -0.3986  0.2429
 1674SOL    HW116655   1.346   4.034   3.058 -1.7454 -0.8289  0.8727
 1674SOL    HW216656   1.393   3.949   2.946  0.9562 -2.7943  0.3800
 1675SOL     OW16657   0.891   1.304  14.552  0.2549 -0.0093 -0.6806
 1675SOL    HW116658   0.815   1.355  14.577  1.7024  1.4707  0.7314
 1675SOL    HW216659   0.898   1.246  14.628  2.5317  0.4038 -0.5711
 1676SOL     OW16660   3.663   3.200   3.715 -0.2984  0.2059 -0.5233
 1676SOL    HW116661   3.636   3.256   3.643 -0.9611 -0.8438 -1.0848
 1676SOL    HW216662   3.758   3.209   3.712 -0.1725 -0.3887  1.3789
 1677SOL     OW16663   4.465   2.270   4.254 -0.6092 -0.1023  0.1610
 1677SOL    HW116664   4.535   2.285   4.318  0.3920 -0.8559 -0.7562
 1677SOL    HW216665   4.427   2.192   4.295 -1.0639  0.2422  0.3958
 1678SOL     OW16666   2.856   3.438   7.326 -0.3173 -0.0751 -0.1591
 1678SOL    HW116667   2.809   3.517   7.354  0.2099 -0.8604  2.8774
 1678SOL    HW216668   2.862   3.380   7.401 -1.4116 -0.3003 -0.2384
 1679SOL     OW16669   4.196   0.508  16.071 -0.7206 -1.0751  0.0713
 1679SOL    HW116670   4.159   0.596  16.076 -1.7932 -1.4186 -1.7058
 1679SOL    HW216671   4.276   0.525  16.121 -1.7290  0.3112  1.1802
 1680SOL     OW16672   2.196   1.582   3.701  0.2929  0.6182  0.5743
 1680SOL    HW116673   2.148   1.661   3.673  1.1750  0.8841 -0.1740
 1680SOL    HW216674   2.280   1.619   3.727  1.2945  0.4403 -2.3879
 1681SOL     OW16675   0.590   1.742   4.449 -0.1208 -0.2393 -0.5908
 1681SOL    HW116676   0.631   1.669   4.403 -2.4392 -1.8462 -0.0867
 1681SOL    HW216677   0.508   1.747   4.400 -0.4788  2.3085  0.2704
 1682SOL     OW16678   0.276   4.120  12.271 -0.3049  0.1584  0.0933
 1682SOL    HW116679   0.296   4.159  12.185  2.6302  1.2552  1.2726
 1682SOL    HW216680   0.329   4.172  12.331  1.5796 -1.4176 -0.2108
 1683SOL     OW16681   0.546   1.486  12.415  0.1482  0.3768 -0.7853
 1683SOL    HW116682   0.605   1.420  12.452 -0.3809 -1.0543 -2.4612
 1683SOL    HW216683   0.473   1.425  12.413 -0.0899  0.6338  0.8306
 1684SOL     OW16684   2.216   1.359   9.290 -0.5558  0.3810  0.0659
 1684SOL    HW116685   2.131   1.340   9.249 -0.9858  0.8692  0.7422
 1684SOL    HW216686   2.251   1.277   9.324  1.6071 -0.4403 -4.0689
 1685SOL     OW16687   0.428   1.035   6.288 -0.3193 -0.5222  0.2382
 1685SOL    HW116688   0.515   1.046   6.249 -0.2370  0.4327  0.6980
 1685SOL    HW216689   0.374   1.102   6.246  0.2814 -0.2569 -0.1124
 1686SOL     OW16690   1.934   2.453  13.206 -0.1270  0.6224 -0.2296
 1686SOL    HW116691   2.012   2.409  13.171 -1.1260 -1.3329  0.0039
 1686SOL    HW216692   1.963   2.541  13.230  0.2421  0.8635 -1.5533
 1687SOL     OW16693   0.976   0.215   3.698 -0.0401  0.0443 -0.0566
 1687SOL    HW116694   0.960   0.304   3.728  2.9478  0.5102  0.1560
 1687SOL    HW216695   0.912   0.203   3.628 -1.1424 -1.1460  1.1562
 1688SOL     OW16696   3.309   1.301   4.602  0.1753  0.1779 -0.1826
 1688SOL    HW116697   3.284   1.325   4.691  3.9636 -0.1784  0.9915
 1688SOL    HW216698   3.242   1.234   4.586  0.1714  0.4679 -1.3526
 1689SOL     OW16699   1.481   3.377   3.690 -0.1585  0.3492 -0.0662
 1689SOL    HW116700   1.412   3.427   3.733 -1.7133 -2.4104  0.7019
 1689SOL    HW216701   1.451   3.290   3.716  1.3771 -1.1021 -3.1021
 1690SOL     OW16702   2.833   2.696   0.066  0.2189  0.1451  0.5233
 1690SOL    HW116703   2.791   2.666  17.735  0.7426  0.3699  0.1710
 1690SOL    HW216704   2.876   2.779   0.046 -1.5041  0.9122  0.0079
 1691SOL     OW16705   0.790   3.777   5.915 -0.1005  0.1371  0.1893
 1691SOL    HW116706   0.761   3.833   5.987 -1.2027 -0.7397  0.4178
 1691SOL    HW216707   0.714   3.779   5.857 -0.8894  0.7331  1.2296
 1692SOL     OW16708   3.743   1.742   4.188 -0.1582 -0.3123 -0.4544
 1692SOL    HW116709   3.818   1.801   4.193 -1.0103  0.7240  0.2474
 1692SOL    HW216710   3.698   1.792   4.120 -0.7864  0.9446  0.9017
 1693SOL     OW16711   4.647   1.460   7.267 -0.3681  0.7276 -0.2507
 1693SOL    HW116712   4.720   1.445   7.207 -0.3260  1.6638 -0.4225
 1693SOL    HW216713   4.623   1.370   7.291 -1.4680  1.2656  0.6811
 1694SOL     OW16714   1.703   0.692   2.624  0.4817  0.4453  0.8032
 1694SOL    HW116715   1.635   0.626   2.610 -0.9221  2.3714 -1.4803
 1694SOL    HW216716   1.726   0.668   2.713  0.3204 -1.0599  0.4431
 1695SOL     OW16717   0.137   4.254   4.706 -0.0225  0.1901  0.7864
 1695SOL    HW116718   0.053   4.293   4.728 -0.4368  0.8044 -1.8783
 1695SOL    HW216719   0.114   4.228   4.617 -0.8809  2.5077  0.3417
 1696SOL     OW16720   1.210   0.691   4.245 -0.0147 -0.0078  0.3476
 1696SOL    HW116721   1.187   0.741   4.323  2.8913  0.8156  0.6743
 1696SOL    HW216722   1.260   0.757   4.197  0.7918  0.9292  2.4610
 1697SOL     OW16723   0.347   0.347  13.333  0.1202  0.6963  0.5780
 1697SOL    HW116724   0.356   0.384  13.421 -1.4950  1.3195  0.4707
 1697SOL    HW216725   0.265   0.299  13.346  0.9065 -0.2323  2.0896
 1698SOL     OW16726   1.505   3.961   1.449 -0.2337 -0.1556  0.1415
 1698SOL    HW116727   1.571   3.893   1.455  0.6858  0.7596  0.3938
 1698SOL    HW216728   1.453   3.947   1.527  0.2752 -1.4276  0.2437
 1699SOL     OW16729   3.374   4.219   5.584 -0.0264 -0.2926 -0.3379
 1699SOL    HW116730   3.453   4.165   5.581  0.5799  0.4676  2.3929
 1699SOL    HW216731   3.367   4.217   5.679 -0.5079 -3.1378 -0.4151
 1700SOL     OW16732   0.557   1.437   6.754 -0.3550  0.3273 -0.1527
 1700SOL    HW116733   0.643   1.395   6.758 -0.9200 -0.8580 -0.6551
 1700SOL    HW216734   0.520   1.402   6.673 -0.4397 -1.2939  0.5883
 1701SOL     OW16735   0.073   2.994  11.016  0.2294 -0.6455 -0.0592
 1701SOL    HW116736   0.158   3.002  11.059 -0.4951 -1.8134  1.5665
 1701SOL    HW216737   0.041   3.083  11.010 -0.1351 -0.9507 -2.6258
 1702SOL     OW16738   3.426   2.386   7.063 -0.2978  0.3514 -0.2812
 1702SOL    HW116739   3.483   2.442   7.117 -0.4836 -0.1181  0.4028
 1702SOL    HW216740   3.478   2.383   6.983 -0.0384 -0.9000 -0.0676
 1703SOL     OW16741   3.857   0.849   4.977  0.3198  0.4031 -0.3339
 1703SOL    HW116742   3.772   0.893   4.988  0.9497  1.8504 -1.2059
 1703SOL    HW216743   3.840   0.788   4.905 -0.3824  0.7373 -0.4574
 1704SOL     OW16744   1.937   3.933   1.527 -0.7956  0.2174  0.5238
 1704SOL    HW116745   1.991   3.888   1.594  0.5407 -1.4416 -1.6592
 1704SOL    HW216746   2.001   3.944   1.457 -2.2602  2.6184 -0.4045
 1705SOL     OW16747   2.216   0.973  13.692 -0.0719 -0.4396 -0.2376
 1705SOL    HW116748   2.168   1.040  13.644  1.1636  1.8583  1.7600
 1705SOL    HW216749   2.283   0.947  13.629  1.9262  0.1570  1.6474
 1706SOL     OW16750   3.873   2.612   8.550 -0.4719 -0.1368  0.1389
 1706SOL    HW116751   3.892   2.702   8.521  0.9272 -0.6303 -0.4871
 1706SOL    HW216752   3.960   2.595   8.587  1.1890  0.3139 -3.5133
 1707SOL     OW16753   3.814   1.443   4.020  0.1435  0.4929 -0.4047
 1707SOL    HW116754   3.742   1.396   4.062  1.2721 -1.7343 -0.9338
 1707SOL    HW216755   3.802   1.531   4.057  0.0880  0.0191  0.7100
 1708SOL     OW16756   2.439   2.849  13.721  0.1042  0.2869  0.0516
 1708SOL    HW116757   2.344   2.864  13.715  0.1067  0.0931 -0.4838
 1708SOL    HW216758   2.451   2.768  13.672 -1.3449  2.0058 -3.1167
 1709SOL     OW16759   0.261   3.317   1.748  0.0770 -0.1610 -0.3529
 1709SOL    HW116760   0.313   3.362   1.682 -1.3886  1.3939 -0.4593
 1709SOL    HW216761   0.312   3.240   1.773 -1.5838 -0.1674  3.0592
 1710SOL     OW16762   3.486   0.260  10.151  0.1780 -0.2283 -0.2762
 1710SOL    HW116763   3.576   0.251  10.182  0.8535 -1.2501 -2.5515
 1710SOL    HW216764   3.496   0.351  10.123 -0.6217 -0.2567 -0.6648
 1711SOL     OW16765   0.439   1.477   8.612  0.2441  0.1328  0.7381
 1711SOL    HW116766   0.379   1.438   8.675  1.0230 -1.0305  0.7579
 1711SOL    HW216767   0.481   1.397   8.583 -0.3549  0.7241 -1.7132
 1712SOL     OW16768   2.080   1.727   4.044 -0.9594  0.0542 -0.2651
 1712SOL    HW116769   2.093   1.744   3.951 -0.6692  2.0799  0.1407
 1712SOL    HW216770   1.988   1.704   4.053 -0.7902 -1.3558 -2.1803
 1713SOL     OW16771   3.071   0.731   2.147 -0.4488 -0.4695 -0.0468
 1713SOL    HW116772   3.017   0.720   2.069  0.8453 -0.6743 -0.9139
 1713SOL    HW216773   3.132   0.659   2.130 -1.1061 -0.8383 -0.8488
 1714SOL     OW16774   2.627   1.937   6.816 -0.1791 -0.5022 -0.2296
 1714SOL    HW116775   2.627   1.855   6.867 -0.8704 -0.5417 -0.2938
 1714SOL    HW216776   2.693   1.982   6.869  0.7764 -2.6291  0.4326
 1715SOL     OW16777   1.431   0.767   3.517  0.7315 -0.4306 -0.4208
 1715SOL    HW116778   1.512   0.796   3.559  0.8661  3.0618 -3.1740
 1715SOL    HW216779   1.424   0.833   3.448  1.4351  2.5401  2.3502
 1716SOL     OW16780   1.351   4.631   5.586 -0.1859  0.3630 -0.3508
 1716SOL    HW116781   1.365   4.654   5.494  0.8831  3.0330  0.4831
 1716SOL    HW216782   1.264   4.666   5.603 -0.7857  0.5601 -3.9348
 1717SOL     OW16783   1.182   3.480  12.459  0.0521  0.2025 -0.1421
 1717SOL    HW116784   1.139   3.394  12.463  1.3783 -0.4239  0.4701
 1717SOL    HW216785   1.263   3.441  12.426 -0.6744  1.3895 -3.3441
 1718SOL     OW16786   0.625   4.290  16.240 -0.7172  0.2327 -0.5534
 1718SOL    HW116787   0.686   4.359  16.211 -0.4595  0.7010  1.1228
 1718SOL    HW216788   0.678   4.210  16.236 -1.2019 -0.0990 -0.2357
 1719SOL     OW16789   2.470   2.153   1.113  0.0990 -0.2417  0.3040
 1719SOL    HW116790   2.451   2.063   1.085 -0.5342  0.0392 -0.1820
 1719SOL    HW216791   2.382   2.191   1.120  0.2031  0.1328 -0.4051
 1720SOL     OW16792   4.223   2.787  10.463 -0.1948 -0.5147  0.1032
 1720SOL    HW116793   4.196   2.797  10.554 -2.6376 -0.8780 -0.6016
 1720SOL    HW216794   4.312   2.754  10.477  0.3017  0.2379 -1.2169
 1721SOL     OW16795   0.676   0.387   2.314 -0.4290 -0.1515  1.1444
 1721SOL    HW116796   0.675   0.424   2.226 -0.3374  1.1953  1.7044
 1721SOL    HW216797   0.726   0.306   2.307 -1.1883 -0.5069 -0.0836
 1722SOL     OW16798   2.835   0.209   3.034  0.1652  0.3688  0.3979
 1722SOL    HW116799   2.896   0.273   2.998  0.4083  0.6061  1.2281
 1722SOL    HW216800   2.827   0.245   3.123  1.3019 -0.4817  0.8455
 1723SOL     OW16801   2.588   0.319  15.077 -0.4315 -0.0608  0.2672
 1723SOL    HW116802   2.546   0.305  14.992  2.5595 -1.4003 -0.9613
 1723SOL    HW216803   2.635   0.399  15.053  0.3286 -1.0121 -1.4111
 1724SOL     OW16804   4.474   0.516  13.993 -0.3013  0.0073  0.0393
 1724SOL    HW116805   4.389   0.474  13.983  0.6614 -2.2286  1.2711
 1724SOL    HW216806   4.536   0.443  13.997  0.6903  0.6985 -2.8264
 1725SOL     OW16807   3.961   1.005   0.694 -0.1280  0.1396 -0.6107
 1725SOL    HW116808   3.872   0.994   0.659  1.0910 -2.3948 -2.9606
 1725SOL    HW216809   4.011   0.940   0.644  0.9694 -0.6275  1.4744
 1726SOL     OW16810   3.818   4.715   6.779  0.4171 -0.2627  0.4904
 1726SOL    HW116811   3.753   4.647   6.797  1.6980 -1.4294  0.6784
 1726SOL    HW216812   3.803   0.044   6.847 -0.6453  1.4177 -1.4107
 1727SOL     OW16813   0.872   0.129  16.653  0.0685 -0.1118  0.1027
 1727SOL    HW116814   0.800   0.191  16.659  0.2004 -0.0866  1.4302
 1727SOL    HW216815   0.828   0.071  16.592  1.5426 -1.3470  0.2247
 1728SOL     OW16816   3.880   3.278   9.132  0.1507  0.3728  0.3467
 1728SOL    HW116817   3.805   3.317   9.086  0.1189 -0.1652 -0.0487
 1728SOL    HW216818   3.942   3.312   9.067 -0.9420  4.1001  1.2194
 1729SOL     OW16819   2.136   3.059   8.730 -0.1440  0.6259 -0.1109
 1729SOL    HW116820   2.186   2.984   8.763  1.2919  2.7438  2.4460
 1729SOL    HW216821   2.131   3.040   8.636 -0.0696  1.2565 -0.2389
 1730SOL     OW16822   2.522   1.103   6.749 -0.4745  0.0401  0.1184
 1730SOL    HW116823   2.579   1.085   6.825  0.5665 -0.2745 -0.7337
 1730SOL    HW216824   2.458   1.031   6.752  0.1426 -0.5165 -0.0054
 1731SOL     OW16825   4.624   2.532   4.678 -0.7408 -0.3109  0.3407
 1731SOL    HW116826   4.603   2.618   4.641 -1.0862  0.6320  2.7116
 1731SOL    HW216827   4.559   2.530   4.748 -1.3225  2.0520 -0.1260
 1732SOL     OW16828   1.859   4.348  16.528  0.4129  0.4236  0.1547
 1732SOL    HW116829   1.863   4.426  16.583  1.6197  0.5408 -0.0986
 1732SOL    HW216830   1.766   4.341  16.547 -0.0064  0.4645 -1.8660
 1733SOL     OW16831   4.189   3.266   0.214  0.1990 -0.6884  0.2602
 1733SOL    HW116832   4.209   3.201   0.281 -0.9146 -0.0666  1.1941
 1733SOL    HW216833   4.256   3.242   0.150 -0.7764  0.1991 -1.1033
 1734SOL     OW16834   3.520   2.521  14.742 -0.4035  0.1233  0.1873
 1734SOL    HW116835   3.517   2.430  14.770  0.7446 -0.2221 -0.8183
 1734SOL    HW216836   3.493   2.565  14.823 -0.0736 -1.1351  0.9918
 1735SOL     OW16837   4.451   2.291   3.129 -0.2073  0.0455  0.4837
 1735SOL    HW116838   4.397   2.346   3.072  1.1211 -0.6579 -1.4618
 1735SOL    HW216839   4.472   2.215   3.076  1.2173 -0.0809  1.2258
 1736SOL     OW16840   1.654   3.714  17.066  0.3583 -0.3676 -0.3153
 1736SOL    HW116841   1.652   3.643  17.130  1.8196 -0.2752 -0.1470
 1736SOL    HW216842   1.747   3.726  17.044 -0.0810  0.0852 -1.9390
 1737SOL     OW16843   1.794   0.417   4.244  0.5293 -0.4946 -0.1026
 1737SOL    HW116844   1.812   0.375   4.328 -1.6628  1.7427  1.4708
 1737SOL    HW216845   1.736   0.486   4.277 -1.7608 -3.0861  1.3228
 1738SOL     OW16846   2.406   3.739   0.428  0.6006  0.0449  0.5441
 1738SOL    HW116847   2.472   3.767   0.365  0.8238 -2.4086 -0.3436
 1738SOL    HW216848   2.463   3.690   0.488  1.1359 -0.2610 -0.2121
 1739SOL     OW16849   1.603   0.764   5.793  0.4237  0.0686  0.3647
 1739SOL    HW116850   1.562   0.777   5.707  0.6419  1.0320  0.4121
 1739SOL    HW216851   1.635   0.675   5.780  0.0349 -0.3676  2.5164
 1740SOL     OW16852   0.044   3.826  16.470 -0.1639  0.4346 -0.1920
 1740SOL    HW116853   4.720   3.888  16.433  1.9086  2.0359 -0.9824
 1740SOL    HW216854   0.124   3.846  16.422  0.3538 -3.5809 -0.9989
 1741SOL     OW16855   1.516   4.062   8.352 -0.6876  0.4188  0.1494
 1741SOL    HW116856   1.524   3.973   8.384  0.1253  0.1780 -0.6999
 1741SOL    HW216857   1.558   4.100   8.429  1.6793 -0.8103 -0.5233
 1742SOL     OW16858   3.751   3.208  13.417 -0.3567 -0.3918  0.2375
 1742SOL    HW116859   3.707   3.280  13.373  1.7223  0.7636  0.0371
 1742SOL    HW216860   3.702   3.195  13.498 -0.3637  0.6113  0.3883
 1743SOL     OW16861   4.268   1.103   9.283 -0.1285  0.6383 -0.2399
 1743SOL    HW116862   4.249   1.141   9.369  1.6652  1.1931 -0.0965
 1743SOL    HW216863   4.197   1.038   9.289 -0.9789  1.3345 -3.1280
 1744SOL     OW16864   2.493   3.632   2.551 -0.1379 -0.0347 -0.3961
 1744SOL    HW116865   2.430   3.694   2.589 -0.4226 -0.8969  0.5472
 1744SOL    HW216866   2.438   3.570   2.503  0.0001 -0.2504 -0.2744
 1745SOL     OW16867   4.665   2.302   6.792 -0.1398 -0.1482 -0.8611
 1745SOL    HW116868   4.641   2.232   6.731 -0.4283 -0.2666 -0.6105
 1745SOL    HW216869   0.013   2.268   6.818 -0.7303  0.1831  1.5159
 1746SOL     OW16870   2.262   2.437   0.293  0.2865  0.5436 -0.7143
 1746SOL    HW116871   2.257   2.373   0.364  2.9791 -0.3024 -1.2489
 1746SOL    HW216872   2.357   2.452   0.295  0.3380 -0.0400  1.5187
 1747SOL     OW16873   4.257   1.069   7.186 -0.5335  0.2152  0.1893
 1747SOL    HW116874   4.236   0.979   7.160  0.7852 -0.6254  1.9203
 1747SOL    HW216875   4.196   1.120   7.134 -0.7094 -0.2195 -0.0260
 1748SOL     OW16876   4.553   0.042   1.956 -0.1376 -0.0053 -0.2100
 1748SOL    HW116877   4.642   0.024   1.926  0.6846 -0.8405  2.7553
 1748SOL    HW216878   4.526   0.101   1.885 -0.2734 -1.6988 -1.5554
 1749SOL     OW16879   1.734   0.448  11.330  0.4336 -0.1027 -0.1302
 1749SOL    HW116880   1.666   0.396  11.287  2.2530 -0.7954 -2.1704
 1749SOL    HW216881   1.700   0.442  11.419 -0.6690 -2.1492 -0.6779
 1750SOL     OW16882   0.078   0.054   5.830  0.2022  0.1775  0.0852
 1750SOL    HW116883   0.006   4.737   5.860 -0.2243  0.3938 -0.5421
 1750SOL    HW216884   0.128   0.082   5.906 -0.2855 -0.1465  0.5217
 1751SOL     OW16885   2.729   3.349  14.482 -0.7259 -0.0014 -0.7991
 1751SOL    HW116886   2.723   3.284  14.412  1.9962  0.6324 -1.6360
 1751SOL    HW216887   2.825   3.357  14.488 -0.7216 -0.3417 -0.3605
 1752SOL     OW16888   3.821   3.392   7.388  0.4673 -0.3446 -0.1879
 1752SOL    HW116889   3.791   3.328   7.453  0.8955  1.4661  1.7801
 1752SOL    HW216890   3.899   3.342   7.363  1.0126  0.8431 -0.8531
 1753SOL     OW16891   3.534   1.451  17.074 -0.0201  0.2006 -0.1722
 1753SOL    HW116892   3.505   1.398  17.000 -0.7418  0.7091 -0.2504
 1753SOL    HW216893   3.486   1.413  17.147  0.4077  0.3475  0.1837
 1754SOL     OW16894   4.406   2.160   5.385 -0.1382 -0.0651  0.3284
 1754SOL    HW116895   4.439   2.096   5.322 -1.0070 -0.0435 -0.1570
 1754SOL    HW216896   4.443   2.242   5.353 -2.5786  0.2169 -1.8146
 1755SOL     OW16897   3.853   1.771   8.661  0.8950  0.9014  0.0455
 1755SOL    HW116898   3.791   1.728   8.721 -0.0532  1.4927 -0.5137
 1755SOL    HW216899   3.819   1.860   8.651 -0.7850 -0.0035 -2.2220
 1756SOL     OW16900   0.837   4.031   2.967  0.4425  0.0787  0.2611
 1756SOL    HW116901   0.799   4.094   2.906 -1.5774 -1.1562  0.2486
 1756SOL    HW216902   0.798   3.949   2.936  1.7380 -0.6245  0.4938
 1757SOL     OW16903   4.511   3.584   3.368 -0.0165 -0.0838 -0.7308
 1757SOL    HW116904   4.476   3.673   3.373  1.5155  0.3649  1.4567
 1757SOL    HW216905   4.564   3.588   3.288  0.4419  0.7116 -0.3785
 1758SOL     OW16906   0.083   2.150   1.491  0.5086 -0.3491 -0.1158
 1758SOL    HW116907   0.117   2.232   1.528  0.9049 -0.4127 -0.3376
 1758SOL    HW216908   0.090   2.077   1.551 -1.0842  0.9510  1.6324
 1759SOL     OW16909   1.769   1.247  17.720 -0.1781  0.3126 -1.0044
 1759SOL    HW116910   1.776   1.316  17.653  0.4656 -0.7596 -2.0391
 1759SOL    HW216911   1.679   1.214  17.719  0.3970 -1.3002  0.7438
 1760SOL     OW16912   1.598   2.129   2.465 -0.3970  0.5150 -0.3730
 1760SOL    HW116913   1.674   2.187   2.457 -0.7778  0.8092 -1.8272
 1760SOL    HW216914   1.600   2.076   2.385 -0.0669  1.1680 -0.8035
 1761SOL     OW16915   1.884   2.980   6.511  0.6610  0.2287  0.1534
 1761SOL    HW116916   1.819   3.015   6.572  1.4759  1.1216  0.5258
 1761SOL    HW216917   1.912   3.063   6.471  0.1008  0.4690  0.2474
 1762SOL     OW16918   3.405   0.278  11.582  0.5356 -0.7294 -0.2480
 1762SOL    HW116919   3.364   0.194  11.564 -1.8689  0.7919 -1.8780
 1762SOL    HW216920   3.372   0.304  11.669  1.4936 -0.4846  0.0390
 1763SOL     OW16921   3.513   0.183   9.872  0.1880 -0.4023 -0.0183
 1763SOL    HW116922   3.423   0.174   9.839 -0.4138  0.3728  1.4134
 1763SOL    HW216923   3.494   0.209   9.962 -0.8308 -0.3558 -0.2419
 1764SOL     OW16924   4.306   1.740   3.270  0.2923 -0.3423  0.4758
 1764SOL    HW116925   4.352   1.823   3.274  0.0737 -0.1513 -0.8735
 1764SOL    HW216926   4.373   1.692   3.222 -1.4646  0.5256 -2.8462
 1765SOL     OW16927   0.855   2.267   1.503 -0.0320 -0.0245  0.2627
 1765SOL    HW116928   0.895   2.340   1.456 -2.1499 -0.1236 -1.6785
 1765SOL    HW216929   0.848   2.301   1.592  1.4922  2.7996 -0.7093
 1766SOL     OW16930   0.624   1.291   4.656  0.0439  0.0544  0.2242
 1766SOL    HW116931   0.537   1.260   4.681  0.3375 -1.3386 -0.4568
 1766SOL    HW216932   0.660   1.310   4.743  1.5105  0.6307 -0.5048
 1767SOL     OW16933   3.856   3.861  16.644  0.2956  0.1027  0.0488
 1767SOL    HW116934   3.855   3.896  16.733  3.0706 -3.3937  1.4617
 1767SOL    HW216935   3.761   3.865  16.634  0.2242  0.4051  0.8348
 1768SOL     OW16936   1.041   2.562   6.262  0.2749 -0.1823 -0.0850
 1768SOL    HW116937   1.049   2.616   6.340  0.9132 -1.8326  0.9986
 1768SOL    HW216938   1.053   2.626   6.192 -0.8491  1.2954  1.0666
 1769SOL     OW16939   4.003   1.184   3.248  0.2508  0.2633  0.2119
 1769SOL    HW116940   4.078   1.154   3.195  1.5847  0.9669  1.7101
 1769SOL    HW216941   4.025   1.277   3.246 -4.9203  1.4758  0.0495
 1770SOL     OW16942   2.879   4.047   8.173  0.2547  0.7045  0.0074
 1770SOL    HW116943   2.838   4.110   8.113 -1.0591 -1.1934 -1.0761
 1770SOL    HW216944   2.802   3.994   8.193 -0.8613  2.7002  1.0639
 1771SOL     OW16945   1.724   2.500   5.228  0.0433 -0.2854  0.4286
 1771SOL    HW116946   1.636   2.520   5.261  1.2934  2.0102  2.3669
 1771SOL    HW216947   1.770   2.482   5.309  1.3428  2.1871  0.2515
 1772SOL     OW16948   4.342   0.481  12.189 -0.1296  0.1233 -0.6966
 1772SOL    HW116949   4.292   0.445  12.263 -0.3055  0.4410 -0.6615
 1772SOL    HW216950   4.398   0.541  12.238  1.7046 -1.6525 -0.6198
 1773SOL     OW16951   3.388   0.225   6.735  0.0062  0.4348  0.2319
 1773SOL    HW116952   3.408   0.190   6.648  3.3728 -0.3095  1.2955
 1773SOL    HW216953   3.332   0.162   6.780  0.2710  0.9334  1.2585
 1774SOL     OW16954   0.280   2.655   9.029  0.2369 -0.7726 -0.4797
 1774SOL    HW116955   0.321   2.578   8.989 -0.7741 -1.6461  0.1424
 1774SOL    HW216956   0.321   2.652   9.115  2.2808 -0.8551 -1.4539
 1775SOL     OW16957   3.882   2.293   9.438  0.0745 -0.3409 -0.6259
 1775SOL    HW116958   3.805   2.339   9.472  1.7830  1.9137  0.1831
 1775SOL    HW216959   3.860   2.261   9.351  1.2523  0.2393 -1.1273
 1776SOL     OW16960   1.811   1.102   4.654  0.0533  0.6930 -0.6183
 1776SOL    HW116961   1.796   1.123   4.562 -1.4497  2.4761  0.0416
 1776SOL    HW216962   1.861   1.020   4.650 -0.8992  0.0959 -0.4933
 1777SOL     OW16963   3.457   0.304  15.824 -0.0601  0.4673  0.3099
 1777SOL    HW116964   3.429   0.281  15.735 -1.0527 -0.1954  0.7964
 1777SOL    HW216965   3.474   0.223  15.872  0.4981  0.1275 -0.4596
 1778SOL     OW16966   4.549   1.593   4.330  0.1275  0.0740  0.4552
 1778SOL    HW116967   4.605   1.616   4.404 -0.3764  0.8598  0.5900
 1778SOL    HW216968   4.480   1.657   4.348 -0.0908 -0.0847  0.1838
 1779SOL     OW16969   3.130   1.440  16.874  0.4933 -0.1076  0.0232
 1779SOL    HW116970   3.222   1.430  16.896  0.6608  0.2960 -0.4808
 1779SOL    HW216971   3.113   1.533  16.885  0.9973 -0.1158  0.8115
 1780SOL     OW16972   2.001   0.514   5.928  0.0345  0.0022 -0.0099
 1780SOL    HW116973   1.923   0.479   5.886  0.2224  0.3994 -0.6815
 1780SOL    HW216974   2.016   0.448   5.996 -0.3493  0.3875  0.4458
 1781SOL     OW16975   4.011   2.607   6.799  0.1324  1.1336 -0.4667
 1781SOL    HW116976   4.004   2.668   6.873 -1.4766  2.5760 -1.8158
 1781SOL    HW216977   4.066   2.538   6.838 -1.4362  0.4070  0.4513
 1782SOL     OW16978   1.037   3.258  16.848  0.3840  0.0605  0.0962
 1782SOL    HW116979   0.964   3.196  16.851  1.5426 -1.2979  0.1349
 1782SOL    HW216980   1.088   3.215  16.780 -0.6210 -1.0807  0.0526
 1783SOL     OW16981   2.676   3.300   7.878 -0.4835 -0.1298  0.1443
 1783SOL    HW116982   2.682   3.305   7.974  2.4654 -2.2900  0.0792
 1783SOL    HW216983   2.602   3.240   7.873  0.5616 -1.5845  1.9062
 1784SOL     OW16984   0.594   4.470  15.168 -0.7207 -0.5301 -0.2579
 1784SOL    HW116985   0.625   4.502  15.084  3.3098 -1.8745  0.7340
 1784SOL    HW216986   0.552   4.553  15.191 -0.3242 -0.5304  0.4807
 1785SOL     OW16987   3.489   3.465   9.936  0.3108 -0.0920  0.1108
 1785SOL    HW116988   3.532   3.450  10.020  1.1867 -0.7327 -0.4382
 1785SOL    HW216989   3.465   3.372   9.929 -0.2191  0.2000 -2.0412
 1786SOL     OW16990   0.698   4.288  12.241  0.2953 -0.0877  0.8026
 1786SOL    HW116991   0.758   4.269  12.169 -0.2613  1.1837  0.0151
 1786SOL    HW216992   0.725   4.216  12.299  1.4462  0.4970  0.9846
 1787SOL     OW16993   2.361   1.316   7.742  0.5759  0.4319  0.0612
 1787SOL    HW116994   2.361   1.395   7.795 -0.0126  0.1292  0.5156
 1787SOL    HW216995   2.429   1.260   7.780 -0.8130 -1.8506 -0.8065
 1788SOL     OW16996   0.721   1.742   0.635 -0.1489 -0.5712 -0.0219
 1788SOL    HW116997   0.723   1.698   0.720  0.0282 -1.2419 -0.3735
 1788SOL    HW216998   0.798   1.698   0.601  0.4368  0.0216  0.5439
 1789SOL     OW16999   0.072   0.532  11.768  0.4307  0.3049  0.0680
 1789SOL    HW117000   0.021   0.613  11.769  0.5939  0.3978  0.9845
 1789SOL    HW217001   0.143   0.570  11.717  0.6397  0.5882  0.5720
 1790SOL     OW17002   4.123   2.938   6.945 -0.6616  0.1603 -0.9004
 1790SOL    HW117003   4.089   2.852   6.971 -1.5394  1.1130  1.1122
 1790SOL    HW217004   4.215   2.941   6.971 -0.8920  1.4954 -0.2022
 1791SOL     OW17005   1.223   0.322   5.026 -0.0095 -0.7123 -0.0662
 1791SOL    HW117006   1.309   0.363   5.041 -1.3305  2.0818 -0.0283
 1791SOL    HW217007   1.163   0.375   5.078  0.5961 -1.3744  1.3008
 1792SOL     OW17008   1.862   3.441  17.063 -0.3101 -0.1326  0.5703
 1792SOL    HW117009   1.794   3.477  17.121 -1.5247 -1.7392  0.1217
 1792SOL    HW217010   1.818   3.464  16.981  1.3325  0.3875 -0.1645
 1793SOL     OW17011   0.388   4.332  17.203 -0.2755 -0.1659  0.2835
 1793SOL    HW117012   0.338   4.250  17.210  0.5445 -0.8095 -1.2592
 1793SOL    HW217013   0.470   4.310  17.248 -1.1570 -1.0371  1.4747
 1794SOL     OW17014   4.610   0.743   6.853 -0.2000 -0.8153 -0.0430
 1794SOL    HW117015   4.701   0.714   6.861  0.0671 -0.9030 -3.4072
 1794SOL    HW217016   4.634   0.813   6.792  0.3038 -0.7535  0.2252
 1795SOL     OW17017   1.559   0.935   2.895 -0.0048 -0.1884 -0.1077
 1795SOL    HW117018   1.477   0.973   2.863  0.5681  0.1777 -1.1464
 1795SOL    HW217019   1.627   0.971   2.839 -2.2635 -0.9407 -3.3576
 1796SOL     OW17020   1.718   1.968   2.779 -0.3790 -0.5563  0.4374
 1796SOL    HW117021   1.637   1.959   2.829 -0.5913  1.9868  0.5053
 1796SOL    HW217022   1.684   1.934   2.695 -0.0057 -1.1303  0.5146
 1797SOL     OW17023   2.613   1.245   9.816  0.4071  0.4982  0.2375
 1797SOL    HW117024   2.659   1.294   9.748 -0.3407 -1.6503 -1.8275
 1797SOL    HW217025   2.684   1.189   9.849  1.6724  1.7501 -0.3374
 1798SOL     OW17026   3.230   3.811  11.261  0.2398  0.2510  1.1299
 1798SOL    HW117027   3.183   3.729  11.253  0.3313  0.5685 -2.7850
 1798SOL    HW217028   3.252   3.832  11.171 -0.0641  0.2199  1.0478
 1799SOL     OW17029   4.702   3.706  11.728 -0.1162 -0.2041 -0.1420
 1799SOL    HW117030   4.689   3.697  11.822 -0.2556  3.1076  0.1619
 1799SOL    HW217031   0.059   3.711  11.717  0.0179  1.8111  2.0034
 1800SOL     OW17032   4.544   4.134   4.414  0.0437 -0.1365 -0.5156
 1800SOL    HW117033   4.511   4.110   4.500 -3.7297  0.8612 -1.6784
 1800SOL    HW217034   4.519   4.226   4.424  1.9302  0.4263 -0.9934
 1801SOL     OW17035   1.150   2.431   5.341  0.0593  0.0602  0.1735
 1801SOL    HW117036   1.155   2.503   5.404  1.6551  0.6487 -0.6086
 1801SOL    HW217037   1.161   2.351   5.393  1.7635  0.2699  0.1546
 1802SOL     OW17038   4.102   3.597  17.395  0.0653  0.4076  0.2296
 1802SOL    HW117039   4.036   3.656  17.360 -0.8672 -0.2182  0.9329
 1802SOL    HW217040   4.147   3.579  17.313  0.8290 -1.9573  1.1569
 1803SOL     OW17041   2.040   4.510  10.547 -0.1140 -0.4222 -0.6683
 1803SOL    HW117042   2.030   4.556  10.631 -2.9101 -1.2998 -0.5051
 1803SOL    HW217043   2.070   4.425  10.576 -0.9330 -0.8085 -0.9476
 1804SOL     OW17044   4.108   0.648   2.419  0.0880  0.0756 -0.0035
 1804SOL    HW117045   4.137   0.629   2.508  1.2984  0.8193 -0.2360
 1804SOL    HW217046   4.143   0.573   2.370  3.5234  1.2642  0.6465
 1805SOL     OW17047   0.034   1.414   6.266  0.6287 -0.1400  0.3289
 1805SOL    HW117048   4.684   1.445   6.246  1.0729  1.9685  1.6976
 1805SOL    HW217049   0.044   1.357   6.190  2.0771 -0.5625  0.8323
 1806SOL     OW17050   0.650   3.570   3.650  0.2502  0.8005 -0.4784
 1806SOL    HW117051   0.634   3.514   3.574  1.5280  1.9671 -1.6107
 1806SOL    HW217052   0.564   3.608   3.671 -0.0417  0.6739 -1.4626
 1807SOL     OW17053   4.052   0.803  13.047  0.3841 -0.2192 -0.1632
 1807SOL    HW117054   4.113   0.852  12.991 -0.6156 -0.3206 -1.3519
 1807SOL    HW217055   4.108   0.730  13.072 -1.4651 -1.6895 -0.3817
 1808SOL     OW17056   1.536   0.808  11.531 -0.6850 -1.1118 -0.1320
 1808SOL    HW117057   1.522   0.846  11.444  1.0603  3.0114  1.3895
 1808SOL    HW217058   1.452   0.828  11.573 -0.3098 -0.5491  0.3541
 1809SOL     OW17059   0.208   2.248   5.397 -0.5959 -0.3880 -0.1730
 1809SOL    HW117060   0.225   2.317   5.332  3.0480 -1.6812 -0.5895
 1809SOL    HW217061   0.231   2.174   5.340 -0.6858  0.6738 -1.6027
 1810SOL     OW17062   0.269   2.763  12.882  0.1334  0.0243  0.4007
 1810SOL    HW117063   0.288   2.674  12.912  0.7336  0.1885  0.5112
 1810SOL    HW217064   0.352   2.805  12.860  0.0571 -0.5536 -0.9387
 1811SOL     OW17065   1.177   3.361  17.679 -0.4514 -0.1980 -0.1348
 1811SOL    HW117066   1.187   3.274  17.639 -0.6428  0.9424 -2.6322
 1811SOL    HW217067   1.092   3.343  17.721 -0.3899 -0.5382 -0.1519
 1812SOL     OW17068   1.556   2.455   8.195  0.0507  0.2445  0.2321
 1812SOL    HW117069   1.505   2.404   8.258 -1.4164  2.2453  0.6712
 1812SOL    HW217070   1.643   2.414   8.197  0.5371  1.2169 -0.9689
 1813SOL     OW17071   3.971   3.726  12.127 -0.0316 -0.1900  0.2001
 1813SOL    HW117072   3.953   3.633  12.136  1.2506 -0.3475  1.0345
 1813SOL    HW217073   3.981   3.732  12.032  0.1160 -0.0394  0.2239
 1814SOL     OW17074   3.303   2.794   6.342  0.3087 -0.6277  0.2386
 1814SOL    HW117075   3.219   2.808   6.298  0.1810 -1.0386  0.3518
 1814SOL    HW217076   3.268   2.748   6.417 -0.6593  1.4057  1.0325
 1815SOL     OW17077   1.424   1.819   5.273 -0.4454  0.3677  0.0758
 1815SOL    HW117078   1.388   1.908   5.275  1.7585  1.3277 -3.2450
 1815SOL    HW217079   1.416   1.798   5.366 -2.5053  0.0482 -0.1745
 1816SOL     OW17080   1.096   3.714   7.056  0.1266 -0.8823  0.3309
 1816SOL    HW117081   1.113   3.768   6.979  3.8137 -0.6194  1.3654
 1816SOL    HW217082   1.077   3.787   7.116 -2.7069  0.9462 -2.7953
 1817SOL     OW17083   2.591   0.926   6.400 -0.2661 -0.3660  0.5604
 1817SOL    HW117084   2.517   0.900   6.345  0.1571  2.2434 -1.2252
 1817SOL    HW217085   2.652   0.856   6.378 -0.8333 -0.2651 -1.3369
 1818SOL     OW17086   0.742   0.326  13.133 -0.3661 -0.3567  0.0995
 1818SOL    HW117087   0.700   0.251  13.175  1.1663 -0.8180  0.8189
 1818SOL    HW217088   0.672   0.390  13.149  0.3875  0.9415 -1.8613
 1819SOL     OW17089   3.072   4.404   7.636  0.3309  1.2737  0.5696
 1819SOL    HW117090   2.987   4.430   7.602 -0.7604 -2.7205  0.2500
 1819SOL    HW217091   3.073   4.468   7.707  1.0443 -1.1325  2.7326
 1820SOL     OW17092   0.449   0.003   1.817  0.4276 -0.2234  0.0752
 1820SOL    HW117093   0.523   4.691   1.853 -1.5016 -3.4187 -0.4322
 1820SOL    HW217094   0.382   4.711   1.878  0.2989 -0.8884 -0.3880
 1821SOL     OW17095   4.047   4.151   6.269 -0.1986  0.8610 -0.4144
 1821SOL    HW117096   4.135   4.127   6.241 -0.3157  1.1842 -1.0605
 1821SOL    HW217097   4.058   4.245   6.281  1.9845  0.7531 -1.6352
 1822SOL     OW17098   2.689   2.890   4.905 -0.0646 -0.1913 -0.0034
 1822SOL    HW117099   2.616   2.884   4.844  0.6479 -2.1680 -0.6775
 1822SOL    HW217100   2.636   2.896   4.984  1.4178 -1.3708  1.0797
 1823SOL     OW17101   3.172   4.355   5.045 -0.1638 -0.0564 -0.7856
 1823SOL    HW117102   3.140   4.267   5.029 -0.8480 -0.1569  1.0639
 1823SOL    HW217103   3.164   4.385   4.955  0.6129  1.3481 -0.4012
 1824SOL     OW17104   1.292   2.374   0.282 -0.4432 -0.2388  0.4012
 1824SOL    HW117105   1.297   2.464   0.250  0.1635 -0.8398 -1.2204
 1824SOL    HW217106   1.358   2.325   0.232  1.4999  0.9792  1.7526
 1825SOL     OW17107   0.304   1.412   3.019  0.2108 -0.2564 -0.0467
 1825SOL    HW117108   0.348   1.485   2.976 -0.4225 -0.5325 -1.1735
 1825SOL    HW217109   0.306   1.342   2.953  1.5504  1.2226 -1.5675
 1826SOL     OW17110   1.493   2.439  11.611  0.5017  0.4086  0.2632
 1826SOL    HW117111   1.566   2.487  11.573  1.1801 -1.5410 -0.9258
 1826SOL    HW217112   1.542   2.396  11.682  1.5749 -0.2982 -0.8988
 1827SOL     OW17113   0.595   0.216   7.185  0.4820 -0.0571 -0.2539
 1827SOL    HW117114   0.591   0.251   7.273 -0.0691  2.1314 -1.1614
 1827SOL    HW217115   0.611   0.124   7.208  2.2555  0.5456  0.8663
 1828SOL     OW17116   3.311   3.013   5.425 -0.1623 -0.3896  0.4826
 1828SOL    HW117117   3.256   3.011   5.346  0.2921  1.6799  0.1071
 1828SOL    HW217118   3.396   2.976   5.399 -0.1854  2.4665 -3.7698
 1829SOL     OW17119   4.093   3.440   8.530 -0.0652  0.3686 -0.1221
 1829SOL    HW117120   4.137   3.519   8.497  2.8016 -1.4211 -0.5674
 1829SOL    HW217121   4.129   3.437   8.618 -0.1236 -1.9949 -0.1912
 1830SOL     OW17122   2.410   1.221   3.379 -0.4045  0.2769 -0.1780
 1830SOL    HW117123   2.504   1.221   3.395 -0.3864  1.5710 -0.2231
 1830SOL    HW217124   2.384   1.131   3.398  3.4481 -0.3594  1.9789
 1831SOL     OW17125   2.319   4.181   6.074  0.1436  0.0543 -0.6954
 1831SOL    HW117126   2.381   4.132   6.021 -0.1556  0.6167 -1.5763
 1831SOL    HW217127   2.264   4.212   6.002 -1.9299  0.9861  1.2912
 1832SOL     OW17128   4.522   4.732  14.089 -0.3346  0.3140 -0.2951
 1832SOL    HW117129   4.569   0.036  14.161  1.1299 -3.6607  1.0851
 1832SOL    HW217130   4.579   4.661  14.061 -0.1057 -0.7634  2.8841
 1833SOL     OW17131   0.448   0.720   8.497 -0.3426 -0.4538  0.1314
 1833SOL    HW117132   0.397   0.644   8.469 -0.9326  1.1705 -3.2305
 1833SOL    HW217133   0.535   0.683   8.502 -0.1625 -0.0688 -0.1397
 1834SOL     OW17134   0.557   3.373   7.289 -0.9874  0.4373  0.5816
 1834SOL    HW117135   0.618   3.308   7.323 -0.6641 -0.6395 -2.0126
 1834SOL    HW217136   0.530   3.335   7.205 -1.7322  1.1387  0.5000
 1835SOL     OW17137   1.641   4.505   6.685 -0.0459 -0.2548 -0.6011
 1835SOL    HW117138   1.656   4.452   6.606  0.4707  1.9375 -1.9946
 1835SOL    HW217139   1.719   4.504   6.740  0.0525  0.6320 -0.7135
 1836SOL     OW17140   0.271   3.363   2.426 -0.1933 -0.0194 -0.3422
 1836SOL    HW117141   0.218   3.340   2.350  1.1194  1.0232 -1.5730
 1836SOL    HW217142   0.214   3.421   2.477  0.0818 -0.3257  0.3081
 1837SOL     OW17143   1.510   0.425   1.785 -0.0977  0.3848  0.0071
 1837SOL    HW117144   1.448   0.354   1.766  1.3914 -1.2723  1.3071
 1837SOL    HW217145   1.579   0.413   1.719 -0.4946 -2.3295  0.0914
 1838SOL     OW17146   1.232   2.390  11.172  0.3232  0.6406  0.7229
 1838SOL    HW117147   1.300   2.393  11.240  1.7784  0.0700 -0.6984
 1838SOL    HW217148   1.159   2.424  11.223 -1.0644 -0.1530 -0.7584
 1839SOL     OW17149   2.378   0.294  12.533  0.4490  0.3888 -0.0839
 1839SOL    HW117150   2.302   0.238  12.517  0.2428  0.9719 -1.1311
 1839SOL    HW217151   2.423   0.263  12.611  1.4076 -0.0153 -0.7998
 1840SOL     OW17152   3.473   0.869   3.773  0.4839 -0.8296  0.2297
 1840SOL    HW117153   3.569   0.876   3.772  0.5242 -0.8152  2.4608
 1840SOL    HW217154   3.457   0.909   3.688 -0.7501  0.7703  1.2283
 1841SOL     OW17155   1.270   2.093   2.728  0.4950 -0.2533  0.0397
 1841SOL    HW117156   1.326   2.059   2.798  1.5906  1.3566 -0.0532
 1841SOL    HW217157   1.210   2.019   2.722 -1.3930  1.2210  0.5972
 1842SOL     OW17158   1.188   3.551  11.467 -0.2259 -0.2146  0.1404
 1842SOL    HW117159   1.197   3.520  11.377  0.3330  1.0686 -0.2474
 1842SOL    HW217160   1.222   3.479  11.520 -1.0330  0.3350  1.3996
 1843SOL     OW17161   0.397   2.871   4.199 -0.1849  0.2471  0.2188
 1843SOL    HW117162   0.376   2.848   4.108  2.6507 -2.6192  0.2830
 1843SOL    HW217163   0.491   2.851   4.201 -0.6809 -2.2628 -0.3780
 1844SOL     OW17164   1.034   1.081  14.694 -0.5248  0.0497 -0.1961
 1844SOL    HW117165   1.080   1.066  14.612  0.9317  1.2609  0.3726
 1844SOL    HW217166   1.052   1.000  14.743 -0.0526  0.5921  0.5402
 1845SOL     OW17167   0.996   1.023   6.870  0.2635  0.1919 -0.3559
 1845SOL    HW117168   0.994   0.973   6.951  0.4881 -0.2591 -0.6306
 1845SOL    HW217169   0.905   1.038   6.845  1.0869 -0.0729 -3.5231
 1846SOL     OW17170   1.502   1.846  10.209 -0.3317  0.0172 -0.3867
 1846SOL    HW117171   1.408   1.826  10.204 -0.3317  0.1477 -0.9087
 1846SOL    HW217172   1.529   1.756  10.223 -0.5200  0.0603  0.2348
 1847SOL     OW17173   2.406   0.263   3.668  0.2583 -0.1319  0.6591
 1847SOL    HW117174   2.398   0.356   3.687  3.2152  0.0560  0.9897
 1847SOL    HW217175   2.313   0.243   3.658 -0.4837  3.3822  0.6292
 1848SOL     OW17176   2.972   3.373   6.606 -0.4548 -0.2305 -0.2534
 1848SOL    HW117177   2.959   3.341   6.695 -1.5267 -1.9516 -1.0371
 1848SOL    HW217178   2.954   3.296   6.553 -1.5577 -3.2405  4.5323
 1849SOL     OW17179   2.960   2.855  12.376  0.3909 -0.2188  0.1316
 1849SOL    HW117180   2.980   2.875  12.468  2.6790 -0.7143 -0.2571
 1849SOL    HW217181   2.888   2.792  12.389 -0.7535  0.9930 -0.3275
 1850SOL     OW17182   4.140   2.077  16.945  0.4904 -0.2198  0.6036
 1850SOL    HW117183   4.131   2.009  16.879  0.9856 -0.1509  0.4660
 1850SOL    HW217184   4.113   2.029  17.023 -2.1597  0.5569  0.1602
 1851SOL     OW17185   3.394   1.771   4.063  0.0006 -0.5199 -0.1786
 1851SOL    HW117186   3.388   1.743   4.155 -0.2161  1.7471  0.5015
 1851SOL    HW217187   3.468   1.832   4.061 -0.8323  0.5648  1.4343
 1852SOL     OW17188   3.248   1.236  11.351  0.0663 -0.1570  0.3362
 1852SOL    HW117189   3.248   1.292  11.273  0.2512  1.6576  1.6442
 1852SOL    HW217190   3.266   1.158  11.299  5.2183  1.8508 -0.8675
 1853SOL     OW17191   4.655   2.804   9.626  0.4514  0.1322  0.1853
 1853SOL    HW117192   4.714   2.744   9.580  0.9502 -2.3510  4.0931
 1853SOL    HW217193   4.672   2.781   9.717 -0.0774  1.5578  0.6439
 1854SOL     OW17194   0.730   0.745   1.238 -0.7507 -0.2147 -0.0358
 1854SOL    HW117195   0.794   0.808   1.272 -0.8495  1.0691 -2.1983
 1854SOL    HW217196   0.730   0.676   1.305 -2.1704  0.5542  0.7748
 1855SOL     OW17197   1.220   3.754   8.925 -0.2174 -0.7360 -0.4889
 1855SOL    HW117198   1.131   3.744   8.957 -0.9085  2.8491 -1.2481
 1855SOL    HW217199   1.261   3.766   9.010 -3.5841 -1.3610  1.2219
 1856SOL     OW17200   1.190   3.197   1.396 -0.1524  0.0340 -0.0842
 1856SOL    HW117201   1.210   3.104   1.409  1.6346  0.2594 -1.2005
 1856SOL    HW217202   1.204   3.226   1.487 -0.1614 -1.3796  0.3621
 1857SOL     OW17203   2.372   2.530   5.668 -0.2581  0.2048 -0.3787
 1857SOL    HW117204   2.324   2.536   5.585  1.0072  1.1243 -1.0316
 1857SOL    HW217205   2.465   2.535   5.647 -0.3826  3.0290 -0.2438
 1858SOL     OW17206   3.859   2.030   2.259  0.6915 -0.2980 -0.1432
 1858SOL    HW117207   3.891   1.944   2.232 -0.3195 -0.9217  0.6244
 1858SOL    HW217208   3.779   2.030   2.206  0.3402  0.6639  0.3860
 1859SOL     OW17209   4.095   2.995   2.825 -0.3810 -0.4269 -0.3038
 1859SOL    HW117210   4.016   3.045   2.846  0.0865 -1.2394  3.3753
 1859SOL    HW217211   4.163   3.058   2.850 -1.2070  0.1398  0.5554
 1860SOL     OW17212   0.897   2.781  13.472 -0.0289 -0.0207 -0.1980
 1860SOL    HW117213   0.980   2.829  13.468 -1.1373  1.7570 -2.2950
 1860SOL    HW217214   0.831   2.844  13.501  0.3957  0.6693 -0.7205
 1861SOL     OW17215   3.356   4.010   7.830  0.4530  0.3260 -0.0742
 1861SOL    HW117216   3.350   3.938   7.894 -3.1107 -0.1159 -0.9416
 1861SOL    HW217217   3.319   4.080   7.883 -0.1002  0.2737 -0.3987
 1862SOL     OW17218   0.404   0.181   7.707  0.0685 -0.1553 -0.6146
 1862SOL    HW117219   0.474   0.222   7.657 -1.5979  0.8871 -2.0863
 1862SOL    HW217220   0.330   0.196   7.649 -2.0085 -0.5135  1.9407
 1863SOL     OW17221   2.867   4.420   6.645 -0.4568  0.5948  0.1427
 1863SOL    HW117222   2.900   4.387   6.562 -2.5747 -0.8259 -0.1403
 1863SOL    HW217223   2.801   4.480   6.610 -0.9650  0.0562  0.1729
 1864SOL     OW17224   1.277   4.177   1.379  0.3530  0.0045 -0.3685
 1864SOL    HW117225   1.249   4.102   1.326 -1.8493  1.6100 -1.4559
 1864SOL    HW217226   1.372   4.168   1.369  0.6967  1.4933  1.5446
 1865SOL     OW17227   0.879   2.609   4.708  0.4729 -0.0877 -0.0637
 1865SOL    HW117228   0.916   2.696   4.726  2.2370 -1.0989  1.2682
 1865SOL    HW217229   0.944   2.580   4.644  0.4954  1.7416 -0.8872
 1866SOL     OW17230   2.065   2.127   7.749 -0.0154 -0.8047  0.7697
 1866SOL    HW117231   1.979   2.086   7.748 -0.1739 -0.4602  0.5369
 1866SOL    HW217232   2.113   2.052   7.714 -0.4790 -0.3061 -0.8987
 1867SOL     OW17233   0.745   4.280   6.596 -0.5255 -0.5039  0.7530
 1867SOL    HW117234   0.821   4.237   6.555  1.8815  3.3163  1.2163
 1867SOL    HW217235   0.690   4.289   6.517 -1.5307 -1.3387  1.3609
 1868SOL     OW17236   2.326   1.886   1.075 -0.5404 -0.4124 -0.0762
 1868SOL    HW117237   2.347   1.833   0.998  0.3997  0.0381 -0.1245
 1868SOL    HW217238   2.399   1.873   1.135 -0.8668  1.8335  0.8076
 1869SOL     OW17239   1.001   2.553   0.083  0.0649  0.3353 -0.3115
 1869SOL    HW117240   1.038   2.525  17.749  2.1049 -0.2459  0.7940
 1869SOL    HW217241   0.950   2.632   0.064  0.5248  1.1698  1.8584
 1870SOL     OW17242   3.464   3.687   8.255 -0.3978  0.5583 -0.3940
 1870SOL    HW117243   3.506   3.689   8.169 -0.7400 -1.7996 -0.6101
 1870SOL    HW217244   3.476   3.594   8.274  0.6911  0.9772  0.9284
 1871SOL     OW17245   1.109   4.588  11.010 -0.1048 -0.1497 -0.1465
 1871SOL    HW117246   1.160   4.602  10.930  1.8192 -1.9951  0.7659
 1871SOL    HW217247   1.152   4.516  11.055 -1.7748  0.3234  2.1822
 1872SOL     OW17248   2.100   1.617   5.914  0.3664  0.2552  0.0977
 1872SOL    HW117249   2.118   1.707   5.940 -0.1644 -0.1503  1.8919
 1872SOL    HW217250   2.113   1.576   5.999  0.9156 -2.4249 -1.2820
 1873SOL     OW17251   3.357   1.662   7.635 -0.7024  0.0218  0.0133
 1873SOL    HW117252   3.276   1.693   7.676 -0.7939 -1.1937  0.7497
 1873SOL    HW217253   3.320   1.574   7.637  0.1447 -0.3374 -0.0911
 1874SOL     OW17254   1.511   2.487  17.546 -0.3397 -0.1268  0.4409
 1874SOL    HW117255   1.500   2.581  17.560  1.6531  0.6277 -2.9105
 1874SOL    HW217256   1.441   2.455  17.603 -0.3996 -2.2322 -0.8249
 1875SOL     OW17257   4.379   0.813   7.562  0.0162  0.4523 -0.9506
 1875SOL    HW117258   4.322   0.754   7.611  0.2719  2.5928  1.9204
 1875SOL    HW217259   4.346   0.900   7.586 -2.8798 -0.1389 -2.7794
 1876SOL     OW17260   4.078   1.865   3.759 -0.1880  0.5262 -0.1280
 1876SOL    HW117261   4.122   1.924   3.820 -0.3374 -0.2094  0.7013
 1876SOL    HW217262   4.140   1.792   3.765  0.4934  1.0629 -0.7253
 1877SOL     OW17263   3.524   3.361  16.287 -0.0367  0.3152  0.4756
 1877SOL    HW117264   3.489   3.417  16.356  1.4447  1.8127 -0.0120
 1877SOL    HW217265   3.617   3.371  16.306  0.6633 -2.2663 -1.5897
 1878SOL     OW17266   1.219   2.124   2.429  0.0836  0.6981 -0.4971
 1878SOL    HW117267   1.305   2.164   2.415  2.1189 -2.7277  2.1574
 1878SOL    HW217268   1.230   2.095   2.519  3.0840 -1.3422 -1.5206
 1879SOL     OW17269   3.720   2.836   9.765  0.1492 -0.4062  0.1298
 1879SOL    HW117270   3.628   2.825   9.740  0.3082  0.8570 -0.9560
 1879SOL    HW217271   3.769   2.793   9.695 -0.8525 -0.9937 -0.2195
 1880SOL     OW17272   2.679   1.869   7.373  0.1406  0.1090 -0.0405
 1880SOL    HW117273   2.616   1.931   7.335  0.7485  2.6283  3.0758
 1880SOL    HW217274   2.713   1.822   7.297 -1.0011 -0.4109 -0.2216
 1881SOL     OW17275   0.369   1.916   9.697 -0.4056  0.2193 -0.2380
 1881SOL    HW117276   0.355   1.835   9.745 -0.5821  0.5573  0.2855
 1881SOL    HW217277   0.308   1.976   9.741 -0.1651 -0.1589  0.5976
 1882SOL     OW17278   4.121   0.545   4.039  0.7843  0.4201  0.4802
 1882SOL    HW117279   4.122   0.540   4.135  0.2487  0.4050  0.4884
 1882SOL    HW217280   4.057   0.613   4.021  0.5097  0.0027 -0.1215
 1883SOL     OW17281   1.295   1.598   4.221  0.3767  0.4136  0.0431
 1883SOL    HW117282   1.246   1.676   4.194 -0.2347 -0.4797 -1.4648
 1883SOL    HW217283   1.227   1.531   4.209  1.2478 -0.4681  0.0419
 1884SOL     OW17284   1.044   3.632   7.985  0.6421 -0.3501 -0.0292
 1884SOL    HW117285   0.982   3.564   7.956  1.4246 -0.8611 -0.5314
 1884SOL    HW217286   1.005   3.700   7.930 -1.0416 -1.6092 -0.3910
 1885SOL     OW17287   2.279   2.713  11.004  0.2411 -0.0691  0.1381
 1885SOL    HW117288   2.320   2.777  11.064 -0.2670  0.6679 -0.3000
 1885SOL    HW217289   2.205   2.771  10.987  0.6658  0.0909 -1.2020
 1886SOL     OW17290   2.781   3.205   7.576  0.4406 -0.1644  0.5555
 1886SOL    HW117291   2.722   3.177   7.645 -0.1698  0.1127  0.1447
 1886SOL    HW217292   2.770   3.299   7.593  0.4592 -0.7637  3.7792
 1887SOL     OW17293   0.920   2.349   4.817 -0.5500  0.0418  0.0287
 1887SOL    HW117294   0.903   2.441   4.795  1.2790  0.0251 -1.4385
 1887SOL    HW217295   0.930   2.317   4.727  1.8255  0.4060  0.1774
 1888SOL     OW17296   3.448   4.138  16.734  0.5815 -0.9625 -0.0750
 1888SOL    HW117297   3.392   4.212  16.759  1.8991  0.6396 -1.8583
 1888SOL    HW217298   3.391   4.098  16.668  1.7056 -0.4118 -1.3889
 1889SOL     OW17299   3.043   3.523   4.877  0.1522 -0.5809 -0.1498
 1889SOL    HW117300   3.074   3.538   4.966 -1.8245 -0.3287  0.5001
 1889SOL    HW217301   2.967   3.466   4.890  1.1264 -1.6312  0.9317
 1890SOL     OW17302   0.541   2.307   5.063 -0.0030  0.0817 -0.1767
 1890SOL    HW117303   0.543   2.322   5.158  1.0375  0.1246 -0.2085
 1890SOL    HW217304   0.622   2.350   5.035  0.2086 -0.3052 -0.1590
 1891SOL     OW17305   0.745   3.577   4.312  0.0657  0.1317 -0.1146
 1891SOL    HW117306   0.737   3.482   4.308 -0.4524  0.1649  0.1584
 1891SOL    HW217307   0.668   3.602   4.260 -0.3040 -1.1183 -0.1762
 1892SOL     OW17308   2.078   1.785   1.587 -0.4023 -0.3338 -1.0670
 1892SOL    HW117309   2.127   1.808   1.508  1.4608  0.0938  0.2188
 1892SOL    HW217310   1.989   1.782   1.550 -1.2906 -0.6381  1.1100
 1893SOL     OW17311   1.969   1.718   5.277  0.1214  0.3249 -0.1807
 1893SOL    HW117312   1.973   1.744   5.369  0.5453  5.2117 -1.5815
 1893SOL    HW217313   2.042   1.766   5.239  1.2496 -0.1146  1.4241
 1894SOL     OW17314   1.397   4.364   6.914  0.1450  0.2974  0.2866
 1894SOL    HW117315   1.335   4.383   6.844 -2.6589 -0.7176  2.4829
 1894SOL    HW217316   1.346   4.307   6.972  1.2806  1.7131  2.7125
 1895SOL     OW17317   3.766   0.742   7.253  0.0271  0.2945 -0.1074
 1895SOL    HW117318   3.822   0.682   7.301  0.6854  1.3459  0.4411
 1895SOL    HW217319   3.808   0.733   7.167 -0.4626  0.5693 -0.3795
 1896SOL     OW17320   0.551   2.467  16.737  0.0843 -0.3412  0.4748
 1896SOL    HW117321   0.558   2.561  16.718 -2.8680 -0.1385  0.4351
 1896SOL    HW217322   0.476   2.436  16.686 -0.0169  0.4936  0.1093
 1897SOL     OW17323   0.670   1.739   1.577  0.2453  0.1468 -0.4716
 1897SOL    HW117324   0.641   1.762   1.489  2.3434  2.8527 -0.4710
 1897SOL    HW217325   0.759   1.774   1.583 -0.5103  1.5661  2.5273
 1898SOL     OW17326   1.828   1.865   6.736  0.4399 -0.0525 -0.6481
 1898SOL    HW117327   1.810   1.845   6.828 -0.5141  0.5841 -0.6915
 1898SOL    HW217328   1.836   1.960   6.747  2.5472 -0.1979 -0.8381
 1899SOL     OW17329   1.678   3.927   2.295  0.1550 -0.9261  0.2733
 1899SOL    HW117330   1.654   3.912   2.203 -1.8311  1.5559  0.3907
 1899SOL    HW217331   1.650   3.845   2.337 -0.4784 -0.8175  0.0685
 1900SOL     OW17332   2.241   2.591   1.756 -0.0807  0.0986 -0.5018
 1900SOL    HW117333   2.270   2.515   1.807  2.7282  0.5080 -1.4672
 1900SOL    HW217334   2.282   2.666   1.799 -1.6493  0.3684  0.4977
 1901SOL     OW17335   2.301   0.354   6.898  0.3570  0.2425 -0.2189
 1901SOL    HW117336   2.277   0.282   6.841 -0.9562  1.9581 -1.8388
 1901SOL    HW217337   2.213   0.386   6.915  0.9619  2.0054 -0.3086
 1902SOL     OW17338   2.659   2.128  15.570 -0.0481  0.1325 -0.2127
 1902SOL    HW117339   2.626   2.083  15.647  0.7582 -3.9741 -2.2573
 1902SOL    HW217340   2.726   2.188  15.604 -2.8579  2.7915  0.6656
 1903SOL     OW17341   0.247   3.570   4.995  0.3907 -0.1382  0.3470
 1903SOL    HW117342   0.165   3.547   4.952  1.6508  0.3369 -2.2901
 1903SOL    HW217343   0.287   3.483   4.994  1.8878  0.5138  3.1586
 1904SOL     OW17344   1.839   0.765   7.331  0.5800  0.5875 -0.3684
 1904SOL    HW117345   1.789   0.779   7.251  2.9460 -1.1985 -2.1614
 1904SOL    HW217346   1.908   0.702   7.311  1.3742  1.3611 -0.1144
 1905SOL     OW17347   3.935   2.465   5.696 -0.0868 -0.1277  0.2556
 1905SOL    HW117348   3.907   2.499   5.611 -0.5992 -1.6785 -0.2138
 1905SOL    HW217349   3.899   2.377   5.683 -0.7457  0.2694 -0.6462
 1906SOL     OW17350   1.574   3.753   7.278  0.0783  0.2626 -0.0604
 1906SOL    HW117351   1.490   3.721   7.311  0.8840 -1.7923  0.0746
 1906SOL    HW217352   1.539   3.797   7.201  1.0540 -0.5366 -0.9599
 1907SOL     OW17353   4.599   2.299   3.355 -0.2595  0.3726  0.5809
 1907SOL    HW117354   4.542   2.312   3.279 -0.5784 -0.7200  0.6366
 1907SOL    HW217355   4.539   2.257   3.417 -0.2902 -1.3487 -0.6048
 1908SOL     OW17356   4.402   1.563   4.973  0.0675  0.6377  0.0167
 1908SOL    HW117357   4.432   1.503   5.042  0.5153  1.0822  0.2177
 1908SOL    HW217358   4.307   1.560   4.983  0.1398 -0.3894  0.4517
 1909SOL     OW17359   0.700   0.850   5.514 -0.1386  0.2035 -0.0428
 1909SOL    HW117360   0.779   0.902   5.534  2.0376 -2.8092 -0.7657
 1909SOL    HW217361   0.745   0.766   5.512 -0.6258 -0.0031 -2.6015
 1910SOL     OW17362   3.964   3.974   9.381  0.2682 -0.2951 -0.1379
 1910SOL    HW117363   3.870   3.985   9.398 -0.0357 -0.9815 -1.4143
 1910SOL    HW217364   3.987   3.917   9.455  0.8904  1.0248  0.6956
 1911SOL     OW17365   1.819   3.934   6.578  0.1851 -0.4480 -0.2009
 1911SOL    HW117366   1.842   3.873   6.508  0.1109 -0.9328  0.2026
 1911SOL    HW217367   1.750   3.991   6.542  0.6474 -0.7683 -1.6045
 1912SOL     OW17368   3.421   0.517  15.963  0.1669  0.3733 -0.4948
 1912SOL    HW117369   3.429   0.448  15.897  0.9936  0.0778 -0.0895
 1912SOL    HW217370   3.511   0.536  15.988  0.3823  0.0256 -1.0088
 1913SOL     OW17371   3.781   2.134   7.434 -0.7701 -0.3742  0.1130
 1913SOL    HW117372   3.783   2.057   7.490 -0.2892  1.0828  2.1204
 1913SOL    HW217373   3.728   2.199   7.481 -0.7710 -1.0170  1.0165
 1914SOL     OW17374   1.093   1.180   6.177  0.4397 -0.0150 -0.0993
 1914SOL    HW117375   1.077   1.232   6.098  2.6878  2.3368  0.9827
 1914SOL    HW217376   1.129   1.102   6.136 -0.4723 -0.5862  0.1802
 1915SOL     OW17377   3.672   1.489   8.507  0.0476 -0.7263  0.9645
 1915SOL    HW117378   3.619   1.452   8.436  2.2929  0.7990 -1.5148
 1915SOL    HW217379   3.609   1.502   8.578  0.8825  2.2219  1.1374
 1916SOL     OW17380   1.625   4.372   6.068  0.0997  0.1307 -0.4279
 1916SOL    HW117381   1.586   4.335   6.148  0.5504  0.2662 -0.1431
 1916SOL    HW217382   1.702   4.413   6.108  0.3155 -1.1061  0.4407
 1917SOL     OW17383   2.401   0.630   5.668  0.2761 -0.3801  0.3739
 1917SOL    HW117384   2.307   0.620   5.655  0.2785 -1.2990  1.0389
 1917SOL    HW217385   2.403   0.684   5.747 -1.2672 -0.0106  0.1445
 1918SOL     OW17386   3.406   3.226   1.810 -0.8205 -0.0347 -0.1823
 1918SOL    HW117387   3.411   3.267   1.724  1.3463  1.9389  0.8610
 1918SOL    HW217388   3.325   3.262   1.845 -1.3864 -0.7925 -0.7270
 1919SOL     OW17389   0.139   1.273   4.311 -0.0200  0.4253  0.0456
 1919SOL    HW117390   0.157   1.352   4.363  0.3608  0.1902  0.2712
 1919SOL    HW217391   0.156   1.301   4.221 -0.8912  0.2757 -0.1633
 1920SOL     OW17392   4.689   1.898   4.421 -0.4059  0.4671 -0.0857
 1920SOL    HW117393   0.012   1.964   4.454 -1.1467 -0.1601  2.4930
 1920SOL    HW217394   4.608   1.917   4.468 -0.9834  2.8652 -2.0385
 1921SOL     OW17395   3.351   3.463   9.191  0.5971  0.1090 -0.2850
 1921SOL    HW117396   3.372   3.403   9.119  0.6957 -0.3967  0.1631
 1921SOL    HW217397   3.398   3.540   9.158 -0.7448  0.3969 -1.5255
 1922SOL     OW17398   1.960   2.644  16.252  0.2156  0.3377 -0.3545
 1922SOL    HW117399   2.047   2.683  16.240  0.3396  0.1976  0.0683
 1922SOL    HW217400   1.983   2.555  16.228 -1.3247 -0.0405 -0.3984
 1923SOL     OW17401   2.917   2.829  17.398 -0.3068  0.3408  0.5430
 1923SOL    HW117402   2.920   2.905  17.457 -1.6562  0.2758  0.6916
 1923SOL    HW217403   2.918   2.880  17.317 -0.5414 -0.8202 -0.1876
 1924SOL     OW17404   0.616   4.381   6.355  0.4641 -0.1063 -0.2583
 1924SOL    HW117405   0.552   4.321   6.318 -0.1549 -1.1028  2.4317
 1924SOL    HW217406   0.571   4.460   6.387 -1.7243 -0.9349 -1.2884
 1925SOL     OW17407   0.320   4.288   5.741 -0.0135  0.0306 -0.1799
 1925SOL    HW117408   0.260   4.352   5.704 -2.0366 -1.7361  0.0581
 1925SOL    HW217409   0.400   4.299   5.689 -0.4580 -0.6577 -1.0018
 1926SOL     OW17410   0.582   1.646   3.221 -0.2965  0.0945  0.3970
 1926SOL    HW117411   0.677   1.643   3.231 -0.3544  0.2225  0.9557
 1926SOL    HW217412   0.562   1.669   3.311 -3.1117 -0.0061 -0.1966
 1927SOL     OW17413   0.233   1.914   6.834 -0.0688  0.1741  0.0114
 1927SOL    HW117414   0.284   1.867   6.899 -0.4711 -1.7436 -1.0344
 1927SOL    HW217415   0.228   1.843   6.769  2.7404  1.0161 -1.1300
 1928SOL     OW17416   0.130   2.758   3.801 -0.2169 -0.1602 -0.0421
 1928SOL    HW117417   0.057   2.695   3.802  1.6403 -2.3468 -0.8227
 1928SOL    HW217418   0.101   2.816   3.731  0.1174  0.6060  0.4659
 1929SOL     OW17419   3.704   3.195   7.088  0.2335  0.3340 -0.7065
 1929SOL    HW117420   3.779   3.218   7.033  1.7015 -1.3690  0.5929
 1929SOL    HW217421   3.667   3.283   7.082  4.9636  2.3148 -0.5786
 1930SOL     OW17422   4.339   0.055  12.219  0.5659 -0.0528  0.1049
 1930SOL    HW117423   4.358   4.699  12.218 -1.5337 -0.4425 -2.9671
 1930SOL    HW217424   4.354   0.093  12.132  1.2377 -0.8351 -0.1169
 1931SOL     OW17425   3.160   4.680  17.550 -0.1686 -0.2662 -1.3766
 1931SOL    HW117426   3.198   4.614  17.492  1.1849 -2.2797  1.7730
 1931SOL    HW217427   3.235   4.728  17.586 -0.7827 -0.5129  0.2266
 1932SOL     OW17428   2.117   2.970  17.007 -0.0929  0.2366  0.5711
 1932SOL    HW117429   2.032   2.937  16.977  0.4789  1.4476 -2.3824
 1932SOL    HW217430   2.081   3.022  17.079 -1.3039  0.4828 -0.2133
 1933SOL     OW17431   0.853   3.078   0.247  0.0380 -0.6045 -0.2669
 1933SOL    HW117432   0.918   3.066   0.315 -1.4248  1.2053  1.4541
 1933SOL    HW217433   0.826   2.988   0.231  3.2924 -1.6309  0.1048
 1934SOL     OW17434   4.242   1.903   1.067 -0.3633  0.2311 -0.2069
 1934SOL    HW117435   4.310   1.949   1.118  0.4739 -0.9438 -0.2624
 1934SOL    HW217436   4.277   1.815   1.081  0.1931  0.2405 -1.5326
 1935SOL     OW17437   2.971   0.126  12.841  0.2770  0.2062 -0.4097
 1935SOL    HW117438   2.906   0.182  12.798  2.5096  1.4171 -2.1919
 1935SOL    HW217439   3.047   0.147  12.787  1.2998  2.4432  1.9059
 1936SOL     OW17440   0.085   4.692  12.280 -0.4952  0.0869  0.1896
 1936SOL    HW117441   0.098   0.028  12.219 -0.5673  0.8113  1.0526
 1936SOL    HW217442   0.170   4.681  12.322 -1.5927  1.4367  2.7290
 1937SOL     OW17443   1.069   0.512   7.281  0.3974 -0.2840  0.0172
 1937SOL    HW117444   1.144   0.480   7.231  0.2407 -0.2437 -0.2472
 1937SOL    HW217445   1.095   0.603   7.295 -0.1896 -0.2791  1.0280
 1938SOL     OW17446   1.778   4.006   5.732 -0.0262  0.0733  0.1781
 1938SOL    HW117447   1.690   3.976   5.710  0.7639 -1.8965 -0.3747
 1938SOL    HW217448   1.818   3.934   5.782 -1.1733 -1.4773 -1.1511
 1939SOL     OW17449   3.437   2.860   4.428 -0.1857  0.2028 -0.1560
 1939SOL    HW117450   3.371   2.930   4.429  0.6450  1.0063 -1.8864
 1939SOL    HW217451   3.514   2.911   4.452 -1.4335  1.6946  0.7312
 1940SOL     OW17452   1.994   0.024   1.913 -0.5210 -0.3268 -0.3093
 1940SOL    HW117453   1.995   4.697   1.983  0.5536  1.0551  0.9257
 1940SOL    HW217454   1.935   4.722   1.848  0.6232  0.3690 -1.7858
 1941SOL     OW17455   3.568   2.154   7.941 -0.4245 -0.5545 -0.8023
 1941SOL    HW117456   3.565   2.198   8.026 -1.1837 -0.1427 -1.0439
 1941SOL    HW217457   3.652   2.177   7.903  1.1688 -1.1632  2.3637
 1942SOL     OW17458   0.573   2.761   2.067  0.1634  0.3373  0.1061
 1942SOL    HW117459   0.532   2.785   2.151  2.6601  1.0231  1.1266
 1942SOL    HW217460   0.626   2.685   2.090 -1.6129 -0.8000  0.4893
 1943SOL     OW17461   1.503   0.834   8.264  0.6811  0.1154  0.5782
 1943SOL    HW117462   1.502   0.885   8.345  2.0364 -0.5179  0.9940
 1943SOL    HW217463   1.567   0.769   8.294  0.1890 -1.3278 -1.5267
 1944SOL     OW17464   4.737   4.043   2.959 -0.4863  0.1069  0.3452
 1944SOL    HW117465   0.074   4.051   3.019  0.0639 -0.4307 -0.2684
 1944SOL    HW217466   0.001   4.134   2.929  0.3432  0.2066  0.6786
 1945SOL     OW17467   4.631   1.913   4.823 -0.1330  0.2562 -0.8892
 1945SOL    HW117468   4.619   1.821   4.798  2.3856 -0.3703  0.1372
 1945SOL    HW217469   4.692   1.901   4.897  1.2066 -0.9333 -2.1800
 1946SOL     OW17470   2.003   3.250   2.209 -0.1358 -0.0096 -0.0777
 1946SOL    HW117471   1.957   3.285   2.285 -0.3339  0.4173 -0.3932
 1946SOL    HW217472   2.081   3.302   2.192  0.7655 -1.2954  0.1590
 1947SOL     OW17473   1.419   0.092  14.013  0.4427 -0.1137  0.2470
 1947SOL    HW117474   1.376   0.016  14.051 -0.4293  0.5211  0.5423
 1947SOL    HW217475   1.462   0.046  13.941 -1.0605  1.3414 -1.5919
 1948SOL     OW17476   1.631   0.797   1.294  0.0915 -0.0636  0.5084
 1948SOL    HW117477   1.563   0.840   1.242  0.3035 -1.8549 -1.2398
 1948SOL    HW217478   1.696   0.867   1.303  0.7982 -0.7156  0.5294
 1949SOL     OW17479   3.439   3.921   2.428 -0.4256  0.0894 -0.4192
 1949SOL    HW117480   3.425   3.827   2.428  0.1853 -0.0008 -1.0898
 1949SOL    HW217481   3.395   3.955   2.506  0.4587  0.8396 -0.2477
 1950SOL     OW17482   2.164   3.055   6.136 -0.2611 -0.3080  0.0090
 1950SOL    HW117483   2.188   2.968   6.170 -0.1837  0.3860  1.7345
 1950SOL    HW217484   2.223   3.116   6.182  0.2575  0.0492 -1.1307
 1951SOL     OW17485   3.315   3.648   6.594  0.5710  0.2148  0.4869
 1951SOL    HW117486   3.328   3.591   6.519  0.3851 -0.3411  0.8787
 1951SOL    HW217487   3.385   3.607   6.644 -0.4716 -1.7021  0.3798
 1952SOL     OW17488   3.604   2.420   6.838  0.2086 -0.3810 -0.0616
 1952SOL    HW117489   3.532   2.444   6.780  1.8458 -0.7531 -2.2370
 1952SOL    HW217490   3.635   2.333   6.815  0.0226 -0.7502  1.0884
 1953SOL     OW17491   2.883   0.378   0.264 -0.0354 -0.3718 -0.2762
 1953SOL    HW117492   2.827   0.373   0.187 -1.7846  1.6206  0.8577
 1953SOL    HW217493   2.931   0.461   0.265 -1.7355  0.6038  0.3365
 1954SOL     OW17494   2.632   1.919   8.290  0.0536 -0.1356  0.6607
 1954SOL    HW117495   2.705   1.966   8.330 -0.6122  1.3418  0.1410
 1954SOL    HW217496   2.662   1.828   8.299  3.2609  0.8685  0.1996
 1955SOL     OW17497   2.893   1.553   8.807 -0.0085 -0.2804 -0.0873
 1955SOL    HW117498   2.873   1.585   8.719  1.6124  0.3414 -0.2306
 1955SOL    HW217499   2.973   1.604   8.818  0.9470 -1.7907  0.0191
 1956SOL     OW17500   3.159   3.217  11.586 -0.1169 -0.2159  0.5484
 1956SOL    HW117501   3.168   3.129  11.549 -0.2220  0.2271 -0.5340
 1956SOL    HW217502   3.220   3.217  11.660  1.7310  0.0510 -0.9881
 1957SOL     OW17503   0.578   4.357   5.636 -0.4011  0.5551 -0.1825
 1957SOL    HW117504   0.661   4.324   5.601 -0.9085 -0.2685 -0.6177
 1957SOL    HW217505   0.621   4.429   5.683 -0.2136  0.5761 -0.3902
 1958SOL     OW17506   3.868   0.561  12.310  0.2158  0.3220  0.2896
 1958SOL    HW117507   3.871   0.496  12.240 -2.5317 -1.3272  1.6871
 1958SOL    HW217508   3.941   0.529  12.362 -0.5310  0.2562  1.3129
 1959SOL     OW17509   2.004   1.780   9.160 -0.6333 -0.4779  0.5582
 1959SOL    HW117510   2.055   1.833   9.099 -1.6109  1.0526  1.0735
 1959SOL    HW217511   1.959   1.725   9.095  1.9389 -2.8037  0.7660
 1960SOL     OW17512   1.424   2.464  10.677 -0.1509 -0.4598  0.1065
 1960SOL    HW117513   1.411   2.452  10.772  0.3652 -1.0008  0.1151
 1960SOL    HW217514   1.346   2.518  10.664  0.7036  0.7559  0.0448
 1961SOL     OW17515   4.182   2.497  13.816  0.1778  0.2853 -0.4600
 1961SOL    HW117516   4.177   2.457  13.902 -0.9131  2.9262  0.6922
 1961SOL    HW217517   4.241   2.569  13.839 -0.5742  0.2267  1.5881
 1962SOL     OW17518   2.680   2.336  15.112 -0.4457  0.4486 -0.1369
 1962SOL    HW117519   2.768   2.335  15.150 -0.8973 -2.4389  0.8283
 1962SOL    HW217520   2.687   2.382  15.028  0.0503 -1.6821 -1.2709
 1963SOL     OW17521   3.445   2.840   2.221  0.2926  0.0460 -0.3430
 1963SOL    HW117522   3.378   2.908   2.214  0.7874  0.3519 -2.1603
 1963SOL    HW217523   3.429   2.816   2.129 -0.4978  2.9655 -0.9675
 1964SOL     OW17524   2.935   4.730  13.551 -0.1941 -0.2575 -0.3234
 1964SOL    HW117525   2.979   4.648  13.576  0.4267 -0.2165 -1.2708
 1964SOL    HW217526   2.995   0.062  13.579  0.7439 -0.9808 -0.5114
 1965SOL     OW17527   2.410   0.459  16.981 -0.2249 -1.0748  1.4274
 1965SOL    HW117528   2.478   0.507  17.027 -1.3954  0.4211  1.6327
 1965SOL    HW217529   2.457   0.382  16.949  0.1628 -1.3227  2.6128
 1966SOL     OW17530   1.214   2.162   0.425 -0.8162 -0.3472  0.3651
 1966SOL    HW117531   1.269   2.108   0.368 -0.6406  1.8279 -1.5465
 1966SOL    HW217532   1.246   2.244   0.387 -0.3962 -0.5922  0.1957
 1967SOL     OW17533   4.547   0.320  12.380 -0.5618 -0.0264 -0.7357
 1967SOL    HW117534   4.453   0.310  12.397 -0.2017 -0.2330  1.0845
 1967SOL    HW217535   4.562   0.415  12.382 -2.0943  0.1515  2.0495
 1968SOL     OW17536   3.233   0.047   5.677  0.4776  0.0656 -0.2344
 1968SOL    HW117537   3.182   0.099   5.739  1.0802 -2.1178  2.0838
 1968SOL    HW217538   3.199   0.054   5.588 -1.1935  1.2546  0.5005
 1969SOL     OW17539   0.252   1.267   7.374  0.3153 -0.1372 -0.4134
 1969SOL    HW117540   0.337   1.266   7.418  1.3423 -3.4601 -2.5334
 1969SOL    HW217541   0.193   1.248   7.447  1.1294 -2.2409 -0.3109
 1970SOL     OW17542   4.670   4.438   5.895 -0.0860  0.2194 -0.2031
 1970SOL    HW117543   4.660   4.358   5.946 -0.3706 -0.9344 -2.0566
 1970SOL    HW217544   4.690   4.496   5.968  1.0568 -0.8376  0.3275
 1971SOL     OW17545   0.090   4.197   6.399 -0.2154  0.5513 -0.2800
 1971SOL    HW117546   0.100   4.200   6.494  0.7221  0.1920 -0.3712
 1971SOL    HW217547   0.101   4.103   6.390  0.3686  0.6166 -0.2541
 1972SOL     OW17548   2.992   0.244   5.167 -0.0574  0.1792 -0.2425
 1972SOL    HW117549   3.075   0.242   5.214  0.5994 -1.4885 -1.4945
 1972SOL    HW217550   3.022   0.218   5.080  2.2676  2.3002 -0.0956
 1973SOL     OW17551   4.062   3.865   8.414 -0.4461  0.5498 -0.1360
 1973SOL    HW117552   3.999   3.859   8.486 -1.5262 -1.0775 -1.2367
 1973SOL    HW217553   4.114   3.786   8.430 -1.6079 -0.4859 -1.5483
 1974SOL     OW17554   1.272   1.087   5.729 -0.5483 -0.3011 -0.1379
 1974SOL    HW117555   1.277   1.011   5.672  1.8754  0.0466 -0.3775
 1974SOL    HW217556   1.357   1.085   5.773 -0.5722 -0.1969 -0.0868
 1975SOL     OW17557   3.347   1.585   7.324 -0.3783 -0.3286 -0.2836
 1975SOL    HW117558   3.319   1.677   7.319 -0.1866 -0.2605 -0.1174
 1975SOL    HW217559   3.316   1.556   7.409 -0.4148 -0.6584 -0.4105
 1976SOL     OW17560   1.641   4.337  16.325 -0.0357 -0.2410 -0.0034
 1976SOL    HW117561   1.575   4.277  16.290  0.0168  0.0472 -0.6002
 1976SOL    HW217562   1.588   4.386  16.388  1.1924  1.7751 -0.5129
 1977SOL     OW17563   4.297   1.327   0.986 -0.1682  0.5640  0.0046
 1977SOL    HW117564   4.306   1.233   0.971  1.3114  0.5500  1.0030
 1977SOL    HW217565   4.228   1.345   0.923 -1.1804 -1.4257  0.5422
 1978SOL     OW17566   2.879   3.078   5.802 -0.4273 -0.5858 -0.2289
 1978SOL    HW117567   2.952   3.075   5.741  0.8779  1.0139  1.2595
 1978SOL    HW217568   2.920   3.043   5.881  1.0167  0.0753 -0.6898
 1979SOL     OW17569   0.574   2.350   5.325 -0.4340  0.4101 -0.5253
 1979SOL    HW117570   0.654   2.316   5.363 -0.1969  0.4098 -1.0177
 1979SOL    HW217571   0.519   2.349   5.403 -1.6271 -0.5059 -1.3835
 1980SOL     OW17572   2.899   2.744  11.876  0.0173  0.2732 -0.0924
 1980SOL    HW117573   2.944   2.765  11.957 -2.3158 -0.2176  1.3161
 1980SOL    HW217574   2.947   2.664  11.856  0.1830  1.0111 -2.7858
 1981SOL     OW17575   4.006   4.541   2.997  0.5654 -0.1860  0.1179
 1981SOL    HW117576   4.055   4.610   2.953  0.1935  0.4177  0.6419
 1981SOL    HW217577   3.929   4.545   2.940  1.1725 -1.1378 -0.7579
 1982SOL     OW17578   3.429   0.362   9.207 -0.2404 -0.0402 -0.0581
 1982SOL    HW117579   3.457   0.378   9.117 -0.4820 -1.7926 -0.4525
 1982SOL    HW217580   3.337   0.383   9.193  0.1744  1.5259 -0.3987
 1983SOL     OW17581   0.372   3.211   8.131 -0.2316 -0.2924 -0.2500
 1983SOL    HW117582   0.460   3.200   8.168  1.0545  0.3442 -3.1459
 1983SOL    HW217583   0.363   3.127   8.085  1.5352 -0.3912 -0.4234
 1984SOL     OW17584   1.093   2.902   9.167 -0.6111 -0.1865  0.1950
 1984SOL    HW117585   1.133   2.937   9.247 -1.0613 -0.8883  0.7326
 1984SOL    HW217586   1.066   2.817   9.203 -2.9604 -0.4362 -2.1217
 1985SOL     OW17587   0.292   2.221   9.668 -0.4909 -0.6328 -0.5596
 1985SOL    HW117588   0.292   2.198   9.575 -0.1547 -0.9920 -0.4727
 1985SOL    HW217589   0.378   2.252   9.695 -0.9032  1.0795 -1.2408
 1986SOL     OW17590   1.679   3.086   3.363  0.4278  0.7032  0.5572
 1986SOL    HW117591   1.774   3.086   3.366  0.4949 -0.8124 -1.4925
 1986SOL    HW217592   1.659   2.993   3.350 -0.3477  0.9930 -0.3119
 1987SOL     OW17593   1.115   3.728  16.958  0.0932  0.3610 -0.1306
 1987SOL    HW117594   1.169   3.757  16.884 -0.7220  0.3080 -0.7452
 1987SOL    HW217595   1.183   3.697  17.017 -2.5539 -1.7015  1.8316
 1988SOL     OW17596   0.699   0.474  13.528  0.1517 -0.1389 -0.1890
 1988SOL    HW117597   0.726   0.384  13.547 -1.8111 -0.2136  2.2190
 1988SOL    HW217598   0.780   0.508  13.488  1.2482  0.7461  2.7865
 1989SOL     OW17599   4.422   4.432   5.735  1.2846  0.0814  0.7760
 1989SOL    HW117600   4.444   4.470   5.649 -0.7319  2.1216  1.1544
 1989SOL    HW217601   4.508   4.415   5.774 -0.4857 -2.6469  3.4015
 1990SOL     OW17602   1.583   3.835  12.935 -0.1134  0.3167 -0.0694
 1990SOL    HW117603   1.628   3.881  12.865 -0.1263  1.8517  0.9217
 1990SOL    HW217604   1.523   3.907  12.956 -2.3515 -2.1248  1.9785
 1991SOL     OW17605   4.328   2.345   5.860  0.2618 -0.2082  0.0564
 1991SOL    HW117606   4.325   2.275   5.795  1.6927 -0.0885 -0.1406
 1991SOL    HW217607   4.303   2.415   5.800  1.7606  1.1161  0.9876
 1992SOL     OW17608   4.407   3.265   2.560 -0.5596  0.1040 -0.9416
 1992SOL    HW117609   4.379   3.259   2.651  1.5021 -1.4559 -0.3998
 1992SOL    HW217610   4.422   3.172   2.544 -2.1013 -0.3810  0.4769
 1993SOL     OW17611   2.730   0.247  10.770 -0.4958  0.5180 -0.4183
 1993SOL    HW117612   2.656   0.301  10.739 -2.7905 -1.0035  2.4392
 1993SOL    HW217613   2.752   0.292  10.852 -0.8074 -0.1422  0.0229
 1994SOL     OW17614   1.164   3.332  12.721  0.2155  0.7450 -0.3804
 1994SOL    HW117615   1.181   3.281  12.801 -0.3328  0.3957 -0.4820
 1994SOL    HW217616   1.168   3.260  12.658 -1.0444  0.1517  0.2034
 1995SOL     OW17617   1.365   1.361   7.801 -0.2052  0.1407 -0.1959
 1995SOL    HW117618   1.398   1.343   7.889  0.5200 -0.1945 -0.5333
 1995SOL    HW217619   1.330   1.274   7.783 -0.5713  0.2542 -0.0248
 1996SOL     OW17620   2.868   3.003   9.334 -1.0696 -0.2828  0.3223
 1996SOL    HW117621   2.836   2.947   9.405 -0.0832  0.2721  1.2078
 1996SOL    HW217622   2.810   3.078   9.351 -0.6014  0.3307 -0.8359
 1997SOL     OW17623   4.240   0.617   7.279  0.0762  0.5644  0.2309
 1997SOL    HW117624   4.285   0.686   7.329 -0.8428  0.3017  1.4287
 1997SOL    HW217625   4.216   0.676   7.208 -1.0722 -0.6761 -0.4096
 1998SOL     OW17626   1.357   0.773   7.791 -0.4629  0.3669 -0.3039
 1998SOL    HW117627   1.447   0.775   7.824 -1.8595 -1.6489  3.6348
 1998SOL    HW217628   1.320   0.695   7.833 -0.0475  1.2819  1.7398
 1999SOL     OW17629   1.076   3.029   5.727 -0.0088 -0.3218 -0.0647
 1999SOL    HW117630   1.169   3.032   5.707  0.5603  0.6244  2.6859
 1999SOL    HW217631   1.065   3.068   5.814 -1.3793 -2.7559  0.8322
 2000SOL     OW17632   0.004   1.104   8.362 -0.1064 -0.0246 -0.1498
 2000SOL    HW117633   4.693   1.163   8.420 -1.8596  0.2698 -1.9218
 2000SOL    HW217634   0.071   1.064   8.416 -1.6622 -0.6390  1.3292
 2001SOL     OW17635   4.148   3.326   5.284 -0.1519  0.2446 -0.4846
 2001SOL    HW117636   4.068   3.372   5.258 -1.3477 -1.2309  0.5631
 2001SOL    HW217637   4.127   3.310   5.376 -0.6708  0.4796 -0.5620
 2002SOL     OW17638   2.122   2.422   7.354  0.0842  0.0894 -0.3975
 2002SOL    HW117639   2.073   2.351   7.312  2.8467 -0.7226 -2.1880
 2002SOL    HW217640   2.096   2.504   7.312  0.4935 -1.2057 -3.1446
 2003SOL     OW17641   3.057   0.112   4.323 -0.0755 -0.2733 -0.0830
 2003SOL    HW117642   3.033   0.051   4.253 -0.7403 -0.2089  0.0899
 2003SOL    HW217643   3.050   0.049   4.396 -2.7709 -1.4580 -1.3632
 2004SOL     OW17644   2.266   4.581   4.549 -0.9451  0.0642  0.5572
 2004SOL    HW117645   2.184   4.605   4.507 -0.5926  0.3051  0.0082
 2004SOL    HW217646   2.281   4.510   4.487 -1.6686 -0.4370  0.9523
 2005SOL     OW17647   3.709   2.970  17.159 -0.1119  0.5773  0.4400
 2005SOL    HW117648   3.754   2.887  17.174 -1.3369  0.0384  1.1835
 2005SOL    HW217649   3.732   3.022  17.236  0.3551  1.1370 -0.0798
 2006SOL     OW17650   3.788   2.523  13.219 -0.0844 -0.6474  0.0802
 2006SOL    HW117651   3.749   2.525  13.307 -0.1910 -0.9634  0.0396
 2006SOL    HW217652   3.868   2.568  13.244 -1.0470  1.3948 -0.5709
 2007SOL     OW17653   3.714   2.906   6.501 -0.0965 -0.0038 -0.2978
 2007SOL    HW117654   3.799   2.877   6.468  0.0134 -0.6729  0.5536
 2007SOL    HW217655   3.662   2.889   6.423 -1.2656  0.7302  0.3380
 2008SOL     OW17656   3.366   2.579   3.079 -0.2158  0.2079 -0.3359
 2008SOL    HW117657   3.440   2.614   3.029  2.4739 -0.0789  3.4446
 2008SOL    HW217658   3.367   2.490   3.045 -1.5517 -0.1423  0.5089
 2009SOL     OW17659   4.619   2.295   7.619  0.2363 -0.1850 -0.0302
 2009SOL    HW117660   4.540   2.268   7.574 -1.3169  1.0027  1.9676
 2009SOL    HW217661   4.637   2.214   7.666  1.3307 -1.0029 -1.8875
 2010SOL     OW17662   3.052   2.129   1.994 -0.9007  0.0109 -1.0018
 2010SOL    HW117663   3.054   2.176   2.077  3.0398  0.8229 -1.5395
 2010SOL    HW217664   3.094   2.195   1.939  1.1163 -0.5929 -0.1986
 2011SOL     OW17665   1.781   4.028  15.451  0.0736 -0.6879 -0.1635
 2011SOL    HW117666   1.713   3.962  15.441  0.3746 -0.9646 -0.3968
 2011SOL    HW217667   1.737   4.106  15.416 -1.0914 -0.6994  1.2488
 2012SOL     OW17668   4.188   0.635   9.311  0.2580 -0.0404  0.4213
 2012SOL    HW117669   4.266   0.673   9.269 -0.7442 -0.1687 -1.5765
 2012SOL    HW217670   4.156   0.597   9.229 -0.1196  0.4317  0.3535
 2013SOL     OW17671   1.507   1.646   8.481 -0.2606 -0.4139  0.2196
 2013SOL    HW117672   1.513   1.619   8.390 -0.2052 -1.0611  0.4139
 2013SOL    HW217673   1.578   1.710   8.476  1.8037 -2.6887  0.2388
 2014SOL     OW17674   2.304   2.361   6.479 -0.1775  0.2209  0.3788
 2014SOL    HW117675   2.371   2.427   6.494 -1.6757  1.9242 -0.4332
 2014SOL    HW217676   2.270   2.360   6.568 -0.5812  0.9689  0.2362
 2015SOL     OW17677   3.931   1.145   0.386  0.3661  0.0680  0.4155
 2015SOL    HW117678   4.004   1.084   0.390  0.9520  0.7819  0.6256
 2015SOL    HW217679   3.881   1.128   0.466 -0.8924 -0.4815 -0.4860
 2016SOL     OW17680   1.176   1.873   6.698  0.4832 -0.1715 -0.1164
 2016SOL    HW117681   1.122   1.899   6.624  0.7173 -1.3400 -0.7072
 2016SOL    HW217682   1.104   1.859   6.760 -0.1670  1.6945 -0.4556
 2017SOL     OW17683   4.008   0.289   5.521 -0.0271  0.0725  0.5787
 2017SOL    HW117684   4.027   0.328   5.436 -0.4845 -0.5499  0.1904
 2017SOL    HW217685   4.068   0.335   5.580 -1.2834  1.2385  0.9462
 2018SOL     OW17686   4.334   4.436   8.236 -0.4335 -0.4824  0.5163
 2018SOL    HW117687   4.387   4.381   8.294 -1.0839 -0.7868  0.8328
 2018SOL    HW217688   4.259   4.460   8.292 -1.0747 -2.4912  0.5326
 2019SOL     OW17689   3.382   3.974   7.273  0.0095  0.0728 -0.1867
 2019SOL    HW117690   3.441   3.947   7.344  0.7681  0.2884 -0.7372
 2019SOL    HW217691   3.365   4.063   7.303  2.0117  0.4902 -0.2494
 2020SOL     OW17692   4.248   3.568   6.656  0.3327 -0.2901 -0.5203
 2020SOL    HW117693   4.290   3.496   6.609  0.4329  1.0603 -2.5205
 2020SOL    HW217694   4.280   3.640   6.601 -0.5923  1.1304  0.7768
 2021SOL     OW17695   0.696   0.040   2.882 -0.0486  0.1527  0.4548
 2021SOL    HW117696   0.705   4.714   2.812  0.8842  1.4616 -0.6174
 2021SOL    HW217697   0.601   0.044   2.893 -0.2115 -2.9186 -0.0713
 2022SOL     OW17698   0.210   1.818  17.557 -0.4903  0.3571 -0.2885
 2022SOL    HW117699   0.216   1.757  17.483  1.1260  1.2772 -0.9061
 2022SOL    HW217700   0.189   1.766  17.635 -0.0218 -0.2419 -0.5654
 2023SOL     OW17701   2.721   3.365  11.840  0.2560  0.3481 -0.1330
 2023SOL    HW117702   2.743   3.453  11.870  0.6218 -0.6770  2.5708
 2023SOL    HW217703   2.771   3.358  11.758 -1.5383 -1.0451 -1.1073
 2024SOL     OW17704   1.174   4.100   7.432  0.5580  0.3291 -0.0178
 2024SOL    HW117705   1.151   4.105   7.339 -0.4198  0.4774  0.2293
 2024SOL    HW217706   1.268   4.084   7.434  0.3546 -0.9141 -0.2539
 2025SOL     OW17707   0.383   3.077   3.569 -0.0184  0.1183  0.1654
 2025SOL    HW117708   0.441   3.001   3.570  0.8523  0.7753 -0.7623
 2025SOL    HW217709   0.424   3.125   3.497  0.4890 -2.1055 -1.0299
 2026SOL     OW17710   1.826   4.003   3.420  0.1242 -0.4502 -0.0505
 2026SOL    HW117711   1.830   3.908   3.406 -0.1999 -0.2806 -1.3579
 2026SOL    HW217712   1.736   4.014   3.448  0.2258 -0.2255  0.1847
 2027SOL     OW17713   3.097   3.116  10.489 -0.4705 -0.4021 -0.3547
 2027SOL    HW117714   3.144   3.079  10.415 -0.0049 -1.8928  0.6835
 2027SOL    HW217715   3.089   3.209  10.466  1.4927 -0.2719 -0.5000
 2028SOL     OW17716   4.613   2.208   8.394  0.3913  0.2956 -0.0764
 2028SOL    HW117717   4.557   2.284   8.386 -1.3744 -1.1726 -1.5779
 2028SOL    HW217718   4.556   2.141   8.356  0.3176 -1.3522  2.8392
 2029SOL     OW17719   1.216   2.566   0.951 -0.0457  0.7204 -0.2133
 2029SOL    HW117720   1.296   2.518   0.928  0.0257 -0.0597  1.6466
 2029SOL    HW217721   1.170   2.510   1.014 -0.1559  0.9278 -0.1116
 2030SOL     OW17722   4.183   4.154   5.014 -0.7442 -0.5021  0.7609
 2030SOL    HW117723   4.117   4.114   5.071 -1.1467  2.2059  2.1767
 2030SOL    HW217724   4.222   4.222   5.068  2.7859 -0.7646 -1.4489
 2031SOL     OW17725   0.280   1.425   6.846 -0.1514 -0.2513 -0.7893
 2031SOL    HW117726   0.258   1.339   6.882 -0.0909 -0.2844 -0.8300
 2031SOL    HW217727   0.366   1.404   6.809  0.9211  0.0009  1.5321
 2032SOL     OW17728   2.660   2.047   5.902  0.3741 -0.1282  0.0093
 2032SOL    HW117729   2.728   1.994   5.943  2.0903  1.5776 -0.6014
 2032SOL    HW217730   2.593   2.050   5.970 -0.0298 -4.1222 -0.2328
 2033SOL     OW17731   0.228   0.695   3.278 -0.2525  0.5481 -0.3026
 2033SOL    HW117732   0.254   0.735   3.360  0.0586  1.8321 -1.0264
 2033SOL    HW217733   0.256   0.757   3.210  2.8350 -0.4971  0.0287
 2034SOL     OW17734   3.943   1.259   3.558  0.0293 -0.0382 -0.0930
 2034SOL    HW117735   3.973   1.349   3.543 -0.8991  0.0425 -1.3799
 2034SOL    HW217736   3.875   1.246   3.493  0.0420 -0.6746  0.0205
 2035SOL     OW17737   3.963   3.063  13.276 -0.0277 -0.4818  0.0421
 2035SOL    HW117738   4.003   3.104  13.199  0.8606  0.3072  0.9283
 2035SOL    HW217739   3.907   3.130  13.316  1.1905 -1.2879  3.1303
 2036SOL     OW17740   3.629   0.372   6.158 -0.0453  0.2864  0.0711
 2036SOL    HW117741   3.667   0.362   6.071  0.3447 -4.5436  0.8133
 2036SOL    HW217742   3.549   0.321   6.143 -0.6289  1.1044  0.3542
 2037SOL     OW17743   1.176   4.264   8.281  0.7741  0.6122  0.1548
 2037SOL    HW117744   1.254   4.248   8.227  1.8901 -2.2016  2.6200
 2037SOL    HW217745   1.206   4.248   8.370 -1.2054  0.6189  0.8196
 2038SOL     OW17746   1.415   1.511   5.857  0.0390 -0.1798  0.2720
 2038SOL    HW117747   1.483   1.446   5.873  1.2576  1.8936  3.4759
 2038SOL    HW217748   1.464   1.588   5.887  1.5860 -1.3409  0.6972
 2039SOL     OW17749   2.374   3.310   3.467  0.1311  0.1511  0.0275
 2039SOL    HW117750   2.381   3.332   3.560  0.2160 -2.5720  0.6531
 2039SOL    HW217751   2.381   3.396   3.425 -0.2369 -0.6619 -1.6582
 2040SOL     OW17752   0.375   0.164   8.232 -0.3739  0.7251  0.5757
 2040SOL    HW117753   0.349   0.203   8.149 -1.9779 -0.2475  0.6236
 2040SOL    HW217754   0.460   0.206   8.244  0.9260 -2.0686  1.0650
 2041SOL     OW17755   0.448   4.585   6.413 -1.0494 -0.4951 -0.3449
 2041SOL    HW117756   0.476   4.673   6.438  0.2410 -0.3799 -2.2203
 2041SOL    HW217757   0.382   4.597   6.345  0.4687 -1.7978 -2.0353
 2042SOL     OW17758   0.308   0.338   6.046 -0.0154 -0.1900 -0.5008
 2042SOL    HW117759   0.372   0.394   6.089  0.3309 -1.4500  0.6366
 2042SOL    HW217760   0.226   0.373   6.081  0.2095 -1.9267  1.8024
 2043SOL     OW17761   0.810   3.684   3.823 -0.9281  0.2479  0.0892
 2043SOL    HW117762   0.748   3.643   3.764 -1.1698 -1.8527  1.8247
 2043SOL    HW217763   0.861   3.606   3.846  1.2279  1.7904  0.6053
 2044SOL     OW17764   2.027   1.681   6.393  0.4267  0.5288 -0.1607
 2044SOL    HW117765   2.046   1.719   6.478  0.2528  1.2758 -0.4549
 2044SOL    HW217766   1.960   1.617   6.415  0.3520  2.0441  3.9574
 2045SOL     OW17767   4.711   3.815   9.148  0.7069  0.0348 -0.1506
 2045SOL    HW117768   4.706   3.903   9.186  1.9917 -0.0721  0.2656
 2045SOL    HW217769   4.672   3.771   9.223 -0.7782  3.3997  1.0671
 2046SOL     OW17770   3.607   1.109  16.611  0.1399 -0.5777 -0.2664
 2046SOL    HW117771   3.545   1.179  16.630  0.0114 -0.4262 -1.2499
 2046SOL    HW217772   3.616   1.066  16.697  1.2086 -1.2100 -0.6852
 2047SOL     OW17773   4.448   0.495   4.817 -0.4030  0.4200 -0.1581
 2047SOL    HW117774   4.416   0.562   4.758  0.9502  0.1986 -1.1477
 2047SOL    HW217775   4.459   0.545   4.898 -2.7501  1.1616 -0.3001
 2048SOL     OW17776   0.012   2.571   7.143  0.0476 -0.7430 -0.3241
 2048SOL    HW117777   4.696   2.501   7.179 -0.6046  0.4082  0.9549
 2048SOL    HW217778   0.026   2.521   7.063 -0.4379 -2.2786  0.5665
 2049SOL     OW17779   0.517   2.228   8.020 -0.1805  0.5871 -0.5558
 2049SOL    HW117780   0.554   2.306   7.980 -0.3529  1.0096  0.0955
 2049SOL    HW217781   0.484   2.185   7.941  0.0865 -0.8567  0.1207
 2050SOL     OW17782   3.317   1.760   3.050 -0.3523  0.4365  0.8326
 2050SOL    HW117783   3.384   1.731   3.112  2.1571  1.1171 -1.5746
 2050SOL    HW217784   3.246   1.750   3.113 -2.1448 -1.6085 -1.5108
 2051SOL     OW17785   0.899   4.401   0.922  0.1069  0.5812  0.4037
 2051SOL    HW117786   0.867   4.462   0.988  0.1233  0.2045  0.7553
 2051SOL    HW217787   0.833   4.416   0.854 -0.1004  0.8913  0.6753
 2052SOL     OW17788   4.650   3.866  11.038 -0.6699 -0.3907  0.9610
 2052SOL    HW117789   4.679   3.821  10.959  0.2673  0.4152  0.8413
 2052SOL    HW217790   4.605   3.788  11.071  0.1651 -1.1176  0.3852
 2053SOL     OW17791   1.735   4.196  13.899  0.0234  0.3022 -0.2260
 2053SOL    HW117792   1.751   4.126  13.963  0.6358  0.1344 -0.5630
 2053SOL    HW217793   1.738   4.145  13.819  0.0541 -0.9816  0.5894
 2054SOL     OW17794   0.039   0.667   7.817 -0.1053  0.5041  0.5597
 2054SOL    HW117795   4.700   0.679   7.873 -0.5877 -2.3302  0.5122
 2054SOL    HW217796   0.031   0.738   7.754  1.0009  0.7914  0.7466
 2055SOL     OW17797   3.051   0.314   6.700 -0.2323 -0.1244 -0.0036
 2055SOL    HW117798   3.096   0.343   6.779 -1.1235 -1.0113  0.8259
 2055SOL    HW217799   2.979   0.282   6.754 -1.4162 -1.0533 -2.0918
 2056SOL     OW17800   2.140   3.673   5.502 -0.1615 -0.1320  0.1107
 2056SOL    HW117801   2.077   3.650   5.570 -1.4178  1.0182 -0.6708
 2056SOL    HW217802   2.134   3.600   5.441 -0.1062  0.8066 -1.0136
 2057SOL     OW17803   4.004   2.538   3.821 -0.3861 -0.2161  0.0256
 2057SOL    HW117804   3.950   2.610   3.787 -0.7789 -0.5772 -0.1088
 2057SOL    HW217805   4.083   2.586   3.846 -0.9479  0.4856  0.4562
 2058SOL     OW17806   3.836   1.061   4.579  0.1750 -0.5850  0.0806
 2058SOL    HW117807   3.887   0.991   4.620 -2.0724 -1.2552  1.6978
 2058SOL    HW217808   3.770   1.012   4.531  0.0089  0.1538 -0.4438
 2059SOL     OW17809   3.323   4.488   5.538  0.1985  0.4162  0.3705
 2059SOL    HW117810   3.259   4.462   5.471  1.4515 -0.7692 -0.3763
 2059SOL    HW217811   3.351   4.402   5.569  0.4974  1.0189  1.7837
 2060SOL     OW17812   3.630   1.852   2.113  0.4392  0.0596 -0.4488
 2060SOL    HW117813   3.652   1.796   2.188 -1.2479 -0.6818 -0.5139
 2060SOL    HW217814   3.692   1.816   2.050 -0.3898 -0.6467 -0.8503
 2061SOL     OW17815   1.890   1.514   8.581  0.3623  0.0291  0.2088
 2061SOL    HW117816   1.861   1.598   8.616  2.0835  0.7984 -0.2140
 2061SOL    HW217817   1.957   1.486   8.644  0.5910 -0.0914 -0.0838
 2062SOL     OW17818   4.356   4.620   0.981  0.0550  0.1225  0.3622
 2062SOL    HW117819   4.323   4.554   1.042 -0.4457  3.1523  3.3305
 2062SOL    HW217820   4.440   4.588   0.948 -0.5903  0.9814 -2.0925
 2063SOL     OW17821   1.918   2.836   1.914  0.1160 -0.3110  0.0055
 2063SOL    HW117822   1.942   2.875   1.998  0.1485  0.7680 -0.4942
 2063SOL    HW217823   1.961   2.893   1.850  1.5421 -0.8008  0.5149
 2064SOL     OW17824   0.239   0.514   7.882 -0.5029  0.3394 -0.6905
 2064SOL    HW117825   0.182   0.589   7.869  0.3039  0.7327 -1.9504
 2064SOL    HW217826   0.281   0.505   7.796  0.3695 -1.1348 -0.1161
 2065SOL     OW17827   1.109   0.076  16.524 -0.1599 -0.2695  0.2773
 2065SOL    HW117828   1.023   0.098  16.558 -0.6322 -1.5506 -0.0989
 2065SOL    HW217829   1.167   0.131  16.577  2.9034 -1.1399 -2.1314
 2066SOL     OW17830   1.952   0.998   7.865  0.0237  0.3232 -0.1113
 2066SOL    HW117831   1.920   0.972   7.951  0.1508 -0.2919 -0.2508
 2066SOL    HW217832   1.877   1.054   7.846 -1.3795 -1.7839 -0.7423
 2067SOL     OW17833   3.345   4.551  16.686 -0.1196 -0.1860 -0.2100
 2067SOL    HW117834   3.306   4.623  16.636  2.4592  1.5871  0.2996
 2067SOL    HW217835   3.425   4.530  16.636 -0.4917 -1.0762 -0.4310
 2068SOL     OW17836   4.196   3.869  12.281 -0.2636 -0.3126  0.4465
 2068SOL    HW117837   4.120   3.819  12.252  0.8993 -0.7610 -1.8050
 2068SOL    HW217838   4.197   3.939  12.216 -0.9897 -1.1672 -0.4862
 2069SOL     OW17839   4.001   0.100   4.201 -0.1669  0.1724 -0.1378
 2069SOL    HW117840   3.954   0.019   4.184 -0.6880  1.3578 -4.2521
 2069SOL    HW217841   3.999   0.122   4.108  0.1517 -1.6126 -0.5591
 2070SOL     OW17842   4.141   2.770   9.022 -0.2267 -0.1331  0.1744
 2070SOL    HW117843   4.092   2.837   8.975 -0.1213 -1.4718 -1.8222
 2070SOL    HW217844   4.161   2.826   9.097  0.3345  2.7784 -2.1523
 2071SOL     OW17845   4.262   0.481   9.051  0.0021 -0.4179 -0.0584
 2071SOL    HW117846   4.235   0.402   9.005  0.3167  0.0407 -1.0484
 2071SOL    HW217847   4.348   0.493   9.010  0.2009 -0.1967  0.4213
 2072SOL     OW17848   1.869   1.404   5.919 -0.0886 -0.2777  0.0758
 2072SOL    HW117849   1.800   1.339   5.904 -0.6725  0.8011 -1.8571
 2072SOL    HW217850   1.943   1.355   5.955 -0.1846  0.7510  1.6773
 2073SOL     OW17851   0.453   3.763  15.520 -0.2665 -0.4954  0.3986
 2073SOL    HW117852   0.395   3.690  15.498 -2.2507  0.9757  0.7765
 2073SOL    HW217853   0.456   3.777  15.614 -1.1760 -1.2866  0.5402
 2074SOL     OW17854   3.979   3.660   1.647 -0.1739  0.4894 -0.0172
 2074SOL    HW117855   3.897   3.676   1.600 -0.0167  1.2218 -0.0428
 2074SOL    HW217856   4.029   3.741   1.632  1.5791 -0.7721 -0.9779
 2075SOL     OW17857   0.243   3.698   6.166  0.9774 -0.3198  0.4127
 2075SOL    HW117858   0.193   3.628   6.125  2.4518  0.4745 -2.7296
 2075SOL    HW217859   0.181   3.766   6.139 -0.3241 -1.5840  0.2587
 2076SOL     OW17860   0.648   0.441   2.046  0.3563 -0.1398 -0.2930
 2076SOL    HW117861   0.645   0.533   2.073  1.8580  0.6787 -2.9933
 2076SOL    HW217862   0.555   0.418   2.034 -0.1081  0.7182  1.5453
 2077SOL     OW17863   2.960   1.666   2.147 -0.1423 -0.6072  0.1877
 2077SOL    HW117864   2.892   1.730   2.168  1.7596  1.1246  1.1121
 2077SOL    HW217865   3.038   1.723   2.149  1.0946 -2.2616 -0.8261
 2078SOL     OW17866   1.718   3.255   3.616 -0.5512  0.4241 -0.5315
 2078SOL    HW117867   1.700   3.187   3.552  0.4250  0.0201 -0.3726
 2078SOL    HW217868   1.648   3.309   3.654 -2.2380 -1.5921 -0.7524
 2079SOL     OW17869   2.512   4.641   5.314  0.6085  0.2432  0.0596
 2079SOL    HW117870   2.467   4.725   5.313  0.1083  0.0381  3.0560
 2079SOL    HW217871   2.536   4.631   5.406  1.4619 -4.5829 -0.6605
 2080SOL     OW17872   3.732   2.532   1.656 -0.2423 -0.2598 -0.0110
 2080SOL    HW117873   3.793   2.607   1.656  2.5112 -2.4962 -1.9062
 2080SOL    HW217874   3.772   2.473   1.719  0.8630 -1.0099 -1.4173
 2081SOL     OW17875   3.478   3.195   4.256 -0.0662  0.7102 -0.4398
 2081SOL    HW117876   3.511   3.111   4.225 -0.3523  0.4273  0.0186
 2081SOL    HW217877   3.525   3.204   4.339  1.4165 -2.4394 -0.9490
 2082SOL     OW17878   0.306   4.704  12.429 -0.2678  0.6623  0.3896
 2082SOL    HW117879   0.338   4.702  12.520 -2.3565 -1.2400  1.0702
 2082SOL    HW217880   0.364   0.029  12.386 -0.1442 -0.7291 -1.4911
 2083SOL     OW17881   0.923   2.063   4.886  0.3233  0.4828 -0.5463
 2083SOL    HW117882   0.855   2.049   4.952  1.8320 -1.2077  0.6488
 2083SOL    HW217883   0.905   2.155   4.867  2.0848  0.5383 -1.9027
 2084SOL     OW17884   4.641   3.665  11.987 -0.4690  0.3148  0.0489
 2084SOL    HW117885   4.603   3.739  12.035  0.9824 -0.2782  2.1327
 2084SOL    HW217886   4.721   3.666  12.040  0.1581 -0.4243 -0.8871
 2085SOL     OW17887   3.930   2.285  16.318 -0.2541 -0.2526  0.0215
 2085SOL    HW117888   3.895   2.336  16.245  0.7516 -1.8133 -1.5269
 2085SOL    HW217889   3.888   2.340  16.384 -0.7786 -1.1685  0.4592
 2086SOL     OW17890   0.649   2.005   7.589 -0.3040 -0.5057 -0.6267
 2086SOL    HW117891   0.562   1.971   7.570  0.4517 -0.9008 -3.3721
 2086SOL    HW217892   0.675   1.973   7.675 -1.9210 -0.1967 -0.0390
 2087SOL     OW17893   1.927   1.107   2.496  0.1806 -0.2480 -0.4474
 2087SOL    HW117894   1.860   1.042   2.475 -0.0872 -0.4358  0.9861
 2087SOL    HW217895   2.001   1.053   2.522 -2.2239 -1.9113  2.8669
 2088SOL     OW17896   3.359   4.560   6.374  0.0741 -0.1365 -0.3231
 2088SOL    HW117897   3.333   4.608   6.296 -1.8526  0.6915  0.8439
 2088SOL    HW217898   3.291   4.583   6.436 -0.1382 -0.5587 -0.3993
 2089SOL     OW17899   0.669   4.587  13.524 -0.2830 -0.1290  0.5522
 2089SOL    HW117900   0.581   4.549  13.524  0.0995 -0.9617 -3.2417
 2089SOL    HW217901   0.654   4.678  13.549  0.3793 -0.3777  1.8457
 2090SOL     OW17902   4.472   4.617   9.286 -0.3277  0.0942 -0.9608
 2090SOL    HW117903   4.423   4.593   9.207  1.2086 -1.4385 -1.4395
 2090SOL    HW217904   4.536   4.546   9.288 -0.4313  0.0495  1.0166
 2091SOL     OW17905   2.150   2.506   4.789  0.4571  0.2976  0.5215
 2091SOL    HW117906   2.123   2.438   4.850 -0.5246  0.5771  0.3967
 2091SOL    HW217907   2.071   2.560   4.784  1.1383  1.0066 -2.2877
 2092SOL     OW17908   2.508   2.857   8.318  0.6949 -0.1194 -0.3103
 2092SOL    HW117909   2.474   2.945   8.327 -0.7396 -0.5479 -1.4580
 2092SOL    HW217910   2.571   2.847   8.390  0.2598 -0.4553  0.0245
 2093SOL     OW17911   2.209   3.287  16.699 -0.2580  0.5243 -0.0661
 2093SOL    HW117912   2.206   3.193  16.719 -0.7934  0.3465 -0.9672
 2093SOL    HW217913   2.245   3.326  16.779 -0.1823  0.4393 -0.0588
 2094SOL     OW17914   4.116   1.076   8.574  0.2930  0.4455  0.2362
 2094SOL    HW117915   4.155   1.163   8.568  2.9121 -0.8360 -1.4429
 2094SOL    HW217916   4.111   1.057   8.667 -0.8542  0.4971  0.1841
 2095SOL     OW17917   1.828   0.379  11.574 -0.1678  0.3543  0.2706
 2095SOL    HW117918   1.858   0.374  11.483 -0.5132  0.3535  0.1588
 2095SOL    HW217919   1.907   0.396  11.625 -0.9273  0.1575  1.5225
 2096SOL     OW17920   1.898   0.161  11.910 -0.1577  1.1191  0.4334
 2096SOL    HW117921   1.816   0.125  11.876  0.8804  0.6278 -1.5566
 2096SOL    HW217922   1.955   0.129  11.840 -0.3862 -0.0515  0.7869
 2097SOL     OW17923   1.746   2.003  14.736  0.1604  0.3082  0.0008
 2097SOL    HW117924   1.823   2.060  14.737  1.1565 -0.9663 -2.0532
 2097SOL    HW217925   1.690   2.048  14.798  1.0990  3.2636 -1.3131
 2098SOL     OW17926   1.473   1.982  16.649  0.2414  0.0618  0.2239
 2098SOL    HW117927   1.516   1.901  16.677 -1.0173 -0.2106  1.3909
 2098SOL    HW217928   1.387   1.969  16.689  0.6565 -0.4006  0.9764
 2099SOL     OW17929   1.013   1.855   6.106  0.3765 -0.0583 -0.3272
 2099SOL    HW117930   0.933   1.812   6.136 -0.7812  1.2907 -1.4638
 2099SOL    HW217931   1.017   1.805   6.025  3.7681 -2.3752  1.2747
 2100SOL     OW17932   1.117   1.231  14.351  0.0878 -0.0988  0.8825
 2100SOL    HW117933   1.136   1.143  14.383 -0.1682 -0.2123  0.7170
 2100SOL    HW217934   1.057   1.273  14.413  1.3576 -0.3167  2.2706
 2101SOL     OW17935   2.529   2.353   4.303 -0.1151  0.3876  0.7223
 2101SOL    HW117936   2.480   2.427   4.267  3.0421  0.7989 -2.7304
 2101SOL    HW217937   2.528   2.294   4.227 -1.8710  0.6892  0.4972
 2102SOL     OW17938   1.080   2.521  11.356 -0.4443 -0.3930 -0.8341
 2102SOL    HW117939   1.093   2.469  11.436 -1.9982  2.1680  1.0792
 2102SOL    HW217940   1.163   2.567  11.350 -1.3806  1.5006  0.9264
 2103SOL     OW17941   2.712   3.068   6.863  0.2553 -0.5384 -0.3688
 2103SOL    HW117942   2.770   3.031   6.929  0.0833 -0.4145 -0.1499
 2103SOL    HW217943   2.774   3.130   6.824  0.3058  0.0883  0.7234
 2104SOL     OW17944   3.782   0.690   4.001 -0.2631 -0.1268 -0.1582
 2104SOL    HW117945   3.862   0.731   3.969  2.3480 -3.2019  2.4507
 2104SOL    HW217946   3.725   0.765   3.982 -0.1998  0.0756  0.4542
 2105SOL     OW17947   1.427   2.483   7.950 -0.2492 -0.3044  0.3040
 2105SOL    HW117948   1.474   2.474   8.033  1.3460 -1.5244 -0.7307
 2105SOL    HW217949   1.411   2.577   7.945 -1.6289 -0.6093 -1.2577
 2106SOL     OW17950   4.229   1.291   6.585  0.3123 -0.5917  0.5702
 2106SOL    HW117951   4.209   1.381   6.563  0.2559 -1.2850 -2.1871
 2106SOL    HW217952   4.278   1.257   6.510 -0.1060  1.0183 -0.4097
 2107SOL     OW17953   1.402   3.226  15.537  0.4145  0.6076 -0.0725
 2107SOL    HW117954   1.426   3.317  15.523  0.7861  0.6780  0.9767
 2107SOL    HW217955   1.491   3.193  15.551 -0.2552 -1.8281 -1.5134
 2108SOL     OW17956   3.238   1.550  10.880 -0.4036  0.3350  0.2753
 2108SOL    HW117957   3.231   1.484  10.948 -0.7777 -0.6407 -0.7044
 2108SOL    HW217958   3.333   1.561  10.874 -0.3966 -0.0822 -0.4569
 2109SOL     OW17959   1.708   2.332  17.355 -0.3070 -0.1748 -0.4352
 2109SOL    HW117960   1.620   2.356  17.385  1.1171  2.2452  1.7798
 2109SOL    HW217961   1.762   2.390  17.408 -1.2296 -0.4978  0.8660
 2110SOL     OW17962   4.013   0.744   9.952  0.2205  0.7472  0.1735
 2110SOL    HW117963   3.985   0.667   9.903 -1.0792  0.7519  0.8939
 2110SOL    HW217964   4.015   0.804   9.877 -0.4311 -0.0210 -0.4540
 2111SOL     OW17965   2.478   1.509   3.549 -0.0475  0.1151 -0.3505
 2111SOL    HW117966   2.528   1.430   3.531 -1.3675 -1.0686  1.1357
 2111SOL    HW217967   2.474   1.553   3.464 -0.1784  0.6861 -0.0534
 2112SOL     OW17968   4.385   1.995  14.129  0.3966  0.0510 -0.4080
 2112SOL    HW117969   4.315   1.931  14.145  1.0178 -0.4869  0.1603
 2112SOL    HW217970   4.328   2.069  14.147 -0.4070 -0.7180  0.2309
 2113SOL     OW17971   1.887   1.423   9.666  0.7427 -0.6724 -0.0507
 2113SOL    HW117972   1.835   1.466   9.734 -1.9609 -3.0526 -0.5969
 2113SOL    HW217973   1.968   1.413   9.716  0.5696  1.2109  0.6182
 2114SOL     OW17974   2.003   1.179   0.092 -0.1513 -0.0249 -0.3351
 2114SOL    HW117975   1.913   1.202   0.066 -0.4593 -0.5094  0.3035
 2114SOL    HW217976   1.984   1.162   0.184  2.2527  0.4606  0.2304
 2115SOL     OW17977   0.845   3.229   9.795  0.3429 -0.0187 -0.2012
 2115SOL    HW117978   0.778   3.188   9.850 -0.2001 -0.4482 -1.1835
 2115SOL    HW217979   0.795   3.241   9.714 -0.4858  0.6859  0.4139
 2116SOL     OW17980   0.617   3.328   6.637  0.2786  0.3447 -0.2720
 2116SOL    HW117981   0.622   3.246   6.686  0.5721  2.3084  3.0684
 2116SOL    HW217982   0.565   3.393   6.685 -0.5380 -0.2974 -0.2991
 2117SOL     OW17983   2.642   1.236   0.660 -0.1333  0.2002 -0.1853
 2117SOL    HW117984   2.642   1.302   0.729 -3.6802 -0.7970  0.7993
 2117SOL    HW217985   2.575   1.271   0.600 -1.7096  0.2624  1.6199
 2118SOL     OW17986   4.266   1.755   4.693 -0.4222 -0.2562  0.1495
 2118SOL    HW117987   4.196   1.693   4.713 -0.5351 -1.3145 -3.4577
 2118SOL    HW217988   4.304   1.765   4.781  1.6060  1.1569 -0.8810
 2119SOL     OW17989   0.815   1.374   3.657 -0.8219 -0.2008  0.3639
 2119SOL    HW117990   0.787   1.287   3.683  0.7843 -1.4314 -2.0286
 2119SOL    HW217991   0.727   1.408   3.641 -0.3569  0.7941 -0.1036
 2120SOL     OW17992   3.129   4.508  14.162 -0.1874 -0.1364 -0.0760
 2120SOL    HW117993   3.105   4.580  14.104 -0.5889 -2.5056 -2.8351
 2120SOL    HW217994   3.040   4.474  14.173 -1.0088  1.5594 -1.5783
 2121SOL     OW17995   2.546   2.451   0.709  0.4999  0.0029  0.3674
 2121SOL    HW117996   2.571   2.529   0.659 -0.2814 -1.4612 -2.3031
 2121SOL    HW217997   2.553   2.477   0.801  1.0246 -1.3531  0.7116
 2122SOL     OW17998   2.491   4.507  10.380  0.4464 -0.4550 -0.1936
 2122SOL    HW117999   2.406   4.463  10.391  0.4307 -0.3842 -0.0447
 2122SOL    HW218000   2.506   4.489  10.287  2.5071  0.5219 -0.0198
 2123SOL     OW18001   1.882   1.126  15.761 -0.2781 -0.0575 -0.0740
 2123SOL    HW118002   1.954   1.067  15.783 -1.4077 -1.0888  0.8430
 2123SOL    HW218003   1.898   1.137  15.667 -2.7034  0.1462 -0.4738
 2124SOL     OW18004   0.275   1.073   5.411  0.0403 -0.0437 -0.0519
 2124SOL    HW118005   0.294   1.004   5.474 -1.2023 -1.2011 -0.9663
 2124SOL    HW218006   0.231   1.144   5.458  0.5889 -1.2521  2.2621
 2125SOL     OW18007   1.485   0.257  16.129 -0.1518  0.0441  0.0946
 2125SOL    HW118008   1.401   0.301  16.142  0.1846  0.5312  0.6147
 2125SOL    HW218009   1.527   0.312  16.063 -1.5928 -0.9016 -1.6408
 2126SOL     OW18010   2.878   3.834   7.939 -0.7285 -0.0828  0.0375
 2126SOL    HW118011   2.907   3.902   7.878  1.8972  0.2020  1.5768
 2126SOL    HW218012   2.784   3.849   7.939 -0.6597  0.3235  0.4265
 2127SOL     OW18013   4.134   3.508   5.722 -0.0451  0.5407  0.6394
 2127SOL    HW118014   4.049   3.536   5.757 -0.7230  0.9163 -1.2542
 2127SOL    HW218015   4.169   3.448   5.788  1.2442  1.4303  0.7569
 2128SOL     OW18016   3.855   1.617   9.124 -0.6283  0.0790  1.0604
 2128SOL    HW118017   3.913   1.632   9.050 -0.6389 -0.2258  0.9901
 2128SOL    HW218018   3.909   1.660   9.190  2.1352  0.1872 -1.2616
 2129SOL     OW18019   3.563   1.210  13.471 -0.2424  0.0187 -0.3997
 2129SOL    HW118020   3.644   1.228  13.518 -1.5854  1.7142  1.2615
 2129SOL    HW218021   3.545   1.298  13.437 -0.0061 -0.4826 -1.8250
 2130SOL     OW18022   2.647   4.227   8.511 -0.0187  0.4844  0.0172
 2130SOL    HW118023   2.714   4.204   8.574 -1.0112 -0.7129  0.6267
 2130SOL    HW218024   2.587   4.286   8.559  0.9083  1.7148 -0.3306
 2131SOL     OW18025   0.696   2.893  11.414  0.0276  0.1414  0.5592
 2131SOL    HW118026   0.608   2.928  11.406 -0.2457 -1.3429 -2.8504
 2131SOL    HW218027   0.707   2.835  11.339 -1.0235  0.1851  0.3817
 2132SOL     OW18028   2.041   4.065   5.047 -0.0836  0.2337 -0.0853
 2132SOL    HW118029   2.005   4.014   5.119 -0.6178  0.4684 -0.1892
 2132SOL    HW218030   2.128   4.025   5.046 -1.0094 -1.7694  0.5394
 2133SOL     OW18031   0.270   4.187   7.651 -0.4231 -0.2442 -0.4064
 2133SOL    HW118032   0.280   4.113   7.590 -3.0253 -0.2681 -0.7956
 2133SOL    HW218033   0.311   4.136   7.721  1.1059 -1.8691 -2.4360
 2134SOL     OW18034   3.450   2.824   8.553  0.2038  0.2427 -0.2227
 2134SOL    HW118035   3.370   2.784   8.519  0.4693  0.1246 -0.7152
 2134SOL    HW218036   3.480   2.748   8.603  1.3709  1.0931  0.3486
 2135SOL     OW18037   1.731   3.648   8.148  1.0709 -1.0109 -0.4672
 2135SOL    HW118038   1.683   3.572   8.183 -1.2459  0.8579  0.4239
 2135SOL    HW218039   1.811   3.615   8.107  3.0066  0.8414  1.7993
 2136SOL     OW18040   3.572   0.307   8.522 -0.4797 -0.7616 -0.3062
 2136SOL    HW118041   3.496   0.305   8.464 -1.1865  1.7720  0.5158
 2136SOL    HW218042   3.539   0.348   8.602  0.1081 -0.2746 -0.3101
 2137SOL     OW18043   3.183   4.456   6.612  0.3911  0.1221 -0.5347
 2137SOL    HW118044   3.125   4.482   6.540  2.5427 -0.1438 -2.3746
 2137SOL    HW218045   3.225   4.380   6.570  0.5005  0.1357 -0.4483
 2138SOL     OW18046   0.239   4.569   5.313  0.1081 -0.1682 -0.0355
 2138SOL    HW118047   0.320   4.591   5.359  1.1132 -0.0848 -1.8215
 2138SOL    HW218048   0.191   4.648   5.337 -2.8167 -1.5910 -1.3252
 2139SOL     OW18049   1.828   2.569   2.528  0.0645  0.2872  0.0222
 2139SOL    HW118050   1.887   2.549   2.454 -0.1798  0.3370 -0.1852
 2139SOL    HW218051   1.818   2.664   2.524  2.6101  0.5401 -0.4274
 2140SOL     OW18052   3.959   4.588   1.996 -0.7481 -0.8517  0.1361
 2140SOL    HW118053   3.951   4.521   2.064  0.6191 -1.5571 -0.3937
 2140SOL    HW218054   4.047   4.562   1.968  0.4004  1.4894  1.6217
 2141SOL     OW18055   3.693   0.584   4.851  0.0336 -0.6437 -0.2400
 2141SOL    HW118056   3.699   0.570   4.757 -2.0297 -1.2379 -0.2665
 2141SOL    HW218057   3.602   0.612   4.862 -0.3146 -1.7861 -0.2313
 2142SOL     OW18058   3.040   4.005   1.810  0.4310  0.5351 -0.2262
 2142SOL    HW118059   3.129   4.006   1.845  1.0999 -1.9734 -1.8407
 2142SOL    HW218060   3.018   4.095   1.833  0.2620  1.1404 -2.8730
 2143SOL     OW18061   1.578   3.426   2.734  0.2555 -0.3221  0.1766
 2143SOL    HW118062   1.670   3.447   2.750 -0.1358  0.3633  1.5235
 2143SOL    HW218063   1.549   3.424   2.825 -0.2643  0.0447  0.0173
 2144SOL     OW18064   3.683   2.624   2.118 -0.0101  0.1198 -0.1533
 2144SOL    HW118065   3.721   2.536   2.114 -0.6925 -0.1315 -1.1036
 2144SOL    HW218066   3.600   2.614   2.071 -0.6386  0.1061  0.9417
 2145SOL     OW18067   3.074   2.149   6.838  0.0816  0.5715 -0.3773
 2145SOL    HW118068   3.128   2.070   6.844  1.3738  1.5565  1.1092
 2145SOL    HW218069   3.102   2.196   6.917 -1.0411  0.5403  0.0326
 2146SOL     OW18070   0.821   1.762  15.030 -0.6974 -0.0702 -0.7887
 2146SOL    HW118071   0.814   1.674  15.066  1.4579  0.0410 -0.0922
 2146SOL    HW218072   0.847   1.809  15.109  1.4650 -0.9267 -0.9888
 2147SOL     OW18073   4.476   2.574  13.709  0.8418 -0.4497 -0.2337
 2147SOL    HW118074   4.454   2.667  13.710 -0.0858 -0.6788  1.7314
 2147SOL    HW218075   4.538   2.582  13.637  1.1741  1.3220  0.2478
 2148SOL     OW18076   1.899   0.277   4.465 -0.8059 -0.5140  0.0713
 2148SOL    HW118077   1.856   0.199   4.430  0.6734 -1.5189  0.4804
 2148SOL    HW218078   1.965   0.236   4.521 -0.0433  0.5343 -0.0446
 2149SOL     OW18079   0.717   4.189   0.921 -0.0754  0.6346 -0.4340
 2149SOL    HW118080   0.812   4.199   0.913  0.3134 -1.1485  2.1854
 2149SOL    HW218081   0.692   4.204   0.829  1.2319 -2.3220 -1.2864
 2150SOL     OW18082   0.056   4.443  11.971 -0.2041  0.2603  0.1381
 2150SOL    HW118083   0.030   4.535  11.971  1.8560  0.8431  0.3574
 2150SOL    HW218084   4.720   4.405  11.923  0.6522 -0.3279 -0.7030
 2151SOL     OW18085   2.645   0.389   4.861  0.0098  0.4712  0.2418
 2151SOL    HW118086   2.586   0.316   4.880  1.4216 -0.5219  0.7590
 2151SOL    HW218087   2.670   0.412   4.950  2.7802 -0.3556 -0.3324
 2152SOL     OW18088   3.165   2.577   2.433 -0.3384 -0.2015 -0.4287
 2152SOL    HW118089   3.184   2.562   2.341 -1.9973  1.5293 -1.0513
 2152SOL    HW218090   3.232   2.638   2.464 -0.3399 -0.8080  0.7815
 2153SOL     OW18091   0.006   3.795  11.362 -0.2304  0.0585  0.2247
 2153SOL    HW118092   4.656   3.762  11.381 -0.6473  0.1048 -1.5682
 2153SOL    HW218093   0.004   3.873  11.307 -0.4489  1.0681  1.6792
 2154SOL     OW18094   0.368   2.344  10.022 -0.2814  0.3215  0.2334
 2154SOL    HW118095   0.412   2.429  10.027 -0.6602  0.5973 -0.9862
 2154SOL    HW218096   0.437   2.284   9.994 -1.0087 -0.7195  0.6824
 2155SOL     OW18097   3.622   1.400   2.541 -0.3861  0.5466  0.3745
 2155SOL    HW118098   3.646   1.308   2.531  0.6454  1.0809 -2.0122
 2155SOL    HW218099   3.701   1.448   2.564 -0.3947  0.6953  0.1002
 2156SOL     OW18100   4.395   0.365   1.585  0.1455 -0.5000 -0.1737
 2156SOL    HW118101   4.424   0.375   1.494  0.8481 -0.7877  0.0158
 2156SOL    HW218102   4.327   0.431   1.598 -1.6031 -1.9872 -1.7387
 2157SOL     OW18103   1.291   4.590  16.566  0.2424  0.6418 -0.0563
 2157SOL    HW118104   1.225   4.654  16.542 -1.6393 -0.8883  1.0287
 2157SOL    HW218105   1.325   4.571  16.478 -1.0869  1.6682 -0.7903
 2158SOL     OW18106   4.377   2.970   6.442 -0.1984 -0.1119  0.6250
 2158SOL    HW118107   4.320   2.894   6.439 -2.1575  1.3151  1.3015
 2158SOL    HW218108   4.462   2.928   6.431  0.0475  0.8155 -0.9756
 2159SOL     OW18109   1.190   2.506   2.321 -0.2901 -0.1851  0.2397
 2159SOL    HW118110   1.253   2.449   2.366  0.4822  1.0865  0.7769
 2159SOL    HW218111   1.206   2.487   2.229 -1.3156 -0.4309  0.1186
 2160SOL     OW18112   1.506   0.905  15.154  0.2437 -0.1633 -0.2051
 2160SOL    HW118113   1.565   0.912  15.229  0.5639  1.6622 -0.6438
 2160SOL    HW218114   1.494   0.999  15.147  1.2259 -0.1166 -1.1514
 2161SOL     OW18115   4.529   1.395   5.838  0.1424 -0.1754 -0.7271
 2161SOL    HW118116   4.463   1.464   5.827 -0.3653 -0.2437  1.7383
 2161SOL    HW218117   4.472   1.320   5.851 -2.3810  1.8611  0.0971
 2162SOL     OW18118   0.367   3.465  16.074 -0.1880 -0.2422 -0.2507
 2162SOL    HW118119   0.274   3.451  16.090  0.1795 -2.1314  0.2449
 2162SOL    HW218120   0.361   3.454  15.979 -2.0443 -0.1770 -0.1374
 2163SOL     OW18121   1.913   1.752   9.422  0.4873  0.1345  0.1780
 2163SOL    HW118122   1.949   1.763   9.334 -2.0983  2.7670 -0.5519
 2163SOL    HW218123   1.984   1.699   9.458  1.4155  0.9510 -0.4494
 2164SOL     OW18124   2.962   1.365   1.845 -0.0994 -0.2432  0.4546
 2164SOL    HW118125   3.005   1.284   1.819 -0.5194 -0.4255  0.3238
 2164SOL    HW218126   2.957   1.330   1.934  0.3258 -2.8293 -0.5572
 2165SOL     OW18127   1.851   2.706   5.469 -0.4249  0.2382  0.4640
 2165SOL    HW118128   1.871   2.687   5.561 -4.6147 -0.1876  1.2841
 2165SOL    HW218129   1.927   2.664   5.427  1.8087  1.4240  3.2989
 2166SOL     OW18130   4.234   1.540   6.257  0.2727 -0.1594  0.2111
 2166SOL    HW118131   4.213   1.549   6.164  1.3447  1.3777  0.1222
 2166SOL    HW218132   4.178   1.464   6.274 -0.7789  0.7004  0.5826
 2167SOL     OW18133   4.461   1.030   6.716 -0.1657 -0.4237  0.7448
 2167SOL    HW118134   4.482   1.121   6.738 -0.6199 -0.1214 -0.0820
 2167SOL    HW218135   4.548   0.990   6.716 -0.0682 -0.2228 -2.9291
 2168SOL     OW18136   3.745   2.039   8.654 -0.4906  0.0783 -0.6847
 2168SOL    HW118137   3.753   2.065   8.746 -1.1460  2.8190 -1.3921
 2168SOL    HW218138   3.793   2.104   8.602  0.3448  0.2951  0.3610
 2169SOL     OW18139   1.843   2.310   0.886 -0.1863  0.0365  0.6447
 2169SOL    HW118140   1.833   2.404   0.871 -0.1977  0.2787  2.1279
 2169SOL    HW218141   1.784   2.305   0.962  0.0453  0.7066  0.8700
 2170SOL     OW18142   4.599   2.176   8.967 -0.1501 -0.2311 -0.7111
 2170SOL    HW118143   4.505   2.194   8.969 -0.8663 -3.9424 -0.1601
 2170SOL    HW218144   4.617   2.240   8.898  1.5826 -0.0003 -0.0639
 2171SOL     OW18145   2.834   3.172   6.468  0.4639  0.1840 -0.0159
 2171SOL    HW118146   2.878   3.136   6.391 -1.9547 -3.1006  0.0830
 2171SOL    HW218147   2.784   3.244   6.429 -1.9398  0.1107  2.9008
 2172SOL     OW18148   2.563   0.991   0.616 -0.5226 -0.1562  1.2465
 2172SOL    HW118149   2.583   1.083   0.634 -1.0493  0.4064 -1.0604
 2172SOL    HW218150   2.606   0.977   0.532  0.1132  1.0214  1.3797
 2173SOL     OW18151   2.930   0.088   6.520  0.6928 -0.0287 -0.1798
 2173SOL    HW118152   3.015   0.090   6.565 -0.3329 -0.3097  1.7631
 2173SOL    HW218153   2.889   0.166   6.558  0.2173 -0.8194  0.9376
 2174SOL     OW18154   2.300   2.814   3.276  0.0257  0.5587  0.5401
 2174SOL    HW118155   2.249   2.822   3.357  0.7437 -1.1131  1.1539
 2174SOL    HW218156   2.383   2.809   3.323 -0.0610 -0.5481  0.5769
 2175SOL     OW18157   4.561   3.905  15.080  0.3641  0.0900  0.5522
 2175SOL    HW118158   4.627   3.849  15.041  1.8876  1.1520  1.6242
 2175SOL    HW218159   4.479   3.858  15.063 -0.8097  2.1206  0.5090
 2176SOL     OW18160   2.288   3.310  12.678 -0.3439 -0.8697  0.8833
 2176SOL    HW118161   2.261   3.336  12.766 -1.9964  0.9201 -0.1465
 2176SOL    HW218162   2.282   3.215  12.673 -0.8442 -0.8564  1.2404
 2177SOL     OW18163   4.157   2.452  16.125  0.3331  0.4019 -0.2381
 2177SOL    HW118164   4.136   2.376  16.179 -0.1085 -1.8761 -3.6369
 2177SOL    HW218165   4.252   2.456  16.134  0.3202 -2.1438  1.0137
 2178SOL     OW18166   1.687   2.227   6.072  0.3635  0.2689 -0.5352
 2178SOL    HW118167   1.688   2.209   6.166  0.9245  0.2013 -0.5561
 2178SOL    HW218168   1.595   2.221   6.045 -0.1431 -0.8009  1.4500
 2179SOL     OW18169   2.982   2.175   6.132 -0.2410  0.4771 -0.4979
 2179SOL    HW118170   2.997   2.101   6.190 -0.0666  1.0633  0.2039
 2179SOL    HW218171   2.906   2.208   6.180 -0.0185 -1.8768  1.4898
 2180SOL     OW18172   2.255   0.125   7.244 -0.0301 -0.5884 -0.3120
 2180SOL    HW118173   2.217   0.211   7.258  0.0247 -0.3129 -1.8219
 2180SOL    HW218174   2.200   0.073   7.303 -1.2009  0.1420 -0.7618
 2181SOL     OW18175   0.866   1.656   5.296  0.0312 -0.8246  0.3714
 2181SOL    HW118176   0.940   1.690   5.246  2.8353 -2.8492  3.1840
 2181SOL    HW218177   0.900   1.651   5.386  1.2650  0.2000 -0.0261
 2182SOL     OW18178   2.278   3.901  17.081  0.3775  0.0666  0.4252
 2182SOL    HW118179   2.203   3.959  17.071  1.5529  1.3459 -0.8536
 2182SOL    HW218180   2.351   3.963  17.081 -0.6189  1.2269 -0.9298
 2183SOL     OW18181   2.179   3.006   4.466 -0.2830 -0.3007  0.7413
 2183SOL    HW118182   2.203   2.938   4.403 -1.8600  1.8600 -2.2146
 2183SOL    HW218183   2.108   2.967   4.516  0.6310 -1.0778  1.4169
 2184SOL     OW18184   3.427   4.690   5.128 -0.3335 -0.0519  0.6090
 2184SOL    HW118185   3.516   4.679   5.095 -0.4190  1.7347 -0.2261
 2184SOL    HW218186   3.402   0.022   5.068 -0.3341 -0.1309  0.5168
 2185SOL     OW18187   0.089   3.194   5.131  0.2962  0.0102  0.0646
 2185SOL    HW118188   0.084   3.189   5.036  0.2359 -3.7109  0.2722
 2185SOL    HW218189   0.115   3.284   5.153 -1.2731  0.4520  0.0734
 2186SOL     OW18190   0.405   1.195   4.790 -0.5265  0.0233 -0.9659
 2186SOL    HW118191   0.360   1.212   4.872 -1.7927  1.0655 -1.8769
 2186SOL    HW218192   0.460   1.123   4.820 -1.2679 -0.7358 -1.4692
 2187SOL     OW18193   1.352   3.738   8.078 -0.1830 -0.0246  0.0458
 2187SOL    HW118194   1.436   3.776   8.105 -2.1340  4.3133 -0.1281
 2187SOL    HW218195   1.290   3.801   8.113 -0.3223 -0.0481 -0.1654
 2188SOL     OW18196   3.780   0.439   5.050  0.2256 -0.1558 -0.0837
 2188SOL    HW118197   3.852   0.402   4.999  2.1791  0.4572  2.2187
 2188SOL    HW218198   3.741   0.498   4.985  0.1105 -1.9151 -1.6159
 2189SOL     OW18199   1.478   2.120   3.807 -0.2144  0.2125 -0.2259
 2189SOL    HW118200   1.528   2.116   3.889 -1.2485 -1.4118  0.3082
 2189SOL    HW218201   1.511   2.195   3.758 -0.8561 -0.0608 -1.0639
 2190SOL     OW18202   1.729   0.391   2.732  0.0839  0.5551  0.1560
 2190SOL    HW118203   1.702   0.350   2.649  0.2783 -0.7580  0.7408
 2190SOL    HW218204   1.742   0.316   2.790 -1.1423 -1.5912 -2.3017
 2191SOL     OW18205   4.460   0.914   5.525 -0.5436 -0.0354 -0.0560
 2191SOL    HW118206   4.368   0.936   5.538 -0.3713  0.1916  0.8085
 2191SOL    HW218207   4.496   0.951   5.606  0.8510 -0.3924 -0.5184
 2192SOL     OW18208   4.618   3.505   6.316  0.4659  0.6131 -0.0237
 2192SOL    HW118209   4.555   3.565   6.276  1.6911 -0.2222 -3.1737
 2192SOL    HW218210   4.690   3.499   6.253 -0.7605  3.1243 -1.6421
 2193SOL     OW18211   1.216   2.224   3.598  0.0587  0.1774  0.1507
 2193SOL    HW118212   1.271   2.221   3.520  0.8352 -0.2433  0.7184
 2193SOL    HW218213   1.273   2.175   3.657 -0.8545 -2.4888 -1.1773
 2194SOL     OW18214   0.121   4.726   9.088  0.0658 -0.1819  0.0667
 2194SOL    HW118215   0.088   0.054   9.149 -1.3451 -1.7139  0.9525
 2194SOL    HW218216   0.085   4.648   9.129  2.1594 -0.0633  2.1240
 2195SOL     OW18217   0.274   1.199   9.904  0.3419  0.3311 -0.1725
 2195SOL    HW118218   0.334   1.259   9.947 -1.4404  3.6895 -2.3409
 2195SOL    HW218219   0.281   1.226   9.812  1.8979  0.2851 -0.0667
 2196SOL     OW18220   2.856   2.528   9.249  0.1472 -0.3815 -0.3293
 2196SOL    HW118221   2.868   2.617   9.214  3.5679  0.0141  1.7999
 2196SOL    HW218222   2.857   2.541   9.344  2.5884 -1.2121 -0.2480
 2197SOL     OW18223   0.335   1.824   2.633 -0.1996  0.1486 -0.4956
 2197SOL    HW118224   0.395   1.893   2.659 -2.6778  1.1966  2.4509
 2197SOL    HW218225   0.395   1.769   2.582  0.2343 -0.3267  0.5353
 2198SOL     OW18226   1.640   1.659   9.375  0.1546 -0.1217 -0.3719
 2198SOL    HW118227   1.727   1.694   9.392  0.3145 -0.5119 -0.3877
 2198SOL    HW218228   1.639   1.659   9.279 -0.8342  4.2703 -0.3751
 2199SOL     OW18229   0.584   1.496   3.942 -0.1360 -0.1634 -0.0304
 2199SOL    HW118230   0.559   1.421   3.996 -0.9677 -0.1789 -0.4431
 2199SOL    HW218231   0.595   1.441   3.865  2.2395  2.8626 -1.8629
 2200SOL     OW18232   1.018   4.293   7.564  0.1944  0.5938 -0.5422
 2200SOL    HW118233   1.068   4.218   7.534 -0.3316 -1.0143  2.6534
 2200SOL    HW218234   1.027   4.279   7.658 -0.0067 -1.0674 -0.7747
 2201SOL     OW18235   0.287   0.616  13.056 -0.1293 -0.1300  0.1904
 2201SOL    HW118236   0.292   0.610  12.960  1.5088  0.3008  0.2439
 2201SOL    HW218237   0.214   0.558  13.078 -1.3289  0.6634 -1.7247
 2202SOL     OW18238   0.749   4.201   9.659  0.0254  0.5074  0.0520
 2202SOL    HW118239   0.665   4.245   9.667  0.5752  1.5621 -0.0043
 2202SOL    HW218240   0.789   4.249   9.731 -0.4280  0.6498  0.2077
 2203SOL     OW18241   1.652   4.498   2.007  0.1862  0.1315  0.1167
 2203SOL    HW118242   1.655   4.538   1.920 -0.9458  2.3901  1.0974
 2203SOL    HW218243   1.740   4.462   2.017  0.2184  1.0638  3.2212
 2204SOL     OW18244   2.473   1.036   3.667  0.3931 -0.0058 -0.2550
 2204SOL    HW118245   2.379   1.042   3.649  0.5780  1.2220 -0.8054
 2204SOL    HW218246   2.496   1.127   3.651 -0.2726  0.1519 -0.3450
 2205SOL     OW18247   1.913   1.443   2.852 -0.3216 -0.5709 -0.7436
 2205SOL    HW118248   1.986   1.505   2.858 -0.9013  0.0549 -0.1053
 2205SOL    HW218249   1.956   1.374   2.902  0.8026  0.7340  0.1108
 2206SOL     OW18250   0.356   1.026   6.870 -0.2911 -0.2812  0.8911
 2206SOL    HW118251   0.320   1.059   6.787 -0.3810 -1.8469  0.3059
 2206SOL    HW218252   0.419   1.097   6.882 -1.6740  0.8611  1.4461
 2207SOL     OW18253   0.247   3.522   8.563  0.1071  0.1631 -0.1500
 2207SOL    HW118254   0.262   3.434   8.527  0.4085  0.6929 -1.3301
 2207SOL    HW218255   0.339   3.550   8.570  0.4576 -0.6299 -1.5804
 2208SOL     OW18256   1.285   1.185   9.084 -0.4846 -0.1556 -0.4076
 2208SOL    HW118257   1.365   1.197   9.135  0.6197 -0.4119 -2.0904
 2208SOL    HW218258   1.225   1.236   9.139  1.0317 -0.2455  1.3070
 2209SOL     OW18259   2.582   1.739   4.823  0.0259  0.0626  0.2133
 2209SOL    HW118260   2.498   1.752   4.779 -1.3793  0.7982  3.1202
 2209SOL    HW218261   2.633   1.813   4.792  0.3612  0.7540  2.4036
 2210SOL     OW18262   3.322   0.760  10.437 -0.0090 -0.0879 -0.4672
 2210SOL    HW118263   3.399   0.814  10.452 -0.3449 -0.1805  1.6940
 2210SOL    HW218264   3.359   0.679  10.402  1.3033 -0.3295  1.4655
 2211SOL     OW18265   0.469   1.661   3.481  0.4138 -0.4742 -0.5248
 2211SOL    HW118266   0.465   1.728   3.548 -1.5193 -0.5148 -0.5912
 2211SOL    HW218267   0.394   1.675   3.422 -0.1618  0.0563  0.3316
 2212SOL     OW18268   1.571   4.339   2.273  0.3784 -0.0736 -0.3983
 2212SOL    HW118269   1.558   4.299   2.359  1.4347  0.0570 -0.1738
 2212SOL    HW218270   1.634   4.403   2.306 -0.1498 -0.4094  1.2437
 2213SOL     OW18271   0.829   3.921   3.653 -0.1672 -0.0082 -0.2921
 2213SOL    HW118272   0.801   3.990   3.712  0.9793 -1.7278  2.2783
 2213SOL    HW218273   0.861   3.855   3.716 -1.2175 -1.4340 -1.2450
 2214SOL     OW18274   0.421   2.956   8.037 -0.1659 -0.0845 -0.2916
 2214SOL    HW118275   0.356   2.976   7.970  1.2243  1.3940 -1.2076
 2214SOL    HW218276   0.407   2.863   8.055 -0.1544 -0.1554 -0.6560
 2215SOL     OW18277   2.006   0.405   7.531 -0.1589  0.3188 -0.2235
 2215SOL    HW118278   2.052   0.438   7.608  2.4051 -2.5761 -0.4848
 2215SOL    HW218279   2.069   0.357   7.477 -0.2608  1.9599 -1.8088
 2216SOL     OW18280   3.099   1.828   4.212 -0.6638  0.2104  0.9177
 2216SOL    HW118281   3.128   1.916   4.189  1.7677 -0.4880  1.3336
 2216SOL    HW218282   3.181   1.794   4.250 -0.3230 -2.0573 -1.8976
 2217SOL     OW18283   2.223   0.562   6.379 -0.5300 -0.3711 -0.6059
 2217SOL    HW118284   2.290   0.528   6.321 -1.9108 -0.5485 -2.0962
 2217SOL    HW218285   2.146   0.514   6.348  0.7262 -2.8512  0.1037
 2218SOL     OW18286   2.315   3.174   1.503 -0.2883  0.0576 -0.7561
 2218SOL    HW118287   2.230   3.164   1.460  0.8970  1.4621 -3.4767
 2218SOL    HW218288   2.287   3.189   1.593  3.0511 -0.9083  0.4387
 2219SOL     OW18289   0.274   2.287   6.360 -0.2252 -0.3471  0.3113
 2219SOL    HW118290   0.361   2.246   6.358 -0.9453 -1.8799 -0.0588
 2219SOL    HW218291   0.217   2.211   6.372 -0.3258 -0.4828 -0.9692
 2220SOL     OW18292   1.189   4.705   6.684  0.5142  0.6945  0.0400
 2220SOL    HW118293   1.122   0.002   6.625 -0.4382  0.1237  0.7950
 2220SOL    HW218294   1.192   0.041   6.745  1.3088  0.5899  0.1317
 2221SOL     OW18295   1.341   2.306   3.341 -0.2558 -0.7352  0.1060
 2221SOL    HW118296   1.333   2.268   3.254 -0.8383  1.2307 -0.6984
 2221SOL    HW218297   1.277   2.376   3.332  1.0109  0.3893 -0.1092
 2222SOL     OW18298   0.294   0.814  10.988  0.4513 -0.3113  0.0659
 2222SOL    HW118299   0.239   0.892  10.993 -0.9687 -1.2305 -1.2528
 2222SOL    HW218300   0.363   0.843  11.048  0.9732 -1.6946  0.1351
 2223SOL     OW18301   2.140   2.411   6.940  0.5088 -0.5857  0.4158
 2223SOL    HW118302   2.221   2.399   6.890  0.2902  0.1280 -0.1139
 2223SOL    HW218303   2.076   2.407   6.869 -0.3407 -1.3535  1.2285
 2224SOL     OW18304   0.327   0.953   4.579 -0.0269 -0.1888  0.2396
 2224SOL    HW118305   0.252   0.956   4.638 -0.9003 -1.8706 -0.7789
 2224SOL    HW218306   0.339   0.858   4.578  2.2581  0.1057 -1.6221
 2225SOL     OW18307   4.231   4.476   4.795  0.2510  0.0780  0.0882
 2225SOL    HW118308   4.240   4.429   4.713  0.1813  2.1553 -1.1039
 2225SOL    HW218309   4.315   4.462   4.840  0.0971  0.4840  0.5125
 2226SOL     OW18310   4.595   2.574  12.068  0.1449  0.2733 -0.1160
 2226SOL    HW118311   4.691   2.574  12.065  0.2673  0.9663  3.7790
 2226SOL    HW218312   4.558   2.489  12.093  1.5639 -0.5092 -0.6949
 2227SOL     OW18313   3.481   4.304  17.468  0.6002 -0.6477  0.6154
 2227SOL    HW118314   3.415   4.373  17.471  0.9250 -0.4120  2.6724
 2227SOL    HW218315   3.559   4.350  17.438 -1.2791  0.7273 -2.0775
 2228SOL     OW18316   0.484   0.188   5.079  0.1819 -0.4826 -0.1314
 2228SOL    HW118317   0.422   0.235   5.136  0.0001 -2.2003  1.0780
 2228SOL    HW218318   0.436   0.197   4.996 -0.5846 -2.1027  0.1469
 2229SOL     OW18319   0.671   2.932   7.155 -0.2254 -0.4160  1.0389
 2229SOL    HW118320   0.623   2.849   7.152  0.2591 -0.7036  1.0794
 2229SOL    HW218321   0.703   2.944   7.066 -2.5092 -0.2393  0.2434
 2230SOL     OW18322   1.002   3.319   1.204  0.5733 -0.4405  0.1261
 2230SOL    HW118323   1.080   3.275   1.238  1.6983  0.8191 -0.8700
 2230SOL    HW218324   0.934   3.261   1.239  0.0181 -0.7611 -1.4977
 2231SOL     OW18325   0.318   1.950  11.645 -0.2098  0.2375 -0.3599
 2231SOL    HW118326   0.386   1.884  11.636 -0.0340  0.4065 -0.2867
 2231SOL    HW218327   0.308   1.955  11.740  1.3222  1.1426 -0.2468
 2232SOL     OW18328   2.297   4.180   6.631  0.0626  0.0670  0.1040
 2232SOL    HW118329   2.360   4.121   6.672 -0.9436 -0.6324  0.6385
 2232SOL    HW218330   2.226   4.189   6.694  2.1941  0.3799  2.4613
 2233SOL     OW18331   2.499   3.972   3.395 -0.2672  0.3047 -0.2984
 2233SOL    HW118332   2.594   3.987   3.391 -0.1424 -0.4497 -0.1121
 2233SOL    HW218333   2.471   3.984   3.485 -0.5863 -0.0082 -0.3582
 2234SOL     OW18334   2.086   4.684   6.524 -0.2092 -0.0552  0.4624
 2234SOL    HW118335   2.081   4.605   6.470 -0.4470 -0.4453  1.0620
 2234SOL    HW218336   1.991   4.693   6.523 -0.2791 -0.7192  0.8155
 2235SOL     OW18337   0.300   4.660   3.580  0.5597 -0.2353 -0.6191
 2235SOL    HW118338   0.382   4.657   3.628  1.3659  0.4108 -1.9533
 2235SOL    HW218339   0.255   4.581   3.610  0.3639  0.2794  0.4279
 2236SOL     OW18340   4.512   3.248   5.205  0.2780  0.1287 -0.2187
 2236SOL    HW118341   4.571   3.210   5.270  0.0124  0.4248  0.1904
 2236SOL    HW218342   4.434   3.268   5.257 -0.6992  0.0047 -1.6265
 2237SOL     OW18343   2.070   0.926   5.256  0.3024 -0.4836  0.2519
 2237SOL    HW118344   2.119   0.995   5.300  1.7728 -0.8930 -0.7658
 2237SOL    HW218345   2.096   0.841   5.291 -0.4898 -0.3095  1.2830
 2238SOL     OW18346   3.198   2.978   2.446 -0.1114  0.2820  0.2169
 2238SOL    HW118347   3.285   2.956   2.480 -1.3216 -1.7369  2.0618
 2238SOL    HW218348   3.141   2.982   2.523 -1.2781  0.6855 -0.6615
 2239SOL     OW18349   0.511   3.904   7.589  0.0583 -0.2266  0.1190
 2239SOL    HW118350   0.471   3.872   7.508 -2.5928  1.0927  0.8870
 2239SOL    HW218351   0.568   3.975   7.561  0.4229  0.4777  2.6076
 2240SOL     OW18352   0.988   1.820   3.570  0.1677  0.1160 -0.1371
 2240SOL    HW118353   0.908   1.824   3.622 -0.8602 -1.9118 -1.5637
 2240SOL    HW218354   1.040   1.776   3.636 -2.0092 -0.6532  1.0699
 2241SOL     OW18355   1.875   2.689   5.735  0.4508  0.0063 -0.2687
 2241SOL    HW118356   1.835   2.774   5.717  0.2732  0.2557  1.2569
 2241SOL    HW218357   1.810   2.638   5.783  0.1915 -0.7313 -1.4276
 2242SOL     OW18358   4.535   1.521   6.204  0.1706  0.1059 -0.2372
 2242SOL    HW118359   4.446   1.540   6.234  0.4374 -0.2867  0.8039
 2242SOL    HW218360   4.526   1.575   6.125  0.7230  1.4043  0.5935
 2243SOL     OW18361   2.852   0.854  15.244  0.3018  0.2903  0.1444
 2243SOL    HW118362   2.938   0.884  15.274  0.5775 -0.8359  0.5049
 2243SOL    HW218363   2.873   0.819  15.158  1.2087  2.3305 -0.4501
 2244SOL     OW18364   3.803   4.325   8.652  0.0847 -0.0599  0.2452
 2244SOL    HW118365   3.885   4.308   8.698  0.9434  0.5327 -1.0671
 2244SOL    HW218366   3.839   4.343   8.565  0.4955  0.8879  0.6168
 2245SOL     OW18367   2.850   2.940  15.222 -0.3598  0.2607 -0.2855
 2245SOL    HW118368   2.899   3.016  15.252 -0.8003 -0.3418  1.9692
 2245SOL    HW218369   2.919   2.874  15.221 -0.5468  0.0623 -0.1361
 2246SOL     OW18370   3.672   0.632   1.549 -0.4751  0.2265 -0.5493
 2246SOL    HW118371   3.647   0.541   1.565  0.2883  0.3678  1.5542
 2246SOL    HW218372   3.611   0.680   1.605 -2.3022 -2.6022 -0.1048
 2247SOL     OW18373   0.412   4.690   7.265  0.3593 -0.7108  0.2948
 2247SOL    HW118374   0.321   4.699   7.294 -0.0801 -0.4290 -1.1765
 2247SOL    HW218375   0.452   4.639   7.336  0.1822 -0.2400  0.7347
 2248SOL     OW18376   3.833   2.686   6.084 -0.4133  1.0772  0.1919
 2248SOL    HW118377   3.859   2.767   6.040  0.7833 -0.4656 -1.9687
 2248SOL    HW218378   3.844   2.700   6.178  2.1400 -0.8058  0.2002
 2249SOL     OW18379   1.759   0.701   4.563  0.1689  0.2109  0.6431
 2249SOL    HW118380   1.808   0.747   4.631  3.6071 -1.2887 -0.8705
 2249SOL    HW218381   1.723   0.628   4.614 -2.0863  0.3912 -0.7040
 2250SOL     OW18382   3.770   1.148   5.469  0.2116 -0.6791 -0.2293
 2250SOL    HW118383   3.778   1.075   5.530 -1.1839 -0.0501  0.6973
 2250SOL    HW218384   3.676   1.159   5.457 -0.1261 -1.2504  1.9668
 2251SOL     OW18385   3.060   2.200  15.747 -0.2279  0.1437 -0.2380
 2251SOL    HW118386   2.969   2.211  15.719  0.3946 -1.1077 -2.7516
 2251SOL    HW218387   3.082   2.115  15.709  0.2816  0.5728 -0.8921
 2252SOL     OW18388   1.752   0.908   2.463 -0.5355 -0.1309 -0.0055
 2252SOL    HW118389   1.719   0.823   2.493 -0.8506  0.2057  0.6030
 2252SOL    HW218390   1.672   0.955   2.484 -1.3007 -0.8838 -1.2173
 2253SOL     OW18391   3.994   3.860   4.055 -0.1858  0.5779  0.3668
 2253SOL    HW118392   3.950   3.789   4.008 -1.2369  1.6385 -0.2533
 2253SOL    HW218393   3.921   3.908   4.095 -2.8308 -1.6017 -1.8777
 2254SOL     OW18394   2.005   2.167   2.054  0.5193 -0.1732 -0.9216
 2254SOL    HW118395   1.952   2.097   2.092 -1.9494  0.7107 -2.7240
 2254SOL    HW218396   1.964   2.246   2.089  1.5088  0.2854 -0.7979
 2255SOL     OW18397   1.291   0.185   8.833 -0.1650  0.1017  0.5973
 2255SOL    HW118398   1.206   0.173   8.790 -1.3585  1.3598  2.6239
 2255SOL    HW218399   1.292   0.100   8.876  1.1720 -0.7543 -1.1225
 2256SOL     OW18400   3.693   3.761   2.554 -0.1579  0.2412  0.7119
 2256SOL    HW118401   3.624   3.742   2.618  0.5405  0.3686  1.5158
 2256SOL    HW218402   3.693   3.684   2.498 -0.4436  0.7328  0.0389
 2257SOL     OW18403   2.169   3.930   3.343 -0.0071 -0.5540 -0.5601
 2257SOL    HW118404   2.260   3.946   3.369  0.4809 -1.1954 -1.8676
 2257SOL    HW218405   2.126   3.961   3.423  1.1033  0.4624 -0.3556
 2258SOL     OW18406   4.573   1.597   7.477  0.0515 -0.0791 -0.2278
 2258SOL    HW118407   4.568   1.562   7.388  0.9564 -1.0983  0.1222
 2258SOL    HW218408   4.648   1.547   7.508  0.6735  2.0855  1.7716
 2259SOL     OW18409   4.635   2.062   0.256 -0.0598 -0.5398 -0.1279
 2259SOL    HW118410   4.609   2.063   0.164 -1.6845 -0.9264  0.3384
 2259SOL    HW218411   4.562   2.016   0.298 -0.1495  1.1086  1.5189
 2260SOL     OW18412   2.534   2.837   7.415  0.4117  0.2128  0.5309
 2260SOL    HW118413   2.628   2.824   7.411  0.7083  2.2244  1.1288
 2260SOL    HW218414   2.513   2.927   7.392 -1.1750 -0.6794 -1.5572
 2261SOL     OW18415   0.832   1.883  14.054  0.4583 -0.7704  0.1653
 2261SOL    HW118416   0.823   1.805  13.999 -1.6743 -1.9803  2.1744
 2261SOL    HW218417   0.842   1.835  14.137  1.4723 -1.2664 -0.2434
 2262SOL     OW18418   1.746   2.223   8.501  0.9992 -0.1462  0.5683
 2262SOL    HW118419   1.668   2.195   8.549  1.4376  0.3870  1.5957
 2262SOL    HW218420   1.737   2.169   8.423  2.6183 -0.1848  0.4059
 2263SOL     OW18421   2.996   2.314  16.044  0.4404  0.3907 -0.7606
 2263SOL    HW118422   2.908   2.277  16.039 -0.1878  1.7311  0.2605
 2263SOL    HW218423   3.027   2.276  15.962 -0.0790 -0.3205 -0.6295
 2264SOL     OW18424   0.276   1.179   8.664 -0.5209 -0.0055 -0.2791
 2264SOL    HW118425   0.273   1.091   8.625 -2.4406 -0.6022  1.2220
 2264SOL    HW218426   0.362   1.209   8.633 -0.0008 -0.5916  0.5761
 2265SOL     OW18427   1.506   3.241   7.754 -0.5041 -0.4625  0.3737
 2265SOL    HW118428   1.425   3.246   7.704 -1.0445 -1.6169  1.1538
 2265SOL    HW218429   1.472   3.223   7.841  3.3534  1.5796  2.3226
 2266SOL     OW18430   3.492   2.071   1.469  0.2347 -0.1754 -0.2776
 2266SOL    HW118431   3.420   2.034   1.519 -0.2274  1.8624  0.5616
 2266SOL    HW218432   3.546   2.104   1.541  1.4705  1.3485 -1.8988
 2267SOL     OW18433   2.765   1.461   5.337 -0.2550  0.4104 -0.0391
 2267SOL    HW118434   2.833   1.420   5.284 -1.0199  0.2504 -0.8789
 2267SOL    HW218435   2.688   1.452   5.281  0.3867  1.4170 -1.0722
 2268SOL     OW18436   4.502   4.132  12.197  0.1833 -0.1878 -0.4752
 2268SOL    HW118437   4.486   4.207  12.141  0.9935 -0.3765 -0.9691
 2268SOL    HW218438   4.583   4.156  12.242  0.8369 -2.8435 -0.1894
 2269SOL     OW18439   2.915   3.783   5.163  0.1491  0.1041 -0.0589
 2269SOL    HW118440   2.925   3.874   5.134  2.7956  0.2223  1.2526
 2269SOL    HW218441   2.981   3.735   5.113 -1.4150 -2.3037  0.2137
 2270SOL     OW18442   4.610   4.151   5.998  0.1022  0.1014 -0.1002
 2270SOL    HW118443   4.576   4.068   6.031 -1.4191  0.3872 -0.9337
 2270SOL    HW218444   4.597   4.205   6.076  0.7936  1.7523 -1.1345
 2271SOL     OW18445   2.561   2.895   2.282 -0.6865  0.2177  1.0020
 2271SOL    HW118446   2.519   2.927   2.361  0.5709  1.2837  1.2349
 2271SOL    HW218447   2.615   2.821   2.310 -0.1394 -0.3365 -1.4287
 2272SOL     OW18448   0.557   0.165  13.387  0.1099 -0.0580  0.2736
 2272SOL    HW118449   0.512   0.237  13.345  0.5129  0.2059  0.2993
 2272SOL    HW218450   0.491   0.131  13.448 -1.4993  0.5208 -1.1773
 2273SOL     OW18451   2.226   1.992   1.971 -0.2804 -0.4854 -0.2115
 2273SOL    HW118452   2.150   2.048   1.954 -0.4967 -1.1338 -1.3784
 2273SOL    HW218453   2.302   2.043   1.941 -1.5072  1.9474  0.8092
 2274SOL     OW18454   1.808   0.996   8.339  0.4913 -0.5060 -0.7556
 2274SOL    HW118455   1.894   1.018   8.373  0.8009 -2.6954 -0.1431
 2274SOL    HW218456   1.769   0.967   8.421  0.6094  0.6875 -0.2733
 2275SOL     OW18457   4.079   4.710   1.400 -0.5626  0.2697 -0.0131
 2275SOL    HW118458   4.113   4.655   1.470 -1.2600  0.7351  0.6827
 2275SOL    HW218459   4.145   4.697   1.332  0.9653  2.9765  0.9312
 2276SOL     OW18460   3.954   0.410   6.931 -0.2509 -0.0318 -0.2317
 2276SOL    HW118461   3.932   0.406   6.838 -1.0813 -2.1924  0.0670
 2276SOL    HW218462   4.036   0.460   6.939 -1.9712  2.5762  1.0435
 2277SOL     OW18463   4.703   2.267   9.213 -0.4506 -0.3806 -0.1961
 2277SOL    HW118464   4.665   2.245   9.128  0.0203  0.6524 -0.6782
 2277SOL    HW218465   4.686   2.359   9.234 -0.7662 -0.0081 -2.0795
 2278SOL     OW18466   3.558   0.919   1.428 -0.1899 -0.7580  0.7668
 2278SOL    HW118467   3.552   0.857   1.354  0.8046 -0.9185  0.8115
 2278SOL    HW218468   3.576   0.863   1.504  0.0135 -2.0452 -0.2294
 2279SOL     OW18469   2.952   2.743   1.831  0.5657  0.1613 -0.1382
 2279SOL    HW118470   2.874   2.794   1.856  0.0585 -0.3976 -0.5764
 2279SOL    HW218471   3.008   2.762   1.906  0.3561  2.0900 -0.4521
 2280SOL     OW18472   3.146   3.261   0.247 -0.2456 -0.0354  0.1157
 2280SOL    HW118473   3.169   3.252   0.154 -1.7451 -1.3841 -0.1205
 2280SOL    HW218474   3.122   3.171   0.267  0.8017  0.3330  3.0540
 2281SOL     OW18475   3.496   3.473   4.807  0.0632 -0.2516 -0.0680
 2281SOL    HW118476   3.465   3.556   4.843 -0.0006  0.6359 -2.2182
 2281SOL    HW218477   3.447   3.408   4.859  0.6607  0.3339  1.2165
 2282SOL     OW18478   4.663   2.610   6.070  0.3676 -0.5496 -0.5757
 2282SOL    HW118479   4.726   2.556   6.119 -0.0238 -0.4451  0.0385
 2282SOL    HW218480   4.584   2.578   6.113  0.8177 -0.9652 -0.0543
 2283SOL     OW18481   3.980   0.087   8.443 -0.5394 -0.1375  0.3925
 2283SOL    HW118482   3.950   0.084   8.534 -0.6577  2.4414  0.4517
 2283SOL    HW218483   4.062   0.135   8.453 -1.2282  1.2068 -0.3129
 2284SOL     OW18484   1.554   1.988   4.561 -0.1309 -0.3502 -0.4363
 2284SOL    HW118485   1.644   1.972   4.534  0.0145 -1.1540  0.5075
 2284SOL    HW218486   1.566   1.991   4.656  0.1646  0.7125 -0.5081
 2285SOL     OW18487   2.456   3.584  16.531  0.0725 -0.0092 -0.0317
 2285SOL    HW118488   2.402   3.646  16.481 -1.9284  0.2799  2.4675
 2285SOL    HW218489   2.531   3.562  16.476 -1.2544 -2.4406 -0.8922
 2286SOL     OW18490   0.522   0.956   2.490  0.0770  0.0507 -0.0557
 2286SOL    HW118491   0.591   0.894   2.512 -1.4870 -1.0565  1.7458
 2286SOL    HW218492   0.548   1.024   2.553  1.3159 -1.1798  0.7515
 2287SOL     OW18493   2.494   4.387   2.603 -0.1100  0.3602  0.1839
 2287SOL    HW118494   2.502   4.391   2.507 -1.2980  0.4734  0.0917
 2287SOL    HW218495   2.453   4.471   2.620  2.2308  1.3457  1.0227
 2288SOL     OW18496   2.731   1.538   5.620 -0.3641  0.0066  0.4075
 2288SOL    HW118497   2.772   1.516   5.704 -0.9254 -2.0496  0.1294
 2288SOL    HW218498   2.671   1.465   5.601 -1.4300  0.5208  1.7496
 2289SOL     OW18499   4.080   0.467   2.016 -0.0795 -0.3701 -0.3962
 2289SOL    HW118500   4.006   0.428   1.969 -1.2630 -0.6609  1.7133
 2289SOL    HW218501   4.141   0.393   2.016 -0.8595 -1.0148  1.1307
 2290SOL     OW18502   1.518   2.554   1.223  0.2661  0.0248 -0.0430
 2290SOL    HW118503   1.543   2.560   1.131  0.3094  1.6609  0.0682
 2290SOL    HW218504   1.518   2.461   1.245 -0.1312  0.2056  0.7509
 2291SOL     OW18505   3.856   1.081  10.336 -0.3687  0.0308 -0.7672
 2291SOL    HW118506   3.801   1.032  10.397 -0.4166 -0.9946 -1.6511
 2291SOL    HW218507   3.885   1.009  10.280 -0.8370  1.3827 -2.7144
 2292SOL     OW18508   3.297   3.200   2.807 -0.0299 -0.0259  0.2041
 2292SOL    HW118509   3.209   3.178   2.839  0.8159 -0.7908  1.9452
 2292SOL    HW218510   3.329   3.256   2.878  0.3788  1.8235 -1.4249
 2293SOL     OW18511   0.878   2.092  17.745 -0.2754 -0.0109  0.6245
 2293SOL    HW118512   0.791   2.112   0.032 -0.2260 -0.1706  0.8298
 2293SOL    HW218513   0.862   2.007  17.703 -0.6694  0.8676 -1.0190
 2294SOL     OW18514   2.669   3.150  11.569 -0.5673 -0.1031 -0.2034
 2294SOL    HW118515   2.692   3.067  11.612 -0.2410  0.1687  0.1483
 2294SOL    HW218516   2.731   3.209  11.612 -2.1400  0.5454  1.1483
 2295SOL     OW18517   1.537   4.154   9.838  0.3840  0.5363  0.1881
 2295SOL    HW118518   1.557   4.089   9.771  2.0403 -0.0042  1.2182
 2295SOL    HW218519   1.585   4.115   9.911 -0.1681 -0.3784  0.0652
 2296SOL     OW18520   3.564   2.618   8.685  0.0705  0.4673  0.0893
 2296SOL    HW118521   3.633   2.592   8.623 -0.1298  2.1419 -0.8406
 2296SOL    HW218522   3.615   2.667   8.750 -0.3906  0.5021  0.4236
 2297SOL     OW18523   1.588   1.003  11.925 -0.2658  0.1265  0.0468
 2297SOL    HW118524   1.607   0.921  11.971 -1.0086  0.9663  1.8423
 2297SOL    HW218525   1.619   1.072  11.984  1.4850  0.7649 -1.6454
 2298SOL     OW18526   4.506   4.126   5.122 -0.1167 -0.1653  0.0602
 2298SOL    HW118527   4.413   4.129   5.141  0.0542  0.9648  0.7626
 2298SOL    HW218528   4.533   4.094   5.208  0.0857  2.9319  1.1435
 2299SOL     OW18529   2.016   0.337   6.157  0.3943 -0.3863  0.0917
 2299SOL    HW118530   2.039   0.249   6.188  0.9520 -0.4306 -0.4292
 2299SOL    HW218531   1.924   0.334   6.132  0.4300  0.8853 -0.1624
 2300SOL     OW18532   3.661   3.659  16.856  0.1708 -0.1870  0.2940
 2300SOL    HW118533   3.652   3.678  16.762 -1.2876  2.3317  0.9501
 2300SOL    HW218534   3.726   3.720  16.890  2.5653 -2.8869  0.6527
 2301SOL     OW18535   0.631   0.560   8.721  0.1763 -0.8821  0.2126
 2301SOL    HW118536   0.707   0.554   8.663 -0.7173 -0.8144 -0.9570
 2301SOL    HW218537   0.670   0.555   8.809 -1.2964  1.1380  0.9550
 2302SOL     OW18538   1.353   2.027   0.228  0.3585  0.4322 -0.5852
 2302SOL    HW118539   1.322   1.944   0.193  0.0193 -0.1879  1.2050
 2302SOL    HW218540   1.349   2.080   0.149  0.8606 -0.9663 -1.5430
 2303SOL     OW18541   0.551   0.426   1.568  0.3067 -0.7186 -0.3336
 2303SOL    HW118542   0.582   0.362   1.633  4.5624  0.1226 -1.5482
 2303SOL    HW218543   0.466   0.451   1.604  0.4331 -1.6182  0.6090
 2304SOL     OW18544   1.348   2.003   4.081  0.4338 -0.3828  0.2040
 2304SOL    HW118545   1.332   2.095   4.064 -1.3876 -0.7432 -0.0309
 2304SOL    HW218546   1.444   1.998   4.080  0.4383 -0.5044  1.3504
 2305SOL     OW18547   0.541   4.523   9.665 -0.1624  0.1392 -0.6691
 2305SOL    HW118548   0.478   4.592   9.684 -0.2277 -0.4138  1.1315
 2305SOL    HW218549   0.615   4.561   9.713 -0.0400  1.1153 -1.6360
 2306SOL     OW18550   1.163   0.409  15.283  0.3643 -0.7292 -0.6345
 2306SOL    HW118551   1.229   0.358  15.235 -1.7699 -0.9648 -3.2607
 2306SOL    HW218552   1.209   0.437  15.363  0.7162 -0.9496 -0.7574
 2307SOL     OW18553   3.376   1.897   5.813 -0.0024 -0.3194 -0.3206
 2307SOL    HW118554   3.433   1.892   5.890 -0.2189  0.2149 -0.1232
 2307SOL    HW218555   3.373   1.991   5.796  1.3042 -0.2358 -0.0782
 2308SOL     OW18556   1.192   3.041   3.941 -0.8006 -0.2334 -0.0016
 2308SOL    HW118557   1.214   2.958   3.982  3.3052  2.3820  3.1452
 2308SOL    HW218558   1.283   3.053   3.913 -0.6433  0.5707  0.8451
 2309SOL     OW18559   3.619   3.406   6.104  0.2727 -0.7041  0.2863
 2309SOL    HW118560   3.654   3.349   6.036 -2.4657  0.3045 -1.9671
 2309SOL    HW218561   3.697   3.460   6.116  0.4671 -1.2309  1.4480
 2310SOL     OW18562   3.538   0.064   7.911 -0.5410  0.3878 -0.4071
 2310SOL    HW118563   3.621   0.098   7.944 -0.2564 -0.6818 -0.0143
 2310SOL    HW218564   3.540   0.096   7.822  0.1301 -0.6628 -0.7769
 2311SOL     OW18565   0.590   3.449  10.455 -0.4385  0.5068  0.2624
 2311SOL    HW118566   0.541   3.427  10.535 -1.1396  0.3150 -0.2149
 2311SOL    HW218567   0.558   3.372  10.407 -0.8225  0.1357  1.1170
 2312SOL     OW18568   2.740   1.492  11.844  0.6798 -0.3212 -0.7700
 2312SOL    HW118569   2.671   1.543  11.802 -0.9808 -1.0359  1.0810
 2312SOL    HW218570   2.679   1.430  11.883  0.5117  0.6269  0.4758
 2313SOL     OW18571   4.145   1.689   8.650  0.1130  0.5503 -0.0559
 2313SOL    HW118572   4.107   1.607   8.617 -0.7025  1.2883 -0.9693
 2313SOL    HW218573   4.068   1.739   8.678 -0.3769  0.7455 -1.7064
 2314SOL     OW18574   2.730   2.262   0.592  0.1535 -0.2066  0.0809
 2314SOL    HW118575   2.813   2.298   0.623 -0.1473  0.5560 -0.0044
 2314SOL    HW218576   2.670   2.327   0.628 -0.6623 -0.7682 -0.2481
 2315SOL     OW18577   1.756   2.426  16.927 -0.4804  0.0287  0.0516
 2315SOL    HW118578   1.714   2.498  16.879  1.3361  0.9474 -0.1620
 2315SOL    HW218579   1.762   2.360  16.858 -0.7119  0.3990 -0.3278
 2316SOL     OW18580   0.527   1.267   7.477 -0.1068  0.3852  1.1531
 2316SOL    HW118581   0.575   1.345   7.449  0.0411 -1.2358 -3.0988
 2316SOL    HW218582   0.590   1.196   7.467  0.6488  1.3120 -0.5830
 2317SOL     OW18583   4.261   2.507   8.897  0.0250 -0.4465 -0.0687
 2317SOL    HW118584   4.350   2.480   8.918  0.3199 -0.4293 -1.2909
 2317SOL    HW218585   4.284   2.600   8.897 -1.5287 -0.0577 -1.7553
 2318SOL     OW18586   4.698   3.486  13.475 -0.1043  0.3484 -0.1643
 2318SOL    HW118587   4.634   3.453  13.412  0.4791  0.0760 -0.6217
 2318SOL    HW218588   0.020   3.520  13.408 -1.2022  4.2114  0.8374
 2319SOL     OW18589   1.619   3.122  17.481 -0.1515  0.2507  0.0903
 2319SOL    HW118590   1.646   3.064  17.409 -0.4792  0.9041 -0.5692
 2319SOL    HW218591   1.531   3.147  17.453 -0.3869 -1.4401 -0.6799
 2320SOL     OW18592   4.206   2.869   2.620 -1.0514  0.2886 -0.3211
 2320SOL    HW118593   4.122   2.896   2.584 -1.4840  0.0465  0.5159
 2320SOL    HW218594   4.178   2.891   2.709 -0.5163  0.2757 -0.1516
 2321SOL     OW18595   0.512   2.097   4.880  0.9629 -0.4501  0.2458
 2321SOL    HW118596   0.500   2.024   4.941 -0.1776 -0.1211  0.4088
 2321SOL    HW218597   0.516   2.177   4.931  2.8558  0.2093 -0.9120
 2322SOL     OW18598   0.361   3.499   4.533  0.9225  0.4616 -0.3339
 2322SOL    HW118599   0.438   3.520   4.586  0.8541 -0.6414  0.2088
 2322SOL    HW218600   0.289   3.530   4.587  2.1654  1.7851  0.5675
 2323SOL     OW18601   3.629   0.595   7.972 -0.0402  0.4052  0.2717
 2323SOL    HW118602   3.544   0.552   7.974  0.6422 -1.0495 -0.9079
 2323SOL    HW218603   3.668   0.562   8.053 -0.2429 -0.7739 -0.1121
 2324SOL     OW18604   4.073   1.703   8.984  0.5136  0.2887 -0.2925
 2324SOL    HW118605   4.086   1.798   8.979  0.1325  0.3221 -0.7065
 2324SOL    HW218606   4.118   1.681   8.902 -2.2876 -0.3948 -1.6583
 2325SOL     OW18607   0.916   0.999  12.112 -0.2304 -0.2066  0.3389
 2325SOL    HW118608   0.861   1.069  12.149  1.2189  1.2593 -0.2801
 2325SOL    HW218609   0.950   1.043  12.034  0.8326 -2.9722 -0.7572
 2326SOL     OW18610   1.297   0.912   3.768  0.4086 -0.0616 -0.0434
 2326SOL    HW118611   1.303   0.878   3.679 -1.9785 -2.0112  0.5335
 2326SOL    HW218612   1.380   0.958   3.780  1.7834 -1.9098 -2.5055
 2327SOL     OW18613   0.983   3.189   3.878  0.4688 -0.6031 -0.1590
 2327SOL    HW118614   1.009   3.270   3.921  0.9066 -0.1164 -1.3443
 2327SOL    HW218615   1.058   3.132   3.897  2.0998  1.7352  0.4512
 2328SOL     OW18616   1.901   4.604   7.325 -0.1576  0.0841  0.2232
 2328SOL    HW118617   1.902   4.585   7.231 -3.2702 -1.1210  0.4034
 2328SOL    HW218618   1.923   4.514   7.348  0.5239  0.1776 -0.0667
 2329SOL     OW18619   1.445   0.553  11.681  0.1802  0.6799 -0.8847
 2329SOL    HW118620   1.502   0.620  11.644  1.7301 -0.0574  0.1754
 2329SOL    HW218621   1.419   0.498  11.607 -1.8405 -1.2321  1.2471
 2330SOL     OW18622   0.637   2.984   5.069  0.3446  0.1009 -0.1465
 2330SOL    HW118623   0.625   2.895   5.037  0.1187 -0.0679  0.4029
 2330SOL    HW218624   0.689   2.966   5.148 -1.6606  0.4893  1.2585
 2331SOL     OW18625   1.895   3.071   7.562  0.0461  0.2939  0.1757
 2331SOL    HW118626   1.879   3.021   7.642 -0.4744  0.5091  0.2096
 2331SOL    HW218627   1.921   3.002   7.501 -1.8088 -2.3154  2.3476
 2332SOL     OW18628   4.508   1.853   7.561  0.1881 -0.2495  0.5293
 2332SOL    HW118629   4.432   1.844   7.618  0.4574 -1.4334  0.6964
 2332SOL    HW218630   4.536   1.764   7.542  1.0481  0.4493 -1.5213
 2333SOL     OW18631   3.844   2.289   4.792 -0.0252  0.2257 -1.1749
 2333SOL    HW118632   3.885   2.262   4.709  0.5889  0.5673 -0.9837
 2333SOL    HW218633   3.784   2.218   4.813 -1.2049  1.6573  0.2456
 2334SOL     OW18634   3.505   2.790   7.235  0.0843  0.5096  0.0956
 2334SOL    HW118635   3.414   2.779   7.206  0.4373 -2.7787  0.1393
 2334SOL    HW218636   3.543   2.714   7.189 -0.8652 -0.3464  0.7135
 2335SOL     OW18637   1.038   1.440   8.893 -0.1105  0.2207  0.0431
 2335SOL    HW118638   0.944   1.427   8.907 -0.2356  0.0506 -1.0171
 2335SOL    HW218639   1.041   1.534   8.912  0.0013  0.2253 -0.0011
 2336SOL     OW18640   0.212   0.183   3.220 -0.0576  0.2426  0.0834
 2336SOL    HW118641   0.203   0.212   3.311  1.1854  0.4056  0.1564
 2336SOL    HW218642   0.238   0.265   3.179 -1.1551  1.0463  0.9975
 2337SOL     OW18643   1.770   0.565   7.063 -0.0707  0.4352 -0.1090
 2337SOL    HW118644   1.820   0.570   6.981  1.0446  4.6561  0.8100
 2337SOL    HW218645   1.741   0.657   7.060 -1.1168  0.1283  1.0223
 2338SOL     OW18646   2.723   0.101   6.330 -0.3210 -0.0982 -0.5313
 2338SOL    HW118647   2.661   0.054   6.386 -3.0166 -1.2881 -4.4885
 2338SOL    HW218648   2.794   0.087   6.392 -1.1138  1.0410  0.6359
 2339SOL     OW18649   0.588   3.775   1.230 -0.3169  0.2110  0.6480
 2339SOL    HW118650   0.665   3.743   1.181  1.2930  1.3988  2.4270
 2339SOL    HW218651   0.618   3.861   1.258  0.3579  1.2103 -3.0421
 2340SOL     OW18652   3.276   2.509   4.975 -0.3104 -0.0440 -0.3872
 2340SOL    HW118653   3.308   2.419   4.969 -0.6406 -0.3112  1.8096
 2340SOL    HW218654   3.190   2.504   4.933  1.0588 -1.7629 -2.9903
 2341SOL     OW18655   4.273   2.296   7.848 -0.0395 -0.6363 -0.0126
 2341SOL    HW118656   4.358   2.262   7.821  1.6822  2.3276  1.7745
 2341SOL    HW218657   4.221   2.271   7.771  0.7972 -2.9212  0.1736
 2342SOL     OW18658   2.971   0.427   7.860  0.5221 -0.2290  0.0241
 2342SOL    HW118659   2.890   0.461   7.824  1.8088  2.5600 -0.2375
 2342SOL    HW218660   3.019   0.426   7.777 -2.0572 -0.8822 -1.4778
 2343SOL     OW18661   0.463   3.846   5.886  0.0352 -0.1703 -0.0370
 2343SOL    HW118662   0.387   3.817   5.835  0.2528  0.6818 -0.8385
 2343SOL    HW218663   0.533   3.833   5.822 -0.8714 -0.3219 -1.0038
 2344SOL     OW18664   1.320   3.273   2.887  0.5335  0.0423  0.9761
 2344SOL    HW118665   1.338   3.181   2.867  1.0125  0.7998 -2.0352
 2344SOL    HW218666   1.252   3.308   2.830  2.2598  0.2402 -0.9761
 2345SOL     OW18667   1.880   0.700  12.990  0.1548  0.0377  0.0896
 2345SOL    HW118668   1.952   0.690  13.052  0.8986  0.5101 -0.6936
 2345SOL    HW218669   1.802   0.695  13.045  0.4022 -1.7845  0.2959
 2346SOL     OW18670   3.101   0.154  13.725 -0.0655  0.0670  0.4608
 2346SOL    HW118671   3.032   0.216  13.701  0.8019  0.8458  0.0037
 2346SOL    HW218672   3.145   0.202  13.794  1.6607  0.7883 -1.1436
 2347SOL     OW18673   0.188   1.528   9.613  0.1275  0.5086  0.3355
 2347SOL    HW118674   0.189   1.609   9.664 -0.3743  0.1636  0.8974
 2347SOL    HW218675   0.184   1.565   9.525 -0.1574  3.3517  1.5373
 2348SOL     OW18676   3.175   0.641   2.916 -0.0722 -0.0813 -0.0477
 2348SOL    HW118677   3.166   0.581   2.842  0.4435 -2.0207  1.4541
 2348SOL    HW218678   3.119   0.714   2.894 -2.0115 -1.5710 -0.0603
 2349SOL     OW18679   4.598   3.246   4.034  0.0648 -0.3821 -0.2612
 2349SOL    HW118680   4.615   3.338   4.011  0.4123  0.1147  1.9970
 2349SOL    HW218681   4.510   3.259   4.068 -0.0803 -1.9943 -0.0249
 2350SOL     OW18682   0.341   1.039   1.454 -0.1825  0.1892 -0.6963
 2350SOL    HW118683   0.433   1.038   1.427  0.0689 -2.5916  0.2762
 2350SOL    HW218684   0.346   1.113   1.515  0.5216 -0.9332  0.6059
 2351SOL     OW18685   4.206   0.679  11.167 -0.1860  0.3651  0.9693
 2351SOL    HW118686   4.206   0.726  11.084  0.2425 -2.6269 -0.7445
 2351SOL    HW218687   4.154   0.737  11.222 -2.3798 -0.2114 -0.4815
 2352SOL     OW18688   1.968   0.983  11.689 -0.2779 -0.2667 -0.1570
 2352SOL    HW118689   1.990   0.972  11.597 -0.6292  1.6732 -0.4652
 2352SOL    HW218690   1.873   0.968  11.684 -0.3788 -0.0587  1.2022
 2353SOL     OW18691   0.698   2.242   4.301  0.2902  0.3387  0.2536
 2353SOL    HW118692   0.657   2.156   4.294 -0.1423  0.5444  0.2064
 2353SOL    HW218693   0.752   2.237   4.222  1.9341 -1.2440  1.4822
 2354SOL     OW18694   2.062   1.561   4.344 -0.3464 -0.0361 -0.3493
 2354SOL    HW118695   2.104   1.638   4.383 -0.1972 -0.5152  0.4401
 2354SOL    HW218696   2.130   1.527   4.286 -1.9019 -1.2792 -1.4297
 2355SOL     OW18697   2.393   1.917   3.541 -0.2022  0.3301  0.2677
 2355SOL    HW118698   2.309   1.955   3.568 -0.8147  0.1580 -1.4132
 2355SOL    HW218699   2.443   1.993   3.512 -2.6583  1.7575 -0.2954
 2356SOL     OW18700   3.376   4.426   9.310 -1.0593 -0.0434 -0.4597
 2356SOL    HW118701   3.320   4.477   9.252 -0.5710 -0.6739 -1.4679
 2356SOL    HW218702   3.442   4.404   9.245 -1.3929 -0.2690 -0.7193
 2357SOL     OW18703   0.994   0.603   4.710 -0.2864  0.6865 -0.5052
 2357SOL    HW118704   1.048   0.528   4.736 -0.7978 -0.1611 -1.8501
 2357SOL    HW218705   1.049   0.671   4.748  0.2201  0.5388 -0.9718
 2358SOL     OW18706   0.415   1.071  17.276  0.0543 -0.2110  0.2837
 2358SOL    HW118707   0.440   1.129  17.348  0.5101  0.7228 -0.6040
 2358SOL    HW218708   0.335   1.029  17.304 -1.8505  1.8821 -2.0134
 2359SOL     OW18709   0.784   1.314  12.485  0.1279 -0.0481  0.1532
 2359SOL    HW118710   0.870   1.340  12.452 -0.2082  1.0493  0.1415
 2359SOL    HW218711   0.809   1.269  12.566  0.9864  1.0973  0.5303
 2360SOL     OW18712   1.042   3.939   8.413  0.6044 -0.0836  0.2015
 2360SOL    HW118713   1.039   3.850   8.378  3.3722 -0.6281  1.3621
 2360SOL    HW218714   1.064   3.918   8.504  2.3741 -1.3762 -0.5231
 2361SOL     OW18715   1.227   2.024  15.259 -0.2558  0.4099  0.0134
 2361SOL    HW118716   1.145   2.053  15.218 -1.5584 -0.7338  1.7821
 2361SOL    HW218717   1.237   1.936  15.225 -2.2242 -0.3596  1.4293
 2362SOL     OW18718   3.544   4.333   9.070 -0.0721  0.4340  0.4719
 2362SOL    HW118719   3.503   4.293   8.994  1.6649  0.4162 -0.4413
 2362SOL    HW218720   3.590   4.409   9.035  2.0474 -0.1731  1.9372
 2363SOL     OW18721   2.461   0.380   2.877 -0.5024 -0.5924  0.2860
 2363SOL    HW118722   2.425   0.305   2.829 -1.0608  0.9554 -1.7475
 2363SOL    HW218723   2.398   0.435   2.831 -0.1121  0.0139  0.4782
 2364SOL     OW18724   4.614   2.147   4.695 -0.5826 -0.3427  0.5565
 2364SOL    HW118725   4.628   2.067   4.745  0.3648 -0.9364 -0.6380
 2364SOL    HW218726   4.652   2.198   4.766  1.0183  0.0651 -0.5762
 2365SOL     OW18727   2.784   2.061  13.436  0.0036  0.1708 -0.4964
 2365SOL    HW118728   2.794   2.058  13.532  1.3820 -1.1132 -0.6825
 2365SOL    HW218729   2.690   2.051  13.420 -0.4410 -0.1521  2.3001
 2366SOL     OW18730   2.329   2.596   3.579 -0.7339 -0.1671  0.0976
 2366SOL    HW118731   2.302   2.688   3.572  0.1388  0.2502  2.3549
 2366SOL    HW218732   2.308   2.570   3.669 -0.2658 -1.4364 -0.1651
 2367SOL     OW18733   1.234   3.882   9.859 -0.6650 -0.1313 -0.0515
 2367SOL    HW118734   1.250   3.906   9.768 -0.4650 -0.9449 -0.2378
 2367SOL    HW218735   1.211   3.789   9.863 -1.3967  0.0699  0.3626
 2368SOL     OW18736   3.552   3.065   1.328 -0.3314  0.4457 -0.5043
 2368SOL    HW118737   3.613   3.104   1.265  1.8790 -2.8001 -0.3802
 2368SOL    HW218738   3.526   2.994   1.270 -0.3631 -0.7360  0.9554
 2369SOL     OW18739   0.984   2.799  11.471  0.7640 -0.5526 -0.5061
 2369SOL    HW118740   0.898   2.839  11.456  0.6411 -0.1471  1.3065
 2369SOL    HW218741   0.965   2.739  11.543 -1.8758 -1.6709 -2.1114
 2370SOL     OW18742   1.778   4.165   1.345  0.1125  0.2687  0.0203
 2370SOL    HW118743   1.717   4.187   1.416 -0.0474  1.2525 -0.4147
 2370SOL    HW218744   1.728   4.096   1.302 -0.9365  1.6412 -0.9723
 2371SOL     OW18745   2.776   4.624   3.452 -0.3538 -0.1465  0.3613
 2371SOL    HW118746   2.719   4.701   3.440 -1.3681 -0.8061  0.9584
 2371SOL    HW218747   2.831   4.651   3.525  0.6900 -0.0212 -0.4833
 2372SOL     OW18748   1.621   1.389   3.709  0.6087  0.4399 -0.2223
 2372SOL    HW118749   1.695   1.446   3.732  1.9980 -0.7903 -1.7286
 2372SOL    HW218750   1.572   1.452   3.656  2.8975  1.6461 -0.9026
 2373SOL     OW18751   2.648   1.177   6.203  0.0827 -0.4761 -0.0317
 2373SOL    HW118752   2.620   1.266   6.227 -0.2073 -0.5068 -0.2534
 2373SOL    HW218753   2.626   1.126   6.281 -0.7056  0.7413  0.5353
 2374SOL     OW18754   0.322   3.603   7.587 -0.2120  0.3535 -0.7499
 2374SOL    HW118755   0.268   3.548   7.643 -1.8125 -1.3586 -3.9590
 2374SOL    HW218756   0.390   3.536   7.578  1.0436  1.6433 -0.9567
 2375SOL     OW18757   1.610   2.133   4.295 -0.2080 -0.9361 -0.0852
 2375SOL    HW118758   1.561   2.187   4.357  1.0143 -1.1283  1.0288
 2375SOL    HW218759   1.632   2.059   4.352  1.7719 -0.7126 -0.5406
 2376SOL     OW18760   2.987   3.180   3.225  0.1611 -0.6353  0.3157
 2376SOL    HW118761   2.981   3.105   3.167 -3.5717  1.0980 -1.5156
 2376SOL    HW218762   3.080   3.182   3.248  0.2856 -1.6682 -0.1204
 2377SOL     OW18763   2.688   0.114   1.379 -0.2379 -0.3596 -0.2167
 2377SOL    HW118764   2.607   0.124   1.328 -0.2769  0.5518  0.0263
 2377SOL    HW218765   2.664   0.052   1.448 -2.0530 -0.0713 -0.5920
 2378SOL     OW18766   4.180   3.716   9.393  0.0665 -0.7095  0.9639
 2378SOL    HW118767   4.245   3.722   9.323 -1.9594  2.0018 -0.6852
 2378SOL    HW218768   4.127   3.639   9.370  0.5518 -0.4290 -1.1081
 2379SOL     OW18769   0.319   0.965   7.283  0.1345 -0.6579  0.0710
 2379SOL    HW118770   0.276   1.038   7.237  0.2606 -0.7499 -0.1903
 2379SOL    HW218771   0.318   0.904   7.209  0.2412 -1.5113  0.7774
 2380SOL     OW18772   2.284   3.514   5.096 -0.1914  0.0043 -0.1258
 2380SOL    HW118773   2.336   3.593   5.105 -2.8876  1.6651  0.9428
 2380SOL    HW218774   2.336   3.460   5.156  0.9401  0.4214 -0.7292
 2381SOL     OW18775   4.199   2.762   0.372  0.0537 -0.0940 -0.2682
 2381SOL    HW118776   4.181   2.747   0.465  0.4495  1.0193 -0.0103
 2381SOL    HW218777   4.113   2.740   0.337 -0.1947 -0.6300  0.6612
 2382SOL     OW18778   4.151   4.483   1.539  0.2773 -0.0139  0.4625
 2382SOL    HW118779   4.201   4.520   1.611  2.1435  2.6881 -2.2223
 2382SOL    HW218780   4.101   4.416   1.586  0.7459 -0.2707  0.6007
 2383SOL     OW18781   1.105   4.556   6.900 -0.5564  0.3537 -0.0914
 2383SOL    HW118782   1.186   4.569   6.951 -0.4601  1.0928 -0.4278
 2383SOL    HW218783   1.132   4.580   6.811  1.1725 -0.4572  0.2152
 2384SOL     OW18784   2.573   2.591   7.286  1.0855  0.4732  0.0086
 2384SOL    HW118785   2.538   2.661   7.341  0.7629  0.6837 -0.4658
 2384SOL    HW218786   2.499   2.575   7.227  0.1165  1.4250  0.9510
 2385SOL     OW18787   3.912   2.689   2.279 -0.0631 -0.5167 -0.7405
 2385SOL    HW118788   3.922   2.729   2.193 -0.4818  1.1944 -0.0086
 2385SOL    HW218789   3.817   2.686   2.268 -0.2876 -1.3709  1.3904
 2386SOL     OW18790   0.543   4.067   8.007  0.4631 -0.7693 -0.4977
 2386SOL    HW118791   0.564   3.986   7.961  2.5637 -0.6789  0.2937
 2386SOL    HW218792   0.451   4.074   7.980  1.1238 -0.5624 -2.6663
 2387SOL     OW18793   1.160   2.516  17.399 -0.1765 -0.1238  0.7214
 2387SOL    HW118794   1.220   2.464  17.453  0.5525  0.3857  0.4125
 2387SOL    HW218795   1.218   2.580  17.356 -0.3760 -0.5403 -0.1657
 2388SOL     OW18796   4.246   3.665   8.457 -0.0146  0.0581  0.1533
 2388SOL    HW118797   4.312   3.688   8.392 -0.1971  1.1134  0.3547
 2388SOL    HW218798   4.280   3.714   8.532  1.3817  0.2129 -0.5891
 2389SOL     OW18799   2.503   4.294   3.690 -0.3611  0.5567 -0.0897
 2389SOL    HW118800   2.510   4.291   3.785 -0.3277 -1.6030 -0.1614
 2389SOL    HW218801   2.499   4.388   3.671 -1.3205  0.0296 -2.5082
 2390SOL     OW18802   3.760   0.221   8.026  1.1818 -0.1336 -0.0375
 2390SOL    HW118803   3.760   0.297   8.085 -4.7955  0.3128 -0.6031
 2390SOL    HW218804   3.835   0.178   8.067 -0.2502 -2.3039  0.3118
 2391SOL     OW18805   1.623   2.926  16.619 -0.3014 -0.3827 -0.4373
 2391SOL    HW118806   1.609   2.947  16.526  1.2831  0.1165 -0.5673
 2391SOL    HW218807   1.562   2.991  16.653 -0.4308 -1.1581  0.7844
 2392SOL     OW18808   1.851   0.244  10.812 -0.0034 -0.1508  0.4648
 2392SOL    HW118809   1.787   0.240  10.740  0.2532 -1.5261  0.3314
 2392SOL    HW218810   1.891   0.158  10.810  0.6082  0.1383  0.2093
 2393SOL     OW18811   4.256   3.366   2.811 -0.0866  0.3035  0.2399
 2393SOL    HW118812   4.173   3.375   2.765 -0.4056 -1.5626  0.4689
 2393SOL    HW218813   4.231   3.360   2.903 -0.5501  0.9195  0.1554
 2394SOL     OW18814   0.320   3.788   7.314  0.5967  0.0393  0.0098
 2394SOL    HW118815   0.288   3.742   7.236  2.1263  0.0993 -0.6470
 2394SOL    HW218816   0.413   3.771   7.298  0.0979 -1.7735 -0.9886
 2395SOL     OW18817   2.845   2.047   8.398  0.6250  0.4015 -0.0009
 2395SOL    HW118818   2.907   2.020   8.466 -0.6464 -0.7001  0.7211
 2395SOL    HW218819   2.868   2.139   8.386 -1.6923  1.0550  0.4869
 2396SOL     OW18820   0.783   2.083   6.681  0.3588  0.4897 -0.0176
 2396SOL    HW118821   0.808   2.029   6.606 -1.3094  0.4245 -0.5236
 2396SOL    HW218822   0.700   2.107   6.641  0.8180 -0.1907 -1.3680
 2397SOL     OW18823   0.419   0.120   4.287  0.4094 -0.4501  0.1942
 2397SOL    HW118824   0.346   0.070   4.250 -2.1608  2.1451  1.7203
 2397SOL    HW218825   0.472   0.050   4.325  0.5506 -0.3604  0.1621
 2398SOL     OW18826   1.414   2.599   4.549 -0.1207 -0.0274 -0.0242
 2398SOL    HW118827   1.390   2.686   4.580 -1.4336 -1.0566  1.8938
 2398SOL    HW218828   1.363   2.552   4.616 -2.0068  1.4523 -0.4078
 2399SOL     OW18829   0.521   4.041   6.052  0.0279 -0.4207 -0.1013
 2399SOL    HW118830   0.577   3.974   6.092  0.9470  0.8728  0.7923
 2399SOL    HW218831   0.467   3.986   5.996  0.4194  0.5867 -1.4802
 2400SOL     OW18832   4.699   0.716  13.574 -0.0624 -0.2811  0.0360
 2400SOL    HW118833   0.054   0.731  13.588  0.2980 -0.8417 -1.8282
 2400SOL    HW218834   4.687   0.702  13.668 -1.5407 -0.0129 -0.1039
 2401SOL     OW18835   3.654   0.311  15.091 -0.3513  0.1307 -0.2169
 2401SOL    HW118836   3.675   0.275  15.005 -1.5224 -0.2212 -0.3531
 2401SOL    HW218837   3.709   0.251  15.142  0.0088  2.6409  2.3598
 2402SOL     OW18838   4.002   1.047   9.059  0.1500  0.6685  0.6604
 2402SOL    HW118839   3.918   1.083   9.088 -0.8287  2.1869 -4.0787
 2402SOL    HW218840   4.004   0.975   9.122  3.2226  0.3714  0.1867
 2403SOL     OW18841   1.083   1.728   5.161 -0.2179 -0.3721  0.1037
 2403SOL    HW118842   1.175   1.701   5.171 -0.2680 -1.0663 -1.2320
 2403SOL    HW218843   1.082   1.715   5.066  0.4934 -1.9037  0.3010
 2404SOL     OW18844   1.426   0.379   4.701 -0.1672 -0.6798 -0.2008
 2404SOL    HW118845   1.474   0.304   4.666  1.4780  1.0916 -1.7019
 2404SOL    HW218846   1.503   0.418   4.743 -0.3663  0.3533 -0.7849
 2405SOL     OW18847   3.280   2.673   6.071  0.0397  0.0103  0.0403
 2405SOL    HW118848   3.298   2.766   6.084  0.5223 -0.3985  2.2726
 2405SOL    HW218849   3.370   2.645   6.054  0.1724  0.2035  0.4178
 2406SOL     OW18850   0.482   0.896  15.658 -0.3781 -0.3119  0.1811
 2406SOL    HW118851   0.492   0.878  15.564 -0.9134 -1.8104  0.4217
 2406SOL    HW218852   0.533   0.823  15.692  2.5745  1.4030 -0.4617
 2407SOL     OW18853   0.504   0.738   1.655  0.0489 -0.0551 -0.5461
 2407SOL    HW118854   0.540   0.798   1.590 -1.0530  0.0925 -1.0137
 2407SOL    HW218855   0.586   0.727   1.703 -0.5430 -0.2075  0.4309
 2408SOL     OW18856   2.025   4.183   8.107 -0.4460 -0.0044  0.0060
 2408SOL    HW118857   2.017   4.250   8.039  0.6876  1.7468  1.6159
 2408SOL    HW218858   1.933   4.176   8.133 -0.4622  1.0864  0.2621
 2409SOL     OW18859   3.815   3.065   9.300 -0.5744  0.1766 -0.0540
 2409SOL    HW118860   3.847   3.108   9.379  0.2297 -0.2324 -0.1604
 2409SOL    HW218861   3.845   3.123   9.230  0.7277  1.6536  1.7470
 2410SOL     OW18862   0.007   0.351  13.709  0.1502  0.0207 -0.0702
 2410SOL    HW118863   4.735   0.318  13.799  3.1329  3.0644  1.3519
 2410SOL    HW218864   4.651   0.353  13.691  0.3173  0.3079 -0.8811
 2411SOL     OW18865   2.566   3.148   0.716 -0.5180 -0.4886  0.0626
 2411SOL    HW118866   2.561   3.235   0.756 -1.3700 -0.6543  0.3240
 2411SOL    HW218867   2.488   3.158   0.660 -0.8934 -0.2818  0.6245
 2412SOL     OW18868   4.206   2.915  12.015  0.1721 -0.4160 -0.2410
 2412SOL    HW118869   4.261   2.838  12.025  1.2802  0.7434  2.6656
 2412SOL    HW218870   4.182   2.933  12.106 -2.3845  2.3703 -1.4641
 2413SOL     OW18871   4.691   2.050  16.469  0.1184 -0.1413  0.1769
 2413SOL    HW118872   4.644   2.011  16.395  1.6837  1.5047 -1.6755
 2413SOL    HW218873   0.014   2.105  16.420 -2.4029  1.8756 -0.6849
 2414SOL     OW18874   2.115   4.580  16.499 -0.3240 -0.3395 -0.7910
 2414SOL    HW118875   2.026   4.573  16.533 -0.8277  0.5273 -1.9125
 2414SOL    HW218876   2.166   4.583  16.579  0.0507 -1.3115 -1.0015
 2415SOL     OW18877   1.386   0.180   6.284 -0.4224  0.0838  0.2632
 2415SOL    HW118878   1.430   0.195   6.368  0.4018  0.1372 -0.1787
 2415SOL    HW218879   1.342   0.097   6.305  2.3162 -0.9213  2.1033
 2416SOL     OW18880   1.951   1.412  17.299 -0.1527  0.4787  0.5665
 2416SOL    HW118881   2.005   1.361  17.359  1.9729  1.2374 -0.7310
 2416SOL    HW218882   2.014   1.475  17.266  0.0549 -0.2519 -0.4296
 2417SOL     OW18883   2.733   4.448   7.304  0.5043  0.4993 -0.4792
 2417SOL    HW118884   2.742   4.533   7.261  2.0564  0.9489  0.7200
 2417SOL    HW218885   2.747   4.384   7.235 -1.9888  0.4722 -0.9528
 2418SOL     OW18886   0.996   1.916   8.721 -0.3123 -0.0685 -0.0800
 2418SOL    HW118887   0.929   1.984   8.728 -1.4216 -1.0265 -1.2258
 2418SOL    HW218888   0.942   1.840   8.743 -0.0690 -0.4523 -0.7922
 2419SOL     OW18889   1.326   2.683   0.560  0.2531  0.2625  0.1557
 2419SOL    HW118890   1.276   2.668   0.480  1.6899 -0.2482 -0.6376
 2419SOL    HW218891   1.375   2.765   0.549 -0.2023  0.5244  0.0725
 2420SOL     OW18892   0.474   3.131  15.049 -0.6391 -0.9081  0.1361
 2420SOL    HW118893   0.479   3.116  15.143  3.9640 -2.0041 -0.2580
 2420SOL    HW218894   0.567   3.117  15.030 -0.1823  1.4150  0.5727
 2421SOL     OW18895   2.907   3.010  16.926  0.3268 -0.1417  0.0315
 2421SOL    HW118896   2.923   2.921  16.895  0.1226  0.1422 -0.8887
 2421SOL    HW218897   2.812   3.016  16.922  0.2300 -2.3324 -1.2309
 2422SOL     OW18898   2.448   0.112   7.883 -0.0215 -0.2465  0.2057
 2422SOL    HW118899   2.471   0.019   7.881 -1.0655 -0.4877 -1.0559
 2422SOL    HW218900   2.525   0.162   7.856  0.1873 -0.5357  0.2656
 2423SOL     OW18901   0.328   0.190   2.667  0.1191  0.2828 -0.4251
 2423SOL    HW118902   0.347   0.126   2.735 -3.1068 -0.4295 -0.1879
 2423SOL    HW218903   0.354   0.263   2.722  1.1642  0.5856 -1.3159
 2424SOL     OW18904   1.585   1.792  11.658  0.1055  0.8536  0.0086
 2424SOL    HW118905   1.514   1.728  11.668  0.1229  0.9271  0.5907
 2424SOL    HW218906   1.561   1.846  11.734 -0.3414 -0.9415  1.1400
 2425SOL     OW18907   1.353   1.084   2.779 -1.0123  0.2544  0.2311
 2425SOL    HW118908   1.329   1.175   2.795 -2.3629 -0.0166 -0.3072
 2425SOL    HW218909   1.281   1.061   2.721 -0.6101  5.6838 -2.3379
 2426SOL     OW18910   0.647   3.328  14.656  0.0495 -0.1085  0.2927
 2426SOL    HW118911   0.689   3.259  14.604  0.1248 -0.3203  0.6322
 2426SOL    HW218912   0.722   3.364  14.703  1.1074 -0.2476 -1.2888
 2427SOL     OW18913   4.272   4.005   8.848  0.1293  0.1972 -0.0553
 2427SOL    HW118914   4.276   4.056   8.767  0.7082  0.2797  0.0216
 2427SOL    HW218915   4.184   3.969   8.850  0.7776 -1.4024 -0.7118
 2428SOL     OW18916   0.501   2.486   6.250 -0.0683  0.4910  0.6651
 2428SOL    HW118917   0.596   2.489   6.258  0.0720 -0.9332 -0.4965
 2428SOL    HW218918   0.478   2.425   6.320 -0.6280 -0.3236 -0.2312
 2429SOL     OW18919   3.271   0.122  15.677 -0.3468 -0.5633  0.3055
 2429SOL    HW118920   3.275   0.148  15.585  2.4724  0.0312  0.6049
 2429SOL    HW218921   3.283   0.027  15.683  0.8996 -0.4901 -0.9280
 2430SOL     OW18922   4.284   0.181   8.971 -0.5100 -0.1308 -0.1434
 2430SOL    HW118923   4.209   0.131   9.003  0.1307 -1.2676 -0.4348
 2430SOL    HW218924   4.360   0.165   9.027  0.0036  1.7507 -0.2943
 2431SOL     OW18925   1.630   0.170   4.846  0.1502 -0.3617 -0.0990
 2431SOL    HW118926   1.652   0.199   4.758 -1.5024  1.2347 -0.0028
 2431SOL    HW218927   1.690   0.222   4.898  1.6837 -0.1195 -2.1301
 2432SOL     OW18928   0.410   4.630   7.770 -0.2966 -0.4825 -0.4562
 2432SOL    HW118929   0.398   4.725   7.771 -0.0537 -0.4962  2.2225
 2432SOL    HW218930   0.505   4.630   7.769 -0.3164  0.1439 -2.5418
 2433SOL     OW18931   4.698   3.291   6.487  0.1158 -0.1300  0.7179
 2433SOL    HW118932   4.735   3.361   6.541  0.8075 -0.2516  0.4019
 2433SOL    HW218933   4.669   3.353   6.421 -0.4826 -3.0614 -1.7506
 2434SOL     OW18934   1.309   0.934   7.039 -0.7495 -0.9697  0.2069
 2434SOL    HW118935   1.347   0.949   7.125 -0.9464  1.6224 -0.1568
 2434SOL    HW218936   1.323   0.839   7.033  2.4622 -0.4201 -0.8466
 2435SOL     OW18937   2.597   4.709   6.547 -0.5669 -0.1068 -0.0530
 2435SOL    HW118938   2.510   4.687   6.580 -0.1806 -0.2428  0.8722
 2435SOL    HW218939   2.643   4.680   6.626  1.5923  0.9081 -0.9241
 2436SOL     OW18940   0.154   0.348   9.713  0.0197  0.0581  0.0943
 2436SOL    HW118941   0.153   0.420   9.775 -0.6343  0.0429  0.1030
 2436SOL    HW218942   0.180   0.281   9.776  2.0313  2.7499  2.1345
 2437SOL     OW18943   0.754   2.778   6.381  0.1234 -0.5463 -0.1614
 2437SOL    HW118944   0.756   2.718   6.306  1.4071 -0.3664 -0.2840
 2437SOL    HW218945   0.846   2.770   6.408 -0.1716  0.3118  1.0533
 2438SOL     OW18946   3.976   0.359   9.121 -0.4023  0.4413 -0.7893
 2438SOL    HW118947   3.882   0.365   9.103 -0.8724 -0.7022  1.2372
 2438SOL    HW218948   3.975   0.355   9.217 -1.4591  0.6616 -0.7930
 2439SOL     OW18949   0.307   1.890   1.726  0.3897  0.0448  0.0183
 2439SOL    HW118950   0.335   1.799   1.735 -2.3474 -0.8427 -0.4192
 2439SOL    HW218951   0.216   1.876   1.701  0.0899  0.2222  1.0244
 2440SOL     OW18952   1.068   4.714  11.278 -0.0998 -0.2016 -0.4108
 2440SOL    HW118953   1.029   4.635  11.317 -2.2773  0.6850 -0.7777
 2440SOL    HW218954   1.073   4.687  11.186  1.3565 -1.3344 -0.0014
 2441SOL     OW18955   1.983   1.311   5.033  0.3115 -0.0675 -0.0224
 2441SOL    HW118956   2.072   1.283   5.015 -0.2315 -0.7321 -1.6832
 2441SOL    HW218957   1.942   1.328   4.948  1.0264  4.0153  0.4564
 2442SOL     OW18958   3.220   0.138   6.328  0.1288  0.0762  0.2936
 2442SOL    HW118959   3.247   0.194   6.255  0.3373  0.2929  0.5354
 2442SOL    HW218960   3.290   0.144   6.393  0.5105  2.9474 -0.3458
 2443SOL     OW18961   2.457   1.253  14.414  0.1923  0.0862  0.0252
 2443SOL    HW118962   2.366   1.244  14.444  0.1305 -0.0176 -0.1950
 2443SOL    HW218963   2.459   1.224  14.323 -0.7807  1.9866 -0.6169
 2444SOL     OW18964   0.660   4.566   1.862 -0.6117  0.0351 -0.0818
 2444SOL    HW118965   0.753   4.556   1.884 -0.3811 -2.8592 -2.2908
 2444SOL    HW218966   0.620   4.498   1.917 -1.2405  0.3957 -0.0898
 2445SOL     OW18967   1.440   1.638  15.230 -0.2223  0.1848  0.4924
 2445SOL    HW118968   1.461   1.566  15.290 -0.8360  0.1251  0.6347
 2445SOL    HW218969   1.501   1.707  15.254  2.9594 -2.2580 -0.5483
 2446SOL     OW18970   3.092   2.794  15.227  0.5512  0.1282  0.2042
 2446SOL    HW118971   3.133   2.707  15.234 -1.6291 -0.9094  0.0747
 2446SOL    HW218972   3.159   2.849  15.187  0.9923 -0.3078  0.3416
 2447SOL     OW18973   2.160   4.034   3.775 -0.2336  0.7880 -0.0386
 2447SOL    HW118974   2.117   4.089   3.710 -0.6749  0.2467 -0.1987
 2447SOL    HW218975   2.094   3.970   3.801  2.1680 -1.3322  0.8549
 2448SOL     OW18976   2.048   1.289   7.072  0.1949  0.1070 -0.0527
 2448SOL    HW118977   2.129   1.238   7.078  1.6034  2.4041  0.5372
 2448SOL    HW218978   2.015   1.264   7.158  0.7239 -2.9374 -0.7498
 2449SOL     OW18979   4.109   1.592   3.829  0.4754  0.4182  0.1620
 2449SOL    HW118980   4.125   1.656   3.899  0.0627 -2.6612  3.1014
 2449SOL    HW218981   4.179   1.527   3.839  1.6016  2.1310  3.4748
 2450SOL     OW18982   1.704   1.924   0.622  0.6597  0.2011 -0.0506
 2450SOL    HW118983   1.628   1.980   0.640  0.9724  0.4920  0.3671
 2450SOL    HW218984   1.767   1.994   0.606  2.1232 -1.4688 -1.6307
 2451SOL     OW18985   2.164   0.026   5.597  0.3470 -0.2392 -0.3387
 2451SOL    HW118986   2.144   0.095   5.661 -0.3693  0.7496 -1.6300
 2451SOL    HW218987   2.085   4.710   5.586 -2.8739  4.6264 -1.1244
 2452SOL     OW18988   0.185   2.055   9.839  0.2662  0.0025 -0.5476
 2452SOL    HW118989   0.226   2.123   9.786  2.4243 -1.0770 -0.2529
 2452SOL    HW218990   0.138   2.102   9.908 -1.1795  1.4320 -2.4994
 2453SOL     OW18991   1.133   1.717   3.762 -0.1526  0.3297 -0.3679
 2453SOL    HW118992   1.220   1.736   3.796 -0.5469 -0.1479  0.9162
 2453SOL    HW218993   1.110   1.634   3.804 -1.3089  0.2807 -1.0936
 2454SOL     OW18994   4.513   0.159   7.492 -0.6199  0.1924 -0.1652
 2454SOL    HW118995   4.573   0.153   7.566 -0.4631 -0.5371 -0.3598
 2454SOL    HW218996   4.426   0.156   7.533 -0.4522 -2.4491 -0.0318
 2455SOL     OW18997   3.664   4.427   4.537  0.5805 -0.2991 -0.2697
 2455SOL    HW118998   3.726   4.355   4.548  0.6770 -0.2825 -0.7072
 2455SOL    HW218999   3.641   4.407   4.446  2.6934 -0.1541 -0.8269
 2456SOL     OW19000   2.690   3.792   6.118  0.0096 -0.0925  0.1055
 2456SOL    HW119001   2.688   3.748   6.034 -1.0256 -1.1667  0.6862
 2456SOL    HW219002   2.596   3.810   6.119  0.2057  0.9089  0.2856
 2457SOL     OW19003   4.429   3.689   4.735  0.6878 -0.5524 -0.3626
 2457SOL    HW119004   4.353   3.733   4.698  0.8907 -0.4293 -0.6404
 2457SOL    HW219005   4.473   3.760   4.782 -0.8327 -0.4509  0.8645
 2458SOL     OW19006   3.859   2.999   8.239 -0.4948 -0.5795  0.3029
 2458SOL    HW119007   3.810   3.074   8.204  1.3135  0.1150 -0.7254
 2458SOL    HW219008   3.799   2.935   8.201 -0.7978 -0.3023  0.3132
 2459SOL     OW19009   1.689   1.566   0.935  0.3703  0.2978 -0.3733
 2459SOL    HW119010   1.758   1.578   0.870  0.9097  1.2525  0.3712
 2459SOL    HW219011   1.709   1.473   0.951  2.1665  0.7898  0.2617
 2460SOL     OW19012   4.355   1.571  10.155 -0.1614 -0.0362  0.0617
 2460SOL    HW119013   4.307   1.585  10.236 -1.0341 -1.7770 -0.1486
 2460SOL    HW219014   4.343   1.646  10.097 -3.9690 -0.8332 -0.2080
 2461SOL     OW19015   2.601   0.260   4.348  0.1609  0.1465 -0.1491
 2461SOL    HW119016   2.606   0.349   4.314 -0.2344  0.9484  1.9228
 2461SOL    HW219017   2.645   0.280   4.430 -0.3016 -0.3838  0.2240
 2462SOL     OW19018   4.119   4.077  16.775  0.0360  0.1325 -0.3246
 2462SOL    HW119019   4.134   4.028  16.694 -2.5898  0.6466 -1.1539
 2462SOL    HW219020   4.161   4.021  16.839 -2.1199 -0.3436  0.6924
 2463SOL     OW19021   3.156   0.015   6.698  0.3824  0.1420 -0.2063
 2463SOL    HW119022   3.151   0.023   6.793 -0.2556 -2.5308 -0.0353
 2463SOL    HW219023   3.152   4.659   6.683 -0.8830  0.2254 -0.3935
 2464SOL     OW19024   2.315   2.689  10.403 -0.1960  0.3904  0.3285
 2464SOL    HW119025   2.250   2.619  10.405 -0.9532  1.1036  0.3020
 2464SOL    HW219026   2.353   2.670  10.317 -1.3494 -1.5685  0.2334
 2465SOL     OW19027   0.550   3.318   4.808  0.3489  0.3232 -0.3195
 2465SOL    HW119028   0.615   3.284   4.746 -0.5274 -0.2310 -0.9392
 2465SOL    HW219029   0.577   3.409   4.798  1.1683  0.0382 -0.8204
 2466SOL     OW19030   2.736   4.374   4.728  0.3342  0.0476  0.4143
 2466SOL    HW119031   2.793   4.421   4.668 -1.2269  0.0399 -1.0820
 2466SOL    HW219032   2.796   4.382   4.802 -0.0833  1.0089  0.6537
 2467SOL     OW19033   0.639   0.591   3.812 -0.4943 -0.2611  0.3137
 2467SOL    HW119034   0.590   0.583   3.893  3.6981 -1.5731  2.7260
 2467SOL    HW219035   0.589   0.528   3.760 -0.8387  0.1885  0.0977
 2468SOL     OW19036   3.566   4.504   7.419 -0.2034  0.5600 -0.2533
 2468SOL    HW119037   3.557   4.574   7.483 -1.6537 -0.0112  0.1710
 2468SOL    HW219038   3.477   4.511   7.384 -0.5802  0.6752  0.7294
 2469SOL     OW19039   4.096   0.457   4.730  0.2788  0.1111 -0.1694
 2469SOL    HW119040   4.143   0.529   4.772 -0.6493  1.5295 -1.5732
 2469SOL    HW219041   4.176   0.427   4.686 -0.7941 -1.3951 -1.0846
 2470SOL     OW19042   1.236   2.419   6.038  0.6677 -0.5765  0.3007
 2470SOL    HW119043   1.292   2.429   5.961  2.8224  2.4302  2.2589
 2470SOL    HW219044   1.297   2.450   6.105 -0.7445  2.4136  0.1817
 2471SOL     OW19045   0.277   2.151   6.677  0.1234  0.5439 -0.2811
 2471SOL    HW119046   0.198   2.169   6.626 -0.2469 -1.7292 -0.4796
 2471SOL    HW219047   0.248   2.080   6.735  0.7280 -0.8910 -1.7494
 2472SOL     OW19048   3.584   0.550   9.381  0.1817  0.0585 -0.0983
 2472SOL    HW119049   3.546   0.466   9.355 -1.5978  0.7788  0.1916
 2472SOL    HW219050   3.675   0.543   9.354 -1.1917 -2.7790 -4.0934
 2473SOL     OW19051   1.875   2.843  16.397 -0.0159  1.1162 -0.4394
 2473SOL    HW119052   1.924   2.839  16.479  0.5074 -0.1760 -0.8122
 2473SOL    HW219053   1.902   2.764  16.350 -0.5695  1.0019 -0.5763
 2474SOL     OW19054   2.018   1.784  17.454 -0.7168  0.0471  0.1475
 2474SOL    HW119055   1.973   1.866  17.474 -0.5638 -0.0077  0.7125
 2474SOL    HW219056   1.965   1.762  17.377  2.5461 -0.7209 -1.8729
 2475SOL     OW19057   3.079   4.472   3.784  0.5860 -0.2643  0.0178
 2475SOL    HW119058   3.156   4.493   3.731  0.7919 -1.3377 -0.1099
 2475SOL    HW219059   3.005   4.516   3.740 -0.3597  0.3890  2.2556
 2476SOL     OW19060   4.675   4.095   8.789 -0.1276  0.0509  0.2949
 2476SOL    HW119061   4.690   4.019   8.846 -1.3609  0.6559  1.4436
 2476SOL    HW219062   4.728   4.071   8.713 -0.7468 -2.6378  0.7168
 2477SOL     OW19063   2.319   1.435  16.668 -0.1926  0.1883  0.1191
 2477SOL    HW119064   2.227   1.456  16.655 -0.0042  1.7384  1.2887
 2477SOL    HW219065   2.354   1.431  16.579 -2.4096 -0.5879 -0.7125
 2478SOL     OW19066   1.535   3.081   0.136  0.9852  0.2895  0.0885
 2478SOL    HW119067   1.455   3.126   0.109 -0.3744 -1.9536  0.4646
 2478SOL    HW219068   1.565   3.135   0.210  0.9799 -0.0086  0.3038
 2479SOL     OW19069   0.934   0.181   1.983 -0.1052 -0.0783 -0.1080
 2479SOL    HW119070   0.983   0.176   1.901 -0.3244 -1.5734 -0.1485
 2479SOL    HW219071   0.875   0.250   1.951  1.0703  1.6634  1.5295
 2480SOL     OW19072   3.336   0.062   9.622  0.3134 -0.7023  0.0205
 2480SOL    HW119073   3.278   0.002   9.669  1.4021 -0.8279  1.2262
 2480SOL    HW219074   3.281   0.083   9.547  1.0800 -1.9394 -0.8943
 2481SOL     OW19075   4.259   3.853   1.270  0.1315 -0.3173  0.6212
 2481SOL    HW119076   4.186   3.914   1.258  0.9341  0.7024  0.9285
 2481SOL    HW219077   4.269   3.838   1.176 -0.6471  0.1981  0.4604
 2482SOL     OW19078   4.300   1.911   4.978 -0.1559 -0.0721 -0.4424
 2482SOL    HW119079   4.330   1.982   4.921 -1.5674  0.4102 -0.5940
 2482SOL    HW219080   4.378   1.901   5.034  0.5076 -1.7415 -1.6742
 2483SOL     OW19081   4.132   0.155  17.076  0.0280 -0.9853  0.8090
 2483SOL    HW119082   4.224   0.130  17.090  0.3480 -0.5558 -0.4821
 2483SOL    HW219083   4.087   0.094  17.134 -1.4296 -0.0783  0.6178
 2484SOL     OW19084   2.268   3.028  16.778  0.0602  0.2891 -0.3153
 2484SOL    HW119085   2.231   2.997  16.861  1.3119  1.0567  0.5196
 2484SOL    HW219086   2.270   2.949  16.725  1.3744  0.5868 -0.7088
 2485SOL     OW19087   1.106   0.543  17.577  0.1168 -0.1541 -0.7994
 2485SOL    HW119088   1.035   0.479  17.569 -1.0239  1.3967 -3.0708
 2485SOL    HW219089   1.128   0.539  17.670 -0.1903  1.1143 -0.6762
 2486SOL     OW19090   1.668   1.788   3.321  0.2523  0.1559  0.2307
 2486SOL    HW119091   1.754   1.817   3.293 -0.6427  0.2152 -2.4348
 2486SOL    HW219092   1.658   1.694   3.306  0.3540  0.4031 -1.3770
 2487SOL     OW19093   1.229   0.033   3.115 -0.4239  0.6162 -0.1876
 2487SOL    HW119094   1.260   0.123   3.125  0.2699  0.0732  2.5374
 2487SOL    HW219095   1.141   0.033   3.153 -0.3479  0.2068 -0.0145
 2488SOL     OW19096   1.973   4.575   5.014  0.1426  0.2289  0.6595
 2488SOL    HW119097   1.992   4.562   4.921 -0.1121  1.6716  0.4072
 2488SOL    HW219098   1.953   4.483   5.030  0.8402 -0.4187 -2.0582
 2489SOL     OW19099   1.867   1.816   8.120  0.1427  0.0586 -0.1902
 2489SOL    HW119100   1.846   1.752   8.188  1.4099  1.0003  1.0996
 2489SOL    HW219101   1.958   1.838   8.137  1.3250 -2.1840 -3.6857
 2490SOL     OW19102   3.414   0.738   1.236  0.5861 -0.0680  0.0982
 2490SOL    HW119103   3.350   0.668   1.251 -0.4628  0.6596 -0.9634
 2490SOL    HW219104   3.419   0.737   1.140 -4.8460 -0.4176 -0.2136
 2491SOL     OW19105   1.285   2.568   4.795  0.2364  0.2621  0.6191
 2491SOL    HW119106   1.191   2.585   4.797 -0.2454 -2.1790 -1.0910
 2491SOL    HW219107   1.293   2.477   4.823  1.7503  0.2054 -0.0026
 2492SOL     OW19108   3.723   3.286   4.810 -0.2571 -0.4116  0.0843
 2492SOL    HW119109   3.752   3.281   4.719 -1.8308  0.7061 -0.4770
 2492SOL    HW219110   3.652   3.349   4.802  0.5385  0.4239 -0.4540
 2493SOL     OW19111   4.125   2.100  13.925 -0.1361 -0.0548  0.1337
 2493SOL    HW119112   4.184   2.160  13.971  3.3925 -1.2801 -2.8035
 2493SOL    HW219113   4.186   2.081  13.854 -0.5441 -0.6001 -0.0672
 2494SOL     OW19114   2.712   1.490   3.306  0.3579  0.2334  0.2977
 2494SOL    HW119115   2.699   1.582   3.282 -0.6424  0.1953  0.7147
 2494SOL    HW219116   2.808   1.492   3.309  0.5316 -5.3516 -1.9874
 2495SOL     OW19117   0.782   1.869   2.666 -0.0011 -0.2113 -0.3691
 2495SOL    HW119118   0.760   1.785   2.706  0.6236  0.0135  0.4510
 2495SOL    HW219119   0.695   1.899   2.641 -0.2506 -0.9659 -0.4054
 2496SOL     OW19120   1.626   2.399  15.879  0.7251  0.3268  0.0780
 2496SOL    HW119121   1.575   2.345  15.939  0.0995  1.1665  0.3102
 2496SOL    HW219122   1.684   2.442  15.942  0.0906 -0.8053  1.4088
 2497SOL     OW19123   4.044   0.064   9.038  0.2201 -0.1182 -0.6313
 2497SOL    HW119124   4.003   0.033   9.118  2.5521 -2.2146 -0.2378
 2497SOL    HW219125   3.990   0.141   9.020 -0.6060 -0.6749 -0.5154
 2498SOL     OW19126   2.487   3.694   5.183 -0.1313  0.0192  0.1628
 2498SOL    HW119127   2.560   3.638   5.210  0.5131 -0.1620 -1.8973
 2498SOL    HW219128   2.468   3.744   5.262 -1.1943  0.4188 -0.3438
 2499SOL     OW19129   1.819   3.662  12.243  0.1402 -0.3756 -0.0733
 2499SOL    HW119130   1.908   3.636  12.269  0.3913 -0.4673 -1.0133
 2499SOL    HW219131   1.832   3.756  12.231 -1.5755 -0.4200 -2.2176
 2500SOL     OW19132   1.264   3.152  16.721  0.1606 -0.9086  0.1160
 2500SOL    HW119133   1.338   3.212  16.738  0.8679 -1.5096 -0.8730
 2500SOL    HW219134   1.287   3.129  16.631  3.6338  0.9624  0.5029
 2501SOL     OW19135   0.455   4.735  15.104 -0.9124  0.2496 -0.2575
 2501SOL    HW119136   0.427   0.044  15.182 -1.1125 -1.0144  0.4249
 2501SOL    HW219137   0.454   0.066  15.037  3.4146  1.7462  1.2008
 2502SOL     OW19138   3.098   1.030   7.408 -0.2912 -0.2449  0.2563
 2502SOL    HW119139   3.155   0.964   7.370 -0.1758  0.2844 -0.4945
 2502SOL    HW219140   3.100   0.997   7.498  0.0304 -4.1829 -1.1945
 2503SOL     OW19141   3.075   2.821   5.721 -0.4087  0.4224 -0.1574
 2503SOL    HW119142   3.034   2.776   5.647  0.1266  0.2315 -0.3354
 2503SOL    HW219143   3.006   2.814   5.788  0.1945 -0.1188  0.4177
 2504SOL     OW19144   4.357   2.703  12.068  0.1488  0.6768  0.1616
 2504SOL    HW119145   4.307   2.624  12.089  0.6893 -0.4107 -2.6682
 2504SOL    HW219146   4.442   2.661  12.055  0.1779  0.5633  0.7359
 2505SOL     OW19147   3.236   3.859   2.657 -0.1771 -0.2642  0.2884
 2505SOL    HW119148   3.191   3.776   2.650 -0.6048  0.0198 -0.2578
 2505SOL    HW219149   3.214   3.878   2.748  0.1052 -0.5931  0.4278
 2506SOL     OW19150   1.353   1.563   2.588 -0.1002 -0.1850 -0.6582
 2506SOL    HW119151   1.268   1.578   2.547 -1.2912  2.1981  2.6683
 2506SOL    HW219152   1.410   1.527   2.520  0.5447  1.3379 -0.9059
 2507SOL     OW19153   0.565   3.919  15.238 -0.5843  0.3138 -0.0082
 2507SOL    HW119154   0.537   3.869  15.161 -1.7875  1.3530 -0.2429
 2507SOL    HW219155   0.578   3.850  15.303 -0.5004 -1.1348 -1.5626
 2508SOL     OW19156   4.135   0.553  12.400 -0.3659  0.2751 -0.2267
 2508SOL    HW119157   4.146   0.640  12.438  0.3040 -1.7807  4.3151
 2508SOL    HW219158   4.124   0.511  12.485 -2.4905  1.2574 -0.0112
 2509SOL     OW19159   4.095   1.290   6.275 -0.5276 -0.0031  0.1297
 2509SOL    HW119160   4.185   1.266   6.297 -1.3109 -0.3742  2.9056
 2509SOL    HW219161   4.088   1.235   6.197 -2.6778 -0.5211  0.6834
 2510SOL     OW19162   1.490   3.866   3.752 -0.1720  0.1581 -0.2301
 2510SOL    HW119163   1.499   3.832   3.841  0.0545  2.5856  0.6900
 2510SOL    HW219164   1.527   3.797   3.698 -1.1477 -0.1477 -0.5038
 2511SOL     OW19165   0.388   2.675  13.376  0.1525 -0.4695  0.0920
 2511SOL    HW119166   0.302   2.698  13.409  0.2754 -2.3628  1.7450
 2511SOL    HW219167   0.441   2.740  13.422  0.4478 -0.4201 -0.3175
 2512SOL     OW19168   1.407   4.247  10.645  0.4152 -0.5011  0.4176
 2512SOL    HW119169   1.367   4.255  10.559 -2.6060  0.9135  1.9549
 2512SOL    HW219170   1.321   4.242  10.687  0.9026 -0.9945  1.3753
 2513SOL     OW19171   2.167   2.899  11.546 -0.1967 -0.5139  0.7544
 2513SOL    HW119172   2.192   2.852  11.467  2.1264  1.4166  0.3572
 2513SOL    HW219173   2.246   2.951  11.561 -0.4552  0.5434 -1.4169
 2514SOL     OW19174   1.546   3.327   3.318 -1.1838 -0.0809 -0.9796
 2514SOL    HW119175   1.616   3.373   3.364 -0.3380 -2.0241 -0.3456
 2514SOL    HW219176   1.583   3.239   3.325 -0.3541  0.2605 -0.9908
 2515SOL     OW19177   2.896   0.739   2.866 -0.0012  0.2537 -0.1671
 2515SOL    HW119178   2.918   0.752   2.774  0.0958  2.3729  0.1678
 2515SOL    HW219179   2.837   0.811   2.889  0.5513  0.5742  0.2352
 2516SOL     OW19180   1.965   2.873   4.590  0.1648 -0.1520  0.0429
 2516SOL    HW119181   1.902   2.899   4.656  2.1161 -1.8082  2.5697
 2516SOL    HW219182   1.920   2.807   4.538  0.8229 -2.0595  1.8848
 2517SOL     OW19183   3.464   4.676   1.818  0.0623  0.5765  1.3921
 2517SOL    HW119184   3.530   4.725   1.867  0.3997  0.7052  0.8098
 2517SOL    HW219185   3.380   4.701   1.858 -0.7141 -1.5270  1.0533
 2518SOL     OW19186   1.761   2.449   4.456  0.1740 -0.0277 -0.0817
 2518SOL    HW119187   1.795   2.362   4.478 -0.3452 -0.0559  0.5890
 2518SOL    HW219188   1.718   2.474   4.537  1.0274  1.0246  0.0409
 2519SOL     OW19189   0.544   0.840  11.836 -0.3002  0.2832  0.5709
 2519SOL    HW119190   0.582   0.758  11.805  0.1449  1.0695 -0.9484
 2519SOL    HW219191   0.527   0.815  11.927  2.7695 -1.1109  0.7777
 2520SOL     OW19192   2.116   1.978  15.220 -0.0088  0.3074  0.2659
 2520SOL    HW119193   2.183   2.031  15.176 -0.0522  0.1478  0.0034
 2520SOL    HW219194   2.047   2.041  15.241  0.4081  0.0254  2.4284
 2521SOL     OW19195   1.347   3.811   9.150  0.5107 -0.6536 -0.1360
 2521SOL    HW119196   1.367   3.786   9.240  1.1948  1.3719  0.2689
 2521SOL    HW219197   1.430   3.858   9.144  1.2772 -2.0348 -0.4229
 2522SOL     OW19198   4.160   1.422   5.099  0.3676  0.1981  0.4802
 2522SOL    HW119199   4.167   1.368   5.178 -0.0665  0.7762  0.9162
 2522SOL    HW219200   4.068   1.442   5.083  0.3752  0.5375  0.8670
 2523SOL     OW19201   0.136   2.452  13.553  0.1066  0.3321 -0.4082
 2523SOL    HW119202   0.092   2.421  13.632 -0.7214 -1.6120 -1.6503
 2523SOL    HW219203   0.221   2.411  13.567  0.5889  1.4420 -0.0912
 2524SOL     OW19204   4.106   0.967   6.148  0.2552 -0.2401 -0.1621
 2524SOL    HW119205   4.049   0.892   6.136 -0.7827  0.3915  0.8447
 2524SOL    HW219206   4.159   0.949   6.225  0.2111 -3.1656 -0.8115
 2525SOL     OW19207   4.517   3.315   2.840  0.3516  0.1733 -0.0843
 2525SOL    HW119208   4.530   3.228   2.877 -1.0579  0.5959  1.4264
 2525SOL    HW219209   4.422   3.323   2.834  0.4226  0.9903 -0.1539
 2526SOL     OW19210   1.571   1.803   6.693 -0.2817 -0.1063  0.1469
 2526SOL    HW119211   1.666   1.804   6.680 -0.4936  1.2536 -1.2710
 2526SOL    HW219212   1.543   1.729   6.639 -1.0982  0.4030 -0.1322
 2527SOL     OW19213   1.312   1.676   9.039 -0.8505 -0.3162  0.1961
 2527SOL    HW119214   1.312   1.679   8.943  0.0935 -1.7016  0.1564
 2527SOL    HW219215   1.400   1.650   9.067  0.7329  2.7601 -1.8405
 2528SOL     OW19216   0.750   2.168   1.939 -0.3407  0.9908 -0.4771
 2528SOL    HW119217   0.666   2.137   1.972  1.1694 -0.4091  2.0428
 2528SOL    HW219218   0.723   2.199   1.853 -0.8971  0.5352 -0.4627
 2529SOL     OW19219   3.250   2.234   9.072  0.2939  0.7741 -0.4514
 2529SOL    HW119220   3.286   2.310   9.118  1.6728 -0.9939  1.3671
 2529SOL    HW219221   3.234   2.173   9.144  1.1818 -1.6113 -2.3293
 2530SOL     OW19222   0.454   2.665   6.862 -0.4583  0.2828  0.3524
 2530SOL    HW119223   0.462   2.582   6.909  0.9601  0.4125  0.3503
 2530SOL    HW219224   0.453   2.640   6.770  0.1780 -0.8326  0.6433
 2531SOL     OW19225   2.667   2.586   3.011  0.0498 -0.3132  0.1720
 2531SOL    HW119226   2.647   2.639   3.089  0.6783  2.4687 -1.5900
 2531SOL    HW219227   2.581   2.594   2.970 -0.1054 -1.7636  0.2107
 2532SOL     OW19228   1.051   3.628  17.687 -0.4209 -0.0421 -0.1193
 2532SOL    HW119229   1.090   3.549  17.648 -0.6384 -0.4128  0.4088
 2532SOL    HW219230   1.120   3.694  17.688 -0.4361 -0.0098 -1.8370
 2533SOL     OW19231   3.568   1.755   2.486  0.0562  0.0802 -0.5269
 2533SOL    HW119232   3.559   1.830   2.545 -2.8068  0.2533 -1.1714
 2533SOL    HW219233   3.477   1.726   2.491 -1.1215  3.6566 -1.1608
 2534SOL     OW19234   3.897   0.979   9.538 -0.4110 -0.3806  0.1133
 2534SOL    HW119235   3.843   0.913   9.580 -0.0061 -0.5690  0.3382
 2534SOL    HW219236   3.827   1.038   9.508  0.6780 -0.9971 -3.6473
 2535SOL     OW19237   3.557   3.725   3.542  0.1757  0.5546  0.2287
 2535SOL    HW119238   3.540   3.758   3.454  0.4272  1.0280  0.3532
 2535SOL    HW219239   3.617   3.796   3.565  3.1130 -1.6431 -0.6622
 2536SOL     OW19240   0.562   4.635   4.412 -0.4589 -0.4838  0.1156
 2536SOL    HW119241   0.522   4.681   4.486 -0.6119 -0.7262  0.1852
 2536SOL    HW219242   0.653   4.629   4.440  0.1586  3.1949 -1.2355
 2537SOL     OW19243   3.445   0.306   9.607 -0.0011  0.2697 -0.0217
 2537SOL    HW119244   3.526   0.270   9.571 -1.8439 -2.1723 -1.7191
 2537SOL    HW219245   3.399   0.223   9.617  0.5097 -0.1544 -1.1569
 2538SOL     OW19246   1.626   3.831   8.469 -0.3102  0.2371  0.0880
 2538SOL    HW119247   1.684   3.837   8.393 -0.3782  1.0267  0.0915
 2538SOL    HW219248   1.575   3.753   8.451  0.5993 -0.6177  1.2084
 2539SOL     OW19249   1.039   3.123   0.435  0.2309  0.1274 -0.2642
 2539SOL    HW119250   1.043   3.204   0.485 -2.4689 -0.1232  0.3452
 2539SOL    HW219251   1.040   3.055   0.503  0.0254  0.5915  0.2066
 2540SOL     OW19252   2.403   0.946   1.782 -0.0619 -0.1931  0.0565
 2540SOL    HW119253   2.434   1.033   1.808  0.1563  0.3372 -2.0022
 2540SOL    HW219254   2.341   0.965   1.712 -1.2859 -2.3911  0.5505
 2541SOL     OW19255   3.176   2.206   2.601  0.3696 -0.1584 -0.1364
 2541SOL    HW119256   3.117   2.246   2.538  0.2227  0.9059  0.6843
 2541SOL    HW219257   3.183   2.124   2.552  0.8716  0.4542 -1.0816
 2542SOL     OW19258   0.548   1.330   9.370  0.7754  0.4039 -0.3143
 2542SOL    HW119259   0.455   1.332   9.349 -0.0702  0.5055  3.3307
 2542SOL    HW219260   0.527   1.289   9.454 -0.7608  0.4758 -0.6697
 2543SOL     OW19261   1.323   3.182   8.508  0.1900 -0.1449  0.1978
 2543SOL    HW119262   1.400   3.237   8.526 -0.7235  1.3311 -0.3990
 2543SOL    HW219263   1.269   3.196   8.585  1.3665 -0.7971  1.1462
 2544SOL     OW19264   2.886   0.095   2.185  0.0819  0.3351 -0.2992
 2544SOL    HW119265   2.977   0.070   2.172 -1.0534 -3.3831 -1.0456
 2544SOL    HW219266   2.883   0.175   2.133  1.4016  0.9487  0.5571
 2545SOL     OW19267   2.732   0.870   1.993 -0.6979  0.0348 -0.0066
 2545SOL    HW119268   2.806   0.827   1.949 -0.3864 -0.4265  0.9584
 2545SOL    HW219269   2.662   0.830   1.942 -1.7935  1.6292  0.2641
 2546SOL     OW19270   2.292   2.205  15.387  0.0233  0.7021  0.1804
 2546SOL    HW119271   2.368   2.258  15.363  1.2985 -2.2401 -2.2640
 2546SOL    HW219272   2.225   2.249  15.334 -2.7961 -0.7297  2.5419
 2547SOL     OW19273   1.619   3.082   0.640  0.0861  0.4614  0.1471
 2547SOL    HW119274   1.548   3.117   0.694  1.1022  0.3803  1.5346
 2547SOL    HW219275   1.700   3.124   0.668  0.6060  0.3711 -1.1966
 2548SOL     OW19276   3.121   1.611   9.656  0.3860  0.3746  0.0480
 2548SOL    HW119277   3.067   1.628   9.733  0.8208 -0.8751  0.6269
 2548SOL    HW219278   3.051   1.623   9.591  0.8586  0.9742 -0.3570
 2549SOL     OW19279   1.453   3.402   8.775 -0.1376  0.0134 -0.5567
 2549SOL    HW119280   1.541   3.438   8.771 -0.8681  2.1093  1.8926
 2549SOL    HW219281   1.408   3.484   8.753 -0.3809 -0.6051 -2.4085
 2550SOL     OW19282   0.148   0.989   5.959  0.4537  0.6651  0.7852
 2550SOL    HW119283   0.191   1.060   6.006  0.8567 -0.2708  1.8539
 2550SOL    HW219284   0.058   0.998   5.989  0.1064  1.0448 -0.4000
 2551SOL     OW19285   1.765   1.273   2.216 -0.2086 -0.1962  0.6690
 2551SOL    HW119286   1.830   1.288   2.285  0.9593 -2.7881  0.1757
 2551SOL    HW219287   1.772   1.358   2.173 -1.7596 -0.1164  0.5881
 2552SOL     OW19288   2.799   0.189   6.799 -0.2813  0.1947  0.3209
 2552SOL    HW119289   2.782   0.094   6.800  3.1755 -0.4154 -0.0548
 2552SOL    HW219290   2.713   0.230   6.812 -1.2472 -1.4664 -0.7620
 2553SOL     OW19291   2.183   4.452   6.171  0.0257 -0.0390  0.6592
 2553SOL    HW119292   2.195   4.533   6.121  0.9445 -0.6589 -0.1179
 2553SOL    HW219293   2.144   4.394   6.106 -1.4025 -1.6297  2.9279
 2554SOL     OW19294   1.836   4.619  13.223 -0.7195 -0.5535 -0.3335
 2554SOL    HW119295   1.788   4.563  13.284 -1.3739  1.3019  0.8463
 2554SOL    HW219296   1.924   4.582  13.222  0.0362  1.2179  0.6853
 2555SOL     OW19297   4.536   0.875  10.556  0.5870 -0.1850  0.5873
 2555SOL    HW119298   4.500   0.885  10.468  0.5363  1.5097  0.7882
 2555SOL    HW219299   4.603   0.943  10.545  1.3940 -0.4860  3.7582
 2556SOL     OW19300   2.604   0.267   5.555  0.3109 -0.2139  0.3087
 2556SOL    HW119301   2.553   0.231   5.483  1.6614  0.7582 -1.1335
 2556SOL    HW219302   2.559   0.226   5.629  1.2122  0.4271  1.2154
 2557SOL     OW19303   0.698   4.368   4.023  0.4505  0.2071  0.4138
 2557SOL    HW119304   0.644   4.299   4.061 -0.4368  1.6988  1.8522
 2557SOL    HW219305   0.733   4.316   3.951 -1.4271 -0.3051 -0.1244
 2558SOL     OW19306   1.428   0.875   7.282  0.0941 -0.4021 -0.0709
 2558SOL    HW119307   1.468   0.955   7.315 -2.2023  1.5636 -1.9745
 2558SOL    HW219308   1.398   0.845   7.368  0.0107  2.5313  0.9247
 2559SOL     OW19309   2.361   1.074   8.320 -0.1892  0.2371 -0.1984
 2559SOL    HW119310   2.287   1.021   8.350 -1.6759  1.4212 -1.7808
 2559SOL    HW219311   2.355   1.055   8.226 -1.2506  1.5967 -0.3953
 2560SOL     OW19312   2.920   3.182   2.675  0.2355  0.5207  0.1777
 2560SOL    HW119313   2.917   3.272   2.645 -0.2636  0.3023 -0.4341
 2560SOL    HW219314   2.944   3.190   2.768  0.8124  3.2719 -0.2337
 2561SOL     OW19315   2.022   1.080   8.476  0.5986  0.7031 -0.4493
 2561SOL    HW119316   2.080   1.153   8.454  2.2090 -1.1013 -2.2223
 2561SOL    HW219317   1.953   1.115   8.532  1.6381  2.6257 -0.3451
 2562SOL     OW19318   0.499   0.044   4.628 -0.7032 -0.4243 -0.3529
 2562SOL    HW119319   0.408   0.056   4.656  0.7922  2.7807  3.1722
 2562SOL    HW219320   0.540   0.031   4.714 -0.0932  1.0777 -0.4334
 2563SOL     OW19321   3.514   3.298   1.502  0.6398 -0.2091  0.3611
 2563SOL    HW119322   3.421   3.291   1.483  1.1993 -1.4990 -1.8319
 2563SOL    HW219323   3.547   3.211   1.483  0.6216  0.0869 -1.0026
 2564SOL     OW19324   4.114   3.483   0.704 -0.6979 -1.1076 -0.4244
 2564SOL    HW119325   4.204   3.450   0.693  0.2233  2.2153 -2.7896
 2564SOL    HW219326   4.072   3.397   0.706 -2.1059 -0.3669  1.3288
 2565SOL     OW19327   3.843   1.312   6.916  0.0804  0.0256 -0.2617
 2565SOL    HW119328   3.847   1.370   6.992 -0.8316 -0.5848  0.2430
 2565SOL    HW219329   3.867   1.228   6.955  1.3532  1.0424  1.1585
 2566SOL     OW19330   2.867   1.262   4.088 -0.0604 -0.0348  0.0570
 2566SOL    HW119331   2.819   1.288   4.166 -2.7566 -2.4419 -0.7817
 2566SOL    HW219332   2.829   1.177   4.064 -0.6528  0.0252  0.7821
 2567SOL     OW19333   1.966   4.301   7.031  0.0376 -0.1124 -0.0194
 2567SOL    HW119334   2.004   4.319   7.117  2.3515 -4.0892 -0.2144
 2567SOL    HW219335   1.918   4.381   7.010 -1.6496 -0.7060  1.5649
 2568SOL     OW19336   0.956   1.559  12.262 -0.3167  0.6746 -0.5889
 2568SOL    HW119337   0.944   1.608  12.343  1.1887 -2.0077  1.2461
 2568SOL    HW219338   0.967   1.468  12.291  3.4342  0.5708 -2.3618
 2569SOL     OW19339   4.392   1.036   1.855  0.3660  0.0750 -0.4570
 2569SOL    HW119340   4.430   0.974   1.793  0.3038 -0.8907  0.4715
 2569SOL    HW219341   4.306   0.993   1.861  1.1839 -1.6662 -1.0500
 2570SOL     OW19342   3.848   2.780  12.972 -0.1899 -0.5051 -0.7717
 2570SOL    HW119343   3.822   2.849  12.911 -1.5806  0.7627  1.2351
 2570SOL    HW219344   3.927   2.747  12.930  0.4663  0.1303 -0.0364
 2571SOL     OW19345   2.521   2.556   4.930 -0.0892 -0.7041 -0.5437
 2571SOL    HW119346   2.545   2.549   4.838 -1.8277 -1.4047 -0.9465
 2571SOL    HW219347   2.467   2.478   4.940  0.8889 -1.3182 -0.1157
 2572SOL     OW19348   0.778   2.498   6.222 -0.1397 -0.0220 -0.2284
 2572SOL    HW119349   0.872   2.506   6.240 -0.2149  1.3212 -0.4399
 2572SOL    HW219350   0.779   2.411   6.183 -1.2259  0.2916 -0.9658
 2573SOL     OW19351   3.539   1.605   5.297  0.2237 -0.5573  0.2566
 2573SOL    HW119352   3.590   1.530   5.326  1.0793 -0.4567 -1.0105
 2573SOL    HW219353   3.564   1.673   5.360  1.2056 -0.5509 -0.1416
 2574SOL     OW19354   1.010   3.988   4.898  0.1521 -0.2232  0.6317
 2574SOL    HW119355   1.103   4.003   4.880 -0.6055  0.7073 -2.4261
 2574SOL    HW219356   0.980   3.978   4.808  0.1690  1.0816  0.4847
 2575SOL     OW19357   2.094   3.354   0.988 -0.3748 -0.5063 -0.4790
 2575SOL    HW119358   2.018   3.378   1.042 -0.0557 -0.3492 -0.0994
 2575SOL    HW219359   2.062   3.307   0.911 -1.1684  0.8290 -0.9617
 2576SOL     OW19360   3.944   4.696   5.907  0.3432  0.2808  0.0940
 2576SOL    HW119361   3.854   4.730   5.904  0.9408  1.8001 -0.8153
 2576SOL    HW219362   3.935   4.603   5.889  0.1246  0.4647 -0.7793
 2577SOL     OW19363   2.299   1.828   3.079  0.6862 -0.2579 -0.0490
 2577SOL    HW119364   2.241   1.751   3.074 -0.7503  0.8830 -1.0821
 2577SOL    HW219365   2.385   1.790   3.062  0.2918 -1.2296  0.1073
 2578SOL     OW19366   0.641   3.676  15.335 -0.0545  0.2382  0.0806
 2578SOL    HW119367   0.652   3.590  15.294 -0.1241  0.3777 -0.2346
 2578SOL    HW219368   0.567   3.662  15.394 -1.3309  1.5435 -1.2134
 2579SOL     OW19369   3.923   0.265   4.853 -0.0629 -0.0257 -0.1178
 2579SOL    HW119370   3.982   0.190   4.858 -2.2580 -1.7670 -0.0421
 2579SOL    HW219371   3.987   0.312   4.800  1.6762 -1.7943  0.4326
 2580SOL     OW19372   0.263   0.264   7.964 -0.0824 -0.2608 -0.5637
 2580SOL    HW119373   0.233   0.353   7.945  1.3894  0.2072 -0.6908
 2580SOL    HW219374   0.326   0.264   7.891 -0.2833 -0.8792 -0.7358
 2581SOL     OW19375   1.804   0.011  12.637 -0.2103 -0.4039 -0.0018
 2581SOL    HW119376   1.734   0.072  12.614  0.8767  0.7156 -0.3125
 2581SOL    HW219377   1.861   0.016  12.560 -2.1946 -1.0227 -1.5193
 2582SOL     OW19378   4.435   2.726   3.541  0.1986 -0.3120 -0.3411
 2582SOL    HW119379   4.491   2.677   3.481  0.0673  1.8651 -2.2399
 2582SOL    HW219380   4.477   2.813   3.543 -2.1578  0.8715 -2.8031
 2583SOL     OW19381   0.145   1.378  16.774  0.7227  0.4131 -0.2590
 2583SOL    HW119382   0.121   1.452  16.718 -0.4430  1.7542  2.0149
 2583SOL    HW219383   0.156   1.316  16.702 -1.5092  0.3894 -0.5628
 2584SOL     OW19384   1.150   3.155   6.480 -0.4134 -0.6002  0.1335
 2584SOL    HW119385   1.070   3.134   6.528 -0.5858 -1.4030 -0.5160
 2584SOL    HW219386   1.208   3.081   6.494 -1.6389 -1.9809 -2.2386
 2585SOL     OW19387   0.649   3.752   8.066 -0.3144 -0.0105 -0.2404
 2585SOL    HW119388   0.715   3.820   8.078  1.7366 -1.9164 -0.7821
 2585SOL    HW219389   0.620   3.777   7.979  0.5455 -1.7718 -1.0321
 2586SOL     OW19390   3.836   1.833   7.998  0.0623  0.5827 -0.4739
 2586SOL    HW119391   3.907   1.875   8.048 -2.0633  1.4759  1.7775
 2586SOL    HW219392   3.755   1.839   8.049 -0.2533 -3.0372 -0.5554
 2587SOL     OW19393   0.426   1.778   7.733  0.5730 -0.3440  0.2497
 2587SOL    HW119394   0.398   1.693   7.699 -0.4165 -0.7456  2.0528
 2587SOL    HW219395   0.378   1.767   7.815 -0.7360  1.3331 -0.2851
 2588SOL     OW19396   4.660   0.219  11.760 -0.1675  0.6050  0.1870
 2588SOL    HW119397   4.660   0.315  11.752 -3.1780  0.6183  0.2686
 2588SOL    HW219398   4.637   0.181  11.675 -0.9630 -1.8086  1.4800
 2589SOL     OW19399   1.647   1.153   3.532 -0.5705  0.2190  0.0517
 2589SOL    HW119400   1.670   1.104   3.611 -0.0645  1.1211  0.4659
 2589SOL    HW219401   1.603   1.229   3.571  0.8726  0.5103  1.0844
 2590SOL     OW19402   0.915   2.464   9.554 -0.1150 -0.1544  0.1435
 2590SOL    HW119403   0.926   2.417   9.637  2.0521  1.4923  0.7735
 2590SOL    HW219404   0.842   2.409   9.525  0.1196 -0.1127 -0.5304
 2591SOL     OW19405   4.565   1.156   0.783 -0.0612  0.0735  0.4774
 2591SOL    HW119406   4.577   1.251   0.776  0.5244  0.0713  1.4449
 2591SOL    HW219407   4.572   1.149   0.878  0.5164  0.9391  0.5057
 2592SOL     OW19408   0.343   4.702   3.133  0.2446  0.4349 -0.7004
 2592SOL    HW119409   0.435   4.718   3.153  0.1764 -0.1917  0.1018
 2592SOL    HW219410   0.311   0.053   3.152 -0.1826 -0.0689  0.9365
 2593SOL     OW19411   0.055   4.617  10.493  0.1252  0.1205 -0.1906
 2593SOL    HW119412   4.719   4.660  10.536  2.5832 -0.1151  4.2426
 2593SOL    HW219413   0.111   4.592  10.567 -0.9727 -0.7228  0.3595
 2594SOL     OW19414   2.391   4.085   0.347 -0.1927 -0.1067 -0.3910
 2594SOL    HW119415   2.434   4.150   0.292 -0.8755  1.1457  0.5561
 2594SOL    HW219416   2.460   4.059   0.408 -0.7529 -2.0392 -0.5692
 2595SOL     OW19417   0.758   3.762   3.446 -0.7144  0.0386 -0.1858
 2595SOL    HW119418   0.796   3.839   3.487 -1.8793  0.8990 -0.7056
 2595SOL    HW219419   0.739   3.705   3.520  2.2052  0.3848  0.8270
 2596SOL     OW19420   3.538   1.436   3.387  0.1284  0.3766 -0.0276
 2596SOL    HW119421   3.613   1.387   3.353 -0.6213 -0.7166 -0.1008
 2596SOL    HW219422   3.544   1.414   3.480  0.3407  0.9025  0.0863
 2597SOL     OW19423   2.542   2.336  11.548 -0.1661 -0.1780  0.8263
 2597SOL    HW119424   2.500   2.320  11.632 -1.5892  0.5156  0.2597
 2597SOL    HW219425   2.535   2.247  11.512 -2.3626 -0.1421  1.1514
 2598SOL     OW19426   3.314   4.444  17.073 -0.0077 -0.1056  0.2762
 2598SOL    HW119427   3.246   4.497  17.115  0.7920 -0.0898  1.5640
 2598SOL    HW219428   3.319   4.368  17.130  1.3225  0.5776  1.0807
 2599SOL     OW19429   0.124   3.387   3.634  0.1450 -0.2675  0.6325
 2599SOL    HW119430   0.075   3.466   3.658  2.4428  0.7367  2.1052
 2599SOL    HW219431   0.114   3.385   3.538  0.5121  1.2104  0.5569
 2600SOL     OW19432   1.624   4.649   4.780  0.0794  0.5052 -0.2366
 2600SOL    HW119433   1.617   4.733   4.825 -0.8854 -1.2628  2.9177
 2600SOL    HW219434   1.533   4.620   4.770  1.5159 -3.5950 -1.3675
 2601SOL     OW19435   2.626   2.738   1.980  0.2140 -0.0385  0.4020
 2601SOL    HW119436   2.605   2.655   1.937 -0.1148  1.2066 -1.8030
 2601SOL    HW219437   2.600   2.714   2.069  1.7734  1.2139  1.1866
 2602SOL     OW19438   0.790   2.392   2.770 -0.3517 -0.7091  0.0866
 2602SOL    HW119439   0.810   2.301   2.749 -2.3965 -1.1947  0.2365
 2602SOL    HW219440   0.832   2.448   2.705  0.0100 -0.1314  0.8152
 2603SOL     OW19441   0.983   3.766  10.370  0.0296  0.2651 -0.1363
 2603SOL    HW119442   1.007   3.675  10.388  1.7614  0.8272  0.4343
 2603SOL    HW219443   0.929   3.754  10.292 -0.3402 -1.0302  0.3158
 2604SOL     OW19444   2.689   4.473  16.019  0.0779  0.1298  0.3782
 2604SOL    HW119445   2.748   4.545  15.996 -1.1057 -0.8706 -5.8096
 2604SOL    HW219446   2.730   4.406  15.965 -0.1844 -0.0365  0.3864
 2605SOL     OW19447   2.482   2.992   5.087 -0.1692  0.0494  0.2817
 2605SOL    HW119448   2.420   3.005   5.016  2.1563 -1.2773 -1.9895
 2605SOL    HW219449   2.463   2.904   5.119 -0.5079  0.2397  0.5992
 2606SOL     OW19450   1.624   1.767  12.241 -0.6318  0.3838  0.6942
 2606SOL    HW119451   1.581   1.840  12.196  0.7926  1.0801  0.4404
 2606SOL    HW219452   1.642   1.705  12.171  0.2464 -1.6524  2.7313
 2607SOL     OW19453   1.614   4.665   4.221  0.0455 -0.3963 -0.0187
 2607SOL    HW119454   1.532   4.623   4.247  0.2075 -0.8922 -0.2861
 2607SOL    HW219455   1.579   4.731   4.161  1.7183 -0.6597 -1.2740
 2608SOL     OW19456   2.306   4.288  14.759  0.0956 -0.3105 -0.0071
 2608SOL    HW119457   2.338   4.232  14.830 -0.9154 -1.2247 -0.2663
 2608SOL    HW219458   2.346   4.245  14.684  1.0688 -0.1957  0.4420
 2609SOL     OW19459   4.113   2.717   1.113 -0.6861  0.2406  0.0952
 2609SOL    HW119460   4.120   2.781   1.042  0.4844  0.6780  0.6025
 2609SOL    HW219461   4.019   2.703   1.124 -0.8299  2.3233  1.4617
 2610SOL     OW19462   1.997   0.285   8.212  0.2496 -0.4593 -0.0734
 2610SOL    HW119463   2.076   0.270   8.264  0.6637  0.4329 -0.4361
 2610SOL    HW219464   1.959   0.364   8.252  1.6581  0.0241  0.2981
 2611SOL     OW19465   1.611   3.199   4.743  0.0786  0.3472 -0.4122
 2611SOL    HW119466   1.595   3.269   4.807  1.6523 -0.6946  1.1248
 2611SOL    HW219467   1.682   3.243   4.697 -0.1263  1.5389  0.4167
 2612SOL     OW19468   2.324   2.571   6.142 -0.9034  0.1477 -0.1498
 2612SOL    HW119469   2.318   2.660   6.176  1.2769  0.2927 -0.1839
 2612SOL    HW219470   2.233   2.554   6.116 -1.3672  1.6892  0.4901
 2613SOL     OW19471   0.682   1.190   3.317 -0.0221 -0.4061 -0.5336
 2613SOL    HW119472   0.777   1.172   3.318  0.1539  0.5864  0.8646
 2613SOL    HW219473   0.682   1.259   3.252  0.0248  0.1251  0.0289
 2614SOL     OW19474   3.859   2.082   0.391  0.5313  0.1345 -0.1828
 2614SOL    HW119475   3.877   2.085   0.485 -0.9521  0.1356  0.0991
 2614SOL    HW219476   3.922   2.018   0.358  0.9869  1.6731 -2.3021
 2615SOL     OW19477   4.420   1.736   8.654 -0.3167  0.0322 -0.0205
 2615SOL    HW119478   4.403   1.815   8.705  1.7911  1.6074 -1.7335
 2615SOL    HW219479   4.327   1.717   8.639 -0.3284  0.1425 -0.0851
 2616SOL     OW19480   0.048   1.324   5.875 -0.3138  0.4208 -0.2836
 2616SOL    HW119481   4.694   1.348   5.879 -0.7335 -1.3916  1.2413
 2616SOL    HW219482   0.072   1.412   5.904  2.0908 -0.4758  0.4989
 2617SOL     OW19483   2.532   2.097  11.420 -0.4226 -0.6021  0.2843
 2617SOL    HW119484   2.566   2.010  11.442 -0.0206 -0.3759  0.5647
 2617SOL    HW219485   2.466   2.070  11.357 -0.1539  1.2396 -0.7847
 2618SOL     OW19486   4.688   4.380  17.392 -0.5512  0.8668  0.0147
 2618SOL    HW119487   4.654   4.460  17.433 -0.9623  0.0135  1.3176
 2618SOL    HW219488   4.657   4.311  17.450 -4.2524  1.3475 -1.3366
 2619SOL     OW19489   4.511   1.315  13.642 -0.4684 -0.1512  0.0406
 2619SOL    HW119490   4.546   1.308  13.553  1.2982  1.0163  0.6414
 2619SOL    HW219491   4.579   1.374  13.676 -1.4414  0.7996  0.3200
 2620SOL     OW19492   0.866   4.457   9.361  0.2572  0.4595  0.4263
 2620SOL    HW119493   0.899   4.462   9.451  1.2000 -0.7949  0.1435
 2620SOL    HW219494   0.890   4.369   9.331  1.4002  0.2235  2.0430
 2621SOL     OW19495   2.724   1.851  12.556 -0.3308 -0.0644 -0.0531
 2621SOL    HW119496   2.691   1.773  12.600 -0.1928 -0.5619 -0.8243
 2621SOL    HW219497   2.805   1.819  12.518 -1.8896 -1.7196 -1.9472
 2622SOL     OW19498   0.780   2.954   5.297  0.1880  0.1791 -0.0976
 2622SOL    HW119499   0.821   2.876   5.336  1.3327  0.9651  0.2828
 2622SOL    HW219500   0.849   3.019   5.314  1.0484 -0.7929  0.1748
 2623SOL     OW19501   0.396   2.471   7.898  0.1494  0.0902  0.2145
 2623SOL    HW119502   0.323   2.518   7.858  0.1605  0.6912  0.9095
 2623SOL    HW219503   0.412   2.425   7.815 -3.5532  0.1320 -0.5367
 2624SOL     OW19504   3.619   1.805   4.446 -0.3726 -0.1374  0.0436
 2624SOL    HW119505   3.539   1.756   4.430 -1.6509  1.2276  2.2807
 2624SOL    HW219506   3.664   1.778   4.366  1.6329  3.5230 -0.0826
 2625SOL     OW19507   1.921   1.883  11.276 -0.3853  0.2046 -0.0665
 2625SOL    HW119508   1.902   1.940  11.201 -1.0065 -0.5246 -0.4552
 2625SOL    HW219509   1.835   1.842  11.282 -1.2424  2.0239  0.0736
 2626SOL     OW19510   4.732   2.473   5.118  0.0838  0.0519  0.4478
 2626SOL    HW119511   4.688   2.452   5.200 -1.4992  0.7982 -0.2132
 2626SOL    HW219512   0.085   2.448   5.134 -0.2615 -0.6472  1.3154
 2627SOL     OW19513   4.681   0.660   3.248  0.0306  0.1623  0.7137
 2627SOL    HW119514   0.038   0.667   3.255  0.1326  0.0698 -0.6124
 2627SOL    HW219515   4.662   0.651   3.342  0.5501  0.4587  0.8481
 2628SOL     OW19516   3.034   3.592   3.094  0.1115  0.1960 -0.1902
 2628SOL    HW119517   3.053   3.578   3.187  0.5765 -1.8126 -0.5923
 2628SOL    HW219518   2.977   3.670   3.096 -3.1767 -2.1923 -0.6066
 2629SOL     OW19519   0.392   1.905   6.425  0.0448  0.2069  0.4308
 2629SOL    HW119520   0.459   1.839   6.409  0.3641  0.0604  2.4083
 2629SOL    HW219521   0.436   1.949   6.497  2.9785  1.3763 -2.0701
 2630SOL     OW19522   2.652   2.187  10.261  0.4127  0.1517 -0.2849
 2630SOL    HW119523   2.747   2.195  10.259  0.5404 -0.6506  3.1717
 2630SOL    HW219524   2.628   2.112  10.206 -1.6760 -0.2884  1.2307
 2631SOL     OW19525   1.904   1.414   8.302 -0.4411  0.3426  0.3491
 2631SOL    HW119526   1.905   1.470   8.380 -0.5334  0.3198  0.3674
 2631SOL    HW219527   1.987   1.367   8.313 -0.4182  0.1491 -0.6720
 2632SOL     OW19528   0.885   2.698   8.756 -0.1632 -0.8659  0.0351
 2632SOL    HW119529   0.857   2.786   8.732 -0.4966 -0.6682  1.1418
 2632SOL    HW219530   0.806   2.656   8.722 -1.3013  1.6331 -0.3946
 2633SOL     OW19531   3.427   3.232   9.544  0.6094 -0.7289  0.0329
 2633SOL    HW119532   3.491   3.166   9.517  0.3542  0.3041 -3.0426
 2633SOL    HW219533   3.421   3.212   9.638  0.1242  2.7125  0.7253
 2634SOL     OW19534   1.486   0.387   9.644 -0.3894  0.5889 -0.2656
 2634SOL    HW119535   1.425   0.368   9.572  0.1716  0.4678 -0.7014
 2634SOL    HW219536   1.557   0.428   9.594  0.5661 -0.9648 -0.1507
 2635SOL     OW19537   2.102   4.050   5.758 -0.2687 -0.2558  0.1986
 2635SOL    HW119538   2.086   4.111   5.830 -1.4518 -0.0327 -0.2602
 2635SOL    HW219539   2.037   4.076   5.692 -1.4558  1.1659  1.9199
 2636SOL     OW19540   1.875   1.062   1.332  0.1546  0.0354  0.1029
 2636SOL    HW119541   1.892   1.094   1.421  0.4584  0.9350 -0.2735
 2636SOL    HW219542   1.860   1.143   1.283 -2.3288 -1.1080 -0.9875
 2637SOL     OW19543   4.234   0.528   2.640 -0.3513 -0.8934  0.6809
 2637SOL    HW119544   4.324   0.500   2.623  0.0799 -0.4746  2.2400
 2637SOL    HW219545   4.247   0.571   2.724 -1.7079 -0.7676  0.8297
 2638SOL     OW19546   2.207   1.732   6.895 -0.2578 -0.6404 -0.4191
 2638SOL    HW119547   2.301   1.728   6.915 -0.0823 -0.5363 -1.2419
 2638SOL    HW219548   2.166   1.653   6.932  1.0778 -0.5022  1.3710
 2639SOL     OW19549   0.738   0.734  13.255  0.1128 -0.3255  0.1985
 2639SOL    HW119550   0.789   0.753  13.177  0.6671  0.3077  0.7189
 2639SOL    HW219551   0.678   0.668  13.220 -0.6569 -0.3758  1.5709
 2640SOL     OW19552   3.537   4.274   8.190  0.1510  0.0213  0.5452
 2640SOL    HW119553   3.579   4.201   8.235 -0.8485 -0.2692  1.0048
 2640SOL    HW219554   3.564   4.246   8.102  0.4520  1.9156  0.0227
 2641SOL     OW19555   1.660   0.929   4.983  0.3157 -0.3544  0.0747
 2641SOL    HW119556   1.729   0.958   5.042 -1.4354  0.1782  1.8273
 2641SOL    HW219557   1.649   0.992   4.912 -0.1879 -0.2616  0.2346
 2642SOL     OW19558   4.129   2.132   2.039  0.0608  0.0939 -0.0213
 2642SOL    HW119559   4.073   2.059   2.065  2.0075 -1.3536  0.1187
 2642SOL    HW219560   4.151   2.099   1.952 -0.1323 -0.1126  0.0064
 2643SOL     OW19561   3.018   2.645   8.346 -0.5730 -0.2439 -0.2106
 2643SOL    HW119562   2.937   2.613   8.386  0.1044 -1.6398  0.0331
 2643SOL    HW219563   3.068   2.615   8.422 -0.6803 -0.8998 -0.3925
 2644SOL     OW19564   1.196   3.158  10.613 -0.2570  0.0496 -0.3664
 2644SOL    HW119565   1.251   3.141  10.690  1.1960  0.3386 -1.3347
 2644SOL    HW219566   1.202   3.253  10.624  0.1538 -0.2634  2.1494
 2645SOL     OW19567   2.078   0.648   3.467 -0.1032 -0.1025  0.0424
 2645SOL    HW119568   2.055   0.712   3.400 -0.1154  1.2947  1.3817
 2645SOL    HW219569   2.078   0.565   3.418 -0.7774  0.7852 -1.4612
 2646SOL     OW19570   2.220   3.478   3.136  0.4503 -0.5602  0.2934
 2646SOL    HW119571   2.281   3.512   3.201  1.5996  0.1919 -1.1835
 2646SOL    HW219572   2.190   3.404   3.189 -0.5222 -0.9091 -0.7361
 2647SOL     OW19573   0.652   4.649   3.960 -0.0491 -0.3950 -0.1014
 2647SOL    HW119574   0.690   4.681   4.042  1.0289  0.0301 -0.7641
 2647SOL    HW219575   0.672   4.556   3.972 -0.4704 -0.3219  1.1202
 2648SOL     OW19576   0.667   1.826   8.791 -0.5005 -0.0976  0.1840
 2648SOL    HW119577   0.573   1.840   8.803 -0.4221  1.5086 -0.9869
 2648SOL    HW219578   0.698   1.911   8.824 -0.0833 -0.0741 -0.2781
 2649SOL     OW19579   2.704   1.852  10.377 -0.1191 -0.1275  0.4767
 2649SOL    HW119580   2.788   1.898  10.383 -0.7175  1.1805 -1.1362
 2649SOL    HW219581   2.722   1.798  10.301  3.3103  0.2824  0.9947
 2650SOL     OW19582   3.005   1.815   7.101  0.0196  0.2358  0.5861
 2650SOL    HW119583   2.972   1.842   7.015  1.5921 -0.7710 -0.3367
 2650SOL    HW219584   2.935   1.757   7.131  1.1284 -2.2230 -1.5634
 2651SOL     OW19585   3.204   0.951   4.541 -0.2915 -0.1178  0.3661
 2651SOL    HW119586   3.194   0.861   4.510  1.1905 -0.5252  1.0721
 2651SOL    HW219587   3.170   0.996   4.464  0.5348 -0.6136 -0.2806
 2652SOL     OW19588   0.373   1.427   7.899 -0.4704 -0.1828 -0.6724
 2652SOL    HW119589   0.422   1.354   7.861 -1.9442 -0.1179 -2.6993
 2652SOL    HW219590   0.288   1.383   7.905 -0.6065  0.1816  0.0113
 2653SOL     OW19591   3.225   0.824   7.283 -0.0533  0.3880 -0.1211
 2653SOL    HW119592   3.307   0.776   7.270 -0.6483 -0.8334  0.6029
 2653SOL    HW219593   3.184   0.764   7.344  2.2755 -2.5056 -1.3982
 2654SOL     OW19594   3.017   1.510  13.897 -0.4126 -0.1654  0.0629
 2654SOL    HW119595   3.038   1.452  13.824  0.1338 -0.1819  0.2363
 2654SOL    HW219596   3.067   1.590  13.887  0.9569 -0.9369  0.6871
 2655SOL     OW19597   3.379   4.530   2.189 -0.2236  0.0451 -0.2606
 2655SOL    HW119598   3.373   4.516   2.094 -0.1261  0.0732 -0.2717
 2655SOL    HW219599   3.475   4.532   2.196 -0.1774 -1.4209 -0.5973
 2656SOL     OW19600   0.990   1.460   3.478 -0.1924  0.1147  0.0427
 2656SOL    HW119601   0.945   1.544   3.464 -1.7315 -0.9981 -1.7606
 2656SOL    HW219602   0.940   1.425   3.551  4.2324 -0.2934  2.8669
 2657SOL     OW19603   0.712   0.215  12.273 -0.0420  0.6211  0.1572
 2657SOL    HW119604   0.714   0.276  12.199 -0.2248  0.5417  0.0847
 2657SOL    HW219605   0.735   0.275  12.343  1.2005  0.0564  0.2278
 2658SOL     OW19606   3.791   2.148   4.372  0.1067  0.1392  0.4470
 2658SOL    HW119607   3.837   2.080   4.323  1.4112  0.5420  1.1270
 2658SOL    HW219608   3.821   2.223   4.320 -0.4690 -0.2896 -0.4999
 2659SOL     OW19609   4.298   3.926   4.879  0.3010  0.1098 -0.5676
 2659SOL    HW119610   4.361   3.887   4.939 -0.3685 -1.5089 -0.9176
 2659SOL    HW219611   4.252   3.997   4.925  0.6121 -0.9962  1.4179
 2660SOL     OW19612   2.187   4.605   3.474  0.0327 -0.9651  0.2894
 2660SOL    HW119613   2.139   4.527   3.446 -1.2062  0.2518 -0.9796
 2660SOL    HW219614   2.108   4.660   3.474  0.4773 -0.3170 -1.5835
 2661SOL     OW19615   3.193   0.680   4.432  0.1306 -0.5283  0.0297
 2661SOL    HW119616   3.205   0.596   4.475 -0.1009 -0.4442  0.2642
 2661SOL    HW219617   3.229   0.654   4.347 -1.7660  1.9111 -1.5392
 2662SOL     OW19618   1.727   4.730   3.034 -0.0991  0.4659  0.3939
 2662SOL    HW119619   1.749   0.084   3.018  2.3995 -0.3649 -0.9683
 2662SOL    HW219620   1.663   4.714   2.964  0.5602  0.8364 -0.2945
 2663SOL     OW19621   0.488   0.509   5.286 -0.0893 -1.0268  0.3021
 2663SOL    HW119622   0.415   0.451   5.261 -0.3138  0.8201 -3.3130
 2663SOL    HW219623   0.552   0.452   5.329  0.4923  1.6641  2.9438
 2664SOL     OW19624   0.987   0.295  12.318 -0.4870 -0.3692 -0.5153
 2664SOL    HW119625   1.023   0.375  12.357 -1.0973  0.5819 -1.9090
 2664SOL    HW219626   0.925   0.335  12.258  2.0464 -1.0922 -3.5789
 2665SOL     OW19627   1.705   1.153  11.230 -0.2745  0.4780  0.9567
 2665SOL    HW119628   1.750   1.233  11.257 -0.0265  0.0936  1.6702
 2665SOL    HW219629   1.750   1.085  11.280  0.4988  0.4253  0.1957
 2666SOL     OW19630   3.696   4.734   5.048  0.0676  0.3595  0.0463
 2666SOL    HW119631   3.754   0.032   5.115  0.3458  2.6883 -1.4476
 2666SOL    HW219632   3.749   4.708   4.973 -2.1634  2.0061 -2.1286
 2667SOL     OW19633   4.182   1.819  14.133 -0.0955 -0.0037  0.4756
 2667SOL    HW119634   4.175   1.787  14.043 -0.4182 -0.7760  0.7692
 2667SOL    HW219635   4.140   1.745  14.179 -0.2207  1.3859  2.6093
 2668SOL     OW19636   0.719   0.774   1.782  0.8588  0.1155 -0.1832
 2668SOL    HW119637   0.704   0.813   1.868 -1.7450  2.2395 -1.5935
 2668SOL    HW219638   0.785   0.829   1.740 -1.3023  2.0595 -1.0210
 2669SOL     OW19639   4.378   3.020   8.504 -0.5267 -0.2665  0.1485
 2669SOL    HW119640   4.430   3.019   8.584 -1.6095 -0.6579  0.8428
 2669SOL    HW219641   4.427   3.080   8.448  0.6687 -1.5192 -0.1485
 2670SOL     OW19642   0.385   4.378   7.484  0.1707  0.3316  0.5322
 2670SOL    HW119643   0.354   4.306   7.539 -1.6205  1.5707  1.1581
 2670SOL    HW219644   0.473   4.398   7.515  0.7795 -1.1615 -0.2637
 2671SOL     OW19645   2.019   1.329   2.361  0.3057 -0.0661 -0.2245
 2671SOL    HW119646   2.111   1.301   2.356  0.5575  0.7713 -0.2866
 2671SOL    HW219647   1.976   1.257   2.408 -0.6800  0.9471  0.4193
 2672SOL     OW19648   3.911   1.221  13.827 -0.0937  0.0120 -0.7099
 2672SOL    HW119649   3.892   1.308  13.862 -0.1588 -0.5325  0.6089
 2672SOL    HW219650   3.847   1.170  13.876  0.4955 -0.9329 -0.9267
 2673SOL     OW19651   2.561   1.575   9.566  0.2690  0.0065  0.0874
 2673SOL    HW119652   2.584   1.628   9.642  1.1064 -1.3526  0.7780
 2673SOL    HW219653   2.488   1.623   9.527  1.0990  0.0031 -1.4734
 2674SOL     OW19654   2.338   2.919  11.150 -0.5426 -0.3550  0.6131
 2674SOL    HW119655   2.418   2.949  11.107  1.6868 -2.7510  3.1879
 2674SOL    HW219656   2.308   2.999  11.194 -0.7057 -0.9843  1.6478
 2675SOL     OW19657   3.729   4.280   3.624 -0.2991  0.0072 -0.0775
 2675SOL    HW119658   3.741   4.375   3.611  0.8494 -0.0891  0.2848
 2675SOL    HW219659   3.732   4.249   3.533 -0.7163 -1.2019  0.3204
 2676SOL     OW19660   1.016   1.515   6.882  0.3307  0.4355  0.1529
 2676SOL    HW119661   1.022   1.561   6.799 -1.3147 -0.8167 -0.6430
 2676SOL    HW219662   1.107   1.518   6.912  0.3471 -0.3084  0.1892
 2677SOL     OW19663   1.652   4.032  10.064 -0.4268 -0.2675 -0.2713
 2677SOL    HW119664   1.613   3.952  10.099 -1.9084  0.7956  0.5539
 2677SOL    HW219665   1.743   4.002  10.070  0.2658  2.2027  2.0907
 2678SOL     OW19666   2.513   0.458   6.619 -0.0257 -1.0937 -0.4681
 2678SOL    HW119667   2.543   0.544   6.650 -2.4721 -0.9136  1.4566
 2678SOL    HW219668   2.546   0.453   6.530 -0.9714 -1.4798 -0.7956
 2679SOL     OW19669   3.907   0.136   2.952 -0.3749  0.5237  0.1583
 2679SOL    HW119670   3.983   0.106   2.901  0.2768  1.9188  0.3235
 2679SOL    HW219671   3.940   0.118   3.040 -3.3184  2.3004  1.5926
 2680SOL     OW19672   4.250   2.250   4.586 -0.3763  0.3985 -0.0576
 2680SOL    HW119673   4.155   2.239   4.575 -0.4651 -0.4148  1.5940
 2680SOL    HW219674   4.262   2.341   4.558  2.0998  0.5682  1.5228
 2681SOL     OW19675   0.629   0.092  13.664 -0.4250 -0.2318 -0.1398
 2681SOL    HW119676   0.695   0.161  13.652  0.5975 -0.5295  3.7208
 2681SOL    HW219677   0.561   0.131  13.720 -1.6947  0.0741 -1.9110
 2682SOL     OW19678   1.820   1.486   6.856 -1.1289 -0.2306  0.0160
 2682SOL    HW119679   1.839   1.576   6.881 -1.5907  0.2477 -1.3771
 2682SOL    HW219680   1.735   1.466   6.895 -1.0864 -1.9411 -0.7535
 2683SOL     OW19681   0.268   1.404   8.816 -0.8530  0.9291 -0.0460
 2683SOL    HW119682   0.310   1.383   8.900  1.1728  0.0647 -1.2752
 2683SOL    HW219683   0.264   1.324   8.764 -1.3348  0.4606  0.7187
 2684SOL     OW19684   2.625   2.145   2.570  0.1506 -0.2931  0.3357
 2684SOL    HW119685   2.551   2.171   2.515 -0.4255  1.9980  2.1514
 2684SOL    HW219686   2.646   2.066   2.521  1.0649  0.1475  0.0401
 2685SOL     OW19687   3.441   1.015  10.226 -0.2332  0.3672  0.8782
 2685SOL    HW119688   3.507   0.947  10.238  0.8902  1.2582 -0.3091
 2685SOL    HW219689   3.388   0.976  10.157  0.2461  0.8883  0.2125
 2686SOL     OW19690   1.480   4.723   8.984  0.0450  0.1846 -0.2946
 2686SOL    HW119691   1.501   4.633   9.007  0.5084  0.4397  0.2743
 2686SOL    HW219692   1.535   4.729   8.905  0.9218  1.6768  0.4243
 2687SOL     OW19693   3.758   4.419   5.074  0.3149 -0.1161  0.0878
 2687SOL    HW119694   3.733   4.327   5.081  0.6496 -0.2437 -0.3619
 2687SOL    HW219695   3.802   4.412   4.989  1.0798  1.3614  0.3688
 2688SOL     OW19696   1.664   3.870   0.169 -0.1228 -0.5841  0.3048
 2688SOL    HW119697   1.619   3.929   0.109 -0.9868 -0.4306  1.1145
 2688SOL    HW219698   1.649   3.785   0.126  0.3122 -0.8971  0.7785
 2689SOL     OW19699   0.820   3.888   6.669  0.0990  0.0374  0.5562
 2689SOL    HW119700   0.757   3.816   6.676 -0.9400  0.9331  0.4505
 2689SOL    HW219701   0.834   3.895   6.763  0.2335  0.1198  0.5295
 2690SOL     OW19702   3.101   1.765   3.211  0.8797  0.2703  0.0443
 2690SOL    HW119703   3.053   1.682   3.220  2.1320 -0.4984 -0.3430
 2690SOL    HW219704   3.073   1.799   3.296  1.4016  1.4021 -0.2320
 2691SOL     OW19705   2.126   0.648   5.621  0.4103 -0.1721 -0.2789
 2691SOL    HW119706   2.066   0.720   5.640  1.8892  0.3837  2.3764
 2691SOL    HW219707   2.067   0.574   5.629 -0.4865  0.8042  1.9993
 2692SOL     OW19708   4.268   2.657  15.838  0.8221 -0.1204 -0.3729
 2692SOL    HW119709   4.296   2.577  15.882 -1.3649 -1.7217 -1.8774
 2692SOL    HW219710   4.189   2.682  15.886  1.7317 -0.9795  1.5501
 2693SOL     OW19711   1.561   1.526   0.509  0.4121 -0.1166  0.0880
 2693SOL    HW119712   1.567   1.459   0.577 -4.6561  0.4380  1.0458
 2693SOL    HW219713   1.627   1.589   0.539  1.4640 -0.3567 -1.6960
 2694SOL     OW19714   2.272   4.683  12.280  0.3900 -0.4711 -0.6628
 2694SOL    HW119715   2.244   0.033  12.254  1.0298  0.0791  0.5211
 2694SOL    HW219716   2.333   4.650  12.214  0.2351 -0.1098 -0.9916
 2695SOL     OW19717   1.119   2.887   2.282 -0.1416 -0.0476 -0.2865
 2695SOL    HW119718   1.105   2.795   2.261  0.4372 -0.0665 -0.5821
 2695SOL    HW219719   1.182   2.904   2.212  1.9388 -0.7245  1.4212
 2696SOL     OW19720   3.774   1.335   7.527 -0.4754  0.3039 -0.3121
 2696SOL    HW119721   3.708   1.271   7.501 -1.1053  1.2860 -1.1483
 2696SOL    HW219722   3.788   1.319   7.620 -0.4026 -0.2109 -0.4118
 2697SOL     OW19723   4.512   3.700   1.370  0.2315 -0.2632  0.2824
 2697SOL    HW119724   4.458   3.727   1.444 -0.6164 -0.8954 -0.1092
 2697SOL    HW219725   4.445   3.716   1.303 -1.4683  0.3289  2.1365
 2698SOL     OW19726   3.929   1.476  17.605  0.7985 -0.3524  0.3688
 2698SOL    HW119727   3.882   1.549  17.647  0.7381  0.7359 -1.5821
 2698SOL    HW219728   3.955   1.434  17.686 -0.5993  1.5879  1.8382
 2699SOL     OW19729   0.080   4.043  11.942  0.6349 -0.7405 -0.0343
 2699SOL    HW119730   0.097   3.976  12.007 -2.0158 -0.8955  0.5269
 2699SOL    HW219731   0.000   4.084  11.977  1.3485 -0.0408  0.7535
 2700SOL     OW19732   1.578   1.047   4.750  0.1168  0.2604  0.0737
 2700SOL    HW119733   1.662   1.092   4.742  0.1836 -0.2375 -2.0551
 2700SOL    HW219734   1.552   1.020   4.662  2.3604  1.0032 -0.8047
 2701SOL     OW19735   4.708   4.608   0.725 -0.3605 -0.5891 -0.1766
 2701SOL    HW119736   4.685   4.637   0.813  0.8018  0.1760 -0.1241
 2701SOL    HW219737   4.690   4.688   0.675 -0.1363 -0.3965  0.0551
 2702SOL     OW19738   1.410   2.599   1.961 -0.4890  0.1263  0.8432
 2702SOL    HW119739   1.453   2.552   1.890  1.7396  0.7734  1.7709
 2702SOL    HW219740   1.484   2.641   2.004 -0.2051  0.0773  0.4069
 2703SOL     OW19741   0.932   0.655   9.030  0.1940  0.7012  0.1172
 2703SOL    HW119742   0.936   0.693   8.942  2.3565  1.6617  0.6393
 2703SOL    HW219743   0.887   0.572   9.015  1.1772  0.3224 -0.7568
 2704SOL     OW19744   0.267   3.455   6.572 -0.4185 -0.2823  0.0195
 2704SOL    HW119745   0.251   3.540   6.612 -0.8986 -0.6509  0.6076
 2704SOL    HW219746   0.317   3.423   6.648  0.5966 -0.4548 -0.7175
 2705SOL     OW19747   4.288   0.730   8.035  0.1886 -0.4350 -0.0656
 2705SOL    HW119748   4.253   0.791   8.100 -2.5598 -1.1672 -0.8680
 2705SOL    HW219749   4.281   0.650   8.087  1.4811  0.6092  1.7162
 2706SOL     OW19750   4.196   4.205   8.160 -0.6681  0.3496  0.1450
 2706SOL    HW119751   4.227   4.288   8.198  1.5927 -0.3887 -0.0836
 2706SOL    HW219752   4.277   4.171   8.121  0.4146  2.5823  0.4463
 2707SOL     OW19753   2.908   4.690   4.128  0.4534 -0.5912 -0.5493
 2707SOL    HW119754   2.845   4.618   4.126 -0.3070  0.0569  0.4259
 2707SOL    HW219755   2.854   0.017   4.083 -2.1841 -2.4275  0.0255
 2708SOL     OW19756   4.301   3.008   0.662  0.1839 -0.8166 -0.3820
 2708SOL    HW119757   4.295   2.992   0.756 -1.0512  0.0691 -0.3104
 2708SOL    HW219758   4.369   2.949   0.631  1.9958  0.1651  1.7464
 2709SOL     OW19759   1.909   1.395   5.272 -0.4099  0.0999  0.1184
 2709SOL    HW119760   1.958   1.477   5.269 -0.1631 -0.0461  0.1767
 2709SOL    HW219761   1.928   1.366   5.183  0.8597  0.6253  0.2219
 2710SOL     OW19762   1.266   4.111  17.625 -0.1435  0.5793 -0.1929
 2710SOL    HW119763   1.324   4.081  17.696 -0.4763 -0.9449 -0.5579
 2710SOL    HW219764   1.222   4.179  17.676 -1.9266 -1.6997  1.3253
 2711SOL     OW19765   3.621   2.981   2.410 -0.0235  0.3944  0.6687
 2711SOL    HW119766   3.620   2.952   2.319  0.7347 -0.2140  0.8502
 2711SOL    HW219767   3.600   3.074   2.397  1.1999  0.3856 -1.4078
 2712SOL     OW19768   3.173   2.231   8.804  0.9042  0.1996  0.2527
 2712SOL    HW119769   3.264   2.250   8.782  1.1439 -0.2723  0.8356
 2712SOL    HW219770   3.178   2.214   8.898 -0.2321 -1.0492  0.0915
 2713SOL     OW19771   2.604   4.373   5.853 -0.7259  0.0555 -0.4631
 2713SOL    HW119772   2.682   4.333   5.891 -0.7494  0.6033  0.1619
 2713SOL    HW219773   2.634   4.387   5.763 -1.1894 -0.1080 -0.6461
 2714SOL     OW19774   3.495   1.356  16.609 -0.7154  0.3547 -0.2554
 2714SOL    HW119775   3.563   1.396  16.555 -1.6650  2.9668  0.4382
 2714SOL    HW219776   3.433   1.311  16.552 -1.3596  1.3029 -0.3212
 2715SOL     OW19777   1.688   2.623   1.417  0.1176  0.1199 -0.1539
 2715SOL    HW119778   1.747   2.699   1.421  0.8592 -0.5552  1.4702
 2715SOL    HW219779   1.634   2.618   1.338  0.0092  4.7357 -0.3982
 2716SOL     OW19780   2.735   2.968  13.582 -0.4604  0.2708 -0.2940
 2716SOL    HW119781   2.807   2.905  13.584 -1.2957 -0.7246 -1.5932
 2716SOL    HW219782   2.701   2.925  13.504  1.1922  2.5903 -2.2955
 2717SOL     OW19783   0.639   3.243   6.975 -0.1368  0.1584 -0.6583
 2717SOL    HW119784   0.566   3.197   7.016  0.1890 -1.9270 -2.4463
 2717SOL    HW219785   0.704   3.174   6.962  2.1368  2.6380 -2.5517
 2718SOL     OW19786   3.261   2.005   6.988  0.0544 -0.2508 -0.0434
 2718SOL    HW119787   3.304   2.030   7.069 -0.0079  1.0724 -0.4167
 2718SOL    HW219788   3.249   1.912   7.006  1.3873 -0.3262  0.4468
 2719SOL     OW19789   2.026   1.028  12.929 -0.3476 -0.0302 -0.1413
 2719SOL    HW119790   1.936   0.995  12.938 -0.1331 -0.8479 -0.9328
 2719SOL    HW219791   2.023   1.087  12.854  0.2645 -0.9318 -0.8838
 2720SOL     OW19792   1.191   0.952   6.581  0.2342  0.5791 -0.1769
 2720SOL    HW119793   1.221   1.030   6.628 -1.0744  0.2535  1.2000
 2720SOL    HW219794   1.106   0.969   6.541 -0.6710 -1.7522  0.7191
 2721SOL     OW19795   1.157   0.969   4.093 -0.7401 -0.2663  0.1406
 2721SOL    HW119796   1.115   1.006   4.170 -0.6993 -0.7263  0.3826
 2721SOL    HW219797   1.080   0.957   4.038 -0.4323  1.2785 -0.6247
 2722SOL     OW19798   2.753   1.550  13.872  0.0337  0.2471 -0.0240
 2722SOL    HW119799   2.716   1.585  13.954  1.8367  0.2654  0.7762
 2722SOL    HW219800   2.833   1.510  13.906 -0.5037  1.2051  2.3990
 2723SOL     OW19801   2.971   1.978   5.142 -0.3713  0.4944 -0.0375
 2723SOL    HW119802   2.920   1.954   5.220 -0.2444  0.7192  0.1136
 2723SOL    HW219803   3.059   1.947   5.167 -0.3365  0.2387 -0.4604
 2724SOL     OW19804   2.909   0.630  13.462  0.0868  0.2382 -0.3316
 2724SOL    HW119805   3.000   0.633  13.491 -0.3046  2.1424  0.6846
 2724SOL    HW219806   2.858   0.620  13.542 -0.1956 -1.0641 -0.6783
 2725SOL     OW19807   1.236   0.099   4.298 -0.0515  0.0103  0.2143
 2725SOL    HW119808   1.263   0.008   4.309  3.4827  1.1123  0.5067
 2725SOL    HW219809   1.324   0.136   4.304  0.5818 -1.2037 -1.8617
 2726SOL     OW19810   2.068   3.249   2.541 -0.7275 -0.3219  0.1379
 2726SOL    HW119811   2.043   3.162   2.571 -0.1358 -1.3945 -2.5617
 2726SOL    HW219812   1.981   3.273   2.508 -0.9552 -0.9078  0.3139
 2727SOL     OW19813   0.831   3.029   6.318 -0.6109 -0.3421  0.0685
 2727SOL    HW119814   0.817   3.032   6.413  1.9622 -1.8779  0.5228
 2727SOL    HW219815   0.799   2.940   6.301 -1.1953  0.0251 -0.7014
 2728SOL     OW19816   4.736   0.120   3.033  0.1370 -0.2697  0.5414
 2728SOL    HW119817   0.062   0.120   3.105 -0.3375 -3.1776  0.9654
 2728SOL    HW219818   0.039   0.069   2.963 -0.7947 -0.9964  0.5319
 2729SOL     OW19819   0.495   1.563   0.349 -0.4722  0.0746  0.4415
 2729SOL    HW119820   0.509   1.581   0.256  1.1175  1.5204  0.9444
 2729SOL    HW219821   0.583   1.552   0.386 -0.8025 -0.7957  0.9773
 2730SOL     OW19822   0.831   2.853  15.211 -0.3085  0.4939 -0.9794
 2730SOL    HW119823   0.840   2.932  15.159  1.1562  2.2556  1.9759
 2730SOL    HW219824   0.895   2.793  15.172 -0.7847  0.3706 -1.5724
 2731SOL     OW19825   4.652   1.861  14.250  0.6628  0.0875  0.1459
 2731SOL    HW119826   4.571   1.890  14.208  0.3492  1.2937  1.5958
 2731SOL    HW219827   4.634   1.865  14.343  1.6395  0.1775  0.3335
 2732SOL     OW19828   3.724   4.195   0.039 -0.7030  0.2404  0.1774
 2732SOL    HW119829   3.790   4.141  17.744 -0.9302 -0.0626  0.2055
 2732SOL    HW219830   3.745   4.182   0.131 -0.4061 -1.0171 -0.0712
 2733SOL     OW19831   4.509   0.191  15.030 -0.1253  0.4338 -0.1218
 2733SOL    HW119832   4.553   0.275  15.017  2.1210 -0.7595 -0.3190
 2733SOL    HW219833   4.424   0.224  15.058  0.4647  0.9562  1.0606
 2734SOL     OW19834   4.368   4.441   9.846  0.4676 -0.0388 -0.0974
 2734SOL    HW119835   4.376   4.490   9.928  0.3446 -2.0971  1.1528
 2734SOL    HW219836   4.335   4.507   9.785 -3.1588 -0.6785  1.1767
 2735SOL     OW19837   1.414   4.501  16.790  0.0727  0.3061 -0.0980
 2735SOL    HW119838   1.367   4.546  16.720  0.8373  1.4834  0.1343
 2735SOL    HW219839   1.342   4.462  16.840 -0.2883  0.3837 -0.5620
 2736SOL     OW19840   1.434   4.258   3.779 -0.4763 -0.1705 -0.4934
 2736SOL    HW119841   1.376   4.262   3.703  1.7521  1.3412 -2.1004
 2736SOL    HW219842   1.502   4.196   3.752 -0.5634 -0.1760 -0.6991
 2737SOL     OW19843   0.266   2.898   5.020 -0.3330  0.7651  0.1131
 2737SOL    HW119844   0.304   2.840   4.954 -1.0059 -0.7845  1.0880
 2737SOL    HW219845   0.215   2.961   4.968  0.0525  1.7157  0.8743
 2738SOL     OW19846   1.040   2.358   7.031  0.2931  0.2476 -0.3692
 2738SOL    HW119847   0.975   2.410   6.983 -0.3608 -0.7290 -0.5574
 2738SOL    HW219848   1.032   2.265   7.006  1.2443  0.5483 -1.8016
 2739SOL     OW19849   4.402   1.806   2.636 -0.9383 -0.3291  0.1232
 2739SOL    HW119850   4.385   1.900   2.637 -2.6053 -0.6245  0.2889
 2739SOL    HW219851   4.374   1.778   2.549 -1.3147  0.4370 -0.0014
 2740SOL     OW19852   0.265   1.047   7.892 -0.8581 -0.3990 -0.3495
 2740SOL    HW119853   0.321   1.094   7.831  0.6497  0.1082  1.4330
 2740SOL    HW219854   0.201   1.113   7.921  0.5889  0.9496 -0.2163
 2741SOL     OW19855   0.130   0.559   4.037 -0.5623 -0.6713  0.3482
 2741SOL    HW119856   0.051   0.566   4.091 -1.4448  0.6922 -1.1047
 2741SOL    HW219857   0.100   0.519   3.956 -1.1985  1.5314 -0.5032
 2742SOL     OW19858   0.101   2.470   6.242  0.2606  0.0793 -0.0989
 2742SOL    HW119859   0.148   2.398   6.285 -0.6469  0.2036  1.1075
 2742SOL    HW219860   0.108   2.540   6.306 -0.0431  0.3423 -0.3538
 2743SOL     OW19861   2.425   1.473   9.902  0.0450  0.5170 -0.1794
 2743SOL    HW119862   2.381   1.409   9.846  1.4353 -0.9585  0.4179
 2743SOL    HW219863   2.456   1.416   9.972  2.7150  1.1199 -0.8996
 2744SOL     OW19864   1.108   0.173   8.267  0.0090 -0.0972 -0.7199
 2744SOL    HW119865   1.114   0.086   8.307  1.2038  0.8020  1.0576
 2744SOL    HW219866   1.028   0.184   8.215  0.2974  1.8790 -0.7203
 2745SOL     OW19867   4.525   2.430   2.227 -0.1726  0.4379  0.2821
 2745SOL    HW119868   4.571   2.361   2.274  2.3772  1.5766 -0.5279
 2745SOL    HW219869   4.445   2.430   2.279  0.5618  0.4927  1.3909
 2746SOL     OW19870   0.495   1.124   1.939 -0.4538  0.3483  0.0954
 2746SOL    HW119871   0.584   1.116   1.906  0.0220 -0.2069  1.4806
 2746SOL    HW219872   0.457   1.043   1.904  0.0760  0.5779 -0.9976
 2747SOL     OW19873   3.457   4.464  12.289 -0.3005 -0.6298  0.0900
 2747SOL    HW119874   3.542   4.431  12.316  1.6547  3.0786 -1.6116
 2747SOL    HW219875   3.409   4.431  12.365  0.9185 -0.4722  0.9137
 2748SOL     OW19876   4.384   1.782   4.457  0.6552  0.9665 -0.1667
 2748SOL    HW119877   4.381   1.878   4.460 -1.2345  0.9287 -1.6268
 2748SOL    HW219878   4.345   1.772   4.544 -0.9413  0.8909 -0.8922
 2749SOL     OW19879   2.346   1.974   0.386 -0.1513  0.0708  0.0125
 2749SOL    HW119880   2.425   1.964   0.438  1.5683  0.6910 -2.4772
 2749SOL    HW219881   2.285   1.997   0.456 -2.3003  0.4400 -1.9504
 2750SOL     OW19882   0.875   0.647   1.018 -0.0188 -1.1184  0.1809
 2750SOL    HW119883   0.853   0.686   1.103  1.5832  3.1097 -1.3752
 2750SOL    HW219884   0.882   0.722   0.960 -1.9608  0.7709  2.3638
 2751SOL     OW19885   2.352   2.040   7.466 -0.2566  0.0943 -0.1443
 2751SOL    HW119886   2.262   2.009   7.457  0.0083 -0.7082 -0.0438
 2751SOL    HW219887   2.392   2.001   7.544 -2.2050  0.0593  0.8484
 2752SOL     OW19888   0.807   2.730  11.710  0.2958 -0.2613  0.2172
 2752SOL    HW119889   0.883   2.780  11.741  1.2965 -0.7683 -1.3955
 2752SOL    HW219890   0.751   2.803  11.683 -0.6663 -1.7434 -1.8435
 2753SOL     OW19891   1.778   2.294   5.815  0.0847 -0.2806 -0.1096
 2753SOL    HW119892   1.745   2.281   5.905 -0.8875  0.4518 -0.3538
 2753SOL    HW219893   1.737   2.221   5.768 -0.0929  1.0650 -2.0425
 2754SOL     OW19894   4.083   1.602   6.614  0.3069 -0.4181  0.0267
 2754SOL    HW119895   3.990   1.580   6.600  0.1517 -0.9531  1.8901
 2754SOL    HW219896   4.092   1.567   6.703  1.3874  0.2044  0.1593
 2755SOL     OW19897   1.306   1.657  10.507 -0.3941 -0.7329 -0.2664
 2755SOL    HW119898   1.311   1.731  10.446  0.4880 -0.1773  0.4895
 2755SOL    HW219899   1.383   1.680  10.559 -1.5165  2.1143  0.1536
 2756SOL     OW19900   0.233   1.771   6.208 -0.2760  0.4059 -0.0801
 2756SOL    HW119901   0.153   1.822   6.198 -0.1186  0.5920 -0.4024
 2756SOL    HW219902   0.279   1.806   6.131  1.7855 -0.5380  0.7203
 2757SOL     OW19903   2.538   2.482  12.213  0.0539 -0.0119  0.6194
 2757SOL    HW119904   2.576   2.569  12.201 -0.3891  0.0795 -0.1060
 2757SOL    HW219905   2.614   2.447  12.259  2.1444  2.9812 -0.5492
 2758SOL     OW19906   4.046   1.634   4.793 -0.0930 -0.7083  0.0069
 2758SOL    HW119907   4.043   1.540   4.810 -0.3800 -0.6747  0.1411
 2758SOL    HW219908   3.956   1.660   4.814 -0.5756 -0.7115 -2.0868
 2759SOL     OW19909   2.868   1.396   5.826 -0.6060 -0.1256 -0.1801
 2759SOL    HW119910   2.871   1.336   5.751 -0.4460  0.8866 -0.9683
 2759SOL    HW219911   2.872   1.340   5.904  0.6009  0.9852  0.5418
 2760SOL     OW19912   0.237   0.493  14.104  0.0152  0.7590  0.1856
 2760SOL    HW119913   0.212   0.502  14.012 -2.3402 -1.5587  0.6205
 2760SOL    HW219914   0.211   0.405  14.128 -0.4084  0.9358  0.3737
 2761SOL     OW19915   1.471   3.808   7.009  0.4029  0.2522  0.5249
 2761SOL    HW119916   1.412   3.748   6.963 -0.4155  1.3107  0.1653
 2761SOL    HW219917   1.520   3.854   6.941 -2.6506 -0.3488 -2.1209
 2762SOL     OW19918   1.077   3.170   8.183  0.4136  0.3027  0.0414
 2762SOL    HW119919   1.065   3.095   8.124 -1.1284 -0.0009  0.7463
 2762SOL    HW219920   1.070   3.240   8.118  0.3112  1.2312  1.0475
 2763SOL     OW19921   3.279   4.279   7.318 -0.0522 -0.3214 -0.1455
 2763SOL    HW119922   3.210   4.340   7.294 -1.0232 -1.7313 -0.9227
 2763SOL    HW219923   3.351   4.290   7.256 -0.5963  0.4692 -0.6402
 2764SOL     OW19924   2.798   4.244   7.132  0.3866  0.7070 -0.3688
 2764SOL    HW119925   2.822   4.165   7.180  1.3478 -0.0640 -2.1060
 2764SOL    HW219926   2.863   4.251   7.062  0.0335  0.3065 -0.7339
 2765SOL     OW19927   2.284   2.008   5.734 -0.3010  0.7324  0.1431
 2765SOL    HW119928   2.347   1.941   5.708 -3.0755 -2.0590  0.6188
 2765SOL    HW219929   2.335   2.087   5.718  0.9182 -0.4078 -1.6105
 2766SOL     OW19930   1.168   3.796  16.497  0.2908  0.1423  0.1539
 2766SOL    HW119931   1.091   3.740  16.504  1.9327 -2.3494 -1.5156
 2766SOL    HW219932   1.212   3.792  16.581  2.5882 -2.4819 -1.1892
 2767SOL     OW19933   0.931   4.516   1.971  0.2525  0.3528  0.0368
 2767SOL    HW119934   0.993   4.443   1.961 -0.3607  0.1021 -1.9779
 2767SOL    HW219935   0.977   4.585   2.019  0.1004 -0.6605  1.6575
 2768SOL     OW19936   1.061   4.490  11.710  0.0740 -0.2068  0.1632
 2768SOL    HW119937   1.001   4.416  11.718  0.7118 -0.5494  1.7648
 2768SOL    HW219938   1.008   4.558  11.749  1.1340 -0.6595  2.4066
 2769SOL     OW19939   2.186   0.799   4.595 -0.4646 -0.1861  0.7103
 2769SOL    HW119940   2.180   0.760   4.508 -0.6101  1.1819  0.1127
 2769SOL    HW219941   2.264   0.853   4.604  0.0607 -0.9029  0.5266
 2770SOL     OW19942   2.386   0.680   6.931  0.5747  0.2338 -0.0906
 2770SOL    HW119943   2.389   0.723   7.017 -0.1982  1.0120 -0.4581
 2770SOL    HW219944   2.440   0.601   6.939  0.4224  0.0284 -1.1564
 2771SOL     OW19945   0.824   2.484  14.939  0.3931  0.3673 -0.1767
 2771SOL    HW119946   0.917   2.468  14.952  0.6252 -0.4135 -2.8630
 2771SOL    HW219947   0.827   2.555  14.875 -1.0728  1.2237  0.7129
 2772SOL     OW19948   2.952   3.359   9.516 -0.0393  0.2111 -0.0350
 2772SOL    HW119949   2.919   3.429   9.460 -0.4063  1.1910  1.4091
 2772SOL    HW219950   3.038   3.341   9.479  0.0540 -0.5020  0.5253
 2773SOL     OW19951   2.124   1.968   9.032 -0.2796 -0.4475  0.1372
 2773SOL    HW119952   2.081   1.987   8.949  0.8315 -0.8018 -0.5182
 2773SOL    HW219953   2.209   2.012   9.021  0.2698 -1.6434 -0.4135
 2774SOL     OW19954   1.959   1.142   5.913  0.4763 -0.1180 -0.4838
 2774SOL    HW119955   1.907   1.065   5.889 -0.0217  0.3096 -0.7734
 2774SOL    HW219956   2.029   1.140   5.848  0.6517 -0.8037 -0.2829
 2775SOL     OW19957   4.235   0.976   8.191  0.3888 -0.1812  0.0765
 2775SOL    HW119958   4.216   1.033   8.266  1.5203  0.9650 -0.5209
 2775SOL    HW219959   4.155   0.993   8.141 -0.8443 -2.6551  1.1756
 2776SOL     OW19960   2.201   1.739   4.495  0.0957  0.2516  0.2156
 2776SOL    HW119961   2.241   1.819   4.460 -0.3245  0.5641  0.4411
 2776SOL    HW219962   2.160   1.763   4.579  0.4033  1.9631 -0.1119
 2777SOL     OW19963   1.426   1.475   3.135  0.0753  0.1261  0.6837
 2777SOL    HW119964   1.406   1.562   3.170 -1.0758  0.8376 -1.7506
 2777SOL    HW219965   1.338   1.442   3.117  0.8653 -0.8981 -1.2799
 2778SOL     OW19966   1.705   0.953  11.649 -0.1333 -0.2562  0.1344
 2778SOL    HW119967   1.658   0.995  11.721  0.4360  0.3702  0.1446
 2778SOL    HW219968   1.642   0.912  11.590  0.0489  1.8310 -1.4998
 2779SOL     OW19969   2.826   1.575  14.581  0.1452  0.2641  0.6834
 2779SOL    HW119970   2.757   1.512  14.602  0.8039 -1.3809 -2.0242
 2779SOL    HW219971   2.777   1.639  14.529  2.3181  1.2734 -0.1161
 2780SOL     OW19972   2.814   2.274  11.611 -0.0939  0.4006 -0.1751
 2780SOL    HW119973   2.755   2.278  11.536  0.4367 -0.1680 -0.6236
 2780SOL    HW219974   2.781   2.326  11.684 -2.5402 -2.8061  0.9597
 2781SOL     OW19975   4.642   1.110   6.356  0.3999  0.3791 -0.7006
 2781SOL    HW119976   4.648   1.159   6.438 -0.7241 -0.4784 -0.0976
 2781SOL    HW219977   4.649   1.021   6.392 -0.5541  1.3046  1.7958
 2782SOL     OW19978   3.018   0.576   7.064 -0.2664  0.3264 -0.6475
 2782SOL    HW119979   3.005   0.617   7.149 -0.7506 -1.9102  0.3474
 2782SOL    HW219980   2.933   0.586   7.020 -0.3136 -1.7505 -1.0290
 2783SOL     OW19981   0.100   3.919   8.372 -0.0429  0.2846 -0.2054
 2783SOL    HW119982   0.020   3.891   8.416  1.0321  0.8399  2.1162
 2783SOL    HW219983   0.132   3.829   8.372  0.4175  0.4565  2.4646
 2784SOL     OW19984   3.724   2.711   8.853  0.0214  0.3877  0.1374
 2784SOL    HW119985   3.707   2.755   8.936 -2.5284  2.0119 -1.2684
 2784SOL    HW219986   3.799   2.755   8.812  0.2593  1.3883  1.6522
 2785SOL     OW19987   2.152   0.485   7.747  0.2609  0.3419  0.1653
 2785SOL    HW119988   2.118   0.569   7.778  0.8608  1.0492 -1.0678
 2785SOL    HW219989   2.208   0.454   7.818 -0.6057 -0.9013  0.2945
 2786SOL     OW19990   4.214   4.145   2.140  0.0895  0.1523  0.5602
 2786SOL    HW119991   4.170   4.207   2.083 -0.3136  0.0904  0.8046
 2786SOL    HW219992   4.162   4.151   2.220 -1.0149  2.5587 -0.3678
 2787SOL     OW19993   0.604   3.699   6.548 -0.2355 -0.8894 -0.1919
 2787SOL    HW119994   0.637   3.626   6.497 -2.3097 -2.4286  0.6844
 2787SOL    HW219995   0.550   3.746   6.484 -1.3344  0.9599  2.0972
 2788SOL     OW19996   3.706   2.669   9.499 -0.5942 -0.0445  0.5087
 2788SOL    HW119997   3.784   2.696   9.450  0.2709 -2.6604  0.4492
 2788SOL    HW219998   3.655   2.676   9.419 -0.2459  0.5265  0.3327
 2789SOL     OW19999   4.654   3.491   6.701 -0.0651 -0.7012 -0.4836
 2789SOL    HW120000   4.598   3.561   6.734  0.6185 -0.8670  1.0299
 2789SOL    HW220001   4.581   3.430   6.691 -0.7171 -0.0261  0.0847
 2790SOL     OW20002   1.710   1.931  16.888 -0.0744  0.3295 -0.0852
 2790SOL    HW120003   1.740   2.005  16.835 -0.6321 -0.7035 -1.8538
 2790SOL    HW220004   1.657   1.878  16.828 -1.9873  2.3719 -0.2144
 2791SOL     OW20005   0.220   1.626   4.988  0.2537  0.1029  0.2361
 2791SOL    HW120006   0.287   1.602   5.053  0.1715 -1.4940 -0.2750
 2791SOL    HW220007   0.158   1.553   4.982  1.9392 -1.0918 -2.5001
 2792SOL     OW20008   3.738   1.664   3.488 -0.0375  0.4636 -0.2953
 2792SOL    HW120009   3.806   1.632   3.547 -0.7980  0.0315  0.3513
 2792SOL    HW220010   3.696   1.580   3.469 -1.0063  0.4704  1.7896
 2793SOL     OW20011   3.736   1.056   1.608 -0.5871 -0.2826 -0.0006
 2793SOL    HW120012   3.724   0.998   1.683 -0.6301  1.3269  1.2291
 2793SOL    HW220013   3.657   1.037   1.556  0.8135 -1.0087 -1.8388
 2794SOL     OW20014   3.939   3.375   4.939  0.3957  0.6506 -0.3886
 2794SOL    HW120015   3.867   3.332   4.893  0.5691  0.5865 -0.6033
 2794SOL    HW220016   3.889   3.446   4.980 -1.5795 -0.8915 -0.1428
 2795SOL     OW20017   1.605   4.676   6.923  0.2293 -0.1413  0.0592
 2795SOL    HW120018   1.578   0.001   6.855  0.4337 -0.0664  0.0479
 2795SOL    HW220019   1.589   4.601   6.866 -0.1621  0.4030 -0.5588
 2796SOL     OW20020   2.065   2.245   2.926  0.3141 -0.3233  0.3865
 2796SOL    HW120021   2.128   2.181   2.894  0.3923 -0.2687  0.4296
 2796SOL    HW220022   1.981   2.218   2.888  0.3325 -0.6100  0.5526
 2797SOL     OW20023   2.210   1.030   2.811 -0.1577 -0.2718  0.0424
 2797SOL    HW120024   2.209   1.125   2.816  1.0765 -0.1985 -0.9463
 2797SOL    HW220025   2.182   1.013   2.721 -1.6317  1.1299  0.2394
 2798SOL     OW20026   4.526   4.620   4.104 -0.5010  0.2926  0.5873
 2798SOL    HW120027   4.449   4.668   4.135  0.0081  0.5122  1.5130
 2798SOL    HW220028   4.481   4.536   4.094  1.3311 -0.3234 -2.3640
 2799SOL     OW20029   2.984   1.959  10.373  0.2372 -0.4797 -0.2973
 2799SOL    HW120030   2.999   1.945  10.466 -1.0216 -1.1115 -0.1990
 2799SOL    HW220031   3.033   1.882  10.342  0.4474  0.3551 -2.0503
 2800SOL     OW20032   2.550   1.270  15.283  0.5579 -0.3802  0.2949
 2800SOL    HW120033   2.485   1.323  15.237  0.8578 -0.1270  0.1670
 2800SOL    HW220034   2.609   1.247  15.212  1.0780 -0.0679  0.6299
 2801SOL     OW20035   2.206   2.603   3.832 -0.0461  0.2443  0.4733
 2801SOL    HW120036   2.130   2.652   3.799 -0.9439 -0.7135  1.0991
 2801SOL    HW220037   2.211   2.653   3.913 -0.0072  1.8209 -0.5028
 2802SOL     OW20038   4.430   3.658   6.221 -0.2361  0.3444 -0.2352
 2802SOL    HW120039   4.383   3.604   6.157 -0.5531 -0.0614  0.3337
 2802SOL    HW220040   4.359   3.688   6.277 -1.9019 -0.9967 -1.6252
 2803SOL     OW20041   0.867   4.279   5.935  0.0208 -0.0915 -0.1389
 2803SOL    HW120042   0.844   4.186   5.932 -0.0378 -0.0996  0.7062
 2803SOL    HW220043   0.912   4.285   5.851 -0.1709 -0.4418 -0.2684
 2804SOL     OW20044   0.825   1.035   8.371  0.1038  0.0062 -0.2782
 2804SOL    HW120045   0.912   1.016   8.407 -0.5884 -0.0021  1.3831
 2804SOL    HW220046   0.819   1.130   8.375  0.8502  0.0673 -0.6036
 2805SOL     OW20047   0.568   4.210  15.061  0.4737  0.2299  0.2666
 2805SOL    HW120048   0.571   4.295  15.105 -1.2898  0.0166  0.7950
 2805SOL    HW220049   0.589   4.153  15.135  0.9788 -1.1007 -0.9007
 2806SOL     OW20050   3.105   4.246  13.731  0.3473  0.0965  0.2667
 2806SOL    HW120051   3.050   4.172  13.708  0.4429  1.1517 -3.5323
 2806SOL    HW220052   3.055   4.282  13.804 -1.7688 -0.1911 -1.0519
 2807SOL     OW20053   0.110   2.160   2.516 -0.8855  0.4147 -0.0518
 2807SOL    HW120054   0.114   2.139   2.610  2.1861  1.5883  0.0949
 2807SOL    HW220055   0.174   2.094   2.489 -0.7615 -0.0104  1.2652
 2808SOL     OW20056   0.683   4.315   1.173 -0.2911 -0.1906 -0.5690
 2808SOL    HW120057   0.679   4.256   1.098  0.3401 -0.2732 -0.5377
 2808SOL    HW220058   0.667   4.255   1.245  0.4418  1.4858  0.9921
 2809SOL     OW20059   2.757   3.647   2.600 -0.1637  0.6198 -0.5825
 2809SOL    HW120060   2.790   3.680   2.516 -0.9948  1.0289 -0.7467
 2809SOL    HW220061   2.663   3.648   2.582  0.1104 -1.0400 -2.2023
 2810SOL     OW20062   4.197   3.574   6.941  0.0902  0.5812  0.2901
 2810SOL    HW120063   4.200   3.533   6.855 -1.0153 -0.4411  0.7360
 2810SOL    HW220064   4.273   3.631   6.930  1.2041 -0.5540  2.0960
 2811SOL     OW20065   0.041   1.472  12.378  0.8132 -0.0074  0.0567
 2811SOL    HW120066   0.048   1.429  12.293 -1.3891 -1.5211  0.6333
 2811SOL    HW220067   4.683   1.470  12.377  0.8156 -0.6616  0.5382
 2812SOL     OW20068   4.280   0.020   2.250  0.1342 -0.4715 -0.1614
 2812SOL    HW120069   4.279   4.684   2.190 -0.7889 -0.4700 -0.1402
 2812SOL    HW220070   4.369   0.008   2.283  0.3211  1.4884  0.0960
 2813SOL     OW20071   3.644   0.172   4.357  0.7115 -0.0514 -0.1038
 2813SOL    HW120072   3.737   0.167   4.377  0.7536 -1.1821 -0.5741
 2813SOL    HW220073   3.608   0.110   4.421  0.5262 -0.1251 -0.2794
 2814SOL     OW20074   1.918   0.016   8.169 -0.5810 -0.0208 -0.3927
 2814SOL    HW120075   1.973   0.093   8.159  0.7358 -0.7304  1.2416
 2814SOL    HW220076   1.929   0.006   8.264  2.7958 -0.5275 -0.8191
 2815SOL     OW20077   2.867   2.555   5.869  0.0559  0.1403 -0.4241
 2815SOL    HW120078   2.826   2.473   5.895  1.8812 -0.4756  0.5718
 2815SOL    HW220079   2.932   2.571   5.938  0.3945  1.4717 -1.0474
 2816SOL     OW20080   1.433   1.719   2.205  0.5071  0.0273  0.1807
 2816SOL    HW120081   1.444   1.672   2.123  2.2139  0.7476 -0.0002
 2816SOL    HW220082   1.340   1.717   2.227  0.3380 -4.3478 -0.9139
 2817SOL     OW20083   2.536   3.501   4.080 -0.0080  0.0802  0.1501
 2817SOL    HW120084   2.622   3.490   4.121 -0.7057  2.1782  2.2192
 2817SOL    HW220085   2.492   3.561   4.142  0.5947 -1.0763  1.6977
 2818SOL     OW20086   2.605   2.942   1.638  0.1518  0.2732  0.2251
 2818SOL    HW120087   2.640   3.025   1.670 -0.9500  0.9741 -0.3930
 2818SOL    HW220088   2.570   2.971   1.554  1.2813  4.3351  1.1754
 2819SOL     OW20089   3.488   2.607   5.690 -0.3045  0.4465 -0.3565
 2819SOL    HW120090   3.466   2.655   5.610 -0.2169 -0.8553 -1.1649
 2819SOL    HW220091   3.454   2.678   5.744  0.5976  1.4477 -1.1125
 2820SOL     OW20092   1.423   4.506   7.295  0.4097 -0.3358  0.2607
 2820SOL    HW120093   1.412   4.439   7.363 -5.3149 -0.6410 -0.9528
 2820SOL    HW220094   1.487   4.459   7.241  0.5170 -0.7320  0.7331
 2821SOL     OW20095   0.205   4.281  16.139  0.1602 -0.3626  0.2417
 2821SOL    HW120096   0.114   4.258  16.158  0.0854  1.1780  1.7052
 2821SOL    HW220097   0.188   4.279  16.045  0.2356 -2.4619  0.2721
 2822SOL     OW20098   0.377   4.646   4.042 -0.4704 -0.0493  0.1991
 2822SOL    HW120099   0.468   4.669   4.021 -0.9123  2.3717  0.8538
 2822SOL    HW220100   0.372   4.554   4.066  0.7080 -0.1531  0.0729
 2823SOL     OW20101   4.433   2.326   6.447  0.1737 -0.2212  0.9823
 2823SOL    HW120102   4.490   2.387   6.495  0.5350  1.2543 -1.2828
 2823SOL    HW220103   4.486   2.247   6.455  1.2206  0.1888 -1.7254
 2824SOL     OW20104   1.714   2.154   6.364  0.1003 -0.2353  0.2540
 2824SOL    HW120105   1.681   2.072   6.327 -2.3173  1.1290 -0.6052
 2824SOL    HW220106   1.667   2.154   6.447 -2.0501 -1.5479 -0.9493
 2825SOL     OW20107   4.003   3.596   8.857 -0.0756  0.4954 -0.0778
 2825SOL    HW120108   4.095   3.594   8.831 -0.1375 -0.1200 -0.2624
 2825SOL    HW220109   3.999   3.654   8.933  1.1678 -0.5132  0.7587
 2826SOL     OW20110   0.141   1.009   5.154 -0.0707 -0.1266  0.5283
 2826SOL    HW120111   0.117   0.916   5.156  0.8113 -0.3335  1.3550
 2826SOL    HW220112   0.170   1.020   5.245 -0.7353  0.3640  0.6749
 2827SOL     OW20113   2.800   2.941   1.936 -0.0307  0.2818 -0.0162
 2827SOL    HW120114   2.787   3.012   1.998 -0.1503 -1.6443  2.1526
 2827SOL    HW220115   2.752   2.872   1.981  1.3135 -0.1481  0.7423
 2828SOL     OW20116   0.988   2.871   3.674 -0.6376  0.4019  0.1693
 2828SOL    HW120117   0.954   2.932   3.740 -1.3433 -0.8102  0.9198
 2828SOL    HW220118   0.930   2.882   3.598  0.0155  0.8239 -0.2656
 2829SOL     OW20119   1.093   1.591   9.187  0.0813  0.3033  0.1828
 2829SOL    HW120120   1.186   1.585   9.165  0.0676 -0.9959  0.4854
 2829SOL    HW220121   1.065   1.626   9.102 -0.3191 -0.9468 -0.1893
 2830SOL     OW20122   1.324   4.653   6.311  0.2986  0.1758 -0.3183
 2830SOL    HW120123   1.247   4.597   6.302  1.5396 -1.7011  0.6235
 2830SOL    HW220124   1.366   4.618   6.390  0.2624 -1.1142 -0.8669
 2831SOL     OW20125   0.501   1.868   9.175  0.0320 -0.5830  0.0595
 2831SOL    HW120126   0.456   1.881   9.258 -2.0225 -2.0841 -0.8171
 2831SOL    HW220127   0.448   1.919   9.113  2.2237  1.2024 -0.3690
 2832SOL     OW20128   0.356   2.921  12.314  0.2598 -0.1548  0.1041
 2832SOL    HW120129   0.263   2.901  12.323  0.5517 -1.5781 -0.1190
 2832SOL    HW220130   0.339   3.014  12.300  1.0022 -0.1196 -0.5640
 2833SOL     OW20131   4.663   0.814   5.780 -0.3970  0.2116  0.0245
 2833SOL    HW120132   4.646   0.907   5.789  0.8677  0.7514 -3.3713
 2833SOL    HW220133   0.012   0.816   5.818  0.1316 -1.9169 -1.0686
 2834SOL     OW20134   0.313   2.835   7.149  0.2320  0.2377  0.3173
 2834SOL    HW120135   0.386   2.773   7.153 -0.9173 -1.0349  1.7247
 2834SOL    HW220136   0.320   2.879   7.234  0.7316  1.8998 -0.5920
 2835SOL     OW20137   3.405   0.254   4.654 -0.5074 -0.3007  0.1892
 2835SOL    HW120138   3.465   0.263   4.728 -0.4618 -1.2649  0.2632
 2835SOL    HW220139   3.444   0.312   4.589  2.5407 -1.6513  0.8256
 2836SOL     OW20140   1.437   1.029  10.885  0.3654 -0.3010  0.0603
 2836SOL    HW120141   1.531   1.043  10.893  0.0123  1.3840  1.0852
 2836SOL    HW220142   1.411   1.089  10.954 -2.2101 -0.1496 -1.0264
 2837SOL     OW20143   2.195   4.685   6.074  0.1455  0.5052  0.1182
 2837SOL    HW120144   2.257   0.019   6.083 -0.9875  1.6054 -0.7769
 2837SOL    HW220145   2.127   4.718   6.015  0.2639 -0.2264 -0.4366
 2838SOL     OW20146   1.895   0.676   1.925  0.3152 -0.5803 -0.0168
 2838SOL    HW120147   1.836   0.687   1.999  0.2049 -0.4072 -0.1277
 2838SOL    HW220148   1.833   0.695   1.854  2.7241  0.4885 -1.8460
 2839SOL     OW20149   0.876   1.690   9.366 -0.0990 -0.8082  0.8155
 2839SOL    HW120150   0.830   1.724   9.289  0.5499 -2.5121 -0.3047
 2839SOL    HW220151   0.945   1.645   9.318 -0.0988  1.4818 -1.3565
 2840SOL     OW20152   1.060   2.486   4.543  0.5347  0.5453 -0.4754
 2840SOL    HW120153   1.097   2.402   4.515  1.1575  0.3279  0.9735
 2840SOL    HW220154   1.123   2.539   4.494 -0.1547  0.8583 -1.0228
 2841SOL     OW20155   3.804   4.060   9.648 -0.0380 -0.1829 -0.1118
 2841SOL    HW120156   3.774   3.986   9.701  0.4520  0.4322  1.0206
 2841SOL    HW220157   3.891   4.081   9.682  0.1055  2.5383 -2.1417
 2842SOL     OW20158   4.548   0.630  15.034  0.1774 -0.7136 -0.0453
 2842SOL    HW120159   4.581   0.544  15.010  0.8207 -1.0014  1.8564
 2842SOL    HW220160   4.599   0.690  14.979 -0.1181 -0.8464 -0.4680
 2843SOL     OW20161   1.917   2.754   1.009 -0.1509 -0.0711 -0.5337
 2843SOL    HW120162   1.847   2.807   0.972 -0.9945  1.5860  3.5192
 2843SOL    HW220163   1.997   2.797   0.981 -0.4292 -0.4396 -1.8992
 2844SOL     OW20164   2.130   4.275   9.438 -0.2098 -0.2469 -0.7758
 2844SOL    HW120165   2.163   4.205   9.382 -1.8380 -0.6592 -1.2263
 2844SOL    HW220166   2.179   4.345   9.395 -0.6687 -0.4519 -1.6402
 2845SOL     OW20167   1.866   0.341   2.146 -0.3791 -0.4300  0.5481
 2845SOL    HW120168   1.825   0.398   2.212 -1.5528 -1.6287  0.8585
 2845SOL    HW220169   1.894   0.269   2.202  0.0547 -0.7634 -0.1080
 2846SOL     OW20170   3.954   3.690   6.935  0.0821  0.1337 -0.2330
 2846SOL    HW120171   4.042   3.656   6.948  0.4157  0.5703 -1.3744
 2846SOL    HW220172   3.921   3.656   7.018  0.1136  1.3459  0.2822
 2847SOL     OW20173   2.240   2.334   4.016 -0.2388  0.0877 -0.3055
 2847SOL    HW120174   2.318   2.302   4.061 -0.5532 -2.3652 -1.5403
 2847SOL    HW220175   2.282   2.391   3.951  0.3247  0.1269  0.0979
 2848SOL     OW20176   1.616   1.996   8.883 -0.3989  0.1152  0.3900
 2848SOL    HW120177   1.596   1.980   8.976  0.2061  0.2377  0.5376
 2848SOL    HW220178   1.596   1.907   8.853 -0.5302  0.3699 -0.2683
 2849SOL     OW20179   4.100   0.441   4.307  0.2440  0.3192  0.1002
 2849SOL    HW120180   4.049   0.520   4.320 -0.4338 -0.6049  2.9957
 2849SOL    HW220181   4.034   0.371   4.310  0.4801  0.1045  0.3432
 2850SOL     OW20182   0.603   0.222   1.826  0.1502  0.7922 -0.0701
 2850SOL    HW120183   0.541   0.155   1.794  2.7313 -1.5362 -0.2176
 2850SOL    HW220184   0.569   0.245   1.912  0.3328 -0.7150  0.4162
 2851SOL     OW20185   0.424   0.472  12.370  0.2308  0.8245  0.5298
 2851SOL    HW120186   0.452   0.506  12.284 -0.9655 -0.7868 -0.4980
 2851SOL    HW220187   0.485   0.520  12.426  3.1326 -0.9865 -1.0651
 2852SOL     OW20188   3.423   1.339  10.659 -0.0466 -0.3578  0.0720
 2852SOL    HW120189   3.362   1.276  10.621 -1.5569  0.7057  0.7059
 2852SOL    HW220190   3.403   1.321  10.751 -2.7887  0.3107 -0.3737
 2853SOL     OW20191   0.796   3.166   3.670  0.0373 -0.4067 -0.9726
 2853SOL    HW120192   0.860   3.188   3.738  1.2319 -2.2695 -1.5042
 2853SOL    HW220193   0.711   3.202   3.696 -1.4787 -3.4753 -1.6993
 2854SOL     OW20194   2.793   3.248  10.319  0.2474  0.2746  0.3990
 2854SOL    HW120195   2.875   3.293  10.339 -0.8689  1.5779  2.0214
 2854SOL    HW220196   2.784   3.195  10.398 -2.3993  0.3620  0.1766
 2855SOL     OW20197   3.936   1.938   4.221 -0.4687  0.1689  0.0906
 2855SOL    HW120198   3.996   2.004   4.186  1.5913 -1.5161  0.4658
 2855SOL    HW220199   3.997   1.893   4.278  0.5378  1.0854 -0.2746
 2856SOL     OW20200   3.347   4.460   4.155  0.4246 -0.2644 -0.5412
 2856SOL    HW120201   3.268   4.480   4.104 -2.6384 -1.4056  3.7244
 2856SOL    HW220202   3.356   4.540   4.207  0.9417 -1.2004  0.8147
 2857SOL     OW20203   1.483   1.310   9.254 -0.5524  0.1828 -0.1360
 2857SOL    HW120204   1.562   1.358   9.228 -0.8209 -0.4090 -2.0712
 2857SOL    HW220205   1.430   1.388   9.273 -1.4688 -0.9136  1.8193
 2858SOL     OW20206   0.877   2.981   6.600 -0.3639 -0.3294  0.6943
 2858SOL    HW120207   0.873   3.073   6.627  0.4773 -0.8745  2.6474
 2858SOL    HW220208   0.923   2.946   6.676 -0.6885 -0.3653  0.8759
 2859SOL     OW20209   2.839   1.081  10.937  0.4245  0.3637  0.3242
 2859SOL    HW120210   2.833   1.129  11.020  0.1419 -0.4988  0.8046
 2859SOL    HW220211   2.920   1.108  10.894  0.5324  1.0802  0.9689
 2860SOL     OW20212   1.845   3.509   2.765  0.1077 -0.2825 -0.5819
 2860SOL    HW120213   1.853   3.551   2.851 -2.6378  0.1131 -0.5237
 2860SOL    HW220214   1.938   3.500   2.744 -0.2273 -0.8435 -1.8402
 2861SOL     OW20215   1.599   3.872   8.048  0.0713  0.5030 -0.1263
 2861SOL    HW120216   1.596   3.854   7.954 -0.1030  1.7944 -0.3686
 2861SOL    HW220217   1.670   3.817   8.083 -0.6773 -1.8021 -2.2071
 2862SOL     OW20218   3.094   3.020   7.313 -0.0697 -0.5784  0.2709
 2862SOL    HW120219   3.125   3.003   7.224 -0.3469 -0.0457  0.0714
 2862SOL    HW220220   3.160   3.088   7.328 -0.8651  0.1059  0.6504
 2863SOL     OW20221   2.484   1.025   8.564  0.0712 -0.1104  0.6448
 2863SOL    HW120222   2.451   1.001   8.477 -1.9660 -0.8534  1.6043
 2863SOL    HW220223   2.475   0.944   8.615  0.1699 -0.5322 -0.0087
 2864SOL     OW20224   2.650   4.253   8.946  0.6335  0.6039  0.0753
 2864SOL    HW120225   2.677   4.265   8.855 -1.1753  0.5007 -0.4776
 2864SOL    HW220226   2.674   4.341   8.974 -0.7336  0.8397  0.5141
 2865SOL     OW20227   0.434   1.068   0.720 -0.0743 -0.1387 -0.3594
 2865SOL    HW120228   0.440   1.155   0.682 -0.7152 -0.3197 -0.8718
 2865SOL    HW220229   0.339   1.069   0.731  0.3879  0.0733  3.7179
 2866SOL     OW20230   0.541   2.881  17.099 -0.2345 -0.2726  0.1386
 2866SOL    HW120231   0.524   2.829  17.021 -1.6200  0.3227  0.0454
 2866SOL    HW220232   0.552   2.970  17.065  0.8092  0.1647  1.5861
 2867SOL     OW20233   3.384   1.100   3.247 -0.3110  0.0057 -0.3497
 2867SOL    HW120234   3.410   1.034   3.184  2.7807  2.2912 -1.4750
 2867SOL    HW220235   3.396   1.058   3.332  0.5941  0.1221 -0.4230
 2868SOL     OW20236   4.434   1.280   2.875 -0.5389 -0.3322 -0.4399
 2868SOL    HW120237   4.339   1.279   2.863 -0.5032 -1.6611 -0.6873
 2868SOL    HW220238   4.473   1.221   2.811 -1.9016 -0.5908 -1.0346
 2869SOL     OW20239   1.014   3.929  14.955  0.8897  0.4305 -0.3522
 2869SOL    HW120240   0.971   3.933  14.869 -1.5523 -3.5365  0.6719
 2869SOL    HW220241   0.941   3.943  15.015  0.1920 -0.9798 -0.8680
 2870SOL     OW20242   0.964   3.326   6.929  0.0222 -0.4830  0.8525
 2870SOL    HW120243   0.915   3.396   6.971 -1.4952  0.5404 -2.7230
 2870SOL    HW220244   0.989   3.279   7.009  3.0119 -0.4719 -0.0776
 2871SOL     OW20245   3.181   1.967   7.522 -0.2223  0.5348  0.0919
 2871SOL    HW120246   3.180   2.061   7.506  2.1493  0.5873  0.3446
 2871SOL    HW220247   3.275   1.949   7.523 -0.6244 -1.6111 -0.4395
 2872SOL     OW20248   3.636   1.546   5.044 -0.3628 -0.4126 -0.1626
 2872SOL    HW120249   3.607   1.566   5.133 -0.1389 -1.0086  0.0461
 2872SOL    HW220250   3.580   1.470   5.027 -0.6394 -0.5663  1.4441
 2873SOL     OW20251   2.262   0.298  15.070 -0.6949  0.2372  0.6507
 2873SOL    HW120252   2.329   0.286  15.003  0.5972  1.4118  1.7470
 2873SOL    HW220253   2.281   0.222  15.125 -0.1458 -1.0082 -1.2142
 2874SOL     OW20254   2.135   0.876   7.276  0.3396  0.1511 -0.3592
 2874SOL    HW120255   2.109   0.784   7.282  0.2484  0.1787 -0.3318
 2874SOL    HW220256   2.158   0.895   7.367  1.6986 -2.6740 -0.0944
 2875SOL     OW20257   3.889   1.730   7.758 -0.3984  0.0918 -0.7543
 2875SOL    HW120258   3.892   1.732   7.853  0.0976  0.6595 -0.7835
 2875SOL    HW220259   3.933   1.648   7.734 -0.7761 -0.0168 -1.0702
 2876SOL     OW20260   1.633   3.011   8.398  0.1144  0.4519  0.4750
 2876SOL    HW120261   1.592   3.056   8.324 -0.8530  0.8609  1.2511
 2876SOL    HW220262   1.557   2.990   8.454  1.0476 -2.2775  0.7428
 2877SOL     OW20263   1.406   0.793   4.971 -0.5615 -0.5360  0.2789
 2877SOL    HW120264   1.497   0.823   4.979  0.1385 -2.5778 -0.2043
 2877SOL    HW220265   1.411   0.809   4.877 -0.0655 -2.1939  0.0158
 2878SOL     OW20266   3.584   3.361  17.513 -0.0157 -0.2660 -1.1622
 2878SOL    HW120267   3.650   3.399  17.455  2.4092 -2.2071  0.3332
 2878SOL    HW220268   3.644   3.319  17.576 -0.3882 -1.6155 -1.7082
 2879SOL     OW20269   3.613   4.456  17.263  0.4571  0.0956  0.3927
 2879SOL    HW120270   3.625   4.548  17.239 -0.4736 -0.3663 -1.8671
 2879SOL    HW220271   3.519   4.466  17.280  0.3386  0.6894 -0.5809
 2880SOL     OW20272   4.267   1.232  11.902 -0.0602 -0.5117  0.9907
 2880SOL    HW120273   4.334   1.228  11.834 -0.3849 -0.0416  0.6479
 2880SOL    HW220274   4.200   1.273  11.848  1.0136 -0.5676 -0.3764
 2881SOL     OW20275   4.556   2.478   2.830  0.1437  0.1953 -0.5097
 2881SOL    HW120276   4.614   2.416   2.874 -0.2634  1.5698  1.9527
 2881SOL    HW220277   4.585   2.482   2.739 -1.8558  0.7115 -1.1197
 2882SOL     OW20278   0.877   0.445   2.776 -0.6222 -0.2658 -0.3138
 2882SOL    HW120279   0.798   0.422   2.729 -0.8143  1.5551 -0.8406
 2882SOL    HW220280   0.944   0.407   2.719  0.4648  0.1832  0.6593
 2883SOL     OW20281   0.356   3.390  10.578  0.4211  0.7211  0.2985
 2883SOL    HW120282   0.334   3.298  10.589 -0.2308  0.7136 -1.1378
 2883SOL    HW220283   0.342   3.417  10.669  0.3538  1.8219 -0.0290
 2884SOL     OW20284   0.763   1.190   5.357  0.0772  0.1468  0.6885
 2884SOL    HW120285   0.833   1.240   5.313 -0.7909 -0.2139 -1.1011
 2884SOL    HW220286   0.765   1.109   5.306 -0.7385 -0.7178  2.0592
 2885SOL     OW20287   3.504   0.437   8.881 -0.5460 -0.1898  0.5827
 2885SOL    HW120288   3.580   0.385   8.909 -0.2336 -0.2355 -0.3590
 2885SOL    HW220289   3.542   0.525   8.891  0.5301 -0.8292  2.2224
 2886SOL     OW20290   3.739   4.478   6.491 -0.1026 -0.3701  0.9876
 2886SOL    HW120291   3.777   4.391   6.490 -1.1711 -0.8271  0.3125
 2886SOL    HW220292   3.715   4.491   6.583  1.3019  0.1113  1.2873
 2887SOL     OW20293   0.414   3.843  11.487  0.1706  0.7073 -0.0475
 2887SOL    HW120294   0.497   3.794  11.488  0.7462  1.6791 -0.4826
 2887SOL    HW220295   0.408   3.866  11.579 -0.7419  0.2414  0.0089
 2888SOL     OW20296   0.561   3.096   5.404  0.1346 -0.2920 -0.2293
 2888SOL    HW120297   0.510   3.088   5.324 -1.4454 -1.9700  0.9338
 2888SOL    HW220298   0.632   3.033   5.387  1.5705  1.4881 -0.7410
 2889SOL     OW20299   2.679   0.125   0.763  0.1596  0.5194 -0.4638
 2889SOL    HW120300   2.639   0.181   0.829  0.9083 -0.9829  1.2914
 2889SOL    HW220301   2.645   0.038   0.786  0.1488  0.1341 -1.9163
 2890SOL     OW20302   1.076   2.006   6.336  0.1027  0.8590  0.4570
 2890SOL    HW120303   1.041   1.958   6.260 -0.4255  1.0707  0.5687
 2890SOL    HW220304   1.156   2.044   6.299 -0.5434  0.6913 -1.1247
 2891SOL     OW20305   1.282   2.307   7.815 -0.2224 -0.5857 -0.1613
 2891SOL    HW120306   1.335   2.230   7.796  1.0598  0.4703 -0.8497
 2891SOL    HW220307   1.346   2.371   7.848 -0.0869 -0.5685 -0.4612
 2892SOL     OW20308   2.577   2.552  17.422 -0.2632  0.8344  0.2396
 2892SOL    HW120309   2.591   2.604  17.343 -0.6329  1.5874  0.6617
 2892SOL    HW220310   2.599   2.461  17.401 -1.3494  0.3517  1.2422
 2893SOL     OW20311   3.561   1.168   7.499  0.2483  0.4127  0.0576
 2893SOL    HW120312   3.586   1.215   7.419 -0.3283  0.8648  0.1383
 2893SOL    HW220313   3.531   1.093   7.449  0.2352 -0.1606  0.9224
 2894SOL     OW20314   4.373   2.511   3.790 -0.2792 -0.1357  0.2145
 2894SOL    HW120315   4.322   2.581   3.830  0.2178  0.6603 -0.5324
 2894SOL    HW220316   4.322   2.493   3.711  0.6624 -1.6558 -0.0463
 2895SOL     OW20317   3.700   2.551  12.900  0.4955  0.6976 -0.7683
 2895SOL    HW120318   3.773   2.494  12.878  1.4632  0.1232  4.0184
 2895SOL    HW220319   3.722   2.587  12.986 -0.3210 -0.3937 -0.1106
 2896SOL     OW20320   0.895   3.239   6.675  0.1963 -0.1718 -0.4404
 2896SOL    HW120321   0.937   3.321   6.651  2.3935 -1.2023 -0.1569
 2896SOL    HW220322   0.886   3.240   6.770  0.8663  1.0469 -0.3858
 2897SOL     OW20323   1.211   1.606   7.670 -0.4126 -0.5986 -0.2088
 2897SOL    HW120324   1.138   1.575   7.723  1.0476  1.1232  2.7659
 2897SOL    HW220325   1.273   1.534   7.673  1.1255  0.7460  0.1848
 2898SOL     OW20326   4.412   1.256  15.969 -0.4956 -0.4884  0.6282
 2898SOL    HW120327   4.410   1.160  15.975 -2.2700 -0.4898 -0.1749
 2898SOL    HW220328   4.441   1.272  16.059 -0.1917  1.6254  0.1537
 2899SOL     OW20329   1.126   4.585   3.915 -0.1825 -0.6634  0.4528
 2899SOL    HW120330   1.216   4.616   3.928  1.0844 -4.0179 -0.3023
 2899SOL    HW220331   1.105   4.547   4.000 -2.0361  1.6662  1.0480
 2900SOL     OW20332   0.656   2.709  12.094  0.4983  0.0135 -0.1083
 2900SOL    HW120333   0.725   2.642  12.084  2.5983  2.2222 -0.5317
 2900SOL    HW220334   0.628   2.720  12.003  1.1096 -0.2500 -0.3310
 2901SOL     OW20335   3.477   1.093   5.502  0.5688 -0.1959 -0.0474
 2901SOL    HW120336   3.402   1.034   5.509 -1.1019  1.7223 -1.6596
 2901SOL    HW220337   3.483   1.106   5.596 -1.0644 -0.7939  0.1428
 2902SOL     OW20338   3.896   3.575   5.846 -0.2159 -0.1120 -0.2318
 2902SOL    HW120339   3.818   3.529   5.813  0.2759 -0.8462 -0.3576
 2902SOL    HW220340   3.870   3.583   5.938 -0.5640  3.0911 -0.6251
 2903SOL     OW20341   3.638   4.467  10.450  0.3906 -0.4140 -0.1831
 2903SOL    HW120342   3.685   4.389  10.479  1.4417  0.6831  1.1085
 2903SOL    HW220343   3.593   4.437  10.372 -2.3840 -2.5699  2.2570
 2904SOL     OW20344   1.990   2.981   6.892  0.0507  0.3044  0.0464
 2904SOL    HW120345   1.896   2.995   6.884 -0.2624 -1.5498  0.6380
 2904SOL    HW220346   1.998   2.969   6.986  0.9928 -0.1611 -0.0936
 2905SOL     OW20347   2.726   0.114   4.027 -1.0166 -0.6762  0.2498
 2905SOL    HW120348   2.644   0.110   3.978 -1.2797 -0.6318  0.6887
 2905SOL    HW220349   2.693   0.123   4.117 -2.3063  0.4097 -0.3306
 2906SOL     OW20350   4.371   2.193   5.665  0.5280  0.6625 -0.1287
 2906SOL    HW120351   4.371   2.208   5.571  0.8956 -1.6365 -0.5158
 2906SOL    HW220352   4.448   2.136   5.664  0.6810  0.7971  2.9073
 2907SOL     OW20353   2.763   0.724   3.984 -0.2041  0.0463  0.5683
 2907SOL    HW120354   2.792   0.642   4.024 -1.2000 -0.3589  0.4635
 2907SOL    HW220355   2.677   0.731   4.027 -0.1314 -2.1998  1.0838
 2908SOL     OW20356   2.394   2.531   8.664  0.1542 -0.5550 -0.1893
 2908SOL    HW120357   2.331   2.581   8.717 -2.6019 -2.5955 -1.5333
 2908SOL    HW220358   2.328   2.481   8.616 -0.2880 -0.5902  0.4485
 2909SOL     OW20359   2.312   3.272   7.489 -0.0105  0.1451  0.0912
 2909SOL    HW120360   2.385   3.226   7.448 -0.5062 -2.3531  1.9478
 2909SOL    HW220361   2.247   3.202   7.497  0.3300 -0.2221 -0.3652
 2910SOL     OW20362   2.441   3.501  15.402 -0.2890 -0.0883 -0.1474
 2910SOL    HW120363   2.364   3.479  15.350 -0.6695 -0.6219  0.6466
 2910SOL    HW220364   2.510   3.501  15.336  0.9561  0.5579  1.1739
 2911SOL     OW20365   4.455   1.871   9.034  0.2892  0.0572  0.1587
 2911SOL    HW120366   4.422   1.909   8.952 -1.8905  1.3571  1.6321
 2911SOL    HW220367   4.486   1.785   9.005 -0.6037  0.2529 -1.3923
 2912SOL     OW20368   1.081   1.771   3.325 -0.4551  0.1785  0.0352
 2912SOL    HW120369   1.053   1.862   3.316  2.0827  0.8092 -1.5085
 2912SOL    HW220370   1.060   1.754   3.417  1.4383  0.0360  0.4440
 2913SOL     OW20371   4.570   3.822  14.581 -0.1325 -0.5087  0.2773
 2913SOL    HW120372   4.655   3.862  14.564 -0.3473 -0.1937 -0.0224
 2913SOL    HW220373   4.533   3.805  14.495  0.5797 -1.4269  0.1453
 2914SOL     OW20374   0.734   2.280  12.045  0.1023  0.3068  0.6699
 2914SOL    HW120375   0.725   2.371  12.075 -0.4916  0.6279 -0.4570
 2914SOL    HW220376   0.827   2.260  12.047  0.8485  3.6410  0.2129
 2915SOL     OW20377   0.170   1.862   5.465 -0.0047 -0.8766  0.2472
 2915SOL    HW120378   0.240   1.807   5.428 -0.7693  0.7428 -3.6960
 2915SOL    HW220379   0.151   1.921   5.392 -1.4957 -1.0436  0.5170
 2916SOL     OW20380   2.121   4.564  12.517  0.4393 -0.7236 -0.5853
 2916SOL    HW120381   2.210   4.577  12.549 -0.7210 -1.1240  2.8132
 2916SOL    HW220382   2.116   4.635  12.453  1.1117 -0.2535 -0.1199
 2917SOL     OW20383   2.592   1.505   2.828  0.4554  0.0271  0.1035
 2917SOL    HW120384   2.656   1.566   2.792  0.7123 -1.0986 -1.3607
 2917SOL    HW220385   2.628   1.426   2.788  0.8458 -0.3341  1.1805
 2918SOL     OW20386   4.465   4.406   4.943  0.0273  0.7606 -0.1675
 2918SOL    HW120387   4.524   4.376   4.874  2.8835  2.3191  1.5567
 2918SOL    HW220388   4.506   4.489   4.967 -1.3174  2.0030 -2.1120
 2919SOL     OW20389   2.761   2.307   6.234 -0.5023 -0.4982 -0.2245
 2919SOL    HW120390   2.771   2.373   6.303  0.5832 -1.1295  0.2190
 2919SOL    HW220391   2.730   2.357   6.159 -2.0771  0.2473  0.9087
 2920SOL     OW20392   0.465   3.370  13.266 -0.1433 -0.5695 -0.6564
 2920SOL    HW120393   0.521   3.386  13.190 -0.7628  1.2041 -0.7519
 2920SOL    HW220394   0.374   3.379  13.239 -0.4062 -0.9084  0.1060
 2921SOL     OW20395   4.303   2.497   2.982  0.4663 -1.1622 -0.0699
 2921SOL    HW120396   4.255   2.570   2.942  0.0560 -0.8088  1.0407
 2921SOL    HW220397   4.378   2.497   2.923 -0.0430 -3.2631 -0.6987
 2922SOL     OW20398   3.829   2.280  12.890  0.1692 -0.3397  0.4082
 2922SOL    HW120399   3.839   2.274  12.795 -0.6546 -0.5441  0.3403
 2922SOL    HW220400   3.744   2.236  12.892 -0.3389  0.6523  0.9829
 2923SOL     OW20401   2.063   0.474  14.989  0.3090 -0.1843  0.7846
 2923SOL    HW120402   2.114   0.399  15.020  0.5048 -0.8597 -1.2165
 2923SOL    HW220403   2.110   0.497  14.909 -0.2147  1.1145  0.8503
 2924SOL     OW20404   1.302   1.687   7.360  0.3385 -0.2844  0.0666
 2924SOL    HW120405   1.277   1.599   7.333 -0.9570 -0.0327  0.4357
 2924SOL    HW220406   1.223   1.718   7.407 -0.3642  0.7238 -1.7747
 2925SOL     OW20407   0.997   0.377  16.775 -0.0593 -0.2896 -0.0339
 2925SOL    HW120408   1.003   0.385  16.680  0.7910  0.3330  0.0732
 2925SOL    HW220409   0.903   0.381  16.793  0.2016 -0.0385  1.2623
 2926SOL     OW20410   1.315   1.371   7.133 -0.2140 -0.6770 -0.3111
 2926SOL    HW120411   1.316   1.449   7.077 -0.7161  0.0556  0.6930
 2926SOL    HW220412   1.252   1.327   7.076 -0.5695 -1.0030  0.3298
 2927SOL     OW20413   3.202   1.090   1.925  0.7013  0.3539  0.9536
 2927SOL    HW120414   3.182   1.148   1.851  0.9943  2.0075  2.1665
 2927SOL    HW220415   3.276   1.034   1.901 -0.7134  0.0071 -2.5484
 2928SOL     OW20416   0.592   4.679  14.559 -0.4820  0.1050 -0.9185
 2928SOL    HW120417   0.596   4.647  14.649  2.7627  1.6359 -0.5314
 2928SOL    HW220418   0.635   4.608  14.513  1.5690  1.1098 -0.5344
 2929SOL     OW20419   1.036   1.812   7.990 -0.3866  0.1001 -0.7388
 2929SOL    HW120420   0.954   1.766   7.973 -0.4872 -0.3507  1.0039
 2929SOL    HW220421   1.022   1.888   7.933 -0.9261  0.0062 -0.7288
 2930SOL     OW20422   1.468   2.654   3.205 -0.4586 -0.0329  0.1113
 2930SOL    HW120423   1.383   2.645   3.247  0.0465 -2.2710  0.6483
 2930SOL    HW220424   1.508   2.570   3.227 -0.3281  0.0178  0.0679
 2931SOL     OW20425   1.712   1.841  10.424  0.1561 -0.0800  0.2787
 2931SOL    HW120426   1.648   1.845  10.353 -0.1120 -1.1458  0.4543
 2931SOL    HW220427   1.695   1.768  10.483  0.7292 -1.5137 -1.2875
 2932SOL     OW20428   3.474   0.055  15.938 -0.1972  0.1840 -0.0048
 2932SOL    HW120429   3.418   0.001  15.882  0.6405 -0.9294  0.2162
 2932SOL    HW220430   3.491   4.730  16.008  0.3470  0.2529 -0.0737
 2933SOL     OW20431   3.963   3.312   6.831  0.2576 -0.1505 -0.0912
 2933SOL    HW120432   3.878   3.282   6.799 -0.5559  1.1112  0.8733
 2933SOL    HW220433   4.020   3.267   6.770 -2.3612 -1.0634 -1.8818
 2934SOL     OW20434   3.366   3.825  16.313 -0.3646  0.0381  0.4082
 2934SOL    HW120435   3.370   3.846  16.220  1.3691 -0.8743  0.2758
 2934SOL    HW220436   3.316   3.902  16.342 -0.3234 -0.5106  1.9433
 2935SOL     OW20437   1.436   3.249   5.440  0.1203  0.4922 -0.1854
 2935SOL    HW120438   1.452   3.343   5.428  0.9597  0.1947 -1.4920
 2935SOL    HW220439   1.521   3.221   5.474 -1.1055  1.2583  3.4247
 2936SOL     OW20440   3.202   1.483   2.735  0.3037  1.1424  0.4437
 2936SOL    HW120441   3.165   1.570   2.748 -1.4589  0.6517 -1.2975
 2936SOL    HW220442   3.279   1.493   2.680  0.9987 -3.5051  0.5495
 2937SOL     OW20443   1.674   0.600   9.040 -0.4772  0.3092  0.8466
 2937SOL    HW120444   1.617   0.652   9.097 -0.7750 -0.0143  0.8416
 2937SOL    HW220445   1.728   0.670   9.003 -1.0834  0.7070  0.7084
 2938SOL     OW20446   4.418   1.346  15.699 -0.3187  0.2739 -0.0200
 2938SOL    HW120447   4.344   1.406  15.685  1.0402  1.5039 -1.8753
 2938SOL    HW220448   4.416   1.324  15.792  1.0264 -0.7474 -0.2270
 2939SOL     OW20449   0.094   2.416   8.765  0.4317  0.0310  0.1493
 2939SOL    HW120450   0.114   2.373   8.848 -0.9561 -0.0899  0.4182
 2939SOL    HW220451   4.737   2.428   8.773  0.7028  2.9245 -0.7133
 2940SOL     OW20452   4.081   1.460  15.038  0.0188 -0.0908 -0.1503
 2940SOL    HW120453   4.162   1.482  15.085 -0.2624 -0.5608  0.5404
 2940SOL    HW220454   4.059   1.549  15.008  1.7955 -0.2742 -1.9828
 2941SOL     OW20455   0.756   3.246   4.615 -0.5461  0.3328  0.0777
 2941SOL    HW120456   0.728   3.164   4.575 -2.2101  0.9845 -0.1166
 2941SOL    HW220457   0.749   3.296   4.534  0.5935  0.4590  0.0587
 2942SOL     OW20458   0.665   4.508  14.825 -0.1650  0.4631 -0.0192
 2942SOL    HW120459   0.755   4.499  14.794 -0.4703  0.8061 -1.0002
 2942SOL    HW220460   0.674   4.599  14.854  2.1613 -1.1648  4.3492
 2943SOL     OW20461   0.803   0.789  10.715 -0.3309 -0.0968 -0.1049
 2943SOL    HW120462   0.775   0.810  10.804 -1.5234 -1.0268 -0.2583
 2943SOL    HW220463   0.866   0.724  10.744 -1.4278 -1.9351 -1.9150
 2944SOL     OW20464   3.734   4.226  10.515  0.0785 -0.0449  0.0114
 2944SOL    HW120465   3.657   4.168  10.515  1.0010 -1.2720  1.7875
 2944SOL    HW220466   3.803   4.200  10.576 -0.6166  1.5995  1.5116
 2945SOL     OW20467   1.794   1.180   8.579  0.1616 -0.8110 -0.0021
 2945SOL    HW120468   1.817   1.270   8.555 -1.0912 -0.8706 -1.5020
 2945SOL    HW220469   1.701   1.173   8.557 -0.5109 -0.1748  2.6905
 2946SOL     OW20470   3.031   4.269   1.829 -0.5720  0.1770  0.3399
 2946SOL    HW120471   3.113   4.311   1.856 -0.1208 -2.2109  2.6809
 2946SOL    HW220472   3.027   4.285   1.735 -2.6102 -1.2531  0.1877
 2947SOL     OW20473   0.503   1.170  13.875 -0.5764  0.0085  0.4051
 2947SOL    HW120474   0.441   1.107  13.912  0.0751 -1.6248 -1.3028
 2947SOL    HW220475   0.575   1.113  13.850 -0.1232  0.8948 -0.2909
 2948SOL     OW20476   1.229   3.137   3.395  0.9376  0.2301  0.3434
 2948SOL    HW120477   1.264   3.070   3.454 -0.8978 -1.0014  0.0239
 2948SOL    HW220478   1.151   3.170   3.439  1.4982  1.1215  0.6784
 2949SOL     OW20479   1.093   2.764   2.673 -0.3555  0.7394 -0.8286
 2949SOL    HW120480   1.090   2.691   2.735  0.2326  1.2638 -0.1694
 2949SOL    HW220481   1.130   2.830   2.732  0.9192 -0.0222 -0.7780
 2950SOL     OW20482   1.486   1.920   7.150 -0.2134  0.1051 -0.5099
 2950SOL    HW120483   1.504   2.001   7.103  1.4279  0.0149 -0.0356
 2950SOL    HW220484   1.391   1.908   7.143 -0.0327 -1.7634  0.0409
 2951SOL     OW20485   1.961   0.028   3.463 -0.2385 -0.4248  0.4822
 2951SOL    HW120486   1.909   0.023   3.543 -0.6436 -1.5546  0.1521
 2951SOL    HW220487   1.893   0.048   3.399 -0.9687  0.0232  1.4204
 2952SOL     OW20488   2.399   3.204  10.957  0.1215  0.0389 -0.4596
 2952SOL    HW120489   2.417   3.228  11.048 -2.5355  0.8398 -0.1577
 2952SOL    HW220490   2.458   3.130  10.944 -0.3452 -0.2084 -1.1413
 2953SOL     OW20491   3.193   4.193   8.477 -0.2246 -0.2024  0.3489
 2953SOL    HW120492   3.232   4.120   8.525  1.3955 -0.5878 -1.5236
 2953SOL    HW220493   3.099   4.176   8.469 -0.1774  0.0995 -0.9575
 2954SOL     OW20494   0.723   2.966  11.946  0.1518 -0.6760 -0.1952
 2954SOL    HW120495   0.754   2.905  12.014 -1.0385  0.2830  1.1946
 2954SOL    HW220496   0.742   2.930  11.859  2.3102  0.4584 -0.2033
 2955SOL     OW20497   2.808   4.083   4.825  0.0593  0.4659 -0.9302
 2955SOL    HW120498   2.796   3.992   4.797 -0.9359  0.1425  0.5612
 2955SOL    HW220499   2.723   4.107   4.862  0.7391  0.7022  0.4685
 2956SOL     OW20500   3.559   3.701   6.111  0.1514  0.3124  0.0735
 2956SOL    HW120501   3.591   3.785   6.078 -1.3600  0.8171 -0.0886
 2956SOL    HW220502   3.502   3.681   6.037  1.1295  0.5864 -0.7616
 2957SOL     OW20503   1.205   2.751   6.991 -0.0106 -0.6957  0.1783
 2957SOL    HW120504   1.202   2.715   7.080 -0.5355 -1.1329 -0.0168
 2957SOL    HW220505   1.288   2.716   6.959  2.1633  3.6547  1.0445
 2958SOL     OW20506   2.982   3.437   5.455 -0.4393  0.0425  0.8855
 2958SOL    HW120507   2.975   3.414   5.548 -0.0493  1.3395  1.2478
 2958SOL    HW220508   2.888   3.445   5.440 -0.0955 -2.2361 -2.5305
 2959SOL     OW20509   3.448   4.613   5.731 -0.0992 -0.1893 -0.3019
 2959SOL    HW120510   3.404   4.547   5.678 -0.7937 -0.3891  0.5232
 2959SOL    HW220511   3.374   4.675   5.731 -1.8420 -2.2594 -0.5379
 2960SOL     OW20512   0.491   3.045  13.313  0.2061  0.1606  0.4269
 2960SOL    HW120513   0.514   2.985  13.384 -0.0556  1.6064  1.7313
 2960SOL    HW220514   0.398   3.048  13.334  0.3795 -0.4532  1.3077
 2961SOL     OW20515   0.161   1.116  13.985  0.2433  0.1998 -0.3619
 2961SOL    HW120516   0.112   1.104  13.903  0.4225 -0.7445 -0.3294
 2961SOL    HW220517   0.086   1.102  14.043 -1.3206 -1.2323 -2.7240
 2962SOL     OW20518   2.169   2.351   5.325 -0.4010  0.4530  0.0149
 2962SOL    HW120519   2.227   2.361   5.249  1.3196 -3.5767  0.7928
 2962SOL    HW220520   2.164   2.256   5.332 -1.0938  0.4454 -0.6286
 2963SOL     OW20521   4.468   3.952   6.557  0.0256  0.9230 -0.5279
 2963SOL    HW120522   4.454   4.025   6.497  2.5349  1.7621 -0.0880
 2963SOL    HW220523   4.541   3.978   6.612  0.0789 -0.9827  0.3088
 2964SOL     OW20524   0.316   0.264   6.898 -0.1728 -0.2933  0.4581
 2964SOL    HW120525   0.406   0.244   6.872 -0.3877 -0.5083 -0.1346
 2964SOL    HW220526   0.330   0.291   6.989  1.3613  1.2699 -0.2479
 2965SOL     OW20527   2.335   0.881   2.052 -0.0036  0.3997 -0.4038
 2965SOL    HW120528   2.334   0.890   1.957 -1.1611  1.8047 -0.2558
 2965SOL    HW220529   2.285   0.801   2.071 -0.8003  0.9940  0.0158
 2966SOL     OW20530   2.019   4.433   6.383 -0.0330  0.0413  0.3242
 2966SOL    HW120531   2.071   4.360   6.414 -0.0664 -0.1283 -0.0137
 2966SOL    HW220532   2.063   4.440   6.298 -3.1260  1.7468 -1.1186
 2967SOL     OW20533   2.855   4.174   6.501 -0.0735  0.3529  0.2586
 2967SOL    HW120534   2.856   4.185   6.596  0.7203  1.4221  0.1306
 2967SOL    HW220535   2.809   4.091   6.491  1.3854 -0.5275  0.9094
 2968SOL     OW20536   3.047   2.827   7.741  0.0397  0.4298 -0.4081
 2968SOL    HW120537   3.131   2.857   7.776  1.0333 -0.8197 -1.7485
 2968SOL    HW220538   3.008   2.798   7.824 -0.1548 -0.5723 -0.8542
 2969SOL     OW20539   0.065   2.251   6.080 -0.1404  0.1408  0.0145
 2969SOL    HW120540   0.047   2.338   6.116  1.3489  0.8617 -1.0328
 2969SOL    HW220541   4.726   2.238   6.024  0.2866  1.1865 -0.8118
 2970SOL     OW20542   4.454   3.499   0.688  0.4874  0.2031 -0.3355
 2970SOL    HW120543   4.521   3.436   0.664  1.0054  1.1111 -1.2465
 2970SOL    HW220544   4.437   3.553   0.611 -0.7637 -2.2694 -1.7817
 2971SOL     OW20545   1.256   2.623   9.800 -0.0179 -0.0216  0.5838
 2971SOL    HW120546   1.178   2.632   9.854 -1.3119  0.4682 -1.3618
 2971SOL    HW220547   1.320   2.675   9.848 -0.5867  1.0225  0.2178
 2972SOL     OW20548   2.263   1.014   0.092 -0.1789  0.4899 -0.2164
 2972SOL    HW120549   2.315   1.023   0.012 -0.5774 -1.8578 -0.7538
 2972SOL    HW220550   2.196   1.080   0.076 -1.8087 -0.6090  2.1548
 2973SOL     OW20551   3.977   1.741   6.109  0.4204  0.2014 -0.0548
 2973SOL    HW120552   3.913   1.706   6.170 -0.7297  0.7524 -0.9552
 2973SOL    HW220553   3.939   1.828   6.111  0.3576  0.1591  0.8604
 2974SOL     OW20554   2.249   1.027   7.094  0.2506  0.6418  0.4253
 2974SOL    HW120555   2.180   1.006   7.030  1.6698 -1.9983 -0.2208
 2974SOL    HW220556   2.209   1.012   7.180  1.4616 -0.0773  0.8693
 2975SOL     OW20557   2.667   2.817   1.250 -0.3480 -0.4691 -0.5577
 2975SOL    HW120558   2.664   2.853   1.161 -2.1629 -0.7800 -0.6320
 2975SOL    HW220559   2.576   2.833   1.274  0.4543  1.4680  1.1518
 2976SOL     OW20560   2.937   3.269   7.112  0.4705 -0.1242 -0.1240
 2976SOL    HW120561   2.927   3.331   7.184 -2.5100 -0.6094 -0.1102
 2976SOL    HW220562   2.902   3.185   7.143 -0.8452  1.3822  2.4753
 2977SOL     OW20563   1.679   3.179  11.986 -0.0692 -0.5625 -0.0168
 2977SOL    HW120564   1.660   3.100  12.037 -0.8558  1.4400  2.8421
 2977SOL    HW220565   1.722   3.164  11.902 -1.6662 -0.1840 -0.8808
 2978SOL     OW20566   1.771   2.528   6.115  0.4887 -0.4082  0.4561
 2978SOL    HW120567   1.790   2.465   6.184 -1.4163 -1.7110 -0.2032
 2978SOL    HW220568   1.840   2.594   6.124  0.4856  0.0145 -2.3303
 2979SOL     OW20569   2.552   4.235   7.786  0.0092 -0.4078 -0.0615
 2979SOL    HW120570   2.645   4.215   7.775 -0.2235  0.1608 -3.0561
 2979SOL    HW220571   2.545   4.264   7.877 -0.8852  0.7198 -0.4904
 2980SOL     OW20572   2.832   3.698  14.688 -0.3083  0.1365 -0.2943
 2980SOL    HW120573   2.853   3.605  14.684  1.8458  0.6163  0.0487
 2980SOL    HW220574   2.883   3.736  14.617 -0.9012  0.3030 -0.6321
 2981SOL     OW20575   4.516   0.418  13.013 -0.7400  0.6052 -0.1776
 2981SOL    HW120576   4.529   0.349  13.078 -0.8778  1.1315  0.4094
 2981SOL    HW220577   4.510   0.493  13.072  1.2326 -1.8146  3.0871
 2982SOL     OW20578   1.688   2.768   0.668 -0.3187  0.0747  0.2161
 2982SOL    HW120579   1.691   2.713   0.590 -0.5209  0.1070  0.1866
 2982SOL    HW220580   1.647   2.850   0.641  0.5730  0.5955  0.4561
 2983SOL     OW20581   0.716   0.937   2.247  0.1315 -0.4593 -0.1305
 2983SOL    HW120582   0.661   1.006   2.209 -0.8875 -0.8487  0.6185
 2983SOL    HW220583   0.766   0.989   2.310  1.2435 -2.1631  0.3940
 2984SOL     OW20584   3.669   0.561  13.517 -0.0875 -0.3391  0.7286
 2984SOL    HW120585   3.642   0.611  13.440 -1.1314 -1.2803  0.4857
 2984SOL    HW220586   3.662   0.620  13.592  0.1545  0.2501  0.2798
 2985SOL     OW20587   1.794   2.641   1.699 -0.6634 -0.3546 -0.6542
 2985SOL    HW120588   1.776   2.569   1.759 -0.1309  0.7789  0.8654
 2985SOL    HW220589   1.875   2.612   1.657  0.8491  1.1426  1.2647
 2986SOL     OW20590   3.210   1.132  11.710 -0.6865 -0.2411  0.3205
 2986SOL    HW120591   3.214   1.104  11.802 -2.6822 -0.2602  0.3973
 2986SOL    HW220592   3.203   1.051  11.661  0.0363  0.7364 -1.3795
 2987SOL     OW20593   3.706   0.851   1.838  0.6871 -0.0782 -0.3209
 2987SOL    HW120594   3.643   0.891   1.898  0.8284  0.2634 -0.3987
 2987SOL    HW220595   3.635   0.817   1.783 -2.1518  1.1791  2.5728
 2988SOL     OW20596   1.089   2.734   6.062 -0.2381 -0.3529  0.1868
 2988SOL    HW120597   1.094   2.824   6.094  3.0797 -0.8403  1.0051
 2988SOL    HW220598   1.176   2.727   6.023  0.0209 -2.3619  1.1471
 2989SOL     OW20599   2.740   0.945   2.378  1.3096 -0.2616 -0.8013
 2989SOL    HW120600   2.770   0.862   2.340 -1.5824 -1.3848 -0.6953
 2989SOL    HW220601   2.811   0.997   2.341 -0.2951  0.2049 -3.2623
 2990SOL     OW20602   2.576   2.979  10.954  0.5768 -0.6383 -0.5127
 2990SOL    HW120603   2.607   2.934  10.876  1.5636  1.7957 -1.5105
 2990SOL    HW220604   2.628   3.059  10.952 -1.1430  0.4462 -1.2624
 2991SOL     OW20605   1.611   0.796   3.115 -0.2592  0.8603  0.3772
 2991SOL    HW120606   1.583   0.863   3.051  1.9696 -0.0464 -1.5620
 2991SOL    HW220607   1.703   0.798   3.091  1.0154 -0.4929  5.2103
 2992SOL     OW20608   1.708   4.048   6.071 -0.2407 -0.2966  0.0044
 2992SOL    HW120609   1.724   4.116   6.005 -0.9380 -1.7553 -1.6580
 2992SOL    HW220610   1.733   3.969   6.023 -1.6768 -0.8032  0.0939
 2993SOL     OW20611   1.086   1.883   2.648  0.2218 -0.5080  0.1309
 2993SOL    HW120612   1.115   1.810   2.594  1.2304 -0.7150  0.9400
 2993SOL    HW220613   0.992   1.881   2.630  0.2408  1.3008 -0.1771
 2994SOL     OW20614   3.464   2.157   2.403 -0.0427  0.0100  0.2241
 2994SOL    HW120615   3.519   2.120   2.334 -0.5735 -1.2606  0.4750
 2994SOL    HW220616   3.390   2.205   2.366 -0.6117 -0.7877  0.3100
 2995SOL     OW20617   1.348   4.346   9.761 -0.3405 -0.2158 -0.0392
 2995SOL    HW120618   1.372   4.396   9.839 -1.1902  0.8425 -0.4625
 2995SOL    HW220619   1.418   4.281   9.758 -0.6494 -0.5140 -0.7323
 2996SOL     OW20620   2.523   0.986   7.344  0.0118 -0.7602 -0.1634
 2996SOL    HW120621   2.552   1.076   7.330 -0.2475 -0.6530 -0.0074
 2996SOL    HW220622   2.507   0.980   7.438  0.3620  1.9694  0.0616
 2997SOL     OW20623   3.851   2.392   6.038  0.1153 -0.4013 -0.3369
 2997SOL    HW120624   3.863   2.487   6.046 -0.5894 -0.2806 -0.7259
 2997SOL    HW220625   3.907   2.358   6.108 -0.1738 -1.8881 -0.8320
 2998SOL     OW20626   3.380   1.051   5.245 -0.4758  0.1984  0.3292
 2998SOL    HW120627   3.435   1.069   5.321 -2.4000  0.0602  1.7571
 2998SOL    HW220628   3.423   0.983   5.194 -0.2564  1.3660 -1.0466
 2999SOL     OW20629   4.316   2.185   9.013  0.4798 -0.1246  0.7799
 2999SOL    HW120630   4.242   2.130   9.041  0.4159  0.2246  1.3088
 2999SOL    HW220631   4.321   2.220   9.102 -0.4589  1.5649  0.1582
 3000SOL     OW20632   0.685   4.293   3.206 -0.1839  0.7131  0.3144
 3000SOL    HW120633   0.749   4.317   3.139  0.3351 -1.3871  0.0568
 3000SOL    HW220634   0.735   4.310   3.285 -1.3317 -1.0208  1.4134
 3001SOL     OW20635   0.528   0.460  12.049 -0.0158  0.2240  0.4999
 3001SOL    HW120636   0.557   0.527  12.111  0.7991  0.4375 -0.1147
 3001SOL    HW220637   0.468   0.514  11.998 -0.6361 -0.8320  0.1081
 3002SOL     OW20638   4.658   1.726   8.916  0.0679  0.2573 -0.0555
 3002SOL    HW120639   4.718   1.683   8.977 -0.2552 -0.1640 -0.0370
 3002SOL    HW220640   4.650   1.656   8.852 -0.2029 -1.5098  1.9018
 3003SOL     OW20641   1.125   4.120  10.208 -0.3616 -0.0693  0.1695
 3003SOL    HW120642   1.147   4.092  10.297 -1.3558  0.8066  0.6850
 3003SOL    HW220643   1.197   4.078  10.162  0.1584  0.8234  0.1715
 3004SOL     OW20644   1.536   0.328  11.196  1.1642  0.3307 -0.8514
 3004SOL    HW120645   1.528   0.401  11.135  0.6970  1.4516  0.5548
 3004SOL    HW220646   1.454   0.284  11.171 -0.6149  3.5752 -0.7548
 3005SOL     OW20647   2.683   1.441  16.973 -0.3267  0.3154  0.7103
 3005SOL    HW120648   2.757   1.387  16.945 -0.9304 -1.8220  3.2059
 3005SOL    HW220649   2.618   1.383  16.935  2.3621 -0.8313 -2.1698
 3006SOL     OW20650   1.871   4.066   0.617 -0.5390 -0.7560  0.0409
 3006SOL    HW120651   1.897   4.152   0.586  0.2976  0.0172  2.8391
 3006SOL    HW220652   1.890   4.005   0.547 -0.3737 -0.2706 -0.3340
 3007SOL     OW20653   2.321   2.635   8.109  0.0501  0.2964  0.1009
 3007SOL    HW120654   2.339   2.543   8.127 -0.2411  0.0766 -0.7355
 3007SOL    HW220655   2.288   2.658   8.196 -0.8442 -0.6940  0.0277
 3008SOL     OW20656   3.439   4.638   1.490  0.6421 -0.8681 -0.1244
 3008SOL    HW120657   3.402   4.592   1.415  1.6810 -1.9536  0.0223
 3008SOL    HW220658   3.492   4.697   1.436  0.2088 -0.6904 -0.3502
 3009SOL     OW20659   4.220   3.584   3.507  0.6797 -0.2620 -0.5795
 3009SOL    HW120660   4.200   3.591   3.601  1.6199 -1.0663 -0.3222
 3009SOL    HW220661   4.279   3.659   3.502 -0.2216  0.5171  0.5011
 3010SOL     OW20662   4.580   4.171   0.556  0.3493  0.5299 -0.4683
 3010SOL    HW120663   4.640   4.102   0.584  0.2828  1.0935  1.0465
 3010SOL    HW220664   4.494   4.149   0.594  0.0667 -1.1713 -2.0553
 3011SOL     OW20665   1.990   2.634   7.578  0.0919  0.0638 -0.0299
 3011SOL    HW120666   1.976   2.630   7.673 -1.4927  0.7363 -0.2420
 3011SOL    HW220667   2.025   2.548   7.553  1.7578  0.4634  0.8628
 3012SOL     OW20668   3.393   1.562  15.709 -0.1335  0.0501  0.0170
 3012SOL    HW120669   3.459   1.601  15.651 -0.3705 -1.4135 -1.2223
 3012SOL    HW220670   3.379   1.473  15.676 -0.0271  1.0256 -2.6567
 3013SOL     OW20671   3.027   2.089   1.686 -0.0058  0.4864 -0.0038
 3013SOL    HW120672   2.967   2.164   1.686 -0.4287  0.1502  0.9867
 3013SOL    HW220673   3.002   2.056   1.772 -4.2160 -0.7632 -1.6982
 3014SOL     OW20674   3.796   2.834   5.372 -0.1917 -0.1434  0.0475
 3014SOL    HW120675   3.817   2.761   5.314 -0.8266 -1.0086  0.8998
 3014SOL    HW220676   3.858   2.898   5.337 -0.4175  0.3226  0.4924
 3015SOL     OW20677   4.687   0.399  11.358 -0.9368 -0.1630  0.1514
 3015SOL    HW120678   4.610   0.347  11.378 -0.3152 -1.0095  0.3414
 3015SOL    HW220679   4.635   0.470  11.321 -0.6514  0.3333  0.7024
 3016SOL     OW20680   1.322   1.103   4.819  0.4640  0.7408 -0.1065
 3016SOL    HW120681   1.414   1.080   4.805  0.2296  0.2442 -0.8105
 3016SOL    HW220682   1.317   1.194   4.847 -1.0293  0.5841  0.1377
 3017SOL     OW20683   3.862   0.685   9.478 -0.6788 -0.3145  0.1353
 3017SOL    HW120684   3.949   0.647   9.488 -0.9223 -1.2942 -1.3632
 3017SOL    HW220685   3.854   0.720   9.566 -1.6508  0.3382 -0.2122
 3018SOL     OW20686   1.231   1.255  12.484 -0.4423  0.3768 -0.1897
 3018SOL    HW120687   1.211   1.163  12.465  0.3970  0.0509  0.4742
 3018SOL    HW220688   1.271   1.233  12.569  3.0626 -0.6230 -2.0907
 3019SOL     OW20689   2.204   1.975  10.148 -0.0676  0.3193  0.4576
 3019SOL    HW120690   2.291   1.964  10.187 -0.3798  0.8973  1.3177
 3019SOL    HW220691   2.166   2.054  10.186 -0.8174  0.3106 -0.2784
 3020SOL     OW20692   0.474   1.239  17.496 -0.2302 -0.4394 -0.8024
 3020SOL    HW120693   0.461   1.333  17.509  3.0481 -0.2068  0.8204
 3020SOL    HW220694   0.463   1.205  17.585 -0.0061 -3.8931 -2.0905
 3021SOL     OW20695   2.674   0.363   7.862 -0.6084  0.1835 -0.2150
 3021SOL    HW120696   2.639   0.379   7.949 -3.0143 -0.6545 -1.0281
 3021SOL    HW220697   2.733   0.290   7.880 -2.6359 -1.1535  0.8947
 3022SOL     OW20698   3.125   0.876   8.212  0.3275 -0.2453 -0.0281
 3022SOL    HW120699   3.091   0.839   8.293  1.3472  0.2639  0.6346
 3022SOL    HW220700   3.186   0.938   8.252  1.3779 -0.1243 -1.8389
 3023SOL     OW20701   1.735   0.981  16.205 -0.5455 -0.7800  0.1026
 3023SOL    HW120702   1.715   1.032  16.283 -0.1972  0.2673 -0.5024
 3023SOL    HW220703   1.655   0.992  16.154  1.0165 -0.1605 -2.2096
 3024SOL     OW20704   2.483   1.453   0.002  0.0542 -0.1526 -0.1760
 3024SOL    HW120705   2.420   1.522  17.730  0.4732  1.5332  3.8570
 3024SOL    HW220706   2.519   1.487   0.084 -0.7620  2.7809 -1.0377
 3025SOL     OW20707   0.538   0.341  15.206  0.5865  0.2219 -0.2688
 3025SOL    HW120708   0.451   0.317  15.173  0.2995 -2.7159  2.5817
 3025SOL    HW220709   0.575   0.283  15.273 -1.3751 -0.7047  0.0118
 3026SOL     OW20710   1.065   2.688   4.935  0.1561 -0.8868 -0.0484
 3026SOL    HW120711   1.062   2.598   4.968 -1.1834 -1.2876 -1.2787
 3026SOL    HW220712   0.981   2.712   4.973  0.9355 -0.9781  1.7606
 3027SOL     OW20713   0.682   4.544   4.682 -0.4071 -0.3235 -0.1198
 3027SOL    HW120714   0.596   4.512   4.710 -1.0229  1.5468  0.1592
 3027SOL    HW220715   0.733   4.464   4.685  0.8186  0.4945  0.5969
 3028SOL     OW20716   2.696   2.646  17.211  0.1214  0.4676 -0.3237
 3028SOL    HW120717   2.664   2.582  17.148  1.3211 -0.1223 -0.3493
 3028SOL    HW220718   2.692   2.720  17.150  0.5091  0.3838 -0.4561
 3029SOL     OW20719   3.159   0.762   8.464 -0.3989 -0.3622 -0.1067
 3029SOL    HW120720   3.126   0.786   8.551  1.2777 -0.9698  0.6956
 3029SOL    HW220721   3.243   0.717   8.473 -1.6559 -2.5029  1.1143
 3030SOL     OW20722   2.293   1.648  10.904  0.2349 -0.0681  0.1155
 3030SOL    HW120723   2.260   1.666  10.816 -0.2960  1.0760  0.5607
 3030SOL    HW220724   2.341   1.729  10.919 -1.8783  0.8675  1.7448
 3031SOL     OW20725   2.869   2.901  10.558 -0.7368 -0.3631  0.7721
 3031SOL    HW120726   2.945   2.950  10.589 -0.4090 -0.2718 -0.1631
 3031SOL    HW220727   2.807   2.962  10.518  0.3986  1.1393  1.3253
 3032SOL     OW20728   1.589   0.465   7.235  0.1203  0.6600 -0.9331
 3032SOL    HW120729   1.648   0.436   7.304 -0.9618 -2.8524 -1.4443
 3032SOL    HW220730   1.649   0.504   7.172  1.2104 -1.0184 -0.9345
 3033SOL     OW20731   3.508   3.206  12.036 -0.1833 -0.1013  0.3647
 3033SOL    HW120732   3.427   3.249  12.064  0.4839 -0.5782  3.0017
 3033SOL    HW220733   3.529   3.132  12.093  0.0763 -0.5286 -0.2807
 3034SOL     OW20734   3.975   3.126  17.086  0.0213 -0.1043 -0.6091
 3034SOL    HW120735   3.956   3.111  17.179  2.0746 -0.6228 -0.2545
 3034SOL    HW220736   3.890   3.148  17.048 -0.9309 -0.2926  1.4246
 3035SOL     OW20737   0.515   3.525   1.810  0.1684 -0.0420 -0.5930
 3035SOL    HW120738   0.459   3.495   1.881  1.0075 -0.6335 -0.1786
 3035SOL    HW220739   0.581   3.456   1.812 -1.2892 -1.4638 -1.5985
 3036SOL     OW20740   1.253   1.160   6.894 -0.5071 -0.3905  0.3346
 3036SOL    HW120741   1.273   1.082   6.946  0.1562 -0.4210  0.0305
 3036SOL    HW220742   1.158   1.161   6.882 -0.1453  0.6300 -2.3258
 3037SOL     OW20743   3.762   4.305   7.211  0.1475  0.3785 -0.3376
 3037SOL    HW120744   3.854   4.331   7.221  0.4281 -0.8979  0.3662
 3037SOL    HW220745   3.721   4.320   7.296  0.9365  2.4680 -0.3349
 3038SOL     OW20746   1.966   3.767   8.049  0.2395  0.0704 -0.2129
 3038SOL    HW120747   2.053   3.799   8.023  1.2324 -1.3871  1.2952
 3038SOL    HW220748   1.955   3.690   7.994 -0.7470 -0.3814  0.6427
 3039SOL     OW20749   0.475   4.274  10.688 -0.3491 -0.2377  0.7062
 3039SOL    HW120750   0.432   4.274  10.603  4.2811 -0.1426 -1.6125
 3039SOL    HW220751   0.424   4.212  10.740 -1.3389 -0.3684 -0.4345
 3040SOL     OW20752   3.065   3.832   8.133 -0.9001  0.3704 -0.4305
 3040SOL    HW120753   3.006   3.888   8.183 -0.0331 -0.4134  1.5087
 3040SOL    HW220754   3.011   3.815   8.056  0.5324  2.7709 -1.9567
 3041SOL     OW20755   3.862   3.580   7.597 -0.1836  0.4646  0.1611
 3041SOL    HW120756   3.772   3.603   7.621 -1.2595  0.9401 -4.3283
 3041SOL    HW220757   3.858   3.534   7.513  0.1628 -1.2014  1.0596
 3042SOL     OW20758   3.529   2.733   5.123  1.0542 -0.2403 -0.2880
 3042SOL    HW120759   3.488   2.679   5.191 -2.3396  3.0469  0.3075
 3042SOL    HW220760   3.486   2.717   5.039  0.7334 -2.6788  0.3406
 3043SOL     OW20761   2.181   2.151   2.534  0.4554 -0.1038  0.0801
 3043SOL    HW120762   2.208   2.115   2.619 -0.2102 -2.4063 -0.7011
 3043SOL    HW220763   2.120   2.219   2.560  0.3045  0.8641 -2.8535
 3044SOL     OW20764   2.477   0.952   9.087 -0.3410  0.8434  0.3695
 3044SOL    HW120765   2.483   1.044   9.061  3.5067  0.4191 -0.2067
 3044SOL    HW220766   2.453   0.963   9.179 -1.6175 -0.2580  0.1712
 3045SOL     OW20767   3.019   3.432   2.584  0.1362  0.5767 -0.3350
 3045SOL    HW120768   2.976   3.500   2.637  2.9512  1.8146  0.3540
 3045SOL    HW220769   3.106   3.470   2.586 -0.1021  1.0248  1.7457
 3046SOL     OW20770   0.186   2.893   9.296  0.2231  0.5157 -0.1634
 3046SOL    HW120771   0.263   2.919   9.246  0.8287  1.5314  1.2819
 3046SOL    HW220772   0.232   2.861   9.374  1.2235  2.2418 -0.0529
 3047SOL     OW20773   4.509   4.437   6.668  0.6911 -0.5904 -0.0362
 3047SOL    HW120774   4.456   4.365   6.634  1.5254 -1.7354  1.1162
 3047SOL    HW220775   4.469   4.510   6.621 -0.3227 -1.7827 -1.0440
 3048SOL     OW20776   0.068   4.338  11.084  0.2694  0.2123 -0.6614
 3048SOL    HW120777   0.092   4.253  11.122  2.6999  0.6948 -1.1268
 3048SOL    HW220778   0.001   4.363  11.148  0.0112 -0.3431 -0.7068
 3049SOL     OW20779   1.396   0.604   9.160  0.6067 -0.0313  0.0666
 3049SOL    HW120780   1.433   0.522   9.127  0.7710  0.8758 -2.0209
 3049SOL    HW220781   1.311   0.574   9.192 -0.4581  0.9476 -1.8678
 3050SOL     OW20782   1.529   1.331  16.678  0.3411  0.0430 -0.1875
 3050SOL    HW120783   1.440   1.355  16.702 -0.2744 -1.9611 -0.4626
 3050SOL    HW220784   1.577   1.398  16.727  0.1737 -1.2394  1.7381
 3051SOL     OW20785   1.483   0.527   3.087 -0.3241 -0.4241 -0.5254
 3051SOL    HW120786   1.403   0.575   3.108  2.2573  4.0332 -0.9505
 3051SOL    HW220787   1.520   0.583   3.019 -0.9023 -1.5639 -1.7653
 3052SOL     OW20788   4.637   0.421   7.810 -0.2337 -0.5652 -0.1079
 3052SOL    HW120789   4.583   0.463   7.742 -0.6734 -1.2273 -0.1678
 3052SOL    HW220790   4.723   0.463   7.810 -1.0765  1.1498  1.0092
 3053SOL     OW20791   2.155   1.273  14.302 -0.5835 -0.1723 -0.2792
 3053SOL    HW120792   2.067   1.261  14.339 -0.7202  0.5408 -0.3663
 3053SOL    HW220793   2.129   1.350  14.251 -1.3830 -0.4417 -0.2785
 3054SOL     OW20794   2.297   1.962   4.401 -0.1396 -0.4597  0.1522
 3054SOL    HW120795   2.250   1.939   4.320  1.2121 -0.6689 -0.5701
 3054SOL    HW220796   2.379   1.913   4.394  1.5107  2.2753  0.4838
 3055SOL     OW20797   2.675   0.771  11.820 -0.6689 -0.1798  0.1199
 3055SOL    HW120798   2.688   0.852  11.869  2.4401  0.2343 -1.3721
 3055SOL    HW220799   2.734   0.711  11.864 -2.4935 -0.7837  1.7335
 3056SOL     OW20800   3.979   3.504   6.356  0.1080 -0.3317  0.5538
 3056SOL    HW120801   3.991   3.409   6.349 -2.1613 -0.6726  1.2700
 3056SOL    HW220802   3.931   3.503   6.438 -0.1613 -0.0476  0.3979
 3057SOL     OW20803   0.917   4.633  14.478 -0.6353  0.0191 -0.3773
 3057SOL    HW120804   0.920   4.609  14.571 -2.1334 -1.2047 -0.6421
 3057SOL    HW220805   0.864   4.564  14.438 -0.2207  0.1384 -1.1311
 3058SOL     OW20806   1.537   3.797   4.022  0.0701  0.0562  0.9396
 3058SOL    HW120807   1.581   3.847   4.091 -0.5854  0.1407  1.2885
 3058SOL    HW220808   1.529   3.715   4.069 -1.8369  0.4150  1.2194
 3059SOL     OW20809   4.199   2.157   6.459 -0.1303 -0.4086  0.1629
 3059SOL    HW120810   4.286   2.196   6.461  0.7855 -2.2970 -2.0914
 3059SOL    HW220811   4.152   2.226   6.506  0.7033 -0.4882  1.1123
 3060SOL     OW20812   3.251   2.606   0.541 -1.0278 -0.4003 -0.3007
 3060SOL    HW120813   3.238   2.598   0.446  1.3785 -0.4624 -0.6249
 3060SOL    HW220814   3.223   2.518   0.565 -1.4569 -0.5898 -1.4735
 3061SOL     OW20815   3.622   3.506   5.821 -0.3608  0.1730  0.3110
 3061SOL    HW120816   3.529   3.508   5.798  0.4750  1.1046 -3.0348
 3061SOL    HW220817   3.641   3.415   5.799 -0.5691  0.4662 -1.1150
 3062SOL     OW20818   3.310   1.486   5.238 -0.2261 -0.4753 -0.5109
 3062SOL    HW120819   3.259   1.528   5.308 -1.3484 -1.6781 -0.6042
 3062SOL    HW220820   3.392   1.529   5.263  1.2367 -3.4190 -0.3099
 3063SOL     OW20821   4.696   3.938   6.959 -0.2103 -0.0510  0.1479
 3063SOL    HW120822   4.731   3.869   7.014 -2.3747 -0.3565  1.1506
 3063SOL    HW220823   4.611   3.949   7.002 -0.0433  1.8314 -0.0007
 3064SOL     OW20824   2.862   1.811   4.946  0.0591 -0.0603  0.5245
 3064SOL    HW120825   2.888   1.867   4.872 -0.9982 -0.2734 -0.0182
 3064SOL    HW220826   2.905   1.862   5.014 -1.7498  0.1375  1.5190
 3065SOL     OW20827   1.562   1.101   7.374  0.3482  0.0573  0.2302
 3065SOL    HW120828   1.561   1.145   7.458 -3.3154  0.4226 -0.0110
 3065SOL    HW220829   1.564   1.176   7.315 -0.6875 -0.5436 -0.5743
 3066SOL     OW20830   2.810   0.694   9.771  0.4092  0.6123 -0.9116
 3066SOL    HW120831   2.716   0.713   9.778  0.2789 -0.3244 -0.1750
 3066SOL    HW220832   2.801   0.639   9.694  0.0156 -3.2628  1.9095
 3067SOL     OW20833   3.565   2.124   9.564  0.5270  0.0790  0.1836
 3067SOL    HW120834   3.483   2.164   9.593  0.0059 -0.7230 -0.2100
 3067SOL    HW220835   3.604   2.201   9.523 -3.1877  2.0289  0.2475
 3068SOL     OW20836   3.103   2.261   3.065 -0.3454  0.5132 -0.0908
 3068SOL    HW120837   3.051   2.187   3.096 -0.8495  0.7872 -0.2743
 3068SOL    HW220838   3.088   2.330   3.129  0.6083 -0.6788  1.4041
 3069SOL     OW20839   2.584   0.713   6.658 -0.0191  0.1895  0.2025
 3069SOL    HW120840   2.577   0.756   6.743 -1.0712  0.2399  0.0888
 3069SOL    HW220841   2.535   0.777   6.606  0.5502  0.4979  0.0457
 3070SOL     OW20842   4.642   1.663   5.176 -0.3380  0.0241  0.0165
 3070SOL    HW120843   4.725   1.648   5.222  0.2828  0.8408 -0.8500
 3070SOL    HW220844   4.592   1.583   5.190  2.3465 -1.2150  2.6436
 3071SOL     OW20845   2.510   3.657   8.591 -0.5755 -0.2046 -0.3917
 3071SOL    HW120846   2.415   3.652   8.579 -0.7320  0.7175  0.4289
 3071SOL    HW220847   2.532   3.746   8.567 -2.8106  1.0597  2.1923
 3072SOL     OW20848   0.441   1.634   1.176 -0.4777  0.1525  0.3306
 3072SOL    HW120849   0.387   1.712   1.164  0.8907  1.1384  0.5030
 3072SOL    HW220850   0.384   1.561   1.198  0.1162 -0.7985 -1.3041
 3073SOL     OW20851   1.287   2.634  11.480  0.0004  0.3885  0.1272
 3073SOL    HW120852   1.319   2.582  11.554 -0.9317  0.1217  0.3410
 3073SOL    HW220853   1.251   2.705  11.534 -1.9054 -0.8692  0.5218
 3074SOL     OW20854   2.589   1.152   7.778 -0.3895  0.2127  0.1984
 3074SOL    HW120855   2.632   1.129   7.861  1.8733  0.6815 -0.8606
 3074SOL    HW220856   2.558   1.072   7.736 -1.6197  1.4178 -1.1836
 3075SOL     OW20857   4.491   0.638   8.705 -0.2229  0.0131  0.1908
 3075SOL    HW120858   4.562   0.648   8.643  0.3097 -0.6694  0.6882
 3075SOL    HW220859   4.487   0.724   8.747 -0.8308 -0.1363  0.4494
 3076SOL     OW20860   2.548   2.440   0.000  0.2012  0.4467 -0.0408
 3076SOL    HW120861   2.552   2.464  17.657  1.6834  0.3297 -0.0064
 3076SOL    HW220862   2.551   2.344  17.744  4.6707  0.7737 -2.8556
 3077SOL     OW20863   4.357   3.802  17.465  0.0047 -0.0610  0.0599
 3077SOL    HW120864   4.396   3.889  17.460 -0.2551  0.0375 -0.3079
 3077SOL    HW220865   4.286   3.799  17.400 -0.6569 -0.4374  0.7966
 3078SOL     OW20866   4.588   1.098   3.076 -0.1889 -0.0736 -0.1104
 3078SOL    HW120867   4.538   1.123   3.153  2.3454  2.6184  0.6484
 3078SOL    HW220868   4.557   1.154   3.005 -1.1328  1.1407  1.2786
 3079SOL     OW20869   1.943   0.372   7.184 -0.8362 -0.5649  0.4421
 3079SOL    HW120870   1.881   0.435   7.149 -0.6708 -0.7608 -0.1993
 3079SOL    HW220871   1.919   0.293   7.136 -0.4230  0.2989 -1.1822
 3080SOL     OW20872   2.688   1.982   4.749  0.7313  0.8708 -0.1690
 3080SOL    HW120873   2.721   2.019   4.831 -1.0838  3.0249 -0.4026
 3080SOL    HW220874   2.776   1.983   4.712  0.6717  1.8815 -0.2741
 3081SOL     OW20875   2.282   1.965  14.383 -0.1169  0.3228  0.4178
 3081SOL    HW120876   2.283   2.013  14.300  1.2091  0.5793  0.5865
 3081SOL    HW220877   2.193   1.964  14.418 -1.0585 -1.6301 -1.9918
 3082SOL     OW20878   2.290   3.663  13.759  0.1699  0.2566  1.2018
 3082SOL    HW120879   2.204   3.628  13.780 -0.5482  0.4097 -1.5437
 3082SOL    HW220880   2.327   3.579  13.734 -1.4903  0.0251 -0.4953
 3083SOL     OW20881   4.435   0.323   2.179 -0.3320 -0.5624 -0.2809
 3083SOL    HW120882   4.375   0.298   2.109  1.6604 -1.2176 -1.7292
 3083SOL    HW220883   4.505   0.360   2.126 -0.5666 -1.3490 -1.1365
 3084SOL     OW20884   3.168   3.938   3.719 -0.2893  0.1133  0.6408
 3084SOL    HW120885   3.112   4.013   3.738  0.0135 -0.0350  2.1380
 3084SOL    HW220886   3.151   3.883   3.796 -0.9985 -0.6052 -0.0377
 3085SOL     OW20887   2.201   3.352  15.337  0.0841  0.3456 -0.6870
 3085SOL    HW120888   2.243   3.267  15.326 -0.7154 -0.2738  0.9327
 3085SOL    HW220889   2.136   3.344  15.267  0.2027  2.4011 -1.0254
 3086SOL     OW20890   4.718   2.680  10.583 -0.2714  0.7357  0.3250
 3086SOL    HW120891   0.021   2.713  10.663  1.4283  2.1526 -1.1279
 3086SOL    HW220892   0.045   2.708  10.519  0.5162 -2.3574 -0.2677
 3087SOL     OW20893   2.473   2.253   2.777  0.2062 -0.7559 -0.0338
 3087SOL    HW120894   2.526   2.197   2.721 -0.5392  0.5166 -2.0362
 3087SOL    HW220895   2.398   2.195   2.791 -1.1904  0.9359 -0.4458
 3088SOL     OW20896   3.391   1.313  16.871  0.1178 -0.4768  0.1606
 3088SOL    HW120897   3.359   1.223  16.866 -1.2793  0.0285  0.0313
 3088SOL    HW220898   3.405   1.330  16.778 -0.7311  1.7060  0.4264
 3089SOL     OW20899   4.080   2.478   1.709  0.0090 -0.1285 -0.1571
 3089SOL    HW120900   4.089   2.518   1.795  2.2188  1.6622 -1.2112
 3089SOL    HW220901   4.043   2.551   1.658 -2.3773 -1.2232  0.0153
 3090SOL     OW20902   3.553   2.211   1.894  0.2816  0.6342 -0.2517
 3090SOL    HW120903   3.534   2.304   1.886  0.7377  0.7940  0.4526
 3090SOL    HW220904   3.503   2.190   1.815 -1.3839 -0.5832  1.1354
 3091SOL     OW20905   0.951   0.436   8.537  0.1410 -0.0594  0.4978
 3091SOL    HW120906   0.987   0.480   8.460 -0.8615 -0.7923 -0.3986
 3091SOL    HW220907   0.926   0.505   8.598 -0.8171 -0.2654  0.3441
 3092SOL     OW20908   2.537   2.944   5.922  0.1298  0.2827  0.3259
 3092SOL    HW120909   2.593   2.869   5.904 -0.2065  0.0181  0.3707
 3092SOL    HW220910   2.452   2.900   5.928  0.9855 -1.6983 -2.0356
 3093SOL     OW20911   0.156   0.976  17.296  0.1400  0.2165  0.5191
 3093SOL    HW120912   0.122   0.888  17.312 -0.2797  0.3331  0.2668
 3093SOL    HW220913   0.074   1.025  17.287  1.4426  2.5779  1.4758
 3094SOL     OW20914   3.982   4.369   5.368  0.3062 -0.1810 -0.1179
 3094SOL    HW120915   3.941   4.322   5.295  0.6562 -2.5966  1.2415
 3094SOL    HW220916   3.907   4.413   5.409 -0.0247  2.3316 -3.3806
 3095SOL     OW20917   4.360   1.385  12.665 -0.6247 -0.2134 -0.2842
 3095SOL    HW120918   4.303   1.327  12.614  0.8864  0.5137 -2.7956
 3095SOL    HW220919   4.300   1.460  12.666 -1.4064 -0.8381  0.2768
 3096SOL     OW20920   2.596   0.273  11.282 -0.7565 -0.3871 -0.3397
 3096SOL    HW120921   2.641   0.215  11.344  0.4542  0.2309 -0.6220
 3096SOL    HW220922   2.615   0.359  11.320  1.9602 -0.7522 -0.8211
 3097SOL     OW20923   2.683   0.550   5.602 -0.2646  0.1396 -0.0663
 3097SOL    HW120924   2.686   0.522   5.694  0.4242  0.0663 -0.1162
 3097SOL    HW220925   2.591   0.527   5.583 -0.7611  2.0887 -0.0067
 3098SOL     OW20926   1.008   3.786   2.721  0.4214  0.3714 -0.0251
 3098SOL    HW120927   0.977   3.863   2.674  2.2074  1.5517  0.7480
 3098SOL    HW220928   1.081   3.744   2.675 -1.0747 -1.9422 -0.2935
 3099SOL     OW20929   2.791   3.965  12.529 -0.3936 -0.2324  0.8293
 3099SOL    HW120930   2.706   3.924  12.546 -0.6909 -0.6450 -1.7719
 3099SOL    HW220931   2.757   4.054  12.522  0.0099 -0.3112 -2.1171
 3100SOL     OW20932   2.591   1.880   7.630  0.3479  0.1931  0.6419
 3100SOL    HW120933   2.606   1.886   7.536 -2.4862 -1.4270  0.0934
 3100SOL    HW220934   2.636   1.956   7.668  0.9536  0.6772 -1.0258
 3101SOL     OW20935   1.010   1.286  12.305 -0.2596  0.1564 -0.5242
 3101SOL    HW120936   1.081   1.258  12.362 -0.9437 -2.1391 -0.8179
 3101SOL    HW220937   1.052   1.262  12.223  2.1083  0.9669  0.4420
 3102SOL     OW20938   2.620   4.541  14.394 -0.1078  0.0553  0.0520
 3102SOL    HW120939   2.537   4.530  14.441  0.3196  0.8666  1.0024
 3102SOL    HW220940   2.686   4.513  14.458  0.2755 -0.7339 -0.6910
 3103SOL     OW20941   0.356   1.832   2.013 -0.0455  0.0435 -0.7765
 3103SOL    HW120942   0.373   1.838   1.919 -0.0797  0.9067 -0.7268
 3103SOL    HW220943   0.266   1.866   2.013 -0.6464 -1.5916  1.0105
 3104SOL     OW20944   1.215   1.975   5.922  0.0603 -0.1927 -0.4131
 3104SOL    HW120945   1.150   1.933   5.978  0.0772  0.5481  0.1632
 3104SOL    HW220946   1.192   2.062   5.954 -0.3678 -0.3877 -0.1942
 3105SOL     OW20947   4.039   1.986   5.840  0.6071 -0.2819 -0.4830
 3105SOL    HW120948   3.993   2.066   5.815 -1.6545 -1.5836 -0.4875
 3105SOL    HW220949   4.103   2.013   5.906  0.3185 -0.1903 -0.2397
 3106SOL     OW20950   3.262   2.254   0.407 -0.3991  0.4394  0.3614
 3106SOL    HW120951   3.206   2.311   0.459 -1.5190 -0.3189 -0.0080
 3106SOL    HW220952   3.202   2.181   0.390  0.0632  0.3561 -0.9238
 3107SOL     OW20953   2.706   4.459  16.841 -0.1499 -0.2704  0.0351
 3107SOL    HW120954   2.713   4.432  16.749 -2.4116 -0.6561 -0.0139
 3107SOL    HW220955   2.636   4.407  16.879 -2.1520  2.9071  0.6462
 3108SOL     OW20956   1.798   0.429   3.584 -0.5656 -0.4637  0.2056
 3108SOL    HW120957   1.796   0.483   3.506 -0.2968 -0.5668  0.1293
 3108SOL    HW220958   1.820   0.500   3.644 -1.5580  0.8684 -1.0224
 3109SOL     OW20959   3.393   0.428   5.580 -0.0719 -0.3511 -0.1529
 3109SOL    HW120960   3.411   0.338   5.609  0.6688 -0.4079 -0.7788
 3109SOL    HW220961   3.376   0.405   5.488 -0.1651 -2.5949  0.4154
 3110SOL     OW20962   1.694   3.361  13.839  0.3583 -0.1023 -0.1378
 3110SOL    HW120963   1.669   3.279  13.882  2.6560 -0.8058 -0.1162
 3110SOL    HW220964   1.738   3.404  13.912  1.6054  1.8880 -2.0446
 3111SOL     OW20965   0.159   2.887   8.956  0.0059  0.3858  0.6013
 3111SOL    HW120966   0.187   2.805   8.997 -0.4096  0.1199  0.3508
 3111SOL    HW220967   0.210   2.944   9.013  1.1946  1.8073 -1.8866
 3112SOL     OW20968   2.291   1.868  11.576 -0.3859 -0.4606 -0.1912
 3112SOL    HW120969   2.291   1.828  11.489  0.3713 -0.1208 -0.3451
 3112SOL    HW220970   2.264   1.792  11.628  1.2121 -1.0636 -0.2336
 3113SOL     OW20971   1.114   4.484   4.261  0.4711 -0.2122  0.2703
 3113SOL    HW120972   1.081   4.518   4.344  0.3439  1.9253 -0.6692
 3113SOL    HW220973   1.043   4.421   4.245 -0.1277  0.8039 -0.9904
 3114SOL     OW20974   3.550   1.973  13.467  0.3751 -0.3278 -0.2586
 3114SOL    HW120975   3.589   1.996  13.552  0.7127  0.8596 -0.7322
 3114SOL    HW220976   3.614   2.002  13.402  2.3066 -1.9332  0.9015
 3115SOL     OW20977   1.384   1.725  14.655  0.4998 -0.1748 -0.2571
 3115SOL    HW120978   1.402   1.816  14.632  1.1017 -0.4203 -0.7560
 3115SOL    HW220979   1.341   1.743  14.739 -1.9992 -4.0910 -0.7009
 3116SOL     OW20980   3.304   2.457  13.900 -0.2181  0.1304  0.0078
 3116SOL    HW120981   3.347   2.392  13.955 -1.2042  0.0931  0.7327
 3116SOL    HW220982   3.342   2.539  13.933 -1.0711  0.7870 -0.6311
 3117SOL     OW20983   3.570   4.271  15.406  0.2560  0.2036  0.1137
 3117SOL    HW120984   3.654   4.233  15.380 -0.1174  0.4351 -1.4777
 3117SOL    HW220985   3.524   4.284  15.323 -0.8135  3.1087  1.1306
 3118SOL     OW20986   3.259   3.017  12.051 -0.1219  1.0051  0.0031
 3118SOL    HW120987   3.212   3.098  12.030  0.0473  0.5757 -2.0345
 3118SOL    HW220988   3.261   2.988  11.960 -0.2034  0.4169  0.1882
 3119SOL     OW20989   1.902   4.694  10.727  0.6354  0.1834  0.6837
 3119SOL    HW120990   1.823   4.673  10.678  1.3916 -1.7563  0.2743
 3119SOL    HW220991   1.889   4.642  10.806 -0.2437 -0.1866  0.2924
 3120SOL     OW20992   3.856   4.643   7.824 -0.2822 -0.4023 -0.2316
 3120SOL    HW120993   3.787   4.617   7.763  1.0952  2.1520 -2.9023
 3120SOL    HW220994   3.939   4.604   7.795 -1.1815 -1.6349 -1.1548
 3121SOL     OW20995   2.479   0.621   4.959  0.1414  0.0188  0.5865
 3121SOL    HW120996   2.527   0.688   5.008  2.1521 -2.1226  1.5267
 3121SOL    HW220997   2.533   0.617   4.879  0.9386 -0.5959  1.1590
 3122SOL     OW20998   0.354   1.863   3.942  0.1596  0.5699 -0.4398
 3122SOL    HW120999   0.381   1.944   3.986  1.0802  0.7158 -1.2643
 3122SOL    HW221000   0.311   1.817   4.014 -0.1804  2.3658  0.5264
 3123SOL     OW21001   0.604   3.261   8.285  0.9911  0.5216 -0.2341
 3123SOL    HW121002   0.616   3.274   8.379  2.5911 -1.8564 -0.1110
 3123SOL    HW221003   0.584   3.353   8.271  2.2180  0.7564 -0.4113
 3124SOL     OW21004   1.903   2.391  16.670  0.0860 -0.1216 -0.4027
 3124SOL    HW121005   1.952   2.312  16.694 -0.7966 -0.4458  0.3275
 3124SOL    HW221006   1.938   2.456  16.732 -0.1476  2.2738 -2.7898
 3125SOL     OW21007   4.314   3.922   5.226  0.0773  0.2448  0.3675
 3125SOL    HW121008   4.229   3.964   5.218  0.2329  0.7629  1.4903
 3125SOL    HW221009   4.313   3.886   5.315  1.2615 -0.6188  0.0415
 3126SOL     OW21010   4.645   3.189   3.247 -0.4018 -0.2838 -0.2840
 3126SOL    HW121011   4.589   3.202   3.324  2.2208 -0.4338  1.6865
 3126SOL    HW221012   4.637   3.266   3.191  3.5095 -0.1831 -0.7274
 3127SOL     OW21013   3.360   0.387   0.100  0.3716 -0.2018 -0.1528
 3127SOL    HW121014   3.379   0.293   0.106 -3.8898 -1.0362  0.4997
 3127SOL    HW221015   3.441   0.411   0.054  2.0584 -1.0308  2.3640
 3128SOL     OW21016   2.336   3.013   9.239 -0.4673  0.1446 -0.4241
 3128SOL    HW121017   2.379   2.929   9.230  0.8440  0.7306  0.4603
 3128SOL    HW221018   2.411   3.072   9.228 -1.2728  0.5356 -4.0425
 3129SOL     OW21019   3.615   0.431  16.912 -0.5607 -0.4101 -0.2356
 3129SOL    HW121020   3.524   0.462  16.911 -0.3992  0.1089  0.5165
 3129SOL    HW221021   3.613   0.373  16.836 -1.8806 -1.6398  0.7401
 3130SOL     OW21022   3.513   0.540   3.605 -0.3218 -0.3260  0.0440
 3130SOL    HW121023   3.485   0.593   3.680  0.8903  0.5152 -0.0976
 3130SOL    HW221024   3.495   0.452   3.639  1.9241  0.2352  2.7355
 3131SOL     OW21025   4.258   1.104   0.493  0.1697  0.5048 -0.1211
 3131SOL    HW121026   4.192   1.035   0.493  0.1713  0.4990 -3.4092
 3131SOL    HW221027   4.338   1.055   0.477  0.7731  0.5141  2.8703
 3132SOL     OW21028   3.750   1.407   5.839 -0.0408  0.3640  0.7035
 3132SOL    HW121029   3.668   1.396   5.791  0.4133 -0.1607  0.0454
 3132SOL    HW221030   3.719   1.408   5.929 -1.8309  1.1242  0.0912
 3133SOL     OW21031   4.714   4.196   5.337  0.0413  0.4272 -0.3932
 3133SOL    HW121032   4.712   4.205   5.242 -0.8484 -0.1141 -0.4256
 3133SOL    HW221033   0.013   4.279   5.370 -0.4937 -0.2732  1.9985
 3134SOL     OW21034   4.457   4.047   2.234  0.7918  0.1328 -0.0850
 3134SOL    HW121035   4.466   4.062   2.328 -3.7963 -0.4827  0.4646
 3134SOL    HW221036   4.376   4.093   2.212 -0.4804 -0.6569  2.9007
 3135SOL     OW21037   4.734   2.776  10.849  0.2604 -0.2343 -0.3244
 3135SOL    HW121038   0.019   2.853  10.901  1.8924 -1.2844  0.5148
 3135SOL    HW221039   0.072   2.720  10.865  0.8975  0.4235 -1.1115
 3136SOL     OW21040   3.879   2.796   3.198  0.4733 -0.0309  0.1793
 3136SOL    HW121041   3.865   2.727   3.134 -1.6465  1.0166 -0.4780
 3136SOL    HW221042   3.973   2.785   3.210  1.0191  3.2507 -0.8458
 3137SOL     OW21043   3.611   3.430   3.198  0.5501 -0.1782  0.3011
 3137SOL    HW121044   3.673   3.421   3.270  1.0824  0.5618 -0.0695
 3137SOL    HW221045   3.611   3.526   3.196  0.1377 -0.2487 -2.8776
 3138SOL     OW21046   1.677   2.937   1.606  0.6620 -0.1284  0.5440
 3138SOL    HW121047   1.752   2.907   1.554  2.0737  0.5434  2.1996
 3138SOL    HW221048   1.660   2.861   1.661  0.3304 -1.1437 -0.9381
 3139SOL     OW21049   2.839   1.535   9.525  0.2187 -0.5285 -0.1710
 3139SOL    HW121050   2.746   1.543   9.506  0.0988 -1.2739  0.0943
 3139SOL    HW221051   2.879   1.527   9.438 -0.7373 -0.5227 -0.6031
 3140SOL     OW21052   1.872   0.820   3.056 -0.3283 -0.2843 -0.1457
 3140SOL    HW121053   1.846   0.877   2.983  0.6966  0.5175  0.1310
 3140SOL    HW221054   1.891   0.747   2.998 -0.6128 -0.7041  0.2853
 3141SOL     OW21055   3.227   1.261   7.106  0.6251  0.2799  0.0268
 3141SOL    HW121056   3.222   1.256   7.202  1.6982 -2.3912 -0.0486
 3141SOL    HW221057   3.176   1.341   7.095 -0.2379 -0.2223  0.3132
 3142SOL     OW21058   4.355   4.702   5.394 -0.6169 -0.0806  0.2612
 3142SOL    HW121059   4.346   0.053   5.361  1.8434  0.1018  0.0577
 3142SOL    HW221060   4.269   4.669   5.368 -0.5728 -0.4594  0.5891
 3143SOL     OW21061   2.842   4.333   5.008 -0.1170 -0.3416 -0.0691
 3143SOL    HW121062   2.883   4.418   5.023 -4.4866  1.1978  3.1792
 3143SOL    HW221063   2.761   4.347   5.057  0.9962  0.8979  1.3724
 3144SOL     OW21064   0.855   1.769   7.532  0.7115  0.0027  0.3607
 3144SOL    HW121065   0.921   1.829   7.567 -1.0985  1.7966  0.7162
 3144SOL    HW221066   0.795   1.842   7.516 -1.6210 -1.6248  1.7630
 3145SOL     OW21067   2.294   3.373   6.009 -0.1281  0.3130  0.0766
 3145SOL    HW121068   2.319   3.465   6.007  1.6082 -0.1640 -0.4728
 3145SOL    HW221069   2.327   3.345   6.095  2.7863  2.2210 -0.4045
 3146SOL     OW21070   0.991   2.070   7.190 -0.1115 -0.1721  0.5226
 3146SOL    HW121071   0.942   2.147   7.217  0.7422  0.5453  0.0261
 3146SOL    HW221072   0.921   2.007   7.174  1.0497 -1.4040  0.2357
 3147SOL     OW21073   1.015   4.437  11.325 -0.5476  0.3619  0.4057
 3147SOL    HW121074   0.956   4.372  11.288 -0.1870 -0.0283  0.5130
 3147SOL    HW221075   0.975   4.452  11.411  1.1453  2.2943  0.8552
 3148SOL     OW21076   1.803   2.622  16.029  0.1010 -0.0564 -0.7256
 3148SOL    HW121077   1.724   2.673  16.047 -0.1263 -1.0373  1.0452
 3148SOL    HW221078   1.854   2.628  16.109 -0.9882  1.2006 -0.1374
 3149SOL     OW21079   4.571   1.435  16.498 -0.1601  0.0838 -0.3139
 3149SOL    HW121080   4.605   1.347  16.483 -0.0251 -0.1942  1.6736
 3149SOL    HW221081   4.642   1.485  16.537 -0.8774  1.2826 -0.5315
 3150SOL     OW21082   4.384   2.236  16.408 -0.3250  0.1897 -0.7483
 3150SOL    HW121083   4.307   2.204  16.362 -0.4944 -0.9779  0.3666
 3150SOL    HW221084   4.346   2.309  16.458 -1.8673 -2.2905  1.6821
 3151SOL     OW21085   3.468   0.042  13.217  0.3481 -0.2118 -0.5046
 3151SOL    HW121086   3.385   0.061  13.175 -0.3812 -0.0901  0.9707
 3151SOL    HW221087   3.456   0.094  13.297 -0.6510 -1.0667 -0.0969
 3152SOL     OW21088   4.731   0.470   7.164 -0.5146 -0.7378 -0.5895
 3152SOL    HW121089   0.087   0.492   7.163 -1.2877  2.5587 -0.4827
 3152SOL    HW221090   4.732   0.379   7.191  3.5416 -0.1406  1.3744
 3153SOL     OW21091   0.731   4.570   3.620 -0.2661 -0.1845  0.3872
 3153SOL    HW121092   0.686   4.629   3.560 -2.0888 -0.6741  1.2902
 3153SOL    HW221093   0.684   4.598   3.699 -0.8933  2.2831 -0.8640
 3154SOL     OW21094   1.281   3.981   4.951 -0.0879 -0.4139 -0.6173
 3154SOL    HW121095   1.343   3.927   5.000 -1.7645 -0.3139  1.6331
 3154SOL    HW221096   1.283   3.934   4.868 -0.0936 -0.8186 -0.3870
 3155SOL     OW21097   4.555   2.105   6.196 -0.6192 -0.0989 -0.2920
 3155SOL    HW121098   4.572   2.181   6.141 -0.5543  1.3537  1.7351
 3155SOL    HW221099   4.494   2.133   6.264 -0.1840 -2.1556  0.9404
 3156SOL     OW21100   1.105   1.677   8.599  0.2049 -0.0344  0.3039
 3156SOL    HW121101   1.102   1.769   8.624 -0.5924  0.2763 -0.9773
 3156SOL    HW221102   1.015   1.663   8.631  0.1758  0.2767  0.3514
 3157SOL     OW21103   3.625   4.002   5.070  0.1818  0.7707  0.1463
 3157SOL    HW121104   3.647   3.971   4.982 -0.5207 -0.2252  0.3246
 3157SOL    HW221105   3.530   3.998   5.057 -0.0315 -0.3295  2.0418
 3158SOL     OW21106   3.973   3.490  11.606  0.1513  0.1215  0.1654
 3158SOL    HW121107   3.986   3.422  11.672  1.8787 -0.6468 -0.9579
 3158SOL    HW221108   3.942   3.562  11.660 -1.4642 -0.2991 -0.1817
 3159SOL     OW21109   0.333   4.311   2.287  0.4030  0.5162  0.3440
 3159SOL    HW121110   0.299   4.387   2.334  1.6536  0.3140  1.5808
 3159SOL    HW221111   0.396   4.338   2.220 -0.4582 -0.9830 -1.0743
 3160SOL     OW21112   0.054   2.637  14.329 -1.0527 -0.6186  0.4566
 3160SOL    HW121113   0.032   2.544  14.332 -1.7279 -0.5166 -1.1512
 3160SOL    HW221114   0.104   2.646  14.410 -1.2855 -0.2258  0.5578
 3161SOL     OW21115   3.062   4.719   4.573 -0.5122  0.4721 -0.6654
 3161SOL    HW121116   3.070   4.625   4.586 -1.2022  0.4338 -0.4795
 3161SOL    HW221117   3.149   0.013   4.598 -1.2219  0.5056  1.8211
 3162SOL     OW21118   1.036   4.505   5.238 -0.4943  0.3546 -0.3402
 3162SOL    HW121119   0.982   4.432   5.267 -0.6676  1.9910  3.4196
 3162SOL    HW221120   0.999   4.540   5.158  1.0198  1.0787 -0.7315
 3163SOL     OW21121   4.406   4.220   9.255 -0.1980  0.3761  0.8738
 3163SOL    HW121122   4.409   4.126   9.238 -0.2403  0.0885  2.4107
 3163SOL    HW221123   4.496   4.241   9.281  0.9411 -1.6251 -1.5151
 3164SOL     OW21124   0.010   3.786   2.167  0.1470  0.3825  0.0142
 3164SOL    HW121125   0.098   3.783   2.129 -0.7073  0.1880 -1.9507
 3164SOL    HW221126   0.028   3.779   2.261 -0.6433 -1.5332  0.0109
 3165SOL     OW21127   3.494   3.817   5.506 -0.0050  0.3387  0.3780
 3165SOL    HW121128   3.498   3.886   5.573  0.8608 -0.8735  1.5771
 3165SOL    HW221129   3.539   3.870   5.440 -0.1813  0.4199  0.3228
 3166SOL     OW21130   1.716   0.642   2.147  0.3083 -0.1510 -0.3264
 3166SOL    HW121131   1.749   0.626   2.235  0.5419  0.7966 -0.2467
 3166SOL    HW221132   1.662   0.565   2.128 -1.4663  1.2649 -0.9731
 3167SOL     OW21133   0.363   3.846  12.069  0.1753  0.1003 -0.3524
 3167SOL    HW121134   0.326   3.894  11.995  0.3190  0.2849 -0.3033
 3167SOL    HW221135   0.453   3.877  12.077  0.8051 -1.7492 -0.3415
 3168SOL     OW21136   1.808   2.287   5.062  0.6791  0.0869  0.3528
 3168SOL    HW121137   1.903   2.298   5.065  0.7364 -0.0379 -0.7075
 3168SOL    HW221138   1.783   2.345   5.133  1.2312  0.6913  0.0553
 3169SOL     OW21139   0.856   4.184   4.984 -0.8296  0.6700  0.1952
 3169SOL    HW121140   0.807   4.171   4.903  2.0168  1.3875 -1.6795
 3169SOL    HW221141   0.915   4.108   4.983 -1.4249  0.2034  1.3540
 3170SOL     OW21142   0.460   4.204   1.915 -0.2900 -0.4755  0.3380
 3170SOL    HW121143   0.499   4.123   1.882 -0.4825 -0.7063  0.6789
 3170SOL    HW221144   0.517   4.225   1.989  1.9807 -2.8624 -0.7415
 3171SOL     OW21145   0.672   0.240  17.605  0.1583 -0.4888 -0.0901
 3171SOL    HW121146   0.597   0.256  17.664  0.0061 -0.9446 -0.1652
 3171SOL    HW221147   0.635   0.220  17.519 -1.0022 -0.4768  0.4034
 3172SOL     OW21148   2.126   2.030   9.560 -0.2284 -0.2104 -0.4846
 3172SOL    HW121149   2.221   2.035   9.570 -0.1589 -1.7029 -0.4643
 3172SOL    HW221150   2.106   2.088   9.634 -1.0400  1.1796 -1.7933
 3173SOL     OW21151   0.867   3.440   7.865  0.0642  0.9900 -0.1024
 3173SOL    HW121152   0.807   3.440   7.790  0.6865  0.1013 -0.5949
 3173SOL    HW221153   0.825   3.374   7.921  1.3553  0.6036  0.4076
 3174SOL     OW21154   0.072   3.872   6.048  0.0888  0.3055  0.1236
 3174SOL    HW121155   4.715   3.880   6.044  0.2473  2.5064  0.8291
 3174SOL    HW221156   0.098   3.932   5.978  1.3018 -2.5779 -1.8839
 3175SOL     OW21157   0.675   1.134   2.770 -0.6553  0.3152  0.0942
 3175SOL    HW121158   0.709   1.045   2.778 -1.0380  0.1659  0.0521
 3175SOL    HW221159   0.651   1.148   2.862 -1.5815  0.8794 -0.2419
 3176SOL     OW21160   3.923   1.061   8.385  0.6507 -0.1069 -0.0391
 3176SOL    HW121161   3.953   1.022   8.467  1.0698  1.7773  0.7092
 3176SOL    HW221162   4.009   1.096   8.360 -0.4450  1.4635 -1.6082
 3177SOL     OW21163   1.325   4.357   7.832  0.7616  0.2226 -0.2021
 3177SOL    HW121164   1.342   4.333   7.923  0.2298  0.2400 -0.1010
 3177SOL    HW221165   1.241   4.315   7.816 -0.0802  2.1942 -0.9191
 3178SOL     OW21166   4.311   2.517  14.158 -0.2473 -0.3214  0.0591
 3178SOL    HW121167   4.322   2.600  14.111  0.0007  0.7461  1.9660
 3178SOL    HW221168   4.394   2.525  14.207  0.6959 -1.3043 -1.3914
 3179SOL     OW21169   3.958   0.441   7.607 -0.3072  0.0352  0.2124
 3179SOL    HW121170   3.924   0.358   7.643 -1.1603  0.9370  1.4828
 3179SOL    HW221171   3.908   0.501   7.662  1.3973  2.2319 -0.6591
 3180SOL     OW21172   3.956   0.636   5.929 -0.1247 -0.8220  0.1047
 3180SOL    HW121173   4.046   0.644   5.896 -0.6070  1.5589 -0.6602
 3180SOL    HW221174   3.915   0.706   5.879 -0.3974 -1.0115  0.0626
 3181SOL     OW21175   2.021   0.583   1.461 -0.2294  0.0988  0.3261
 3181SOL    HW121176   1.982   0.670   1.469 -1.5036 -0.6909  2.6058
 3181SOL    HW221177   1.944   0.531   1.439  1.4887 -2.3460  0.0841
 3182SOL     OW21178   3.756   1.385   2.071  0.6614 -0.1414  0.0827
 3182SOL    HW121179   3.695   1.374   1.998 -0.3924  1.3142  0.7421
 3182SOL    HW221180   3.693   1.398   2.142 -0.4764 -0.9273 -0.7707
 3183SOL     OW21181   2.620   3.156   4.764 -0.3114  0.2216 -0.5179
 3183SOL    HW121182   2.704   3.163   4.719  0.1726 -0.9964  0.2188
 3183SOL    HW221183   2.599   3.065   4.743 -2.7570  0.7774 -0.5427
 3184SOL     OW21184   0.329   2.030   5.641 -0.3817  0.2210 -0.2358
 3184SOL    HW121185   0.412   1.996   5.607  0.7934  2.8125  0.0104
 3184SOL    HW221186   0.268   1.982   5.584  0.0967 -0.6235 -0.0264
 3185SOL     OW21187   3.484   4.285   7.139  0.3786  0.0143  0.8162
 3185SOL    HW121188   3.579   4.289   7.144  0.3056  3.2802 -0.2128
 3185SOL    HW221189   3.464   4.230   7.063 -2.6630 -0.0220  1.6433
 3186SOL     OW21190   2.206   1.540   5.687  0.4745  0.0570 -0.0495
 3186SOL    HW121191   2.161   1.587   5.757  1.2554  0.5846  0.1032
 3186SOL    HW221192   2.289   1.542   5.734  0.5837 -2.1621 -0.1592
 3187SOL     OW21193   3.713   0.003   8.323 -0.5351  0.5777 -0.3785
 3187SOL    HW121194   3.758   4.722   8.240 -1.5560 -1.1674 -0.5410
 3187SOL    HW221195   3.739   4.664   8.374 -0.6872  0.9599  0.2729
 3188SOL     OW21196   3.922   4.729   9.552 -0.4792  0.1849 -0.4435
 3188SOL    HW121197   3.859   0.016   9.619  0.3652  2.2216 -0.3977
 3188SOL    HW221198   3.998   4.696   9.601 -1.1127  0.4718  0.7154
 3189SOL     OW21199   1.830   2.469   7.954  0.2520  0.1499 -0.0340
 3189SOL    HW121200   1.802   2.480   7.863  0.8082  0.3089 -0.1820
 3189SOL    HW221201   1.800   2.379   7.968 -0.3826  0.3337 -0.1725
 3190SOL     OW21202   0.685   3.280   9.593  0.6114  0.0483  0.0146
 3190SOL    HW121203   0.664   3.197   9.550 -0.6583  0.3898 -0.0365
 3190SOL    HW221204   0.598   3.319   9.580  0.3535 -0.1939  0.9891
 3191SOL     OW21205   4.243   3.060   0.384  0.1793  0.4894 -0.2880
 3191SOL    HW121206   4.262   2.967   0.382  1.3249  0.7053  0.3842
 3191SOL    HW221207   4.273   3.082   0.473  2.5210  3.0228 -1.6785
 3192SOL     OW21208   4.363   3.760   8.200 -0.1289 -0.5514 -0.8441
 3192SOL    HW121209   4.449   3.728   8.172 -0.1189 -1.3786  0.1180
 3192SOL    HW221210   4.338   3.782   8.110 -1.9873  3.0782  0.5579
 3193SOL     OW21211   0.078   0.275   4.832 -0.4695 -0.0862  0.1217
 3193SOL    HW121212   0.069   0.332   4.909  1.5427 -1.0114  1.0301
 3193SOL    HW221213   0.037   0.326   4.762  0.1192  1.9210  1.2360
 3194SOL     OW21214   3.130   2.249  13.889 -0.6195 -0.0988  0.1349
 3194SOL    HW121215   3.090   2.241  13.803  2.3258  0.3148 -1.2790
 3194SOL    HW221216   3.181   2.330  13.884 -0.6944  0.0545  1.9908
 3195SOL     OW21217   2.821   1.816   6.363  0.3644  0.2879 -0.1348
 3195SOL    HW121218   2.792   1.736   6.319 -0.8574 -0.9982  3.0256
 3195SOL    HW221219   2.739   1.848   6.399 -0.3523  1.1562 -2.5128
 3196SOL     OW21220   3.242   2.164  11.084  0.6583  0.3908  0.1313
 3196SOL    HW121221   3.172   2.099  11.078  1.3779 -0.1929 -2.2136
 3196SOL    HW221222   3.195   2.230  11.032 -0.4211 -0.0459  0.5413
 3197SOL     OW21223   4.391   3.291   7.820 -0.1041  0.1791 -0.5223
 3197SOL    HW121224   4.330   3.267   7.751 -0.8734 -0.5483  0.4051
 3197SOL    HW221225   4.329   3.312   7.890  0.7174  0.3056  0.1702
 3198SOL     OW21226   0.456   1.374   6.001  0.7471 -0.0630  0.5459
 3198SOL    HW121227   0.421   1.450   5.955 -0.4410  0.1298  1.7509
 3198SOL    HW221228   0.514   1.334   5.936  0.8704  1.2090 -0.1228
 3199SOL     OW21229   0.496   2.558   9.608 -0.6628  0.3346  0.3187
 3199SOL    HW121230   0.531   2.482   9.655 -0.8763 -1.1261 -1.9131
 3199SOL    HW221231   0.418   2.571   9.662 -0.3268 -2.4273  1.4905
 3200SOL     OW21232   2.052   3.047   7.843 -0.1515 -0.0850 -0.5357
 3200SOL    HW121233   2.079   3.138   7.855  1.5821 -0.5955 -0.5865
 3200SOL    HW221234   2.033   3.017   7.932  1.8641 -1.2274 -0.5020
 3201SOL     OW21235   3.031   2.904   8.752  0.0078 -0.1945 -0.2157
 3201SOL    HW121236   2.983   2.822   8.762 -0.2848  0.1096  0.8376
 3201SOL    HW221237   3.108   2.890   8.806 -1.4725 -2.1337  1.3682
 3202SOL     OW21238   0.015   0.689   1.917  0.4395  0.7758 -0.2990
 3202SOL    HW121239   4.731   0.655   2.004 -1.3806 -2.4737 -2.0117
 3202SOL    HW221240   0.065   0.766   1.942  1.1897 -0.2776  1.4739
 3203SOL     OW21241   1.900   3.241  10.522 -0.0252 -0.4796  0.2070
 3203SOL    HW121242   1.862   3.204  10.442  0.5529  1.5530 -1.0016
 3203SOL    HW221243   1.972   3.293  10.485 -1.0844 -0.4562 -1.8402
 3204SOL     OW21244   1.296   0.401   7.176  0.9950  0.1936  0.4290
 3204SOL    HW121245   1.390   0.419   7.166  1.0423 -0.6907 -0.7117
 3204SOL    HW221246   1.275   0.324   7.124 -0.0839  1.2265 -0.6678
 3205SOL     OW21247   0.576   3.600   4.736  0.3251 -0.2842  0.0275
 3205SOL    HW121248   0.612   3.606   4.825  1.6421 -0.7778 -0.4743
 3205SOL    HW221249   0.509   3.668   4.736  0.3802 -0.2352 -0.5827
 3206SOL     OW21250   1.256   1.538   4.493 -0.1832 -0.4172  0.0234
 3206SOL    HW121251   1.327   1.591   4.530 -0.2577 -1.6836  1.9541
 3206SOL    HW221252   1.281   1.536   4.400 -0.5942 -0.2007 -0.0874
 3207SOL     OW21253   4.403   0.836   2.599  0.3260  0.1338 -1.0983
 3207SOL    HW121254   4.477   0.864   2.653 -1.0519  1.3644  0.1258
 3207SOL    HW221255   4.356   0.781   2.661 -2.2908  2.9782 -0.5724
 3208SOL     OW21256   3.783   1.084  15.508  0.5427  0.2347  0.4358
 3208SOL    HW121257   3.870   1.062  15.474  0.7809 -0.2161  1.3551
 3208SOL    HW221258   3.753   0.999  15.540  2.2752 -0.4899  0.1473
 3209SOL     OW21259   3.992   0.442   9.589  0.3305  0.6198  0.0746
 3209SOL    HW121260   3.916   0.427   9.533  0.8498 -1.5630 -0.0606
 3209SOL    HW221261   4.031   0.358   9.567 -0.6325 -0.1105  1.1160
 3210SOL     OW21262   1.463   2.620   5.317 -0.2728  0.4898  0.1500
 3210SOL    HW121263   1.485   2.709   5.290 -0.3597  0.8690  1.3346
 3210SOL    HW221264   1.370   2.642   5.328 -0.2019  0.8523  0.0135
 3211SOL     OW21265   0.505   0.713   1.087  0.4069 -0.4073 -0.2466
 3211SOL    HW121266   0.472   0.670   1.166 -0.9551  0.2853 -0.4355
 3211SOL    HW221267   0.593   0.711   1.124  0.5960  0.7048 -0.6264
 3212SOL     OW21268   0.557   0.815   5.932 -0.3278 -0.6751 -0.1399
 3212SOL    HW121269   0.532   0.759   5.858  1.9080  0.5937 -1.8341
 3212SOL    HW221270   0.650   0.792   5.929  0.6366  3.2885 -0.8382
 3213SOL     OW21271   3.368   3.450   8.016  0.4464 -0.2882  0.3090
 3213SOL    HW121272   3.298   3.440   8.080 -0.8551 -0.8312 -1.1946
 3213SOL    HW221273   3.314   3.437   7.937 -0.1711  0.1191  0.6654
 3214SOL     OW21274   1.362   1.671  13.670  0.1999  0.8994  0.1962
 3214SOL    HW121275   1.361   1.576  13.676 -1.6406  0.8592 -0.9102
 3214SOL    HW221276   1.441   1.689  13.721 -0.0932 -0.1235  1.0115
 3215SOL     OW21277   0.695   2.604  15.883 -0.2117  0.7144 -0.0239
 3215SOL    HW121278   0.734   2.674  15.830  2.9751  1.1829  2.8907
 3215SOL    HW221279   0.605   2.635  15.885 -0.9123 -1.3130 -1.1291
 3216SOL     OW21280   4.702   4.556   0.290  0.2151  0.3762  0.0201
 3216SOL    HW121281   4.625   4.566   0.346  0.2976  0.9484  0.0317
 3216SOL    HW221282   0.032   4.537   0.354 -0.1737  0.0172  0.3268
 3217SOL     OW21283   3.195   3.253  17.734  0.7803  0.3001  0.7463
 3217SOL    HW121284   3.278   3.225  17.693 -0.3171  1.1603 -2.0949
 3217SOL    HW221285   3.206   3.347  17.743  1.5502  0.3594 -0.7743
 3218SOL     OW21286   4.636   2.523  16.588 -0.1660  0.1367 -0.0739
 3218SOL    HW121287   4.609   2.433  16.606  1.0467 -0.2688 -0.2781
 3218SOL    HW221288   4.638   2.562  16.676  0.7415  0.7697 -0.3782
 3219SOL     OW21289   3.481   2.283   2.636  0.4602  0.1329  0.4522
 3219SOL    HW121290   3.388   2.299   2.653  0.6493  0.9488  0.7329
 3219SOL    HW221291   3.467   2.224   2.562  0.7405 -0.2342  0.6907
 3220SOL     OW21292   4.143   0.010   4.508  0.1134 -0.0768 -0.7649
 3220SOL    HW121293   4.086   4.676   4.478  0.2449 -0.6995  0.5068
 3220SOL    HW221294   4.228   4.704   4.509 -1.6174 -3.4836 -1.2432
 3221SOL     OW21295   2.349   3.393   3.729 -0.5248 -0.4836 -0.1507
 3221SOL    HW121296   2.272   3.435   3.767 -0.7390 -0.6413 -0.4193
 3221SOL    HW221297   2.398   3.471   3.703 -0.2550 -0.9219 -0.9420
 3222SOL     OW21298   4.021   2.571   4.378  0.4888 -0.6581  0.3886
 3222SOL    HW121299   4.079   2.625   4.432 -0.1218  0.9249 -0.5310
 3222SOL    HW221300   4.082   2.558   4.305 -2.3316  0.1144 -2.0983
 3223SOL     OW21301   3.832   0.626   9.195  0.7783 -0.2195 -0.1307
 3223SOL    HW121302   3.867   0.635   9.284  0.4967  1.9319 -0.2468
 3223SOL    HW221303   3.903   0.612   9.132  1.4319  0.1308  0.5193
 3224SOL     OW21304   2.490   3.860  13.331  0.0633 -0.3548 -0.0610
 3224SOL    HW121305   2.461   3.823  13.415  0.7054 -0.4288  0.1300
 3224SOL    HW221306   2.484   3.782  13.276 -0.9066 -0.5730  0.3493
 3225SOL     OW21307   1.307   0.019   2.290  0.3209 -0.3988  0.4893
 3225SOL    HW121308   1.312   4.733   2.383 -0.1046 -1.5128  0.2211
 3225SOL    HW221309   1.337   4.672   2.260  1.3582 -0.4230  1.5977
 3226SOL     OW21310   3.075   0.230   0.423 -0.2392  0.1208  0.3793
 3226SOL    HW121311   3.009   0.292   0.393 -1.6995 -1.4609  0.3057
 3226SOL    HW221312   3.022   0.169   0.474 -1.6980 -1.9629 -3.5724
 3227SOL     OW21313   3.159   0.417   4.580 -0.6575 -0.3466 -0.0508
 3227SOL    HW121314   3.123   0.402   4.667 -1.3377 -0.8857 -0.4200
 3227SOL    HW221315   3.222   0.345   4.570  1.5836  1.4465  1.1982
 3228SOL     OW21316   3.040   3.576   5.853  0.5806 -0.6547  0.4831
 3228SOL    HW121317   3.087   3.492   5.859 -1.1216 -1.6223  0.4564
 3228SOL    HW221318   2.956   3.539   5.827  0.7070 -0.7355  0.1936
 3229SOL     OW21319   2.881   2.483   2.194  0.0883  0.0814 -0.4364
 3229SOL    HW121320   2.899   2.476   2.100  3.4821  0.1258  0.2206
 3229SOL    HW221321   2.969   2.471   2.229  0.2360  1.9692 -0.1351
 3230SOL     OW21322   1.924   3.395  14.690  0.0419  0.1077  0.0997
 3230SOL    HW121323   1.905   3.412  14.597 -0.8412  0.0984  0.2810
 3230SOL    HW221324   1.834   3.385  14.721 -0.7053 -0.4246 -2.2482
 3231SOL     OW21325   2.531   2.736  16.593  0.2502  0.3545 -0.6182
 3231SOL    HW121326   2.550   2.739  16.499 -0.9097  0.5175 -0.8459
 3231SOL    HW221327   2.439   2.763  16.596 -0.6798 -2.4069 -3.8681
 3232SOL     OW21328   2.074   2.149   8.130  0.2939 -0.1444 -0.0255
 3232SOL    HW121329   2.108   2.111   8.049  0.2348 -3.4531  1.5385
 3232SOL    HW221330   2.060   2.243   8.114  0.7331 -0.2589 -1.0428
 3233SOL     OW21331   0.640   4.425  10.867  0.0569  0.6318 -0.2228
 3233SOL    HW121332   0.578   4.396  10.935  0.0365 -1.7046 -1.2531
 3233SOL    HW221333   0.604   4.368  10.799  0.0432 -0.6945  0.8804
 3234SOL     OW21334   2.498   0.633   1.417 -0.2432  0.1691  0.1223
 3234SOL    HW121335   2.418   0.671   1.451 -1.1302 -0.9725 -0.6889
 3234SOL    HW221336   2.511   0.567   1.484  0.9392  1.2618  0.9755
 3235SOL     OW21337   4.658   0.796   3.843  0.0157  0.0936  0.0812
 3235SOL    HW121338   4.726   0.799   3.776  0.8704 -0.4206  0.9192
 3235SOL    HW221339   4.710   0.800   3.924  1.0114  1.5716 -0.6353
 3236SOL     OW21340   1.580   1.966   9.612  0.6000 -0.3209  0.0676
 3236SOL    HW121341   1.675   1.963   9.604  0.5263  0.1963 -1.0155
 3236SOL    HW221342   1.575   2.061   9.615  0.6034 -0.2510 -1.9926
 3237SOL     OW21343   2.765   2.523  13.733  0.7392  0.4461 -0.1601
 3237SOL    HW121344   2.793   2.481  13.815  0.7763  0.5664 -0.1124
 3237SOL    HW221345   2.721   2.448  13.693 -0.8530  0.7730  0.9222
 3238SOL     OW21346   4.723   1.282  16.198  0.2843  0.1691 -0.6833
 3238SOL    HW121347   4.737   1.191  16.170 -1.2717 -0.1808 -0.2932
 3238SOL    HW221348   0.065   1.292  16.251  0.6379  0.1503 -1.2169
 3239SOL     OW21349   0.380   2.601   5.324  0.2481 -0.3241  0.7014
 3239SOL    HW121350   0.457   2.545   5.328 -0.8691 -1.9020 -0.0907
 3239SOL    HW221351   0.364   2.607   5.418  1.4969  1.2026  0.8237
 3240SOL     OW21352   0.011   3.870   3.908  0.7803 -0.3545  0.3397
 3240SOL    HW121353   0.082   3.811   3.885  0.2889 -2.0678  3.2161
 3240SOL    HW221354   0.038   3.955   3.873  1.2528 -0.8167 -0.4132
 3241SOL     OW21355   1.943   0.634  15.993 -0.6254 -0.3599  0.0693
 3241SOL    HW121356   1.872   0.692  16.022 -1.6981 -0.5348 -2.2091
 3241SOL    HW221357   1.910   0.547  16.014  0.3772 -0.6215  0.5522
 3242SOL     OW21358   2.431   2.909  17.334 -0.4142 -0.1817  0.2767
 3242SOL    HW121359   2.434   2.858  17.414 -1.0429 -0.9987 -0.2281
 3242SOL    HW221360   2.374   2.983  17.355  0.8611  0.6251  0.9474
 3243SOL     OW21361   3.964   0.793   1.866  0.0862  0.3292  0.1774
 3243SOL    HW121362   3.876   0.830   1.855  1.9797  4.0784 -2.3068
 3243SOL    HW221363   3.943   0.743   1.944  1.9943 -1.6648 -0.5821
 3244SOL     OW21364   4.376   1.966   8.776  0.0064  0.8656  0.1361
 3244SOL    HW121365   4.316   2.041   8.767 -0.1985  0.7905  0.8566
 3244SOL    HW221366   4.457   2.013   8.756 -0.5186  0.0897 -3.8491
 3245SOL     OW21367   0.905   4.007   5.354  0.0627 -0.7413  0.3312
 3245SOL    HW121368   0.844   3.935   5.371  1.7391 -2.2420 -0.1444
 3245SOL    HW221369   0.956   3.971   5.282 -0.5479  0.0455 -0.5019
 3246SOL     OW21370   2.844   2.511   8.012  0.5214 -0.3344 -0.3288
 3246SOL    HW121371   2.800   2.493   8.095 -0.9534  2.4569 -0.4785
 3246SOL    HW221372   2.933   2.523   8.046  0.8930 -0.9944 -1.0635
 3247SOL     OW21373   1.322   1.999   3.384  0.4414  0.8349 -1.1187
 3247SOL    HW121374   1.285   2.013   3.297 -2.4718 -3.2432 -0.4878
 3247SOL    HW221375   1.242   2.027   3.429  1.0717 -0.3804  0.7535
 3248SOL     OW21376   1.765   2.698   7.042  0.0208 -0.0937  0.2740
 3248SOL    HW121377   1.743   2.786   7.013  1.9222  0.1347 -0.4095
 3248SOL    HW221378   1.690   2.668   7.094  0.0684  0.9222  0.9260
 3249SOL     OW21379   3.837   4.145   9.081 -0.0654 -0.2725 -0.0160
 3249SOL    HW121380   3.836   4.215   9.146  0.0559 -0.6520  0.3878
 3249SOL    HW221381   3.928   4.118   9.095  0.9567  2.9479 -0.4134
 3250SOL     OW21382   1.694   0.537  10.759  0.3847 -0.2798  0.0240
 3250SOL    HW121383   1.695   0.632  10.762  2.6904 -0.3119  0.4510
 3250SOL    HW221384   1.753   0.510  10.830  1.9808  1.3998 -0.6842
 3251SOL     OW21385   3.962   0.329   6.185  0.1278 -0.1574 -0.7889
 3251SOL    HW121386   3.963   0.233   6.188  0.9148 -0.1670 -1.3647
 3251SOL    HW221387   3.946   0.345   6.092 -0.3290  0.5029 -0.5984
 3252SOL     OW21388   2.103   1.951   6.384 -0.9865  0.0500 -0.4396
 3252SOL    HW121389   2.095   1.856   6.381 -3.2792  0.3148 -2.2620
 3252SOL    HW221390   2.029   1.963   6.326 -1.5111 -1.3635 -0.0589
 3253SOL     OW21391   4.245   4.213   8.665  0.0835  0.9335  0.1976
 3253SOL    HW121392   4.255   4.208   8.570  0.6872  0.2891  0.2980
 3253SOL    HW221393   4.159   4.256   8.674 -0.3750 -0.1407  0.9726
 3254SOL     OW21394   4.294   0.127   8.501 -0.3094 -0.4724 -0.1654
 3254SOL    HW121395   4.280   0.178   8.580  0.0341 -0.9903  0.2279
 3254SOL    HW221396   4.379   0.157   8.468  1.0406 -2.5960  1.4508
 3255SOL     OW21397   3.917   1.400   2.782  0.0455 -0.1511  0.6312
 3255SOL    HW121398   3.870   1.467   2.731  3.0061  1.2328 -0.2794
 3255SOL    HW221399   3.879   1.410   2.869 -3.2493  0.6685 -0.8948
 3256SOL     OW21400   3.237   3.882   5.495  0.2492  0.1111  0.0454
 3256SOL    HW121401   3.174   3.867   5.565 -2.2166 -1.6889 -2.5714
 3256SOL    HW221402   3.317   3.840   5.529 -0.5305 -0.2710  1.4344
 3257SOL     OW21403   2.796   4.552   7.909 -0.0490  0.2442  0.3863
 3257SOL    HW121404   2.822   4.562   8.000  1.8836 -1.3041  0.0036
 3257SOL    HW221405   2.883   4.550   7.869 -0.2901  1.1937 -0.2120
 3258SOL     OW21406   1.336   2.207  12.968  0.0762 -0.7441 -0.1480
 3258SOL    HW121407   1.347   2.117  12.998 -0.2939 -0.4210  0.9751
 3258SOL    HW221408   1.251   2.206  12.925 -0.0997 -0.1958  0.1906
 3259SOL     OW21409   3.505   3.200   2.102  0.1228  0.0547 -0.4217
 3259SOL    HW121410   3.517   3.197   2.007 -0.4302 -3.4054 -0.4051
 3259SOL    HW221411   3.588   3.159   2.127 -1.5208 -1.7557  2.1311
 3260SOL     OW21412   4.034   1.210   5.440 -0.3067  0.1883  0.5808
 3260SOL    HW121413   3.942   1.204   5.464 -0.6633  2.6331 -0.1970
 3260SOL    HW221414   4.063   1.283   5.495  0.3136 -1.0366  1.8654
 3261SOL     OW21415   4.186   1.584   3.464  0.1811  0.5524 -0.3090
 3261SOL    HW121416   4.244   1.627   3.401  1.7916 -2.0557 -0.6192
 3261SOL    HW221417   4.243   1.571   3.540  2.0918 -0.2985 -1.8786
 3262SOL     OW21418   0.621   3.556   5.227 -0.3679  0.4365  0.0528
 3262SOL    HW121419   0.628   3.567   5.132 -0.1416  0.2506  0.0454
 3262SOL    HW221420   0.611   3.460   5.227  0.5366  0.3391 -1.3520
 3263SOL     OW21421   0.223   2.391  10.336  0.6552 -0.2649 -0.0521
 3263SOL    HW121422   0.239   2.451  10.409 -1.4966 -0.4849  0.6027
 3263SOL    HW221423   0.186   2.452  10.272  3.0556 -0.0578 -1.2139
 3264SOL     OW21424   1.672   0.798   3.636 -0.2885 -0.0064 -0.1136
 3264SOL    HW121425   1.742   0.746   3.676  0.7563  1.4591 -0.0701
 3264SOL    HW221426   1.683   0.881   3.682  0.9534 -0.0268 -0.3772
 3265SOL     OW21427   4.353   2.203   3.483 -0.4138 -0.0432  0.2675
 3265SOL    HW121428   4.412   2.163   3.546  0.2968 -0.5151 -0.6881
 3265SOL    HW221429   4.338   2.290   3.519 -1.2089  0.1531 -0.5300
 3266SOL     OW21430   1.773   2.663   9.015 -0.1951 -0.0010 -0.5233
 3266SOL    HW121431   1.819   2.580   9.023  1.8159  1.2326  0.5142
 3266SOL    HW221432   1.706   2.638   8.950  0.0249 -0.7968 -0.4498
 3267SOL     OW21433   0.236   2.534   8.388  0.2194 -0.4332  0.4806
 3267SOL    HW121434   0.278   2.481   8.321  0.0858  1.4612 -1.0766
 3267SOL    HW221435   0.242   2.481   8.468  0.8470 -3.3076 -1.4744
 3268SOL     OW21436   1.972   0.274   3.267 -0.1418 -0.3318  0.1868
 3268SOL    HW121437   2.040   0.207   3.265 -0.9043 -1.1286  0.8909
 3268SOL    HW221438   1.896   0.227   3.303 -1.3876  0.5938 -1.2202
 3269SOL     OW21439   2.215   4.582  15.838 -0.0766  0.7749  0.2860
 3269SOL    HW121440   2.270   4.642  15.888  0.3073  0.3766  0.3347
 3269SOL    HW221441   2.158   4.562  15.912  0.3214  0.7012  0.5713
 3270SOL     OW21442   4.055   3.824   3.629 -0.0757 -0.0648 -0.1637
 3270SOL    HW121443   4.126   3.868   3.675  0.6576  1.6719 -2.9710
 3270SOL    HW221444   4.076   3.737   3.662  1.1209  0.7558  1.2364
 3271SOL     OW21445   4.546   1.717   3.061  0.0423  0.5217 -0.9005
 3271SOL    HW121446   4.556   1.663   2.983 -0.7446 -1.5421  0.4390
 3271SOL    HW221447   4.569   1.646   3.121  0.6279  1.2435 -0.2707
 3272SOL     OW21448   2.817   0.594   4.243  0.2732 -0.0223 -0.0336
 3272SOL    HW121449   2.830   0.649   4.320 -1.1457 -0.5871  0.5956
 3272SOL    HW221450   2.872   0.520   4.267 -0.5989  0.1362  2.4341
 3273SOL     OW21451   0.030   1.941   6.182 -0.4472  0.0426 -0.3114
 3273SOL    HW121452   4.694   2.001   6.194  1.6738  2.7750 -0.7148
 3273SOL    HW221453   0.034   1.952   6.087  0.9731 -0.7963 -0.3542
 3274SOL     OW21454   0.240   0.838   2.888 -0.2058 -0.5365 -0.1988
 3274SOL    HW121455   0.184   0.874   2.957  1.7619 -0.1634  1.2227
 3274SOL    HW221456   0.183   0.767   2.861 -0.1236 -0.6220 -0.1454
 3275SOL     OW21457   4.267   1.948   3.955  0.1920  0.1177 -0.0479
 3275SOL    HW121458   4.266   2.004   4.033  0.6221  0.2727 -0.1543
 3275SOL    HW221459   4.264   1.862   3.996  0.1805 -0.4890 -1.3212
 3276SOL     OW21460   1.444   2.288   0.054 -0.0509 -0.3634  0.0424
 3276SOL    HW121461   1.454   2.202   0.013  1.4888 -0.5601  0.8402
 3276SOL    HW221462   1.536   2.306   0.074 -0.2311 -0.8395  1.3139
 3277SOL     OW21463   4.159   1.498   2.617 -0.4114 -0.2292 -0.4085
 3277SOL    HW121464   4.115   1.428   2.665  0.0343 -0.4475 -0.3168
 3277SOL    HW221465   4.180   1.545   2.698  2.1516 -2.2953  0.1364
 3278SOL     OW21466   0.608   1.269   5.800 -0.0884 -0.3456 -0.7731
 3278SOL    HW121467   0.560   1.187   5.797 -0.8081  0.0148  0.8847
 3278SOL    HW221468   0.698   1.239   5.787 -0.7470 -2.0869 -1.1943
 3279SOL     OW21469   4.069   2.821   7.431  0.1083 -0.3547 -0.2133
 3279SOL    HW121470   4.090   2.889   7.366  0.8609 -0.7917 -0.4384
 3279SOL    HW221471   3.995   2.859   7.477  0.5118  2.0978 -1.5668
 3280SOL     OW21472   1.319   3.904   2.395  0.4437  0.2271 -0.2978
 3280SOL    HW121473   1.379   3.874   2.326 -0.1955 -0.4902 -0.5425
 3280SOL    HW221474   1.236   3.858   2.381  1.1978 -1.2318 -0.0504
 3281SOL     OW21475   4.062   1.916   0.316  0.1803  0.0468  0.1094
 3281SOL    HW121476   4.006   1.840   0.333 -1.8800  1.3970 -0.6707
 3281SOL    HW221477   4.110   1.893   0.237  0.9647 -1.9894  1.1599
 3282SOL     OW21478   2.483   4.417   6.675 -0.7044  0.0740  0.6493
 3282SOL    HW121479   2.469   4.445   6.765  0.5187 -0.9307  1.1571
 3282SOL    HW221480   2.541   4.341   6.688  1.2712  1.4022 -0.4637
 3283SOL     OW21481   4.388   4.352   7.543  0.2453 -0.2666 -0.0818
 3283SOL    HW121482   4.398   4.333   7.636  0.4059 -1.5091 -0.3504
 3283SOL    HW221483   4.478   4.336   7.516 -0.3732 -1.3324 -1.5149
 3284SOL     OW21484   1.482   0.029   1.980 -0.0333 -0.4674 -0.1873
 3284SOL    HW121485   1.559   0.082   1.962  0.2911 -0.4485  1.2005
 3284SOL    HW221486   1.518   4.683   2.010 -1.2561 -0.6808  0.7028
 3285SOL     OW21487   1.989   2.339   2.589  0.4913  0.5445 -0.0358
 3285SOL    HW121488   1.921   2.317   2.652 -0.1000  1.6626 -0.2985
 3285SOL    HW221489   2.003   2.432   2.606  0.2955  0.3630  1.1467
 3286SOL     OW21490   3.205   3.348   1.129 -0.2663 -0.2601 -0.6579
 3286SOL    HW121491   3.292   3.310   1.113 -1.5647 -3.3967 -0.2260
 3286SOL    HW221492   3.219   3.424   1.073 -0.3553 -0.0090 -0.3427
 3287SOL     OW21493   0.024   2.586  13.966 -0.7143 -0.6608  0.0354
 3287SOL    HW121494   4.736   2.652  13.903 -0.0738  2.4850  3.0555
 3287SOL    HW221495   4.694   2.589  14.034 -3.1165 -0.4015 -2.3729
 3288SOL     OW21496   0.575   3.206   0.744  0.0551  0.1169 -0.3134
 3288SOL    HW121497   0.553   3.295   0.770 -1.8706  0.1652 -2.1247
 3288SOL    HW221498   0.579   3.216   0.649 -1.7109  2.1435 -0.1660
 3289SOL     OW21499   2.884   0.452   2.880 -0.2231  0.3039  0.2580
 3289SOL    HW121500   2.956   0.443   2.818  0.2932  1.5409  0.6685
 3289SOL    HW221501   2.878   0.548   2.881 -3.3073  0.1088 -0.8678
 3290SOL     OW21502   2.434   0.513  14.432 -0.0733 -0.0339 -0.1162
 3290SOL    HW121503   2.422   0.534  14.525 -0.4052  0.3064 -0.2360
 3290SOL    HW221504   2.468   0.424  14.428  1.3791  0.5215 -0.4114
 3291SOL     OW21505   3.175   2.479   2.159  0.1123 -0.8957 -0.1666
 3291SOL    HW121506   3.156   2.465   2.067 -1.6329 -1.4196  0.2784
 3291SOL    HW221507   3.269   2.459   2.163  0.4887  0.5113 -1.8740
 3292SOL     OW21508   3.993   0.542  17.150  0.9111 -0.4531  0.1106
 3292SOL    HW121509   3.981   0.634  17.173  0.8387 -0.4201 -0.0606
 3292SOL    HW221510   4.081   0.545  17.111  0.1865 -1.7134 -1.6149
 3293SOL     OW21511   3.733   4.498   8.952  0.1964 -0.2454 -0.2752
 3293SOL    HW121512   3.787   4.456   9.019 -0.8756  0.3185  0.9332
 3293SOL    HW221513   3.780   4.578   8.927 -0.1160  0.5084  1.4984
 3294SOL     OW21514   2.726   2.206   1.025  0.2151  0.0333  0.3470
 3294SOL    HW121515   2.698   2.286   0.980  0.8322 -0.5943 -1.1394
 3294SOL    HW221516   2.646   2.186   1.074 -0.0163  0.9998  0.3753
 3295SOL     OW21517   1.620   1.612   1.565 -0.1472  0.4610 -0.3663
 3295SOL    HW121518   1.525   1.608   1.553 -0.3022  1.9628  0.2774
 3295SOL    HW221519   1.631   1.608   1.660  1.4685 -0.2240 -0.5904
 3296SOL     OW21520   3.207   2.608   1.712  0.0670  0.4487 -0.0804
 3296SOL    HW121521   3.137   2.666   1.743  0.3344  0.1323  1.1184
 3296SOL    HW221522   3.184   2.635   1.623 -0.5075  0.2990  0.0218
 3297SOL     OW21523   4.147   3.648  12.503  0.0165  0.1270 -1.0476
 3297SOL    HW121524   4.174   3.721  12.448  0.0446  0.7830 -0.1738
 3297SOL    HW221525   4.168   3.685  12.589 -1.9206 -1.0944 -0.0454
 3298SOL     OW21526   4.157   1.987   2.849  0.1219  0.3919  0.4207
 3298SOL    HW121527   4.171   2.038   2.929  1.7550 -0.1343  0.4737
 3298SOL    HW221528   4.195   2.044   2.783 -0.4460 -0.2450 -0.4494
 3299SOL     OW21529   3.152   2.295   7.433  0.3146 -0.1553  0.2820
 3299SOL    HW121530   3.070   2.277   7.480 -0.0565 -2.8776 -1.4332
 3299SOL    HW221531   3.145   2.388   7.411  0.9358 -0.4306 -1.0342
 3300SOL     OW21532   3.313   1.339   6.862 -0.4690 -0.6281 -0.0151
 3300SOL    HW121533   3.237   1.373   6.814 -0.7173  0.9338  1.4754
 3300SOL    HW221534   3.277   1.305   6.944  1.4170  0.1531  1.1462
 3301SOL     OW21535   2.766   0.943   8.317  0.4186 -0.2755  0.0221
 3301SOL    HW121536   2.743   1.026   8.275 -0.4693 -0.2932  0.4789
 3301SOL    HW221537   2.827   0.966   8.387  0.5691 -0.4698 -0.0482
 3302SOL     OW21538   3.027   3.040  17.174  0.2927 -0.2939  0.5019
 3302SOL    HW121539   3.096   2.974  17.172  0.3437 -0.2258  0.0623
 3302SOL    HW221540   2.992   3.028  17.086 -0.4038 -0.8189  0.8470
 3303SOL     OW21541   4.332   2.016   6.743 -0.2151  0.0124  0.2098
 3303SOL    HW121542   4.328   1.978   6.655 -0.4326 -3.0329  1.5553
 3303SOL    HW221543   4.278   2.094   6.730  0.2435  0.1105 -1.1340
 3304SOL     OW21544   1.905   0.816   1.500  0.4196  0.2029  0.8235
 3304SOL    HW121545   1.916   0.871   1.577 -2.5860 -0.9175  2.0660
 3304SOL    HW221546   1.884   0.873   1.427 -0.9867  1.0234  1.8681
 3305SOL     OW21547   2.694   2.426   7.807 -0.4322 -0.4714 -0.1390
 3305SOL    HW121548   2.689   2.508   7.758  2.6037 -0.0036  0.3223
 3305SOL    HW221549   2.747   2.454   7.882 -0.9587 -1.8215  0.7404
 3306SOL     OW21550   1.046   0.034  13.420 -0.5097 -0.2400 -0.1689
 3306SOL    HW121551   1.037   4.690  13.469  0.6590  0.1589  0.7092
 3306SOL    HW221552   0.966   0.025  13.368  1.0438 -0.0791 -2.6157
 3307SOL     OW21553   4.088   0.140   5.104  0.4083  0.9154  0.2801
 3307SOL    HW121554   4.137   0.066   5.139 -0.2022  0.6436  0.5550
 3307SOL    HW221555   4.084   0.116   5.012  0.1515 -1.1995  0.8357
 3308SOL     OW21556   3.413   0.282   7.301  0.0989  1.1152  0.2048
 3308SOL    HW121557   3.487   0.227   7.273 -2.1382 -1.9610  0.2663
 3308SOL    HW221558   3.449   0.361   7.261  0.4947 -0.5740 -2.8328
 3309SOL     OW21559   3.301   1.233   3.604  0.9033 -0.1476 -0.1914
 3309SOL    HW121560   3.376   1.273   3.647 -0.2295 -1.5010  2.9898
 3309SOL    HW221561   3.245   1.311   3.606  0.4090 -0.4992 -0.3578
 3310SOL     OW21562   1.510   3.351   0.532  0.3185  0.0384  0.5009
 3310SOL    HW121563   1.538   3.340   0.441  1.7317  0.3529  0.8913
 3310SOL    HW221564   1.539   3.441   0.548 -0.1954 -0.2683  3.1322
 3311SOL     OW21565   0.557   1.722   4.721  0.3137  0.1656  0.2804
 3311SOL    HW121566   0.474   1.767   4.734  0.3087  0.6346 -1.3796
 3311SOL    HW221567   0.585   1.723   4.630  1.0076 -3.1450  0.4667
 3312SOL     OW21568   1.174   3.554   8.486  0.2564 -0.3774 -0.5007
 3312SOL    HW121569   1.130   3.582   8.405  1.9060 -0.5136 -1.4382
 3312SOL    HW221570   1.198   3.467   8.455  0.9734 -1.0299  1.9683
 3313SOL     OW21571   1.106   1.396   4.091  0.3045  0.0370  0.2069
 3313SOL    HW121572   1.060   1.402   4.007  0.6199 -0.2075  0.0184
 3313SOL    HW221573   1.038   1.376   4.155  0.9813  1.5273  1.4073
 3314SOL     OW21574   4.635   3.820   8.541  0.2821 -0.0959 -0.0518
 3314SOL    HW121575   4.564   3.808   8.604  0.2064 -1.0159 -0.3136
 3314SOL    HW221576   4.706   3.768   8.580 -0.9725 -2.0038 -0.3281
 3315SOL     OW21577   2.477   0.002   2.447  0.0442  0.2949  0.1557
 3315SOL    HW121578   2.428   0.026   2.368  0.1760 -1.3062 -0.4285
 3315SOL    HW221579   2.556   0.056   2.437  0.3686 -0.3232 -0.6895
 3316SOL     OW21580   0.452   1.658  15.933  0.3875  0.4981  0.3558
 3316SOL    HW121581   0.392   1.708  15.878  0.3120  1.1922  1.0674
 3316SOL    HW221582   0.506   1.619  15.864 -0.6522  0.0147 -0.1827
 3317SOL     OW21583   1.823   2.005   7.749 -0.4132  0.3195  0.1114
 3317SOL    HW121584   1.817   1.925   7.697  1.7503  0.6785 -0.6692
 3317SOL    HW221585   1.755   1.988   7.814 -1.3317  1.3804 -0.5514
 3318SOL     OW21586   1.453   2.036  17.446 -0.0094  0.1997  0.1628
 3318SOL    HW121587   1.438   1.952  17.403 -1.9582  1.0241 -0.7922
 3318SOL    HW221588   1.514   2.079  17.386  1.8441 -0.3305  1.6636
 3319SOL     OW21589   0.548   1.984   3.498 -0.0696  0.0790 -0.0405
 3319SOL    HW121590   0.545   2.078   3.482 -1.7892  0.2590  1.3408
 3319SOL    HW221591   0.506   1.967   3.583 -1.0611 -1.2609 -0.8013
 3320SOL     OW21592   3.453   0.952   9.394 -0.1579 -0.0964 -0.0920
 3320SOL    HW121593   3.547   0.937   9.401 -0.1544  0.4185  1.0496
 3320SOL    HW221594   3.417   0.865   9.379 -2.6194  0.6978  1.2374
 3321SOL     OW21595   1.127   0.950  14.439 -0.7632 -0.0318  0.4598
 3321SOL    HW121596   1.162   0.917  14.357 -1.9252 -2.4235  0.9412
 3321SOL    HW221597   1.197   0.916  14.494 -3.3426 -4.2715  1.1087
 3322SOL     OW21598   2.216   3.623  16.992  0.3658  0.1995  0.4301
 3322SOL    HW121599   2.253   3.701  17.033  0.6617  0.7597 -0.8952
 3322SOL    HW221600   2.281   3.593  16.929 -1.8650  2.9576 -3.1902
 3323SOL     OW21601   4.494   3.943  13.130 -0.1383 -0.1299  0.4321
 3323SOL    HW121602   4.461   3.968  13.044 -2.3799 -1.0368  1.0088
 3323SOL    HW221603   4.410   3.927  13.174  0.1313  0.0399  1.0136
 3324SOL     OW21604   2.566   2.321  13.353  0.0018 -0.3847 -0.4151
 3324SOL    HW121605   2.528   2.328  13.265  0.4079  0.3559 -0.5390
 3324SOL    HW221606   2.658   2.303  13.330  0.0343 -0.1189 -0.4954
 3325SOL     OW21607   2.348   1.884   1.427  0.1245 -0.1594 -0.3187
 3325SOL    HW121608   2.319   1.970   1.397  1.0202 -0.1714 -1.2331
 3325SOL    HW221609   2.418   1.855   1.367 -0.4407 -0.0098 -1.0582
 3326SOL     OW21610   3.627   4.406   2.592 -0.2031  0.1935  0.0588
 3326SOL    HW121611   3.691   4.449   2.648  0.8077 -0.5518 -0.5108
 3326SOL    HW221612   3.690   4.380   2.524  1.9509  1.6999  1.5102
 3327SOL     OW21613   0.061   3.465   6.137  0.4123  0.2059  0.6374
 3327SOL    HW121614   0.104   3.473   6.052 -1.8168  0.5408 -0.4409
 3327SOL    HW221615   0.061   3.369   6.142  3.1373 -0.0393 -3.8655
 3328SOL     OW21616   0.924   3.511   7.123 -0.6862 -0.0122  0.2987
 3328SOL    HW121617   0.990   3.572   7.089  0.7666 -1.1168  1.0922
 3328SOL    HW221618   0.941   3.525   7.216  0.8993  0.4280 -0.0450
 3329SOL     OW21619   2.626   2.915  14.140 -0.3470 -0.0687 -0.0192
 3329SOL    HW121620   2.635   2.909  14.045  1.3056  0.5455  0.1069
 3329SOL    HW221621   2.599   3.007  14.148 -1.1809 -0.3980  0.9926
 3330SOL     OW21622   1.712   2.781  16.825 -0.1418 -0.2102  0.3837
 3330SOL    HW121623   1.698   2.830  16.745 -0.5905 -1.6347 -0.4118
 3330SOL    HW221624   1.645   2.713  16.813 -0.4180  0.5353 -2.2590
 3331SOL     OW21625   4.369   2.641   6.908  0.1477 -0.2682  0.4833
 3331SOL    HW121626   4.414   2.557   6.910 -0.9120 -0.8247  1.1942
 3331SOL    HW221627   4.332   2.653   6.996  0.8577  0.5364  0.6651
 3332SOL     OW21628   4.199   3.745  16.406  1.0419  0.4746  0.1519
 3332SOL    HW121629   4.286   3.725  16.441  1.2939  1.4378  0.0693
 3332SOL    HW221630   4.173   3.817  16.464  0.3949 -0.3503  0.8943
 3333SOL     OW21631   0.332   2.801   2.816  0.0832 -0.0510 -0.2600
 3333SOL    HW121632   0.252   2.829   2.772 -1.4602 -0.9461  1.9512
 3333SOL    HW221633   0.376   2.750   2.749 -0.1573  1.6679 -1.7256
 3334SOL     OW21634   1.957   1.108   0.338 -0.8504 -0.2785 -0.0086
 3334SOL    HW121635   1.866   1.095   0.363 -0.6793  0.6284  1.0308
 3334SOL    HW221636   1.995   1.081   0.422 -0.5526  0.4368  0.0842
 3335SOL     OW21637   3.072   1.157   7.962  0.2121  0.1111  0.0963
 3335SOL    HW121638   2.996   1.100   7.973 -0.7839  1.6127  0.9689
 3335SOL    HW221639   3.135   1.097   7.920  0.4040 -1.8429  3.1576
 3336SOL     OW21640   2.270   2.981   7.686 -0.0135 -0.3562 -0.3642
 3336SOL    HW121641   2.187   3.014   7.720  0.1658 -0.4846  0.1975
 3336SOL    HW221642   2.268   2.902   7.741  0.6894  0.0278  0.2133
 3337SOL     OW21643   0.615   1.827   0.221 -0.0768 -0.1357  0.2422
 3337SOL    HW121644   0.522   1.847   0.231 -0.0106  0.9507 -1.2246
 3337SOL    HW221645   0.649   1.895   0.280  1.5943  0.1817 -1.0911
 3338SOL     OW21646   4.505   0.081  10.113  0.1206  0.1488 -0.2900
 3338SOL    HW121647   4.531   0.135  10.038 -0.4533  0.8852  0.0434
 3338SOL    HW221648   4.594   0.075  10.147 -0.0128  0.3919  0.0911
 3339SOL     OW21649   0.967   1.543  17.089 -0.7393 -0.3905 -0.3711
 3339SOL    HW121650   0.931   1.606  17.026 -0.9377  0.5711  0.6991
 3339SOL    HW221651   0.887   1.521  17.137  0.5492 -3.2637  0.4306
 3340SOL     OW21652   0.417   2.157   4.028  0.3477 -0.2416 -0.8576
 3340SOL    HW121653   0.430   2.162   4.123  1.1249 -2.6066 -0.8467
 3340SOL    HW221654   0.377   2.243   4.009 -0.8761 -0.5422  0.3051
 3341SOL     OW21655   2.266   0.092  15.247 -0.2525  0.2497  0.1716
 3341SOL    HW121656   2.219   0.037  15.185 -1.5860  1.1569  0.3617
 3341SOL    HW221657   2.231   0.052  15.327 -0.2796  0.4198  0.2457
 3342SOL     OW21658   4.734   4.173   1.730  0.3661  0.6547  0.1100
 3342SOL    HW121659   4.691   4.089   1.746  3.6074 -1.2821 -1.2363
 3342SOL    HW221660   0.080   4.152   1.772  0.2578  0.1959  0.0972
 3343SOL     OW21661   3.077   1.110   3.076 -0.5376  0.1986  0.1145
 3343SOL    HW121662   3.071   1.132   3.169 -1.9983  2.0878 -0.4304
 3343SOL    HW221663   3.124   1.185   3.038 -0.4361  0.1166  0.0792
 3344SOL     OW21664   3.611   0.247   2.110 -0.3642  0.1324  0.0984
 3344SOL    HW121665   3.684   0.251   2.172  0.3582 -0.2308 -0.7175
 3344SOL    HW221666   3.645   0.182   2.047 -2.9603  1.7312 -2.9481
 3345SOL     OW21667   2.126   1.541   2.234  0.5434  0.1044 -0.3977
 3345SOL    HW121668   2.129   1.610   2.300  2.1952  0.0573 -0.4303
 3345SOL    HW221669   2.104   1.463   2.286 -0.8939  0.5452 -0.3488
 3346SOL     OW21670   2.029   3.909   5.283  0.2381  0.1639 -0.2167
 3346SOL    HW121671   1.955   3.862   5.323  0.0695 -0.6329 -1.4548
 3346SOL    HW221672   2.045   3.854   5.206  1.6170  1.0810 -0.5866
 3347SOL     OW21673   4.128   3.209   0.614  0.2674 -0.1230 -0.1252
 3347SOL    HW121674   4.063   3.155   0.569  0.6760 -1.7445  1.2398
 3347SOL    HW221675   4.191   3.143   0.643  0.2010 -0.9378 -1.7943
 3348SOL     OW21676   2.355   2.848   6.880  0.1244  0.1705  0.4624
 3348SOL    HW121677   2.271   2.807   6.858  0.0181 -0.1800  1.5160
 3348SOL    HW221678   2.322   2.915   6.939 -0.0997  1.0448 -0.6421
 3349SOL     OW21679   1.468   1.788   1.823 -0.5462  0.2132 -0.4043
 3349SOL    HW121680   1.542   1.727   1.824 -0.7727 -0.0232  1.3051
 3349SOL    HW221681   1.507   1.874   1.837 -1.0528  0.4307 -0.3388
 3350SOL     OW21682   1.363   3.641  17.013  0.4436 -0.2087 -0.0440
 3350SOL    HW121683   1.369   3.554  17.051  1.4995 -0.4158 -0.6913
 3350SOL    HW221684   1.448   3.684  17.024 -0.4637  1.4887  0.3683
 3351SOL     OW21685   2.353   3.567   3.345  0.1710  0.3269  0.1801
 3351SOL    HW121686   2.307   3.627   3.405  1.1513  1.7274 -0.4725
 3351SOL    HW221687   2.443   3.598   3.349  0.6018 -0.9085  0.1571
 3352SOL     OW21688   1.462   0.071  11.473 -0.0833 -1.0015  0.0436
 3352SOL    HW121689   1.515   0.148  11.493 -0.9520 -0.8064  1.5579
 3352SOL    HW221690   1.399   0.114  11.415  0.9007  3.7394  2.4576
 3353SOL     OW21691   0.461   4.293   8.421  0.4215 -0.5266  0.3632
 3353SOL    HW121692   0.501   4.266   8.503  0.8398  1.1562  0.7034
 3353SOL    HW221693   0.492   4.227   8.359 -1.8503 -2.4282  1.2613
 3354SOL     OW21694   4.648   1.742  11.206 -0.2348  0.3913  0.2944
 3354SOL    HW121695   4.572   1.701  11.165  1.0621  0.2417 -1.9455
 3354SOL    HW221696   4.723   1.688  11.180  0.6701  0.9266  1.7469
 3355SOL     OW21697   1.379   2.637   6.539 -0.0313  0.3474 -0.0594
 3355SOL    HW121698   1.384   2.564   6.601  0.1275  0.1942 -0.2534
 3355SOL    HW221699   1.446   2.694   6.575  0.5381 -0.6455  0.4606
 3356SOL     OW21700   3.776   1.824   9.902 -0.2840  0.1280  0.0977
 3356SOL    HW121701   3.780   1.912   9.938 -0.6250  0.8063 -1.5467
 3356SOL    HW221702   3.817   1.765   9.966  0.5483 -0.1032 -0.6606
 3357SOL     OW21703   2.833   2.320   2.567  0.5283 -0.1025  0.2784
 3357SOL    HW121704   2.880   2.326   2.650 -2.4194 -0.6884  2.0209
 3357SOL    HW221705   2.784   2.239   2.583  1.1336 -0.2590  1.3762
 3358SOL     OW21706   4.223   2.122  15.821  0.5472 -0.0715 -0.2947
 3358SOL    HW121707   4.265   2.141  15.905  0.9044 -1.0448 -0.2549
 3358SOL    HW221708   4.303   2.087  15.781  0.3891 -0.8994  0.1108
 3359SOL     OW21709   1.650   0.438   6.379 -0.3173 -0.0201  0.2323
 3359SOL    HW121710   1.712   0.418   6.450 -0.3404  0.5618  0.4206
 3359SOL    HW221711   1.691   0.515   6.339  0.3852 -1.2071 -1.3366
 3360SOL     OW21712   1.339   0.360  14.005  0.3196 -0.1572  0.2974
 3360SOL    HW121713   1.339   0.264  14.005 -1.5198 -0.1417 -2.1870
 3360SOL    HW221714   1.261   0.374  13.952  1.0303  1.6084 -0.2870
 3361SOL     OW21715   4.279   0.848   4.091 -0.0198 -0.2137 -0.1846
 3361SOL    HW121716   4.323   0.772   4.054  1.0207  0.9332 -1.3190
 3361SOL    HW221717   4.292   0.901   4.012  2.9798  0.9158  1.0650
 3362SOL     OW21718   2.804   3.875   5.732 -0.0924  0.5800  0.4802
 3362SOL    HW121719   2.725   3.828   5.759  0.3954 -0.3706  0.2626
 3362SOL    HW221720   2.768   3.929   5.662  0.2748 -0.3817 -0.4539
 3363SOL     OW21721   4.698   4.008   6.702  0.8060  0.0497  0.4310
 3363SOL    HW121722   4.695   4.002   6.797  1.2950 -0.3870  0.4126
 3363SOL    HW221723   0.026   4.074   6.680  0.5908 -0.0138 -0.4323
 3364SOL     OW21724   2.757   3.899  13.074 -0.4953  0.2143 -0.1881
 3364SOL    HW121725   2.717   3.903  12.987  0.9680  0.4683 -0.8497
 3364SOL    HW221726   2.723   3.816  13.106  0.2924  0.3003  0.8408
 3365SOL     OW21727   2.361   2.444   7.141 -0.5540 -0.4056  0.3833
 3365SOL    HW121728   2.274   2.442   7.100 -0.4801 -1.0470  0.2553
 3365SOL    HW221729   2.372   2.351   7.159  0.0436 -0.4682 -0.3158
 3366SOL     OW21730   2.071   3.150   1.376  0.1143  0.2645 -0.2593
 3366SOL    HW121731   2.020   3.197   1.441  0.5121  0.1815  0.1156
 3366SOL    HW221732   2.005   3.105   1.323 -1.4938  3.8263 -1.2334
 3367SOL     OW21733   3.753   3.093   2.096  0.2869  0.1127  0.1505
 3367SOL    HW121734   3.838   3.078   2.138  1.6908 -1.0204 -3.0760
 3367SOL    HW221735   3.765   3.025   2.030 -4.7116  0.1493 -0.7971
 3368SOL     OW21736   0.618   3.963  12.238 -0.1977  0.2944  0.4532
 3368SOL    HW121737   0.702   4.003  12.257 -0.8665  2.2346 -0.6253
 3368SOL    HW221738   0.598   4.019  12.163  0.7019 -0.3503 -0.2511
 3369SOL     OW21739   3.188   3.259  14.565 -0.1396  0.1252 -0.1245
 3369SOL    HW121740   3.216   3.227  14.480 -0.7441  0.1682 -0.3377
 3369SOL    HW221741   3.119   3.196  14.585 -1.1822  0.2507 -3.3559
 3370SOL     OW21742   2.416   0.297   3.296  1.0673 -0.1451  0.3730
 3370SOL    HW121743   2.450   0.256   3.216 -0.4848 -0.9227  0.0946
 3370SOL    HW221744   2.341   0.243   3.323 -0.6491  1.6934 -0.6944
 3371SOL     OW21745   1.201   0.956  10.200 -0.2242 -0.2123  0.3039
 3371SOL    HW121746   1.251   0.908  10.266  2.4941  1.8385 -0.2597
 3371SOL    HW221747   1.192   1.044  10.235  0.1856  0.1881 -0.5859
 3372SOL     OW21748   2.807   2.394   6.494 -0.1383  0.0201 -0.1740
 3372SOL    HW121749   2.790   2.330   6.562  0.7850 -1.9483 -1.8045
 3372SOL    HW221750   2.720   2.432   6.477  0.6224  2.6207  1.8103
 3373SOL     OW21751   4.243   1.699   2.429 -0.1578 -0.3342  0.5696
 3373SOL    HW121752   4.231   1.649   2.349  1.9096 -1.7396  1.1334
 3373SOL    HW221753   4.197   1.648   2.496  0.7853 -1.1381  0.6093
 3374SOL     OW21754   4.289   1.426   4.540 -0.0093  0.5909 -0.2429
 3374SOL    HW121755   4.281   1.347   4.487  0.8427 -1.3832  2.5680
 3374SOL    HW221756   4.252   1.486   4.475  0.3897  1.5775  0.4439
 3375SOL     OW21757   3.442   4.623   9.957  0.1513 -0.5303  0.1495
 3375SOL    HW121758   3.496   4.701   9.945  1.0195 -0.9922  0.9893
 3375SOL    HW221759   3.482   4.571  10.027 -1.6924 -0.1835  1.4586
 3376SOL     OW21760   4.693   0.218  12.777 -0.6092  0.1248 -0.3248
 3376SOL    HW121761   4.697   0.185  12.688 -1.5652 -2.8655  0.7270
 3376SOL    HW221762   0.045   0.251  12.782 -0.5657  0.0726 -0.7654
 3377SOL     OW21763   3.278   0.995   7.879 -0.1882  0.3321 -0.2394
 3377SOL    HW121764   3.328   0.945   7.944 -0.5647 -0.6403 -0.6873
 3377SOL    HW221765   3.351   1.037   7.834  0.4377  1.1466  1.5326
 3378SOL     OW21766   1.566   0.847   7.992  0.4193 -0.1628 -0.9594
 3378SOL    HW121767   1.528   0.920   7.943 -0.5111 -0.9123 -1.3472
 3378SOL    HW221768   1.527   0.861   8.078 -1.9118  0.0107 -2.0584
 3379SOL     OW21769   2.346   1.724   2.669 -0.0874 -0.1809  0.3396
 3379SOL    HW121770   2.320   1.669   2.743 -0.2813  0.8010  0.9984
 3379SOL    HW221771   2.374   1.798   2.723 -1.0655  2.2731 -2.5804
 3380SOL     OW21772   2.574   3.847   7.885  0.4518 -0.0543 -0.0721
 3380SOL    HW121773   2.559   3.937   7.916  1.4459 -0.2380  0.9253
 3380SOL    HW221774   2.483   3.816   7.883 -0.1240  1.6206 -0.0757
 3381SOL     OW21775   0.575   1.116   3.974 -0.3484 -0.4528  0.2313
 3381SOL    HW121776   0.593   1.036   4.022 -0.0879  0.3605  1.4825
 3381SOL    HW221777   0.659   1.140   3.934  0.1378 -3.2622 -0.3917
 3382SOL     OW21778   0.672   0.089  10.020  0.0670 -0.7294  0.0071
 3382SOL    HW121779   0.740   0.153   9.995  0.3786 -1.2041 -0.3514
 3382SOL    HW221780   0.643   0.138  10.097  0.9052 -0.2928  0.0469
 3383SOL     OW21781   3.308   1.972   3.894  0.4891  0.1753  0.1167
 3383SOL    HW121782   3.307   1.879   3.913 -0.1504 -0.3384 -2.4361
 3383SOL    HW221783   3.380   1.994   3.836 -1.1793  1.1621 -1.5948
 3384SOL     OW21784   1.808   0.226  10.421  0.5405 -0.4078  0.0998
 3384SOL    HW121785   1.756   0.253  10.345  0.3626 -0.2687  0.2693
 3384SOL    HW221786   1.890   0.193  10.385 -0.5271  0.4351 -3.1805
 3385SOL     OW21787   1.536   3.133   5.075  0.7700 -0.3915 -0.1398
 3385SOL    HW121788   1.511   3.224   5.056  3.4482  0.4058  0.0882
 3385SOL    HW221789   1.630   3.137   5.097  1.8597 -0.7862 -4.6925
 3386SOL     OW21790   3.364   0.917   2.312 -0.7393  0.2272  0.4332
 3386SOL    HW121791   3.362   0.880   2.223 -1.4960  2.1857 -0.3674
 3386SOL    HW221792   3.301   0.989   2.305 -0.3284  0.3164 -2.6522
 3387SOL     OW21793   2.947   0.602  13.189 -0.3543  0.3390 -0.0493
 3387SOL    HW121794   2.932   0.597  13.283  1.1122 -1.3174  0.0941
 3387SOL    HW221795   2.853   0.620  13.176 -0.2681 -1.2458 -3.0157
 3388SOL     OW21796   2.663   0.532   2.018 -0.0725  0.1407 -0.1221
 3388SOL    HW121797   2.574   0.521   2.051  0.5232 -0.3859  1.3222
 3388SOL    HW221798   2.642   0.560   1.929 -0.8948 -1.6845 -0.5057
 3389SOL     OW21799   3.678   2.110   3.268 -0.3789  0.3848  0.2783
 3389SOL    HW121800   3.740   2.053   3.314 -1.0433 -0.7612 -0.2406
 3389SOL    HW221801   3.698   2.197   3.302 -0.8876  0.0684  1.3903
 3390SOL     OW21802   1.699   1.195   2.760  0.1894 -0.1145  0.0713
 3390SOL    HW121803   1.663   1.256   2.825  2.8071  1.0505  0.4218
 3390SOL    HW221804   1.779   1.244   2.741  0.1911  0.3245  1.2412
 3391SOL     OW21805   1.823   0.066  15.186  0.3361  0.2717  0.1000
 3391SOL    HW121806   1.874   0.052  15.266  1.9262  1.2480 -0.7227
 3391SOL    HW221807   1.828   0.162  15.183  0.1985  0.2752 -0.0133
 3392SOL     OW21808   1.280   4.368  11.776  0.0865  0.1136 -0.1483
 3392SOL    HW121809   1.307   4.312  11.703 -0.3944  1.1453 -1.1189
 3392SOL    HW221810   1.198   4.407  11.747 -1.1737 -1.9079  0.6495
 3393SOL     OW21811   2.049   1.948   7.422  0.4987 -0.0348  0.7239
 3393SOL    HW121812   2.010   1.882   7.365 -0.1327  1.9596 -1.1471
 3393SOL    HW221813   2.057   1.906   7.508  1.5306  1.8864  1.5610
 3394SOL     OW21814   0.835   2.355   3.429  0.2008 -0.3376 -0.2201
 3394SOL    HW121815   0.850   2.296   3.356  0.6459  1.3395 -1.5029
 3394SOL    HW221816   0.925   2.374   3.458 -0.0205  1.5903 -0.7504
 3395SOL     OW21817   1.090   3.025   7.576 -0.2759  0.1936 -0.3791
 3395SOL    HW121818   0.995   3.037   7.584 -0.3561  0.8269 -2.2387
 3395SOL    HW221819   1.112   2.963   7.644  0.4687  1.2140  0.3035
 3396SOL     OW21820   0.110   0.246  11.089 -0.7696  0.1027  0.3597
 3396SOL    HW121821   0.126   0.168  11.142  0.8034 -0.5577 -1.0840
 3396SOL    HW221822   0.016   0.238  11.098 -0.8715 -0.4824 -1.1221
 3397SOL     OW21823   2.758   3.564   5.198  0.3083 -0.0594  0.1369
 3397SOL    HW121824   2.785   3.655   5.202  0.9505 -0.1515 -2.1613
 3397SOL    HW221825   2.803   3.535   5.119 -2.0419  0.2382 -1.3132
 3398SOL     OW21826   0.530   1.227   8.531 -0.6088 -0.1983  0.2950
 3398SOL    HW121827   0.609   1.243   8.583 -1.1459 -0.6522  1.2544
 3398SOL    HW221828   0.562   1.154   8.478 -1.3278  0.4586 -1.0344
 3399SOL     OW21829   1.719   3.080   2.323 -0.4205  0.8786 -0.5240
 3399SOL    HW121830   1.795   3.138   2.315  0.3772  0.1095  1.5147
 3399SOL    HW221831   1.706   3.090   2.417  0.1268 -2.6223 -0.0778
 3400SOL     OW21832   0.701   2.944   9.746 -0.7452 -0.4190 -0.0186
 3400SOL    HW121833   0.663   2.892   9.675 -0.4215 -0.0296 -0.4704
 3400SOL    HW221834   0.792   2.930   9.720 -0.2445  0.9512  0.9888
 3401SOL     OW21835   0.855   0.440   5.048  0.6750 -0.4879  0.7421
 3401SOL    HW121836   0.840   0.354   5.087 -1.4369 -1.3395 -1.9337
 3401SOL    HW221837   0.830   0.410   4.960 -2.4508  0.4847  1.3061
 3402SOL     OW21838   1.588   0.576  13.324 -0.2973  0.1683  0.0917
 3402SOL    HW121839   1.575   0.519  13.248  0.9877 -0.1613  0.1169
 3402SOL    HW221840   1.574   0.657  13.276  1.3964 -1.5080 -3.2300
 3403SOL     OW21841   4.557   0.529  11.972 -0.4766 -0.0018 -0.1512
 3403SOL    HW121842   4.559   0.615  11.928  0.9717 -1.1261 -2.2845
 3403SOL    HW221843   4.463   0.511  11.982 -0.2825 -0.3826  0.8976
 3404SOL     OW21844   3.889   3.175   8.751  0.0894  0.0713 -0.3408
 3404SOL    HW121845   3.920   3.172   8.661  0.8517 -1.1454 -0.0411
 3404SOL    HW221846   3.865   3.268   8.751 -1.1463 -0.2631 -2.3988
 3405SOL     OW21847   4.411   3.446   4.859  0.1426  0.0477  0.2152
 3405SOL    HW121848   4.367   3.469   4.940  0.6881 -0.0829  0.5468
 3405SOL    HW221849   4.402   3.526   4.808  1.0426  0.0574  0.0871
 3406SOL     OW21850   0.650   3.785   5.681 -0.5070  0.5634  0.9452
 3406SOL    HW121851   0.639   3.693   5.657 -0.8169  1.2170 -1.4235
 3406SOL    HW221852   0.677   3.822   5.597  2.2167 -2.2249  0.6090
 3407SOL     OW21853   2.299   3.299   4.101 -0.5471 -0.1623  0.2835
 3407SOL    HW121854   2.272   3.389   4.083  0.5251 -0.2463 -1.7241
 3407SOL    HW221855   2.375   3.321   4.155 -0.3912  0.7031 -0.2915
 3408SOL     OW21856   4.650   2.240   2.374  0.0366 -0.0153 -0.1186
 3408SOL    HW121857   4.722   2.203   2.425  0.0794  1.7674  1.1171
 3408SOL    HW221858   4.586   2.170   2.389 -0.8007  1.3342  2.5946
 3409SOL     OW21859   1.987   0.593  10.690 -0.0622  0.2415 -0.0129
 3409SOL    HW121860   2.079   0.608  10.714  0.5839 -1.8816 -1.1811
 3409SOL    HW221861   1.975   0.502  10.665  2.2810 -0.7428  2.3883
 3410SOL     OW21862   3.693   4.485  15.581  0.1107  0.4518  0.6202
 3410SOL    HW121863   3.675   4.574  15.548  1.3743  0.7170  0.6610
 3410SOL    HW221864   3.664   4.427  15.510  0.1730  0.5322  0.5282
 3411SOL     OW21865   3.427   0.419   5.000 -0.3587 -0.1438  0.7601
 3411SOL    HW121866   3.500   0.363   4.973 -0.4163 -0.7515  1.9016
 3411SOL    HW221867   3.431   0.504   4.955  1.6538 -0.2085  0.8079
 3412SOL     OW21868   3.268   3.362   4.268  0.2788 -0.2301 -0.0380
 3412SOL    HW121869   3.336   3.308   4.308 -0.2803  0.2305  1.5753
 3412SOL    HW221870   3.302   3.389   4.183 -1.6474  0.4967 -0.5904
 3413SOL     OW21871   4.029   2.139   0.754  0.0980  0.1663 -0.4157
 3413SOL    HW121872   3.953   2.083   0.740 -1.9045  2.7462  0.1054
 3413SOL    HW221873   3.995   2.227   0.736  2.3446  0.8433 -1.2951
 3414SOL     OW21874   3.765   3.426   2.143 -0.5020  0.0632 -0.3899
 3414SOL    HW121875   3.773   3.451   2.051  0.9109 -0.0653 -0.3002
 3414SOL    HW221876   3.754   3.332   2.128  0.2211 -0.3886  1.9083
 3415SOL     OW21877   1.299   4.591  11.440  0.1345 -0.1757 -0.3851
 3415SOL    HW121878   1.344   4.671  11.467 -2.3561  1.0883 -0.0822
 3415SOL    HW221879   1.227   4.639  11.400  0.1848 -1.0155 -1.4819
 3416SOL     OW21880   3.691   2.179   6.789 -0.2468  0.0759 -0.1160
 3416SOL    HW121881   3.656   2.095   6.820  0.8059  0.5638  2.3316
 3416SOL    HW221882   3.769   2.159   6.738 -0.6368 -0.3141 -0.5597
 3417SOL     OW21883   4.294   2.251   8.753  0.5598 -0.4985 -0.3822
 3417SOL    HW121884   4.293   2.347   8.759  0.1750 -0.4176 -1.9066
 3417SOL    HW221885   4.316   2.224   8.842 -0.7269  0.6722  0.2912
 3418SOL     OW21886   2.030   0.321  10.555  0.9697  0.5194 -0.2826
 3418SOL    HW121887   2.048   0.228  10.564  0.1678  0.5419  1.4460
 3418SOL    HW221888   1.943   0.326  10.514 -0.1391 -3.1706  1.7017
 3419SOL     OW21889   1.816   1.251   5.507  0.0080  0.1127  0.3719
 3419SOL    HW121890   1.859   1.296   5.434 -2.5670  1.7976 -0.0942
 3419SOL    HW221891   1.874   1.178   5.530  1.0475  0.6879 -0.4588
 3420SOL     OW21892   1.544   0.366   3.340  1.1631  0.9036  0.2132
 3420SOL    HW121893   1.493   0.408   3.409 -0.8798 -2.9429  1.0352
 3420SOL    HW221894   1.565   0.441   3.285  0.4982  2.6746  2.3686
 3421SOL     OW21895   0.683   2.573   0.268  0.3476 -0.1975  0.2432
 3421SOL    HW121896   0.661   2.501   0.209 -1.5218 -1.5784  2.6762
 3421SOL    HW221897   0.651   2.553   0.356 -0.5070  0.9162  0.1814
 3422SOL     OW21898   2.255   1.327  16.276  0.3794 -0.4014 -0.7519
 3422SOL    HW121899   2.321   1.384  16.315  0.3736 -0.5009 -0.5991
 3422SOL    HW221900   2.257   1.249  16.331  0.8544 -1.3503 -2.1058
 3423SOL     OW21901   2.164   3.254   3.307 -0.0392  0.3631 -0.7687
 3423SOL    HW121902   2.220   3.207   3.245 -0.7489  1.1990 -2.0560
 3423SOL    HW221903   2.209   3.255   3.391 -2.4652 -1.8828  0.5513
 3424SOL     OW21904   1.516   2.161   8.642  0.2310 -0.4262  0.4909
 3424SOL    HW121905   1.547   2.148   8.732  0.4490  0.8853  0.6048
 3424SOL    HW221906   1.454   2.089   8.629 -0.2406  0.2512 -1.0700
 3425SOL     OW21907   2.653   0.994   9.547 -0.2708 -0.0403  0.4310
 3425SOL    HW121908   2.697   1.076   9.571 -0.6805  0.7624 -1.5546
 3425SOL    HW221909   2.637   0.958   9.635 -0.3331 -0.1071  0.3919
 3426SOL     OW21910   4.327   2.071   2.624  0.5341  0.1404 -0.1496
 3426SOL    HW121911   4.360   2.110   2.542 -0.5337 -0.4618 -0.8679
 3426SOL    HW221912   4.238   2.046   2.600  0.5823  0.2607 -0.4654
 3427SOL     OW21913   0.526   3.776   1.691 -0.5175 -0.4279 -0.3132
 3427SOL    HW121914   0.506   3.685   1.711 -0.9827 -0.5718 -1.4579
 3427SOL    HW221915   0.434   3.798   1.680 -0.9576 -1.0802  2.0365
 3428SOL     OW21916   1.230   2.690   5.464  0.4869 -0.3349 -0.0465
 3428SOL    HW121917   1.266   2.707   5.551  0.2875  0.7712 -0.1920
 3428SOL    HW221918   1.230   2.780   5.433 -0.4650 -0.9761 -1.9470
 3429SOL     OW21919   0.831   3.607   1.627 -0.0104 -0.0887 -0.3892
 3429SOL    HW121920   0.857   3.517   1.608  1.7876  0.0676  1.2438
 3429SOL    HW221921   0.764   3.596   1.695  1.4251  1.5260  1.2970
 3430SOL     OW21922   3.265   1.053   6.237 -0.1335 -0.7024  0.6012
 3430SOL    HW121923   3.293   0.969   6.274 -0.1956  0.0401  2.3510
 3430SOL    HW221924   3.222   1.086   6.316  0.1980  0.1260  0.4351
 3431SOL     OW21925   4.123   0.358   3.853 -0.5049  0.2625  0.4981
 3431SOL    HW121926   4.094   0.281   3.900 -1.0141  1.0026  1.3965
 3431SOL    HW221927   4.134   0.416   3.928  0.4045  1.9262 -0.9041
 3432SOL     OW21928   1.517   3.800   0.425 -0.2239  0.2338 -0.1409
 3432SOL    HW121929   1.425   3.822   0.412 -0.5411 -1.2699 -0.4332
 3432SOL    HW221930   1.560   3.819   0.342  0.5205  0.5936  0.3246
 3433SOL     OW21931   2.165   1.586  13.278 -0.8788  0.3147  0.2405
 3433SOL    HW121932   2.163   1.533  13.358  2.6637 -2.0001 -1.1668
 3433SOL    HW221933   2.099   1.654  13.283 -0.6782  0.4259  1.3043
 3434SOL     OW21934   0.384   2.296   7.671  0.7494  0.2709 -0.1081
 3434SOL    HW121935   0.311   2.317   7.613 -1.0395 -2.2852  1.2589
 3434SOL    HW221936   0.338   2.229   7.722  0.1532  0.0519 -0.9349
 3435SOL     OW21937   1.986   0.194  12.744 -0.0135 -0.0904 -0.3225
 3435SOL    HW121938   2.054   0.133  12.715 -0.0657  1.1234 -3.0165
 3435SOL    HW221939   1.912   0.140  12.770 -1.5274  1.0302 -2.3613
 3436SOL     OW21940   1.101   1.031   8.044  0.7794  0.1943  0.1570
 3436SOL    HW121941   1.043   1.082   7.988  1.4939  0.0610 -0.6936
 3436SOL    HW221942   1.056   0.948   8.027  1.6454  0.5194 -3.5982
 3437SOL     OW21943   2.059   2.595   7.850  0.5850 -0.7863 -0.0054
 3437SOL    HW121944   2.082   2.514   7.803  1.2622 -0.2404 -0.6009
 3437SOL    HW221945   1.975   2.579   7.893  0.0618 -0.4601 -0.8997
 3438SOL     OW21946   0.390   2.589   6.560 -0.0467  0.8559  0.4167
 3438SOL    HW121947   0.409   2.667   6.509  0.4728 -0.1403 -0.9029
 3438SOL    HW221948   0.304   2.563   6.528  1.1294 -1.6485 -0.7518
 3439SOL     OW21949   2.786   2.360  14.473  0.2005 -0.2001  0.3355
 3439SOL    HW121950   2.791   2.292  14.406  1.4372  1.1691 -0.9497
 3439SOL    HW221951   2.877   2.390  14.465  0.3866 -0.5904  0.9377
 3440SOL     OW21952   1.431   1.731   4.602  0.1293 -0.1840  0.1783
 3440SOL    HW121953   1.519   1.693   4.602 -1.0699 -2.9703 -0.4471
 3440SOL    HW221954   1.437   1.824   4.580  1.6973 -0.2317  0.3919
 3441SOL     OW21955   3.369   0.545  16.899  0.2354  0.3405 -0.3971
 3441SOL    HW121956   3.372   0.633  16.862 -1.7305  0.4219 -0.3791
 3441SOL    HW221957   3.284   0.548  16.943 -0.5253 -2.5409 -1.6668
 3442SOL     OW21958   2.449   0.188   4.149  0.5055  0.1945  0.4050
 3442SOL    HW121959   2.446   0.092   4.146 -4.9785  0.3845 -1.3116
 3442SOL    HW221960   2.493   0.207   4.232  2.4314  0.6523 -0.7400
 3443SOL     OW21961   0.876   4.703  11.762 -0.4408  0.3868  0.2864
 3443SOL    HW121962   0.839   4.723  11.848  1.5997  0.2170  1.1849
 3443SOL    HW221963   0.919   0.050  11.753  0.9783 -0.4038 -0.3824
 3444SOL     OW21964   1.788   3.198   2.925  0.0080 -0.3741 -0.3755
 3444SOL    HW121965   1.721   3.262   2.951 -1.0707 -1.7509  0.2731
 3444SOL    HW221966   1.866   3.241   2.961  1.1499 -3.0281  0.2676
 3445SOL     OW21967   4.443   4.032   7.040  0.6546  0.0593 -0.3178
 3445SOL    HW121968   4.415   3.963   7.100 -0.9225  3.1490  2.5014
 3445SOL    HW221969   4.378   4.025   6.969 -0.6914 -1.7868  1.0964
 3446SOL     OW21970   1.647   2.440   7.741 -0.0435  0.4403  0.2001
 3446SOL    HW121971   1.630   2.378   7.811 -0.3454 -0.5477 -0.7547
 3446SOL    HW221972   1.680   2.381   7.674 -0.7795  1.2245 -0.8493
 3447SOL     OW21973   2.696   3.668  11.856  0.1017 -0.1066  0.0331
 3447SOL    HW121974   2.653   3.642  11.774  0.4659 -1.0868  0.1612
 3447SOL    HW221975   2.631   3.734  11.878 -1.1816 -1.7398  1.0899
 3448SOL     OW21976   4.009   0.152   8.096 -0.2209 -0.5314 -0.1580
 3448SOL    HW121977   4.073   0.195   8.153 -0.1297 -1.0940  0.1725
 3448SOL    HW221978   4.048   0.068   8.071  1.3060  0.3830 -0.8451
 3449SOL     OW21979   3.891   3.238   6.400 -0.3714  0.1587  0.0416
 3449SOL    HW121980   3.911   3.162   6.346 -1.5990  0.1780 -0.4512
 3449SOL    HW221981   3.977   3.237   6.442 -0.0670  0.0874 -0.5830
 3450SOL     OW21982   0.045   2.707   9.193  0.2393 -0.0405 -0.0321
 3450SOL    HW121983   0.109   2.647   9.156 -0.9258 -2.0798  1.2916
 3450SOL    HW221984   0.100   2.777   9.228  1.2662 -1.1016  0.4313
 3451SOL     OW21985   0.118   2.832   5.814  0.2491 -0.1959  0.3070
 3451SOL    HW121986   0.123   2.887   5.892  1.8563  0.8167 -0.5061
 3451SOL    HW221987   0.211   2.839   5.794  0.3415 -0.2349  0.7086
 3452SOL     OW21988   0.731   0.128   8.094  0.5373 -0.1714  0.2809
 3452SOL    HW121989   0.793   0.200   8.101  1.5309 -0.8816 -1.3922
 3452SOL    HW221990   0.656   0.165   8.047  0.8366  0.0791  0.0060
 3453SOL     OW21991   4.732   1.018   4.828  0.4063 -0.2841 -0.5681
 3453SOL    HW121992   0.053   0.977   4.892 -1.4475  0.3281  1.4828
 3453SOL    HW221993   0.039   1.100   4.809 -1.0933  0.6868  0.1094
 3454SOL     OW21994   2.685   2.473  14.885  0.0869 -0.6291 -0.3975
 3454SOL    HW121995   2.755   2.426  14.840 -0.2305 -0.0213 -1.5106
 3454SOL    HW221996   2.649   2.529  14.817 -0.1277 -1.1098 -0.6821
 3455SOL     OW21997   2.006   1.797  10.053 -0.1127 -0.8194  0.6206
 3455SOL    HW121998   2.083   1.845  10.083  0.6893 -0.4862 -1.9899
 3455SOL    HW221999   2.051   1.733   9.997  0.6108  0.4248 -0.2329
 3456SOL     OW22000   3.724   2.462  16.851 -0.3608 -0.0481  0.5778
 3456SOL    HW122001   3.637   2.495  16.874 -0.7442  0.3387 -1.3510
 3456SOL    HW222002   3.770   2.503  16.924  1.1518  0.6738 -0.7787
 3457SOL     OW22003   2.847   1.810   5.891 -0.0399  0.2788 -0.2597
 3457SOL    HW122004   2.860   1.810   5.796 -0.6146  0.2526 -0.3373
 3457SOL    HW222005   2.932   1.787   5.928  0.2891 -0.9259 -1.7362
 3458SOL     OW22006   1.760   3.113  10.140 -0.0733 -0.1220  0.0153
 3458SOL    HW122007   1.745   3.202  10.173  0.0417  0.2336 -0.8827
 3458SOL    HW222008   1.846   3.097  10.180 -0.3733  0.3909  0.8575
 3459SOL     OW22009   4.388   3.883   9.963 -0.1015 -0.5990  0.7187
 3459SOL    HW122010   4.471   3.930   9.952 -1.3803  1.1755 -1.2045
 3459SOL    HW222011   4.403   3.812   9.900 -1.1159  0.2724 -0.4889
 3460SOL     OW22012   2.820   1.100   9.930 -0.0432  0.2505 -0.1299
 3460SOL    HW122013   2.835   1.015   9.888 -0.7346 -1.1750  2.5046
 3460SOL    HW222014   2.900   1.113   9.980 -0.6759 -0.9868  1.1931
 3461SOL     OW22015   1.473   2.087  10.424 -0.3864  0.4533  0.4767
 3461SOL    HW122016   1.489   2.018  10.359 -1.0595  1.5891 -0.8917
 3461SOL    HW222017   1.513   2.052  10.504  3.8416 -0.7148 -2.1354
 3462SOL     OW22018   0.365   4.713   2.236 -0.0589 -0.3020  0.3536
 3462SOL    HW122019   0.282   0.021   2.222  0.5719  0.9593  0.7319
 3462SOL    HW222020   0.416   0.024   2.300  1.2552  0.0609 -0.9527
 3463SOL     OW22021   0.752   3.862   1.542 -0.4918  0.0755  0.3487
 3463SOL    HW122022   0.659   3.844   1.551 -0.7726  1.0520 -0.6922
 3463SOL    HW222023   0.790   3.777   1.564  0.7974  0.5955  0.1700
 3464SOL     OW22024   4.169   1.607  14.330 -0.4914  0.5146  0.5526
 3464SOL    HW122025   4.082   1.579  14.300 -1.1315  1.2086  1.7473
 3464SOL    HW222026   4.219   1.530  14.303 -0.1540  0.5149  1.1877
 3465SOL     OW22027   3.306   1.056   8.298 -0.7584  0.4493  0.2166
 3465SOL    HW122028   3.335   1.099   8.217 -0.4079  1.3242  0.8054
 3465SOL    HW222029   3.385   1.007   8.320 -1.1405 -0.6471 -0.8781
 3466SOL     OW22030   2.215   4.604  13.497  0.6245 -0.1767 -0.0549
 3466SOL    HW122031   2.199   4.695  13.523  0.1569 -0.8805  2.1051
 3466SOL    HW222032   2.310   4.606  13.508  0.6904  1.8953 -0.9521
 3467SOL     OW22033   2.880   2.322  17.114  0.1906 -0.0280  0.1572
 3467SOL    HW122034   2.929   2.403  17.124 -0.2372  0.1305  0.9226
 3467SOL    HW222035   2.940   2.265  17.162  2.9810  0.2031 -3.0735
 3468SOL     OW22036   1.435   0.095   9.226 -0.3942  0.3117  0.1233
 3468SOL    HW122037   1.464   0.050   9.146  2.6384  0.5302  1.0883
 3468SOL    HW222038   1.517   0.137   9.252 -0.9024  0.7524  1.0010
 3469SOL     OW22039   3.208   2.017   4.769 -0.0729  0.2903 -0.3105
 3469SOL    HW122040   3.268   1.943   4.761  0.1569  0.5145 -0.6378
 3469SOL    HW222041   3.234   2.052   4.854  0.0075  1.6954 -0.9082
 3470SOL     OW22042   0.916   4.633  16.378  0.6458  0.6993 -0.3334
 3470SOL    HW122043   0.985   4.652  16.441 -1.4771  0.1005  2.1489
 3470SOL    HW222044   0.832   4.634  16.424 -0.3232 -0.3302 -2.0518
 3471SOL     OW22045   1.063   0.111   2.682 -0.3706 -0.4406 -0.5341
 3471SOL    HW122046   1.076   0.200   2.650  0.0354 -1.4097 -3.0364
 3471SOL    HW222047   1.153   0.076   2.680 -0.2890 -0.3004  0.5957
 3472SOL     OW22048   1.037   3.334   0.607 -0.3738 -0.5716  0.1834
 3472SOL    HW122049   1.110   3.314   0.665 -0.2488 -1.0131 -0.1312
 3472SOL    HW222050   0.964   3.349   0.667 -0.0244  0.1931  0.4137
 3473SOL     OW22051   1.031   2.673   4.305 -0.2590  0.1745  0.0009
 3473SOL    HW122052   1.117   2.716   4.304 -0.3465  0.3376 -0.6086
 3473SOL    HW222053   1.024   2.658   4.210  0.0224 -2.2478  0.3474
 3474SOL     OW22054   3.442   1.243   6.355  0.1635  0.4416  0.0217
 3474SOL    HW122055   3.390   1.197   6.289 -0.7001  0.9019  0.3686
 3474SOL    HW222056   3.379   1.313   6.372  0.2986  0.7830 -0.8896
 3475SOL     OW22057   0.486   3.751  15.028 -0.2200  0.0969 -0.1651
 3475SOL    HW122058   0.495   3.656  15.018  1.2342  0.2687 -0.4068
 3475SOL    HW222059   0.509   3.780  14.940 -0.0351 -2.5757 -1.0048
 3476SOL     OW22060   1.017   4.605   4.491 -0.3565  1.2166 -0.0178
 3476SOL    HW122061   0.952   4.577   4.556 -2.0350  1.2973 -1.6550
 3476SOL    HW222062   1.097   4.605   4.544 -0.6161 -0.7323  0.3688
 3477SOL     OW22063   4.099   0.563  11.514 -0.3885  0.6288  0.1350
 3477SOL    HW122064   4.146   0.499  11.567  0.0317  1.2702  0.5473
 3477SOL    HW222065   4.131   0.652  11.530 -0.2618  0.1447  2.4778
 3478SOL     OW22066   0.057   0.379   3.520  0.6028  0.0486  0.8315
 3478SOL    HW122067   4.715   0.403   3.473  0.8226 -0.8845 -0.0272
 3478SOL    HW222068   0.034   0.286   3.530 -0.1102  0.2091  0.7196
 3479SOL     OW22069   0.251   3.252   4.092 -0.6274 -0.0034 -0.3268
 3479SOL    HW122070   0.241   3.289   4.005 -1.6926 -0.8540 -0.5654
 3479SOL    HW222071   0.344   3.231   4.103 -0.7609 -0.6871 -0.5496
 3480SOL     OW22072   0.893   3.782   7.802  0.4483 -0.2638 -0.0732
 3480SOL    HW122073   0.826   3.726   7.762 -2.8786  1.6721  2.7982
 3480SOL    HW222074   0.870   3.866   7.762 -1.1782 -0.7942 -0.2662
 3481SOL     OW22075   0.753   3.960   6.411  0.2833  0.1612 -0.0834
 3481SOL    HW122076   0.752   3.891   6.477 -2.1293  0.9055  0.6459
 3481SOL    HW222077   0.665   3.993   6.429 -0.1877 -0.5033 -1.1788
 3482SOL     OW22078   2.509   3.636   3.614  0.3068  0.4293 -0.9343
 3482SOL    HW122079   2.525   3.729   3.597 -1.6746  0.7799 -0.8314
 3482SOL    HW222080   2.543   3.629   3.703  1.3994  1.9333 -1.2231
 3483SOL     OW22081   2.606   1.379   5.142  0.5446 -0.3985  0.2475
 3483SOL    HW122082   2.656   1.298   5.136  1.1249 -0.1144  1.3676
 3483SOL    HW222083   2.595   1.408   5.051 -0.5933 -1.8380 -0.0689
 3484SOL     OW22084   3.490   3.676   7.937 -0.2077  0.0409 -0.3984
 3484SOL    HW122085   3.432   3.601   7.946  0.7280 -0.3609  2.1515
 3484SOL    HW222086   3.431   3.736   7.983 -0.2910 -0.7582  0.5427
 3485SOL     OW22087   3.910   0.341  10.081  1.0578 -0.2984  0.2453
 3485SOL    HW122088   3.967   0.269  10.055  1.6623  0.3002 -0.1044
 3485SOL    HW222089   3.830   0.294  10.106  0.8573 -0.7551 -1.2483
 3486SOL     OW22090   2.316   0.585   1.782 -0.0399 -0.2719 -0.1017
 3486SOL    HW122091   2.241   0.644   1.791  0.3444  0.4507 -1.6299
 3486SOL    HW222092   2.263   0.507   1.768 -2.6944  1.7688 -1.6275
 3487SOL     OW22093   2.701   4.597   0.887 -0.3880 -0.4879  0.1942
 3487SOL    HW122094   2.644   4.521   0.897 -2.0710  1.1653  3.2245
 3487SOL    HW222095   2.770   4.567   0.947  0.5569  0.2625 -0.5178
 3488SOL     OW22096   2.571   1.892   8.596  0.0898 -0.2701  0.3728
 3488SOL    HW122097   2.513   1.886   8.672 -1.1781 -0.7981 -0.6247
 3488SOL    HW222098   2.513   1.913   8.522  2.3669 -1.4977 -1.7920
 3489SOL     OW22099   0.346   1.108   8.303  0.2872 -0.0030  0.1418
 3489SOL    HW122100   0.317   1.054   8.376  1.4545 -0.7309  0.0557
 3489SOL    HW222101   0.399   1.043   8.256  2.3168  2.5310 -1.1010
 3490SOL     OW22102   1.245   0.670   3.252  0.4371 -0.8046  0.7743
 3490SOL    HW122103   1.196   0.732   3.306  1.1786  1.0207 -0.6627
 3490SOL    HW222104   1.200   0.677   3.169 -0.6648 -0.8976  1.3697
 3491SOL     OW22105   1.856   4.246  17.603 -0.3966 -0.4555 -0.0832
 3491SOL    HW122106   1.946   4.277  17.598  0.1334 -2.1825 -0.9514
 3491SOL    HW222107   1.867   4.185  17.676 -0.3210  1.1086  1.2147
 3492SOL     OW22108   0.441   0.385  11.402  0.8307 -0.5541 -0.1088
 3492SOL    HW122109   0.352   0.350  11.404  1.6000 -2.4407  0.4501
 3492SOL    HW222110   0.424   0.472  11.365  1.6937 -0.5282 -0.4476
 3493SOL     OW22111   4.538   4.132   3.350  0.2869  0.1477  0.2363
 3493SOL    HW122112   4.615   4.190   3.350 -0.0445  0.5853 -0.4657
 3493SOL    HW222113   4.578   4.045   3.359 -0.9398 -0.3119  1.2232
 3494SOL     OW22114   2.967   0.211  11.078 -0.3531  0.2077  0.1897
 3494SOL    HW122115   3.055   0.224  11.043 -0.4568 -1.9670 -0.9112
 3494SOL    HW222116   2.940   0.152  11.008  1.6636 -2.3709  1.6100
 3495SOL     OW22117   3.701   1.074   8.000  0.1426  0.5873  0.1694
 3495SOL    HW122118   3.743   1.150   8.039  2.0594  0.6213 -1.9633
 3495SOL    HW222119   3.685   1.018   8.076  1.9796  0.9040  0.7706
 3496SOL     OW22120   0.599   1.919  14.741  0.4465 -1.3670  0.2417
 3496SOL    HW122121   0.506   1.926  14.761  0.7072  0.2607  0.9229
 3496SOL    HW222122   0.617   2.011  14.723 -0.6781 -1.1184  0.3804
 3497SOL     OW22123   3.107   4.504   4.064  1.2391  0.0968 -0.0268
 3497SOL    HW122124   3.040   4.567   4.093  1.4060  0.0117  0.5352
 3497SOL    HW222125   3.110   4.506   3.968 -0.4661  0.4413 -0.0775
 3498SOL     OW22126   2.350   3.848  17.383  0.1945 -0.0322  0.0780
 3498SOL    HW122127   2.338   3.850  17.288  1.4188  0.2575 -0.0671
 3498SOL    HW222128   2.369   3.939  17.406 -0.6852 -0.1272  1.1828
 3499SOL     OW22129   0.062   1.182   7.587  0.2069 -0.3999  0.0210
 3499SOL    HW122130   4.712   1.158   7.616  0.1839  0.0809  0.3514
 3499SOL    HW222131   0.103   1.101   7.556 -1.4742 -1.1445 -0.2653
 3500SOL     OW22132   3.360   2.123  17.249  0.0114 -0.2627  0.0440
 3500SOL    HW122133   3.389   2.212  17.267  0.1819 -0.3423  0.1695
 3500SOL    HW222134   3.439   2.076  17.219 -1.5360 -0.6591 -3.4429
 3501SOL     OW22135   3.121   3.914   3.169 -0.8919  0.3197 -0.5199
 3501SOL    HW122136   3.140   3.973   3.242 -1.5263  1.8071 -1.5513
 3501SOL    HW222137   3.027   3.901   3.155 -0.7370 -2.3915  1.0406
 3502SOL     OW22138   2.058   3.769   2.314  0.0286  0.8318  0.5248
 3502SOL    HW122139   2.135   3.785   2.259 -2.1675 -1.1972 -3.0786
 3502SOL    HW222140   2.096   3.790   2.400 -0.3755 -0.9754  1.1295
 3503SOL     OW22141   3.247   4.406   4.503  0.5294 -0.1700 -0.2232
 3503SOL    HW122142   3.255   4.313   4.479  0.4459  0.0063 -0.9463
 3503SOL    HW222143   3.247   4.443   4.414  0.5563 -1.9122 -0.9459
 3504SOL     OW22144   0.253   3.691  11.792  0.4611 -0.2999 -0.0151
 3504SOL    HW122145   0.263   3.596  11.793 -1.0617 -0.4811 -2.3497
 3504SOL    HW222146   0.341   3.726  11.801  1.2130 -2.3861  0.6713
 3505SOL     OW22147   3.296   2.176   9.565 -0.5551  0.4585 -0.0691
 3505SOL    HW122148   3.244   2.169   9.645  1.5627 -0.4666  1.2253
 3505SOL    HW222149   3.234   2.215   9.504  0.0857  0.6262 -0.6199
 3506SOL     OW22150   2.318   0.287   2.417 -0.3189 -0.2210 -0.1456
 3506SOL    HW122151   2.396   0.310   2.366 -0.0964  0.9567  0.7170
 3506SOL    HW222152   2.364   0.253   2.494  0.7644 -0.0157 -0.6872
 3507SOL     OW22153   0.457   3.449   7.922 -0.0007  0.2474 -0.4263
 3507SOL    HW122154   0.411   3.530   7.942  1.2082  1.0615 -0.9193
 3507SOL    HW222155   0.405   3.378   7.960  0.3884 -1.0332 -2.2763
 3508SOL     OW22156   0.097   1.944   2.681 -0.5338 -0.5354 -0.2782
 3508SOL    HW122157   0.164   1.879   2.702 -1.6972 -2.4285 -2.4478
 3508SOL    HW222158   0.015   1.896   2.693 -1.5751  1.5060  0.7880
 3509SOL     OW22159   4.146   3.068   6.035  0.8225  0.3260  0.2207
 3509SOL    HW122160   4.210   3.071   6.106 -0.2225 -1.9410  1.2555
 3509SOL    HW222161   4.203   3.039   5.964  0.7702  0.3693  0.1615
 3510SOL     OW22162   1.236   2.930   1.460  0.0933 -0.2421  0.7721
 3510SOL    HW122163   1.280   2.867   1.403 -1.1907 -1.4602  1.1238
 3510SOL    HW222164   1.162   2.875   1.486  0.1320 -0.1716  1.0260
 3511SOL     OW22165   3.589   2.064   6.283 -0.1549 -0.0404 -0.3681
 3511SOL    HW122166   3.523   2.117   6.238 -0.5098  0.7982  1.1421
 3511SOL    HW222167   3.614   2.116   6.360 -1.6453 -0.5409  0.4593
 3512SOL     OW22168   0.480   0.076   2.446  0.2055 -0.3385 -0.0635
 3512SOL    HW122169   0.543   0.112   2.509  0.0979 -0.9375  0.3873
 3512SOL    HW222170   0.404   0.113   2.491 -0.5485  0.0721 -1.6781
 3513SOL     OW22171   2.325   3.442  14.017  0.6443 -0.9179  0.0747
 3513SOL    HW122172   2.329   3.463  13.923 -0.2884  2.3116  0.7543
 3513SOL    HW222173   2.378   3.363  14.025  0.0904 -1.1696  1.2422
 3514SOL     OW22174   1.763   1.753   3.743  0.2137 -0.6887  0.3751
 3514SOL    HW122175   1.694   1.769   3.679 -1.4150  0.9861  2.5724
 3514SOL    HW222176   1.806   1.673   3.712  0.1641 -0.4731 -0.2618
 3515SOL     OW22177   4.008   3.657   1.262  0.7413 -0.0686 -0.5357
 3515SOL    HW122178   3.937   3.721   1.257  0.2981 -0.4021  1.3132
 3515SOL    HW222179   3.963   3.580   1.295  0.4843 -0.5644 -2.0352
 3516SOL     OW22180   0.735   3.431   2.372  0.0692  0.6432 -0.4008
 3516SOL    HW122181   0.665   3.408   2.433  0.6161  0.8617  0.3161
 3516SOL    HW222182   0.799   3.366   2.402 -0.5862 -1.0456 -2.6142
 3517SOL     OW22183   4.591   2.100   6.477  0.1593 -0.3414  0.0730
 3517SOL    HW122184   4.673   2.056   6.454 -0.2549  0.6476 -3.2057
 3517SOL    HW222185   4.532   2.024   6.476  0.6950 -0.7589 -0.4630
 3518SOL     OW22186   3.130   4.106   2.125  0.5241 -0.2169  0.0209
 3518SOL    HW122187   3.070   4.177   2.148 -0.8219 -1.3688  0.0512
 3518SOL    HW222188   3.203   4.124   2.185  1.7078 -0.4247 -1.3534
 3519SOL     OW22189   4.536   1.870  14.533 -0.0506 -0.0779  0.1857
 3519SOL    HW122190   4.537   1.823  14.617 -1.9039 -3.1072 -1.5015
 3519SOL    HW222191   4.535   1.960  14.564  0.9503 -0.0212  0.0405
 3520SOL     OW22192   1.796   0.578   7.936 -0.3399  0.1580  0.2080
 3520SOL    HW122193   1.733   0.573   7.864 -0.3887  0.2854  0.2420
 3520SOL    HW222194   1.749   0.633   7.999 -1.1238  1.4107 -1.4650
 3521SOL     OW22195   3.886   1.955   7.052  0.2982 -0.3803  0.4119
 3521SOL    HW122196   3.895   1.878   7.107 -0.3656 -0.4997  0.3504
 3521SOL    HW222197   3.963   2.002   7.082 -0.0395  0.5996 -0.2327
 3522SOL     OW22198   3.005   0.978   2.208 -0.5974  0.4313 -0.3251
 3522SOL    HW122199   3.041   0.889   2.201  0.2472  0.5802  2.0308
 3522SOL    HW222200   3.081   1.025   2.241 -1.6706  1.0185  1.2977
 3523SOL     OW22201   3.157   0.653   7.488  0.4107 -0.5974  0.3348
 3523SOL    HW122202   3.134   0.718   7.554 -0.1589  0.3774 -0.8114
 3523SOL    HW222203   3.184   0.588   7.553 -1.1228 -1.2325  0.3351
 3524SOL     OW22204   1.630   0.085   0.287 -0.5061  0.1524 -0.7105
 3524SOL    HW122205   1.549   0.035   0.296 -0.1467 -0.3860 -0.5187
 3524SOL    HW222206   1.613   0.177   0.307 -0.2898  0.1387 -0.4722
 3525SOL     OW22207   1.203   2.558   3.308 -0.0943 -0.0696  0.2431
 3525SOL    HW122208   1.138   2.544   3.377  0.0773  2.2289  0.8579
 3525SOL    HW222209   1.170   2.633   3.259  1.1739 -0.5477 -1.3418
 3526SOL     OW22210   0.460   0.362  10.014 -0.2488  0.0802  0.2714
 3526SOL    HW122211   0.495   0.447  10.042 -2.0613  0.8141  0.3304
 3526SOL    HW222212   0.504   0.299  10.071  1.4936 -0.1086 -1.2910
 3527SOL     OW22213   1.541   2.630   8.854 -0.0231  0.5481  0.0734
 3527SOL    HW122214   1.460   2.630   8.906  0.4373  0.6316  0.7949
 3527SOL    HW222215   1.533   2.720   8.823 -1.8309  0.7292  1.0510
 3528SOL     OW22216   3.546   0.922   6.779  0.1771 -0.2160  0.5044
 3528SOL    HW122217   3.621   0.865   6.761  0.2351 -0.9357  3.0186
 3528SOL    HW222218   3.520   0.951   6.692 -0.4045 -0.1152  0.7153
 3529SOL     OW22219   0.214   4.057   4.892  0.7851 -0.3080  0.3935
 3529SOL    HW122220   0.193   4.135   4.841  2.1514  0.0281  0.3397
 3529SOL    HW222221   0.168   3.991   4.840  0.1029  1.2760 -1.0335
 3530SOL     OW22222   2.794   0.402   7.167 -0.4180 -0.8370  0.1742
 3530SOL    HW122223   2.858   0.332   7.186  1.9494  1.5718  1.1380
 3530SOL    HW222224   2.761   0.438   7.249  2.0548 -1.0683  1.2806
 3531SOL     OW22225   1.025   1.700   8.954 -0.7168  0.2693 -0.2708
 3531SOL    HW122226   0.946   1.745   8.982 -0.0436 -0.0260  2.0622
 3531SOL    HW222227   1.078   1.774   8.924 -0.7388  1.7467  3.3435
 3532SOL     OW22228   3.003   1.046   0.737 -0.1753  0.5258 -0.0386
 3532SOL    HW122229   2.990   1.116   0.673 -0.6014 -0.6499 -1.2321
 3532SOL    HW222230   2.948   0.975   0.703  1.8703 -0.0460 -2.1603
 3533SOL     OW22231   2.861   2.115  14.216  0.1204 -0.3670 -0.5874
 3533SOL    HW122232   2.785   2.134  14.160 -3.5606  0.1815  4.5368
 3533SOL    HW222233   2.940   2.146  14.172  0.2251  2.3076  1.4577
 3534SOL     OW22234   1.627   1.304   9.587  0.1749 -0.2323 -0.6296
 3534SOL    HW122235   1.588   1.381   9.628  1.3441  0.0725 -0.0892
 3534SOL    HW222236   1.715   1.337   9.569 -0.0924  1.3722  0.9875
 3535SOL     OW22237   2.000   4.379  14.025 -0.3870 -0.0212  0.0369
 3535SOL    HW122238   1.921   4.354  13.977 -1.3628 -0.1362  1.7103
 3535SOL    HW222239   2.061   4.386  13.952  0.9223  1.3647  1.2574
 3536SOL     OW22240   1.904   1.629   2.573 -0.7005 -0.2400 -0.0073
 3536SOL    HW122241   1.823   1.579   2.563 -2.7845  2.8808  0.9960
 3536SOL    HW222242   1.944   1.588   2.649  1.2914 -2.6567 -2.3437
 3537SOL     OW22243   3.449   4.713   5.422 -0.1022  0.2377 -0.0553
 3537SOL    HW122244   3.404   4.631   5.440  0.0499 -0.0369 -0.9103
 3537SOL    HW222245   3.416   0.006   5.337 -0.1838  0.4692  0.0580
 3538SOL     OW22246   1.650   4.390   3.218  0.3841  0.0525  0.2914
 3538SOL    HW122247   1.664   4.483   3.232  0.4222  0.1562 -0.4386
 3538SOL    HW222248   1.561   4.372   3.249  0.9317 -1.8012  0.8081
 3539SOL     OW22249   3.942   3.814   7.716  0.2485 -0.0303  0.2169
 3539SOL    HW122250   3.932   3.722   7.690 -0.1595  0.5492 -1.6845
 3539SOL    HW222251   3.953   3.849   7.627  1.3371  1.6297  0.9986
 3540SOL     OW22252   1.313   0.295   7.433  0.1770 -0.1783 -0.0227
 3540SOL    HW122253   1.336   0.203   7.415  0.6854 -0.1378  0.4128
 3540SOL    HW222254   1.296   0.341   7.351 -0.7476 -1.6398 -0.6537
 3541SOL     OW22255   2.331   1.663  10.271 -0.3380 -0.2666  0.0357
 3541SOL    HW122256   2.302   1.582  10.314  0.1483 -0.7365 -0.5251
 3541SOL    HW222257   2.363   1.713  10.346  2.2778 -1.5815 -0.1987
 3542SOL     OW22258   2.054   3.299   9.096 -0.9031 -0.1631  0.2744
 3542SOL    HW122259   2.113   3.280   9.023  0.7417  1.7392  1.1087
 3542SOL    HW222260   2.019   3.212   9.114  0.1434 -0.3660  1.2998
 3543SOL     OW22261   4.303   4.184  15.493  0.3039 -0.1985  0.0491
 3543SOL    HW122262   4.318   4.243  15.419 -1.7129  0.2857  0.0131
 3543SOL    HW222263   4.336   4.102  15.457  1.1322  0.7377 -1.3560
 3544SOL     OW22264   1.757   0.695   1.698 -0.3758 -0.3872 -0.0410
 3544SOL    HW122265   1.795   0.727   1.616 -0.4899  1.5729  0.6803
 3544SOL    HW222266   1.745   0.602   1.680 -0.3950 -0.1907 -1.0300
 3545SOL     OW22267   2.481   3.414   9.046 -0.5420 -0.1328  0.4122
 3545SOL    HW122268   2.492   3.356   9.121 -0.3771 -0.0773  0.4316
 3545SOL    HW222269   2.443   3.356   8.980 -1.9923  0.1773  0.9976
 3546SOL     OW22270   4.718   3.531   4.873 -0.0617 -1.0722  0.5426
 3546SOL    HW122271   4.680   3.539   4.961 -0.5223 -2.8388  0.4956
 3546SOL    HW222272   4.651   3.477   4.831  0.4890 -0.3768 -1.2420
 3547SOL     OW22273   2.181   0.341  15.509 -0.4830  0.3842 -0.1783
 3547SOL    HW122274   2.109   0.383  15.556 -0.9635 -1.0642  0.3915
 3547SOL    HW222275   2.243   0.411  15.489  0.0111 -0.3377 -1.2199
 3548SOL     OW22276   4.372   4.068  16.218 -1.1588  0.1677  0.0915
 3548SOL    HW122277   4.337   4.131  16.282 -1.0542  0.9689 -0.6432
 3548SOL    HW222278   4.296   4.014  16.194  0.2149 -0.7361 -2.1412
 3549SOL     OW22279   3.017   2.624   4.393  0.3441  0.0212 -0.5977
 3549SOL    HW122280   3.034   2.691   4.460 -0.5961 -2.3472  2.0318
 3549SOL    HW222281   3.107   2.592   4.383  0.2126  0.1861 -2.1738
 3550SOL     OW22282   4.336   1.023   1.050  0.1008 -0.0891  0.2736
 3550SOL    HW122283   4.349   0.951   1.111 -0.3970 -2.3754 -2.2877
 3550SOL    HW222284   4.245   1.001   1.029  0.6718 -1.3460 -0.9312
 3551SOL     OW22285   2.670   0.439   3.049 -0.2067 -0.7127 -0.4544
 3551SOL    HW122286   2.735   0.467   2.984 -0.2347  1.3696  0.3896
 3551SOL    HW222287   2.595   0.422   2.993  0.2401 -0.5662 -1.0948
 3552SOL     OW22288   3.645   2.333   7.574  0.3852  0.6107 -0.6924
 3552SOL    HW122289   3.639   2.404   7.638 -0.3887  1.4284 -1.6766
 3552SOL    HW222290   3.576   2.354   7.511  0.1101  0.7391 -0.3466
 3553SOL     OW22291   1.158   4.363  13.728 -0.0531  0.0635  0.2611
 3553SOL    HW122292   1.215   4.439  13.715  0.9492 -0.6574  0.4479
 3553SOL    HW222293   1.121   4.352  13.640 -0.4601  2.9250  0.0852
 3554SOL     OW22294   1.470   3.451   6.948 -0.1358  0.3512  0.0668
 3554SOL    HW122295   1.423   3.439   7.031  0.5437  0.2884  0.4391
 3554SOL    HW222296   1.440   3.373   6.902 -1.2798  1.6110 -1.3260
 3555SOL     OW22297   2.188   1.986   8.642 -0.1298  0.2073  0.3294
 3555SOL    HW122298   2.200   2.054   8.708  1.7609  0.3752 -0.2080
 3555SOL    HW222299   2.142   2.029   8.570  1.3766 -1.5825 -1.7284
 3556SOL     OW22300   1.121   2.345   6.671 -0.6200  0.3362 -0.6103
 3556SOL    HW122301   1.037   2.368   6.631 -1.5015  1.2919  1.7634
 3556SOL    HW222302   1.098   2.286   6.742 -1.3274  0.0984 -1.0340
 3557SOL     OW22303   2.656   1.985  17.707 -0.2836 -0.4897  0.1812
 3557SOL    HW122304   2.670   2.063  17.653  2.3437 -0.2080  1.2184
 3557SOL    HW222305   2.589   1.946  17.651 -0.5410  1.3619 -0.7792
 3558SOL     OW22306   1.265   3.847   1.002  0.1956 -0.5147 -0.3880
 3558SOL    HW122307   1.331   3.846   1.071 -0.4036 -0.0466  0.1965
 3558SOL    HW222308   1.274   3.761   0.959  1.9211 -1.1524  1.2460
 3559SOL     OW22309   1.367   3.201  17.439  0.5604  0.0996  0.3293
 3559SOL    HW122310   1.294   3.151  17.476  0.6656 -1.2755 -1.3263
 3559SOL    HW222311   1.350   3.246  17.356  2.3120  0.3819  0.1249
 3560SOL     OW22312   0.605   1.743   9.997 -0.1408  0.5893  0.0479
 3560SOL    HW122313   0.652   1.670   9.958 -2.0839 -0.5904 -0.1088
 3560SOL    HW222314   0.579   1.699  10.078 -0.0587  0.8454  0.2103
 3561SOL     OW22315   3.929   4.091   0.253  0.1763  0.2179 -0.0078
 3561SOL    HW122316   3.926   4.186   0.236 -0.5889  0.3663  0.9701
 3561SOL    HW222317   4.024   4.079   0.258 -0.0479 -1.2593  0.5163
 3562SOL     OW22318   1.660   3.611   5.610  0.6411 -0.3382  0.4407
 3562SOL    HW122319   1.583   3.562   5.580  0.8708  0.2379 -1.0938
 3562SOL    HW222320   1.624   3.682   5.662 -4.6073 -0.7310 -2.6674
 3563SOL     OW22321   1.018   4.244   3.137  0.0628  0.1184  0.7892
 3563SOL    HW122322   1.085   4.285   3.082  0.3205 -1.3796 -0.0234
 3563SOL    HW222323   0.983   4.183   3.071  1.7212  2.4902 -2.2683
 3564SOL     OW22324   1.992   0.752   9.996 -0.0271  0.2623  0.0932
 3564SOL    HW122325   2.016   0.763   9.904 -0.3776  1.3395  0.1319
 3564SOL    HW222326   2.052   0.688  10.034 -0.4285 -0.6913 -0.8815
 3565SOL     OW22327   1.291   1.533   6.916  0.3774  0.0107  0.2615
 3565SOL    HW122328   1.313   1.485   6.836 -2.2373 -1.5946  0.4909
 3565SOL    HW222329   1.350   1.608   6.920 -1.8553  1.7911  0.0724
 3566SOL     OW22330   1.318   2.169   6.339  0.2799 -0.3872  0.1068
 3566SOL    HW122331   1.319   2.264   6.355 -2.5639 -0.4468  0.6037
 3566SOL    HW222332   1.364   2.130   6.414  2.2897  1.9803  0.1260
 3567SOL     OW22333   4.259   4.387   0.026  0.2413 -0.1240 -0.1617
 3567SOL    HW122334   4.261   4.468  17.725 -2.9773 -0.2585 -0.5508
 3567SOL    HW222335   4.192   4.421   0.086  0.2489 -1.6645  0.7146
 3568SOL     OW22336   0.495   3.629  10.255  0.6653  0.2048  0.0818
 3568SOL    HW122337   0.591   3.625  10.251  0.3721 -5.4832 -1.2230
 3568SOL    HW222338   0.493   3.601  10.347  0.3303 -0.1162 -0.0260
 3569SOL     OW22339   3.828   1.065  12.835  0.2162  0.1119  0.1539
 3569SOL    HW122340   3.833   1.109  12.749 -0.4143  0.5439  0.3353
 3569SOL    HW222341   3.804   0.979  12.803  0.5909  0.0350  0.0835
 3570SOL     OW22342   3.978   4.073   8.259  0.0457  0.1292  1.0853
 3570SOL    HW122343   4.045   4.125   8.214 -1.2405  0.7020 -0.2043
 3570SOL    HW222344   4.023   4.005   8.309  0.6973  0.4602  0.9454
 3571SOL     OW22345   4.641   3.900   9.554 -0.0306 -0.2391  0.2076
 3571SOL    HW122346   4.547   3.915   9.562 -0.6367 -2.5317 -2.3249
 3571SOL    HW222347   4.639   3.848   9.474  0.1654  0.4583 -0.2493
 3572SOL     OW22348   1.335   2.696  17.281  0.1067 -0.7002 -0.2803
 3572SOL    HW122349   1.422   2.659  17.266  1.3815  3.2058 -2.3276
 3572SOL    HW222350   1.328   2.729  17.192 -2.1660 -0.8203 -0.1429
 3573SOL     OW22351   0.640   4.440   5.114  0.1221 -0.2402  0.4758
 3573SOL    HW122352   0.585   4.508   5.075  1.0776 -0.3495 -1.0394
 3573SOL    HW222353   0.652   4.386   5.036  0.2815 -0.8212  0.9025
 3574SOL     OW22354   0.664   3.149   2.216 -0.4287  0.2343  0.1573
 3574SOL    HW122355   0.604   3.130   2.288 -0.7579  1.6000  0.2388
 3574SOL    HW222356   0.734   3.092   2.248  0.4397  0.8399 -0.6745
 3575SOL     OW22357   4.415   3.724  14.813  0.1162  0.1332  0.0161
 3575SOL    HW122358   4.496   3.739  14.861 -1.1694 -0.5485  2.4140
 3575SOL    HW222359   4.443   3.775  14.737 -0.7911 -0.0143 -0.4225
 3576SOL     OW22360   1.134   0.066   1.256 -0.5781 -0.0827 -0.0541
 3576SOL    HW122361   1.229   0.079   1.253 -0.7645  1.2831 -0.0333
 3576SOL    HW222362   1.119   4.720   1.213 -2.1910 -0.0772  0.5022
 3577SOL     OW22363   2.934   4.255   3.014  0.5156 -0.3132  0.4549
 3577SOL    HW122364   2.937   4.346   2.984 -0.4661 -1.3214 -2.5826
 3577SOL    HW222365   2.977   4.267   3.099 -1.4042 -0.0167  1.3849
 3578SOL     OW22366   4.154   4.250   8.989 -0.0384 -0.6444 -0.1425
 3578SOL    HW122367   4.202   4.172   8.961  0.0104 -0.8514  0.4989
 3578SOL    HW222368   4.128   4.213   9.074  0.9747  1.1830  0.9720
 3579SOL     OW22369   1.979   1.534   0.832  0.0656 -0.2513 -0.1217
 3579SOL    HW122370   1.984   1.616   0.882  2.0099 -2.0928  2.6935
 3579SOL    HW222371   2.045   1.474   0.866 -1.7711 -1.6710  0.9453
 3580SOL     OW22372   0.150   0.140   0.778 -0.5628 -0.0094  0.2332
 3580SOL    HW122373   0.114   0.161   0.692  1.3174 -0.9454 -0.7906
 3580SOL    HW222374   0.069   0.111   0.821 -1.1594 -0.6330 -1.2870
 3581SOL     OW22375   3.620   3.046   7.296  0.0151 -0.5383 -0.6233
 3581SOL    HW122376   3.638   3.084   7.210 -0.2714  0.9452 -0.0268
 3581SOL    HW222377   3.571   2.967   7.276  1.3791 -1.5932  0.2423
 3582SOL     OW22378   2.748   2.955   8.130  0.1106 -0.7771  0.5335
 3582SOL    HW122379   2.743   2.895   8.204  0.8529 -1.0323  0.3770
 3582SOL    HW222380   2.671   3.008   8.151  0.0328 -0.7637  0.2051
 3583SOL     OW22381   4.431   0.695   9.220  0.1978  0.0526 -0.0678
 3583SOL    HW122382   4.453   0.767   9.161 -0.4511  1.3830  1.3356
 3583SOL    HW222383   4.490   0.627   9.185 -1.8528 -1.9080  0.2653
 3584SOL     OW22384   2.404   4.474  16.036 -0.9626  0.0071 -0.1505
 3584SOL    HW122385   2.499   4.465  16.048 -1.1879 -0.3476  1.3107
 3584SOL    HW222386   2.390   4.563  16.004 -3.0259 -0.2522  0.0412
 3585SOL     OW22387   1.478   3.609   8.448  0.1487 -0.9911  0.4079
 3585SOL    HW122388   1.467   3.615   8.543 -0.4085  1.2006  0.1989
 3585SOL    HW222389   1.406   3.558   8.411  1.1223 -0.2960 -2.4070
 3586SOL     OW22390   4.180   4.650   7.202  0.1170  0.2647 -0.5502
 3586SOL    HW122391   4.227   4.578   7.245  1.2569  1.2349 -0.1956
 3586SOL    HW222392   4.242   4.719   7.227  1.4429 -0.9354 -0.4898
 3587SOL     OW22393   0.713   1.655   2.793 -0.1819  0.1058 -0.3083
 3587SOL    HW122394   0.694   1.568   2.756  0.8779 -0.0511 -0.4854
 3587SOL    HW222395   0.627   1.673   2.831 -0.8708 -0.9371 -1.3461
 3588SOL     OW22396   3.333   0.706   6.574 -0.0798  0.1284  0.5466
 3588SOL    HW122397   3.320   0.616   6.603 -0.5118 -0.9748 -3.1191
 3588SOL    HW222398   3.329   0.764   6.650 -2.2652 -0.1624  0.6700
 3589SOL     OW22399   0.782   4.370  15.395 -0.0928  0.2252  0.1925
 3589SOL    HW122400   0.711   4.408  15.343  1.6076  0.6748 -1.8103
 3589SOL    HW222401   0.769   4.275  15.390 -2.8977  0.5294  1.6817
 3590SOL     OW22402   0.610   4.435  13.186  0.1248  0.0423  0.1504
 3590SOL    HW122403   0.515   4.451  13.181  0.0904 -0.9537 -2.4824
 3590SOL    HW222404   0.643   4.483  13.110 -2.8988 -0.1874 -1.3315
 3591SOL     OW22405   3.404   3.265   4.553 -0.1851 -0.3263 -0.0574
 3591SOL    HW122406   3.376   3.303   4.637 -0.2635 -0.7418  0.1020
 3591SOL    HW222407   3.368   3.177   4.551  1.8114 -1.1234 -0.9604
 3592SOL     OW22408   4.659   3.273   7.598 -0.2559  0.0191 -0.6694
 3592SOL    HW122409   4.678   3.184   7.570  2.2266  0.1391  0.6128
 3592SOL    HW222410   4.579   3.292   7.549  0.5921  1.3599 -1.5458
 3593SOL     OW22411   2.967   0.823   5.305 -0.0562 -0.0083 -0.9180
 3593SOL    HW122412   2.982   0.908   5.346 -1.6861  0.7110 -1.8409
 3593SOL    HW222413   3.013   0.772   5.372 -1.7813 -2.1312 -1.3484
 3594SOL     OW22414   0.162   3.438   7.763  0.4358 -0.3975  0.6638
 3594SOL    HW122415   0.072   3.452   7.793  0.0914 -3.4684  1.0885
 3594SOL    HW222416   0.217   3.480   7.829  1.4365 -0.2926 -0.2302
 3595SOL     OW22417   3.089   3.728  11.707  0.2846  0.1663 -0.6456
 3595SOL    HW122418   3.156   3.793  11.728  2.3659 -2.2465  0.0766
 3595SOL    HW222419   3.024   3.789  11.671 -1.0762 -0.5166  0.6473
 3596SOL     OW22420   4.632   2.957   4.419  0.0036 -0.5548 -1.7427
 3596SOL    HW122421   4.654   3.046   4.390 -1.2158  1.1560  2.6059
 3596SOL    HW222422   4.597   2.923   4.337  0.1143  0.3465 -2.1656
 3597SOL     OW22423   2.132   0.463   3.969  0.5993 -0.1329 -0.1267
 3597SOL    HW122424   2.177   0.412   4.036 -1.7437 -0.7427  0.9980
 3597SOL    HW222425   2.070   0.506   4.027  0.6406 -0.5529  0.2305
 3598SOL     OW22426   1.120   2.939   8.536 -0.4328  0.1951 -0.0720
 3598SOL    HW122427   1.063   3.002   8.580 -0.4778 -0.8607  1.3673
 3598SOL    HW222428   1.193   2.995   8.510  2.6183 -2.1716  3.3065
 3599SOL     OW22429   2.643   0.876   2.995 -0.4068  0.4989 -0.1314
 3599SOL    HW122430   2.582   0.846   2.927 -1.1836  0.7040  0.4826
 3599SOL    HW222431   2.617   0.966   3.011 -1.4898  0.5108 -1.9304
 3600SOL     OW22432   1.203   3.437   9.664  0.1120 -0.2856  0.2055
 3600SOL    HW122433   1.165   3.364   9.615 -0.6653  1.1667 -1.3559
 3600SOL    HW222434   1.149   3.432   9.742  2.7640  3.0317  2.2610
 3601SOL     OW22435   3.540   1.403   7.000 -0.0911  0.4824  0.3092
 3601SOL    HW122436   3.449   1.407   6.971  0.4713 -0.3253 -1.5091
 3601SOL    HW222437   3.582   1.345   6.937 -0.8661  0.1837  0.0741
 3602SOL     OW22438   1.761   2.067  17.294  0.3391 -0.0343 -0.0748
 3602SOL    HW122439   1.754   2.162  17.283  0.1234 -0.1663 -1.0376
 3602SOL    HW222440   1.816   2.069  17.372 -1.2890  1.9829  1.0369
 3603SOL     OW22441   0.060   0.831   8.338  0.0508 -0.7085 -0.0094
 3603SOL    HW122442   0.089   0.839   8.247  0.6031  3.0367  0.5300
 3603SOL    HW222443   4.707   0.859   8.327 -0.3042 -1.9464 -0.3004
 3604SOL     OW22444   0.116   4.382  12.602  1.2629 -0.2580 -0.1165
 3604SOL    HW122445   0.125   4.401  12.509 -2.1756  0.5277 -0.2677
 3604SOL    HW222446   0.209   4.374  12.624  1.2959  0.6874  0.0971
 3605SOL     OW22447   4.683   0.579   2.646  0.5999  0.1130 -1.2325
 3605SOL    HW122448   4.601   0.535   2.668  1.2071 -0.3284  0.1672
 3605SOL    HW222449   0.006   0.517   2.606  0.2841 -0.9785 -0.0162
 3606SOL     OW22450   3.768   3.986   8.123 -0.4162  0.0278 -0.1700
 3606SOL    HW122451   3.720   3.932   8.186 -0.1681  0.0620  0.0448
 3606SOL    HW222452   3.838   4.011   8.182  0.1611  0.6818 -1.1224
 3607SOL     OW22453   3.679   3.254   2.468 -0.6185 -0.3044  0.1732
 3607SOL    HW122454   3.656   3.239   2.560  2.1479 -2.0905  0.5569
 3607SOL    HW222455   3.774   3.265   2.463 -0.6222 -0.9991 -1.2136
 3608SOL     OW22456   1.151   4.532  16.017  0.1548 -0.5490 -0.1840
 3608SOL    HW122457   1.245   4.520  16.000  0.2401 -1.3447  0.8997
 3608SOL    HW222458   1.160   4.579  16.100  1.2187 -0.2779 -0.4505
 3609SOL     OW22459   2.943   2.786   6.284  0.4115  0.6928 -0.2997
 3609SOL    HW122460   2.974   2.839   6.357  0.6093  1.3020 -0.8299
 3609SOL    HW222461   2.855   2.754   6.305  0.1954  0.5724 -1.3729
 3610SOL     OW22462   1.503   3.452   2.242  0.0907  0.2661 -0.1073
 3610SOL    HW122463   1.420   3.422   2.207 -0.1344  2.3326 -1.4100
 3610SOL    HW222464   1.509   3.393   2.317  1.9240 -0.1176 -0.5412
 3611SOL     OW22465   1.101   1.409   2.952  0.7250 -0.2144  0.5316
 3611SOL    HW122466   1.107   1.491   2.904 -0.2062  0.3483  1.3746
 3611SOL    HW222467   1.125   1.444   3.038  0.8976  0.4887  0.1982
 3612SOL     OW22468   0.475   1.079  15.431 -0.4408  0.4914 -0.1369
 3612SOL    HW122469   0.537   1.011  15.403  0.7310  0.5868  2.2079
 3612SOL    HW222470   0.510   1.160  15.395 -0.2502  1.0854  1.3651
 3613SOL     OW22471   2.748   2.640  13.409  0.8253  0.0994  0.2688
 3613SOL    HW122472   2.820   2.698  13.382  1.1561 -1.4215 -2.0709
 3613SOL    HW222473   2.766   2.560  13.361  0.9735  0.2387  0.0923
 3614SOL     OW22474   1.447   2.252  16.852 -0.7682  0.5158  0.7565
 3614SOL    HW122475   1.370   2.305  16.869 -0.2533  1.1214  1.2181
 3614SOL    HW222476   1.424   2.218  16.765  0.2135 -1.4328  1.2550
 3615SOL     OW22477   2.855   4.211   7.723  0.3941  0.0176 -0.2533
 3615SOL    HW122478   2.931   4.154   7.712  1.6040  1.8150 -1.2457
 3615SOL    HW222479   2.888   4.291   7.683  3.2533 -1.0201  0.0218
 3616SOL     OW22480   3.740   0.131   3.861 -0.1335  0.1837 -0.3813
 3616SOL    HW122481   3.653   0.141   3.900 -0.5748 -0.0014 -1.3467
 3616SOL    HW222482   3.750   0.219   3.825 -0.9450  0.4819  0.1212
 3617SOL     OW22483   3.323   0.328   0.408  0.0449 -0.4823  0.3767
 3617SOL    HW122484   3.354   0.243   0.379 -0.3696  0.1393 -1.9550
 3617SOL    HW222485   3.230   0.315   0.428  0.2443 -1.2069  0.8259
 3618SOL     OW22486   2.216   3.455   4.810 -1.0280  0.3423 -0.3868
 3618SOL    HW122487   2.232   3.429   4.900 -0.1995  0.9533 -0.3547
 3618SOL    HW222488   2.301   3.429   4.773  0.8402  0.2583  4.0068
 3619SOL     OW22489   3.137   0.293   8.076 -0.4454  0.8628 -0.5855
 3619SOL    HW122490   3.081   0.355   8.029 -0.1338  0.8994 -0.9052
 3619SOL    HW222491   3.072   0.261   8.138  2.0683 -0.5851  1.2778
 3620SOL     OW22492   2.752   3.992  14.269 -0.1148  0.5208  0.0311
 3620SOL    HW122493   2.735   3.918  14.327 -0.5866  0.2792 -0.4122
 3620SOL    HW222494   2.668   3.993  14.224 -0.2118  0.2700  0.2118
 3621SOL     OW22495   2.898   2.743   0.723 -0.3146  0.2294  0.2654
 3621SOL    HW122496   2.820   2.798   0.711 -0.6171 -0.6608 -1.8233
 3621SOL    HW222497   2.923   2.745   0.816 -0.2923 -0.4982  0.2719
 3622SOL     OW22498   1.541   0.269   8.835  0.0377 -0.1443 -0.0835
 3622SOL    HW122499   1.536   0.335   8.766 -0.6124  0.8504  0.9016
 3622SOL    HW222500   1.454   0.231   8.823  1.2099 -3.0331  0.6126
 3623SOL     OW22501   3.269   2.430   9.814  0.5072 -0.0939 -0.4019
 3623SOL    HW122502   3.221   2.349   9.798  0.2676  0.1825 -1.0840
 3623SOL    HW222503   3.197   2.492   9.829 -0.7342 -1.2807 -1.3741
 3624SOL     OW22504   0.654   1.820   8.190  0.0945  0.2766 -0.1140
 3624SOL    HW122505   0.615   1.801   8.275  1.4683  0.5586  0.5736
 3624SOL    HW222506   0.615   1.754   8.133 -0.4852 -0.4528  1.1285
 3625SOL     OW22507   3.314   4.563   3.623  0.0055  0.0556  0.0896
 3625SOL    HW122508   3.260   4.628   3.579 -1.1269 -0.9011  0.0452
 3625SOL    HW222509   3.337   4.504   3.552  0.2601  1.9296 -1.3698
 3626SOL     OW22510   2.161   4.147   2.374  0.4208 -0.2026 -0.0579
 3626SOL    HW122511   2.157   4.184   2.285  2.8904 -0.8626 -0.4273
 3626SOL    HW222512   2.070   4.157   2.402  0.8184 -0.4775  1.3233
 3627SOL     OW22513   0.490   3.009   9.439  0.2159 -0.2314  0.3328
 3627SOL    HW122514   0.562   3.016   9.377  1.7321 -2.8095  1.7715
 3627SOL    HW222515   0.517   2.924   9.473  0.5232  0.7040  2.4855
 3628SOL     OW22516   2.223   1.758   2.426 -0.2145 -0.1667 -0.6872
 3628SOL    HW122517   2.258   1.746   2.515 -2.5266 -0.0064  0.2468
 3628SOL    HW222518   2.307   1.773   2.382  0.2898  1.9567  0.9953
 3629SOL     OW22519   4.671   1.275   8.932 -0.3689 -0.0350 -0.0453
 3629SOL    HW122520   4.579   1.286   8.955 -0.5302  0.9659 -1.1872
 3629SOL    HW222521   4.674   1.220   8.853  0.1625  1.0007 -0.7392
 3630SOL     OW22522   2.445   4.444   6.952 -0.1786 -0.1407 -0.1030
 3630SOL    HW122523   2.418   4.486   7.034  0.4017  0.9623 -0.4769
 3630SOL    HW222524   2.475   4.363   6.993 -1.7061 -1.0605 -0.7903
 3631SOL     OW22525   3.202   2.175   2.248 -0.5543  0.1605  0.0122
 3631SOL    HW122526   3.180   2.267   2.260  1.6608  0.7749 -0.6707
 3631SOL    HW222527   3.146   2.142   2.318  2.2240  0.7007  2.4823
 3632SOL     OW22528   0.291   0.751   4.042 -0.1498 -0.3921  0.4952
 3632SOL    HW122529   0.229   0.681   4.024  0.2548 -0.6724  0.1888
 3632SOL    HW222530   0.248   0.801   4.112 -0.0733  2.3425 -1.4023
 3633SOL     OW22531   4.276   3.957   3.763 -0.2012 -0.2318 -0.6048
 3633SOL    HW122532   4.313   3.933   3.849 -2.6389  0.0752  0.5253
 3633SOL    HW222533   4.352   4.004   3.729 -0.4556 -0.0403 -0.9048
 3634SOL     OW22534   4.482   3.308   3.423 -0.1154  0.2725 -0.2261
 3634SOL    HW122535   4.492   3.403   3.418 -0.6224  0.4121  1.4263
 3634SOL    HW222536   4.452   3.296   3.513  1.0318 -0.8590 -0.0016
 3635SOL     OW22537   3.087   0.656   6.818  0.6155 -0.5513  0.1833
 3635SOL    HW122538   3.090   0.620   6.906  0.2365  0.1200  0.4783
 3635SOL    HW222539   3.161   0.717   6.822  1.1772 -1.2483  0.4393
 3636SOL     OW22540   4.583   2.256  16.660  0.2263 -0.1443 -0.1294
 3636SOL    HW122541   4.626   2.180  16.621  0.6847  0.7698 -1.4132
 3636SOL    HW222542   4.495   2.223  16.678  0.3049 -1.0711 -1.4556
 3637SOL     OW22543   0.857   0.799   3.311  0.5789  0.1651 -0.4850
 3637SOL    HW122544   0.805   0.743   3.253 -1.8101  2.0000 -0.1034
 3637SOL    HW222545   0.792   0.861   3.346 -0.2299 -0.7061 -0.4331
 3638SOL     OW22546   1.243   3.399   7.741  0.3643 -0.4586 -0.5185
 3638SOL    HW122547   1.162   3.383   7.693 -0.6639  1.7186  0.4792
 3638SOL    HW222548   1.250   3.494   7.727  0.3413 -0.5371 -1.0477
 3639SOL     OW22549   4.320   0.708   2.882 -0.1954 -0.0197  0.1801
 3639SOL    HW122550   4.259   0.761   2.933  0.9185  0.9673  0.4837
 3639SOL    HW222551   4.387   0.703   2.951 -1.2626  1.4071  1.3098
 3640SOL     OW22552   3.540   2.296  12.730 -0.6132  0.1822 -0.4800
 3640SOL    HW122553   3.455   2.285  12.773 -0.2371 -2.1070 -0.3027
 3640SOL    HW222554   3.585   2.225  12.776 -0.4517  1.1259  0.8378
 3641SOL     OW22555   0.668   3.361   3.174  0.0222 -0.1262  0.3116
 3641SOL    HW122556   0.631   3.439   3.134 -0.6639 -0.7236 -0.2222
 3641SOL    HW222557   0.691   3.312   3.095  0.5221 -0.2332  0.5240
 3642SOL     OW22558   2.192   0.079  15.523 -0.2889  0.4597  0.0948
 3642SOL    HW122559   2.257   0.063  15.591 -0.1007 -0.1150 -0.2232
 3642SOL    HW222560   2.182   0.174  15.527  0.8783  0.5736  0.2253
 3643SOL     OW22561   2.219   0.837  14.992  0.5374  0.9241 -0.0340
 3643SOL    HW122562   2.125   0.823  14.992  0.8091 -0.9431  1.5937
 3643SOL    HW222563   2.240   0.845  15.085 -1.4113  3.5570  0.1890
 3644SOL     OW22564   0.643   0.009   1.330  0.5073 -1.2510  0.1224
 3644SOL    HW122565   0.671   0.072   1.264  0.9889 -1.9936 -0.3755
 3644SOL    HW222566   0.551   4.731   1.308 -0.2302  0.6333  1.8637
 3645SOL     OW22567   2.719   0.136   8.887 -0.2542  0.1648 -0.4707
 3645SOL    HW122568   2.754   0.107   8.971 -0.7163 -0.3131 -0.4448
 3645SOL    HW222569   2.751   0.068   8.827  3.0998 -1.5758  3.2849
 3646SOL     OW22570   3.455   2.028   2.997  0.7042 -0.7420  0.0394
 3646SOL    HW122571   3.443   2.050   3.090  3.4509 -0.9171  0.4322
 3646SOL    HW222572   3.413   1.942   2.993 -2.1875  0.6393  0.5288
 3647SOL     OW22573   2.888   3.342   2.351  0.0638  0.0848 -0.9608
 3647SOL    HW122574   2.796   3.338   2.376 -0.0546 -1.3863 -1.6517
 3647SOL    HW222575   2.929   3.400   2.415 -4.6672  2.8824 -0.5250
 3648SOL     OW22576   1.709   3.339   5.370  0.5865 -0.4893  0.1138
 3648SOL    HW122577   1.683   3.378   5.286  1.4762 -1.2937 -0.5499
 3648SOL    HW222578   1.742   3.414   5.419 -0.1031 -0.2971  0.2699
 3649SOL     OW22579   3.648   3.591  12.288  0.3541  0.5791 -0.2793
 3649SOL    HW122580   3.670   3.500  12.304  1.3308  0.8000 -0.3740
 3649SOL    HW222581   3.727   3.638  12.315  0.7414  0.3806 -1.0710
 3650SOL     OW22582   3.352   3.298   2.543 -0.5705 -0.0395 -0.1115
 3650SOL    HW122583   3.341   3.256   2.628 -1.1026 -0.7495 -0.5296
 3650SOL    HW222584   3.445   3.280   2.527 -0.8114 -2.4875  1.2058
 3651SOL     OW22585   1.611   2.820   3.388 -0.1267 -0.3685  0.1511
 3651SOL    HW122586   1.558   2.860   3.458 -0.4557 -0.2636 -0.1586
 3651SOL    HW222587   1.554   2.771   3.329  1.3736 -0.8192 -0.9191
 3652SOL     OW22588   3.550   1.851   8.548 -0.1557 -0.3826  0.7901
 3652SOL    HW122589   3.578   1.760   8.547  1.0628 -0.0109  0.6596
 3652SOL    HW222590   3.621   1.895   8.595 -2.0391 -0.2760  3.5238
 3653SOL     OW22591   2.675   2.523   2.540  0.6663 -0.1335  0.2551
 3653SOL    HW122592   2.735   2.448   2.538 -2.8434 -2.8153 -2.4896
 3653SOL    HW222593   2.745   2.589   2.544  0.3627  0.1505  0.9474
 3654SOL     OW22594   4.621   2.058   3.575  0.2251 -0.1373 -0.5691
 3654SOL    HW122595   4.563   2.032   3.647 -0.2098  2.1300 -0.0922
 3654SOL    HW222596   4.701   2.059   3.628  0.0953  2.4797 -0.4200
 3655SOL     OW22597   2.631   3.114   2.711  0.4154 -0.4580 -0.0376
 3655SOL    HW122598   2.712   3.164   2.702  0.6209 -0.7898 -0.0172
 3655SOL    HW222599   2.662   3.028   2.740  1.4941  0.1925  0.7445
 3656SOL     OW22600   0.979   0.203   6.726 -0.1667  0.5899 -0.0474
 3656SOL    HW122601   0.984   0.171   6.635 -0.9034  2.1706 -0.6445
 3656SOL    HW222602   1.006   0.294   6.716  0.2711  0.4543 -0.0710
 3657SOL     OW22603   0.247   2.669  10.166 -0.3304 -0.3823  0.0601
 3657SOL    HW122604   0.342   2.681  10.165 -0.2878 -0.5147  1.9642
 3657SOL    HW222605   0.229   2.611  10.092  0.8741 -1.6140  0.7224
 3658SOL     OW22606   2.855   0.009   2.855 -0.3845  0.1906  0.5052
 3658SOL    HW122607   2.856   0.068   2.930  0.3495  1.0980 -0.2183
 3658SOL    HW222608   2.785   0.048   2.803 -2.4652 -2.6154  1.2083
 3659SOL     OW22609   3.373   2.197  16.947  0.0454  0.2587 -0.1974
 3659SOL    HW122610   3.373   2.106  16.975  0.4774  0.6274  1.0288
 3659SOL    HW222611   3.279   2.207  16.931 -0.1474 -0.7858  0.2977
 3660SOL     OW22612   0.362   0.487   7.639 -0.3841 -0.3721 -0.2224
 3660SOL    HW122613   0.343   0.474   7.546  2.2864  2.3273 -1.1234
 3660SOL    HW222614   0.449   0.447   7.640 -0.8021 -1.3144 -1.1398
 3661SOL     OW22615   4.666   3.461   5.133 -0.6138  0.0245  0.2366
 3661SOL    HW122616   4.634   3.381   5.174  0.7438 -0.5765  0.1225
 3661SOL    HW222617   4.604   3.531   5.155 -0.8131 -0.6264  1.6945
 3662SOL     OW22618   1.331   3.958  10.082 -0.2029  0.2491  0.0263
 3662SOL    HW122619   1.375   3.881  10.117  0.4487 -0.1653 -1.6979
 3662SOL    HW222620   1.282   3.921  10.009 -0.8253 -0.2925  0.7314
 3663SOL     OW22621   2.590   2.098   5.597  0.1260 -0.2761 -0.4501
 3663SOL    HW122622   2.673   2.138   5.622 -0.1676 -0.7069  1.2224
 3663SOL    HW222623   2.534   2.157   5.649 -0.0141 -0.0146 -0.8976
 3664SOL     OW22624   1.468   4.314   5.521  0.4754 -0.2328 -0.8711
 3664SOL    HW122625   1.430   4.338   5.437 -1.6236  0.2983  0.2241
 3664SOL    HW222626   1.532   4.385   5.530  1.1879 -0.8175 -1.3246
 3665SOL     OW22627   4.664   2.937   5.112  0.4720  0.1216  0.4594
 3665SOL    HW122628   4.655   3.026   5.146  1.1499  0.2063  0.4210
 3665SOL    HW222629   4.734   2.951   5.048 -0.3306 -1.0207 -0.6531
 3666SOL     OW22630   3.495   1.972  10.260  0.2600 -0.4036 -0.2093
 3666SOL    HW122631   3.583   1.947  10.233  0.9148 -1.1786  2.6947
 3666SOL    HW222632   3.478   1.895  10.315 -1.9965  0.7011  0.6475
 3667SOL     OW22633   1.916   1.635   8.953 -0.0882  0.5133 -0.0701
 3667SOL    HW122634   1.895   1.717   8.907 -1.5212 -0.6514 -1.4978
 3667SOL    HW222635   2.000   1.622   8.909  0.9667 -0.5288  2.2556
 3668SOL     OW22636   0.228   4.256   3.574 -0.2132  0.2054 -0.1924
 3668SOL    HW122637   0.217   4.270   3.480  1.4399  0.1551 -0.4000
 3668SOL    HW222638   0.233   4.346   3.606 -0.1722  0.7475 -1.7472
 3669SOL     OW22639   0.221   2.834   5.283  0.1371  0.6728  0.3648
 3669SOL    HW122640   0.285   2.763   5.295  1.2326  1.7586  0.9032
 3669SOL    HW222641   0.203   2.824   5.190  1.9680  0.6965  0.0170
 3670SOL     OW22642   0.960   2.881   4.710  0.1387 -0.2923  0.0146
 3670SOL    HW122643   1.028   2.947   4.695  1.1264 -0.8025  2.2391
 3670SOL    HW222644   0.944   2.889   4.804  1.0518 -1.1959  0.2528
 3671SOL     OW22645   2.379   4.043   5.248  0.1923  0.4937  0.5278
 3671SOL    HW122646   2.361   4.016   5.338  2.9686  0.1980  0.9854
 3671SOL    HW222647   2.392   4.136   5.265  2.0135  0.0914  1.2790
 3672SOL     OW22648   0.614   2.398  11.281 -0.9431 -0.6716  0.2294
 3672SOL    HW122649   0.570   2.431  11.359 -0.3425  0.6928 -0.0140
 3672SOL    HW222650   0.697   2.441  11.302 -1.7163 -0.1987  2.3082
 3673SOL     OW22651   1.672   0.233   1.964 -0.0616  0.3439  0.3626
 3673SOL    HW122652   1.737   0.254   2.031 -1.2858  0.9586  1.3574
 3673SOL    HW222653   1.620   0.312   1.952 -1.0626 -0.4632 -0.5793
 3674SOL     OW22654   1.491   0.127   5.104  0.2835  1.2834 -0.1724
 3674SOL    HW122655   1.454   0.039   5.109 -0.2911  1.5035 -0.4443
 3674SOL    HW222656   1.511   0.142   5.011  0.8870 -0.0094 -0.2482
 3675SOL     OW22657   0.159   3.215   9.140  0.1459 -0.0036  0.4370
 3675SOL    HW122658   0.227   3.176   9.087 -0.0195 -0.8436  0.8425
 3675SOL    HW222659   0.217   3.255   9.205  1.2761  0.1544 -0.6715
 3676SOL     OW22660   1.828   0.554   2.376  0.6772 -0.2617 -0.2857
 3676SOL    HW122661   1.796   0.566   2.465 -2.8944 -1.6072 -1.3808
 3676SOL    HW222662   1.921   0.533   2.379  0.4405 -0.8779  2.0727
 3677SOL     OW22663   3.372   2.509   6.715  0.3623 -0.3310  0.2206
 3677SOL    HW122664   3.364   2.430   6.662  1.2718 -0.4723  0.2904
 3677SOL    HW222665   3.360   2.579   6.651 -0.0896  0.2030  0.8907
 3678SOL     OW22666   3.553   4.285   8.796  0.1239  0.6022  0.7458
 3678SOL    HW122667   3.630   4.326   8.757  0.4145 -1.9444 -1.3418
 3678SOL    HW222668   3.479   4.319   8.745  0.4046 -0.4563 -0.3923
 3679SOL     OW22669   3.494   0.332   3.772 -0.1030 -0.0017  0.3233
 3679SOL    HW122670   3.490   0.401   3.838 -0.4120 -0.5980  0.9340
 3679SOL    HW222671   3.448   0.264   3.822 -0.0737  0.4986  1.0302
 3680SOL     OW22672   2.958   2.205   9.374 -0.0700  0.0233  0.1433
 3680SOL    HW122673   2.906   2.168   9.303  1.6321  0.8992 -1.5716
 3680SOL    HW222674   2.902   2.191   9.450  1.6926  1.4524  1.7048
 3681SOL     OW22675   1.921   0.382  16.760 -0.4123 -0.3130 -0.6063
 3681SOL    HW122676   1.925   0.425  16.846 -0.0443 -1.5603  0.0016
 3681SOL    HW222677   1.915   0.292  16.792  0.6567  0.6778  2.3906
 3682SOL     OW22678   1.692   0.602   5.271  0.0090  0.0199  0.1181
 3682SOL    HW122679   1.730   0.638   5.190  1.1990  2.6586  1.8296
 3682SOL    HW222680   1.636   0.532   5.241  0.9358 -0.6282 -0.1047
 3683SOL     OW22681   1.774   1.573   5.712 -0.0927 -0.0945 -0.2492
 3683SOL    HW122682   1.820   1.525   5.780 -0.2174  1.5818  1.0036
 3683SOL    HW222683   1.750   1.649   5.765 -1.4119 -0.4896 -0.2607
 3684SOL     OW22684   2.862   0.909   7.469 -0.4716 -0.2916 -0.1400
 3684SOL    HW122685   2.801   0.982   7.458  1.5575  1.3308 -0.7112
 3684SOL    HW222686   2.934   0.957   7.427 -0.8469  0.6679  0.3135
 3685SOL     OW22687   2.652   1.543   6.467 -0.5746  0.1991  0.0332
 3685SOL    HW122688   2.588   1.600   6.508  0.4459  0.1733  1.6429
 3685SOL    HW222689   2.585   1.501   6.413 -0.6462  3.9628 -2.8389
 3686SOL     OW22690   0.679   3.439  15.218  1.1484 -0.1844  0.1225
 3686SOL    HW122691   0.641   3.355  15.244 -0.0242  0.2638 -0.1116
 3686SOL    HW222692   0.765   3.435  15.260  0.8011  2.3484  1.0800
 3687SOL     OW22693   0.524   1.728   3.779  0.0214 -0.1449 -0.4560
 3687SOL    HW122694   0.481   1.789   3.839 -0.3367  0.1817 -1.0430
 3687SOL    HW222695   0.528   1.653   3.838  1.4587  0.0252 -0.3262
 3688SOL     OW22696   2.607   2.029  12.783 -0.0906 -0.3420 -0.0704
 3688SOL    HW122697   2.569   2.112  12.811  2.6470  1.0696 -0.5265
 3688SOL    HW222698   2.595   1.979  12.864 -1.2008 -0.6895 -0.4426
 3689SOL     OW22699   3.936   1.625  11.719  0.2613 -0.4301  0.1184
 3689SOL    HW122700   3.841   1.633  11.713  0.6396  3.2429 -0.8436
 3689SOL    HW222701   3.935   1.542  11.767  1.2849  0.0144  0.9085
 3690SOL     OW22702   2.579   4.717   8.490 -0.0841 -0.2213  0.3125
 3690SOL    HW122703   2.630   4.646   8.529  0.6072  0.4929  0.7100
 3690SOL    HW222704   2.570   0.038   8.565 -0.1150 -1.4741  1.2926
 3691SOL     OW22705   1.818   1.603  16.301 -0.6381  0.2897  0.1419
 3691SOL    HW122706   1.764   1.595  16.222 -0.7720  1.3791  0.1161
 3691SOL    HW222707   1.907   1.572  16.285 -1.9693 -3.2058 -0.3945
 3692SOL     OW22708   2.869   1.935   3.120 -0.4979 -0.3151  0.0667
 3692SOL    HW122709   2.852   2.026   3.144  0.0669 -0.0466 -0.5682
 3692SOL    HW222710   2.959   1.918   3.145 -0.0051  1.4935 -0.4919
 3693SOL     OW22711   1.354   3.449   4.530 -0.1116 -0.3883  0.1758
 3693SOL    HW122712   1.355   3.357   4.503  1.6614 -0.4582  0.4902
 3693SOL    HW222713   1.341   3.498   4.449  1.2911 -1.5099 -0.7283
 3694SOL     OW22714   2.606   3.108  15.154 -0.5773  0.4066  0.3268
 3694SOL    HW122715   2.552   3.047  15.205  1.0482 -0.1621  1.3520
 3694SOL    HW222716   2.684   3.060  15.126 -0.6528 -0.6399  1.9167
 3695SOL     OW22717   0.387   0.056   8.960  0.0898  0.2018 -0.2997
 3695SOL    HW122718   0.319   0.018   9.016 -0.6912  1.3803 -0.4624
 3695SOL    HW222719   0.468   0.022   8.999 -0.8245  0.0337  1.5043
 3696SOL     OW22720   2.084   3.379  10.362 -0.1594  0.0970  0.2386
 3696SOL    HW122721   2.175   3.405  10.379 -0.1934  0.7867 -0.5928
 3696SOL    HW222722   2.083   3.366  10.267  0.2960  0.1523  0.2251
 3697SOL     OW22723   3.210   3.511  11.634  0.3891  0.1639  0.0128
 3697SOL    HW122724   3.146   3.456  11.590  0.0378  0.4615  0.1533
 3697SOL    HW222725   3.160   3.589  11.656 -1.6256 -0.9128 -0.7343
 3698SOL     OW22726   1.707   3.461   5.899 -0.7553 -0.5949  0.3785
 3698SOL    HW122727   1.768   3.400   5.940 -0.8475 -1.4288 -0.7350
 3698SOL    HW222728   1.687   3.516   5.974 -0.2583  1.5633 -1.0470
 3699SOL     OW22729   4.204   4.044   0.302  0.3389  0.4222  0.1509
 3699SOL    HW122730   4.180   3.952   0.291  0.1394  0.5371 -0.3850
 3699SOL    HW222731   4.275   4.061   0.240 -1.0004  1.4203 -1.1030
 3700SOL     OW22732   2.839   1.797   5.628 -0.6557  0.3985 -0.7571
 3700SOL    HW122733   2.888   1.805   5.547  1.4013  1.1383  0.5505
 3700SOL    HW222734   2.792   1.715   5.612  2.1735 -1.4202  0.2709
 3701SOL     OW22735   1.758   2.072   1.856  0.1587 -0.0793 -0.1902
 3701SOL    HW122736   1.793   2.073   1.766  0.4388 -0.5379 -0.0839
 3701SOL    HW222737   1.817   2.129   1.906 -0.6678  0.9000 -0.3278
 3702SOL     OW22738   0.120   2.438  10.039  0.3743 -0.1733 -0.4058
 3702SOL    HW122739   0.208   2.401  10.034  0.7759  0.4099  2.2279
 3702SOL    HW222740   0.072   2.355  10.044 -0.8247  0.6830  2.0678
 3703SOL     OW22741   0.097   0.032  11.856  0.5319  0.1515  0.8504
 3703SOL    HW122742   0.060   0.112  11.817 -2.4959 -1.2887  0.8249
 3703SOL    HW222743   0.138   0.051  11.940  0.3788  1.8718  0.5411
 3704SOL     OW22744   2.171   3.470   2.680 -0.6557  0.1772 -0.0144
 3704SOL    HW122745   2.154   3.382   2.647 -0.9233 -0.1342  0.9605
 3704SOL    HW222746   2.240   3.448   2.743 -0.1678  1.8599  0.0421
 3705SOL     OW22747   3.033   4.329  12.995  0.1659 -0.0152  0.2247
 3705SOL    HW122748   3.125   4.306  12.986 -0.1188 -0.6977 -0.8918
 3705SOL    HW222749   3.032   4.425  12.990 -0.4693  0.0776  2.2204
 3706SOL     OW22750   4.347   0.182   6.355  0.4497 -0.0087 -0.0196
 3706SOL    HW122751   4.269   0.237   6.346  0.3960 -0.2337 -0.9292
 3706SOL    HW222752   4.322   0.091   6.339 -1.0770  0.2822  0.6760
 3707SOL     OW22753   0.733   1.897  10.338 -0.2895  0.1333 -0.1870
 3707SOL    HW122754   0.794   1.848  10.393 -0.7847 -3.3755 -2.7816
 3707SOL    HW222755   0.669   1.916  10.407  1.0759 -1.0315  1.4207
 3708SOL     OW22756   0.685   2.792  17.312 -0.1961 -0.1793  0.0387
 3708SOL    HW122757   0.775   2.768  17.290 -0.3223  0.1027 -0.7925
 3708SOL    HW222758   0.657   2.828  17.228  1.1495 -0.1360 -0.3835
 3709SOL     OW22759   2.963   3.792   7.519  0.0747  0.1934 -0.5319
 3709SOL    HW122760   2.867   3.800   7.526  0.4317  3.1834  0.8577
 3709SOL    HW222761   2.986   3.864   7.578 -0.8983 -1.0877  1.4297
 3710SOL     OW22762   2.441   2.640  10.647  0.0454  0.1706  0.0778
 3710SOL    HW122763   2.388   2.661  10.723  1.5480  2.3793  0.5057
 3710SOL    HW222764   2.377   2.649  10.577  3.0239  1.4772 -2.4835
 3711SOL     OW22765   0.712   1.501   5.154  0.0127 -0.6203 -0.0143
 3711SOL    HW122766   0.774   1.567   5.184 -1.4426 -0.3124  2.2372
 3711SOL    HW222767   0.756   1.418   5.173  0.5212  0.1225  2.0195
 3712SOL     OW22768   2.082   0.778  13.807 -0.4017  0.2955  0.6443
 3712SOL    HW122769   1.989   0.795  13.794 -0.4433 -2.3719 -2.5712
 3712SOL    HW222770   2.125   0.846  13.756 -0.8539 -0.2970 -0.5381
 3713SOL     OW22771   3.288   3.720   9.049  0.5110  0.2425  0.5422
 3713SOL    HW122772   3.322   3.809   9.040 -1.3596  0.7483 -1.4605
 3713SOL    HW222773   3.275   3.697   8.957 -0.4469  2.1841  0.2035
 3714SOL     OW22774   1.756   2.956   0.040  0.5710  0.1336 -0.4506
 3714SOL    HW122775   1.681   3.008   0.068  0.5026  0.4780 -1.2694
 3714SOL    HW222776   1.803   2.947   0.123  1.6873  1.2978 -0.9497
 3715SOL     OW22777   1.756   1.079   6.175  0.2890 -0.3038  0.0673
 3715SOL    HW122778   1.807   1.090   6.095 -2.1961  1.2660 -1.3054
 3715SOL    HW222779   1.806   1.007   6.215  1.4984  0.8488  0.6315
 3716SOL     OW22780   3.150   2.965  11.794  0.3137  0.6122 -0.1081
 3716SOL    HW122781   3.149   3.058  11.816 -0.0781  1.1652 -2.4495
 3716SOL    HW222782   3.061   2.950  11.764  0.2930  1.5630 -0.5226
 3717SOL     OW22783   4.734   3.237  10.980 -0.6535 -0.3275  0.5829
 3717SOL    HW122784   0.052   3.308  11.012  1.2160 -2.8946  2.9898
 3717SOL    HW222785   4.679   3.287  10.920  2.2064  1.4250 -0.5909
 3718SOL     OW22786   1.952   3.772  11.065  0.6732 -0.3022 -0.2705
 3718SOL    HW122787   1.987   3.809  11.147  0.0332  3.8457 -1.8580
 3718SOL    HW222788   1.986   3.683  11.071  0.5890 -0.3619 -0.7407
 3719SOL     OW22789   1.925   4.444   5.968 -0.4763 -1.0374 -0.2358
 3719SOL    HW122790   1.884   4.472   6.049  0.8305  0.3146 -0.0498
 3719SOL    HW222791   1.968   4.526   5.945 -2.2501 -0.5205 -1.6339
 3720SOL     OW22792   2.854   1.160   7.227 -0.0315  0.3783  0.3227
 3720SOL    HW122793   2.931   1.144   7.282 -0.2008 -0.4914  0.3013
 3720SOL    HW222794   2.881   1.215   7.153 -1.1502  0.3734 -0.0887
 3721SOL     OW22795   0.701   2.410   1.739  0.0694  0.2660 -0.8317
 3721SOL    HW122796   0.620   2.359   1.746  0.3094  0.2276  1.8203
 3721SOL    HW222797   0.672   2.489   1.694 -0.8636  0.7573  0.6328
 3722SOL     OW22798   0.531   0.962   4.919 -0.2125  0.3029 -0.2434
 3722SOL    HW122799   0.585   0.926   4.990  1.5520  0.7014 -1.3845
 3722SOL    HW222800   0.584   0.937   4.843 -0.4093  1.0778 -0.6384
 3723SOL     OW22801   3.877   3.664   5.517 -0.1470  0.2327 -0.2287
 3723SOL    HW122802   3.846   3.732   5.457  0.6058 -0.9223 -1.9337
 3723SOL    HW222803   3.923   3.722   5.578  0.7609  0.2504 -0.9276
 3724SOL     OW22804   2.758   0.170   5.831 -0.5437 -0.1749 -0.0739
 3724SOL    HW122805   2.805   0.104   5.881 -3.2559 -2.9099 -1.1499
 3724SOL    HW222806   2.796   0.156   5.744 -2.0662 -1.9077 -0.4486
 3725SOL     OW22807   1.008   1.496   7.870  0.0579  0.3281 -0.1597
 3725SOL    HW122808   0.961   1.558   7.926  1.5406  1.9544 -0.7323
 3725SOL    HW222809   1.033   1.427   7.932 -0.4234  0.6745  0.4260
 3726SOL     OW22810   1.842   2.385   1.336 -0.1009  0.0960  0.2547
 3726SOL    HW122811   1.876   2.338   1.413  0.0148  2.5728  1.7062
 3726SOL    HW222812   1.798   2.457   1.382  0.6573  0.5328  0.2863
 3727SOL     OW22813   3.810   3.815   8.619 -0.4639  0.1122 -0.4619
 3727SOL    HW122814   3.753   3.883   8.582 -1.4887 -0.9864 -0.9024
 3727SOL    HW222815   3.784   3.742   8.562 -1.4044 -0.2129  0.3735
 3728SOL     OW22816   2.690   2.276  16.302  0.1902  0.5332 -0.8149
 3728SOL    HW122817   2.783   2.269  16.322 -0.2593 -2.9741 -0.0637
 3728SOL    HW222818   2.655   2.332  16.371  0.7147  0.3595 -0.4119
 3729SOL     OW22819   2.678   1.626  10.252 -0.0689  0.0444  0.0991
 3729SOL    HW122820   2.712   1.540  10.277  0.6208  0.2488 -0.1508
 3729SOL    HW222821   2.642   1.605  10.166  0.1975  0.3101 -0.0757
 3730SOL     OW22822   0.008   2.867  15.906 -0.6869 -0.0288 -0.0230
 3730SOL    HW122823   4.712   2.922  15.977 -1.0043 -1.0346  0.6108
 3730SOL    HW222824   4.666   2.853  15.855 -1.8699 -0.7831  2.0357
 3731SOL     OW22825   3.882   2.827   1.257 -0.4248  0.2771 -0.5595
 3731SOL    HW122826   3.829   2.888   1.205 -0.9395  0.1160 -0.2123
 3731SOL    HW222827   3.822   2.784   1.317 -3.1419  2.4285 -1.7533
 3732SOL     OW22828   1.565   2.603   7.232  0.3876  0.5870  0.4058
 3732SOL    HW122829   1.562   2.534   7.299 -1.4562 -0.5501 -0.8209
 3732SOL    HW222830   1.527   2.678   7.277 -0.9340  0.6862 -0.8796
 3733SOL     OW22831   3.086   0.009   5.429 -0.0538 -0.0973  0.0968
 3733SOL    HW122832   3.004   4.708   5.396  0.0398 -0.7076  0.5759
 3733SOL    HW222833   3.147   4.707   5.368 -0.2168  0.0669 -0.1768
 3734SOL     OW22834   3.408   0.790   2.072 -0.3211  0.2631 -1.0610
 3734SOL    HW122835   3.404   0.830   1.985 -2.2495 -0.0730 -1.1317
 3734SOL    HW222836   3.477   0.724   2.070 -0.5795 -0.0278 -0.1499
 3735SOL     OW22837   2.929   2.729   7.072 -0.1491 -0.1796  0.8039
 3735SOL    HW122838   2.943   2.639   7.099 -0.1339 -0.1733  0.8172
 3735SOL    HW222839   2.891   2.717   6.984 -0.2190 -0.0410  0.8144
 3736SOL     OW22840   2.993   1.460   5.511  0.1344  0.2340  0.1044
 3736SOL    HW122841   2.975   1.492   5.600 -0.5487 -1.6543  0.6305
 3736SOL    HW222842   2.908   1.456   5.469  0.8140  0.5285 -1.2867
 3737SOL     OW22843   3.399   2.718   1.976 -0.2407  0.0933 -0.2124
 3737SOL    HW122844   3.422   2.789   1.916  1.9463 -0.7211 -0.3270
 3737SOL    HW222845   3.427   2.639   1.929  1.7120  0.3453  0.5290
 3738SOL     OW22846   2.563   2.281   4.905 -0.7737  0.3088 -0.1811
 3738SOL    HW122847   2.563   2.282   4.809  0.8831  0.6423 -0.1791
 3738SOL    HW222848   2.621   2.208   4.924 -2.0509 -0.3719  1.1363
 3739SOL     OW22849   2.642   0.986   6.980  0.0747 -0.1643  0.1419
 3739SOL    HW122850   2.729   1.001   7.015  0.2937 -1.1437  0.0170
 3739SOL    HW222851   2.614   0.909   7.029  0.3322  1.3987  2.7340
 3740SOL     OW22852   2.074   0.878  15.549 -0.1942 -0.3709  0.2706
 3740SOL    HW122853   2.094   0.860  15.640 -2.0479  1.3321  1.0022
 3740SOL    HW222854   2.018   0.955  15.555 -0.4004 -0.7880  3.6608
 3741SOL     OW22855   1.154   0.621  14.139  0.1026 -0.6042  0.0344
 3741SOL    HW122856   1.116   0.558  14.078  0.3797  0.1666 -0.9378
 3741SOL    HW222857   1.198   0.561  14.200 -0.9479 -2.5143 -1.0906
 3742SOL     OW22858   2.607   2.570   6.144 -0.3874 -0.1386 -0.2905
 3742SOL    HW122859   2.628   2.594   6.234  0.0953  0.1716 -0.4851
 3742SOL    HW222860   2.513   2.556   6.149 -0.4235  0.4738  0.7387
 3743SOL     OW22861   1.135   0.780   5.013  0.0858  0.6923 -0.0815
 3743SOL    HW122862   1.227   0.772   4.988  0.1945 -0.6871  0.7810
 3743SOL    HW222863   1.130   0.870   5.044  2.0473 -0.0922  2.5360
 3744SOL     OW22864   2.566   3.124   1.430  0.4368 -1.4084 -0.8155
 3744SOL    HW122865   2.612   3.206   1.450 -1.7387  0.0737 -1.9196
 3744SOL    HW222866   2.476   3.145   1.455  0.7083 -1.2671  0.0701
 3745SOL     OW22867   4.350   3.598   0.039 -0.0642 -0.1549 -0.2749
 3745SOL    HW122868   4.285   3.662   0.008  1.1669  1.3214  0.1985
 3745SOL    HW222869   4.339   3.521  17.732 -2.6833  1.2687 -1.7440
 3746SOL     OW22870   1.858   2.760   8.295 -0.1528  0.8551  0.0598
 3746SOL    HW122871   1.777   2.801   8.327  0.0848  0.2290  1.4767
 3746SOL    HW222872   1.845   2.665   8.299 -0.8073  0.8037 -4.1121
 3747SOL     OW22873   3.134   3.062   5.633  0.2021 -0.0875  0.0481
 3747SOL    HW122874   3.187   3.041   5.557  0.1166 -1.3635  0.3292
 3747SOL    HW222875   3.124   2.972   5.665  3.8011  0.3228  2.2774
 3748SOL     OW22876   1.655   3.673   2.415  0.1453 -0.4163 -0.1266
 3748SOL    HW122877   1.743   3.635   2.420  1.0221  1.5685 -0.6774
 3748SOL    HW222878   1.610   3.607   2.361  0.5111 -1.0777  0.3714
 3749SOL     OW22879   3.003   2.963   6.013  0.0233  0.1660  0.0634
 3749SOL    HW122880   2.950   2.904   6.066 -0.0864 -1.1078 -1.4567
 3749SOL    HW222881   3.079   2.963   6.071  0.8669 -2.3460 -1.0462
 3750SOL     OW22882   1.128   0.089  17.634 -0.4345 -0.3247  0.8032
 3750SOL    HW122883   1.109   0.024  17.567  0.5890  0.0994  0.1054
 3750SOL    HW222884   1.222   0.073  17.634 -0.4866 -0.6182 -0.0094
 3751SOL     OW22885   3.193   1.555   1.818 -0.1531  0.4384  0.2959
 3751SOL    HW122886   3.146   1.638   1.806 -2.7048 -0.6865  2.5229
 3751SOL    HW222887   3.125   1.488   1.809  0.6715 -0.3482 -0.0805
 3752SOL     OW22888   1.383   4.555   6.553 -0.3038 -0.1686 -0.3481
 3752SOL    HW122889   1.299   4.571   6.595  0.1636  1.4350 -0.0198
 3752SOL    HW222890   1.434   4.526   6.628  1.7071  1.8055 -0.9574
 3753SOL     OW22891   3.654   4.488  16.630  0.3666 -0.4248 -0.5602
 3753SOL    HW122892   3.700   4.429  16.689 -0.0570  0.5942  0.7914
 3753SOL    HW222893   3.635   4.565  16.684 -1.5928 -0.2609 -1.4918
 3754SOL     OW22894   1.240   2.838   4.368  0.5807 -0.4342 -0.4133
 3754SOL    HW122895   1.255   2.930   4.348  1.7657 -0.5747 -0.1699
 3754SOL    HW222896   1.255   2.833   4.463  1.0038  1.7162 -0.3701
 3755SOL     OW22897   4.561   3.035   8.698 -0.0543 -0.0487  0.0511
 3755SOL    HW122898   4.626   3.009   8.634 -0.8509  1.2363 -1.2956
 3755SOL    HW222899   4.608   3.049   8.781 -1.6993 -0.5697  1.0741
 3756SOL     OW22900   3.678   3.262   8.132 -0.2032  0.0137 -0.1012
 3756SOL    HW122901   3.619   3.232   8.063  1.4157  1.4673 -2.1275
 3756SOL    HW222902   3.626   3.321   8.185  0.5074 -2.1274  2.9846
 3757SOL     OW22903   1.692   1.357   9.038 -0.3733 -0.0551 -0.5800
 3757SOL    HW122904   1.639   1.330   8.963  0.3823 -0.2591 -1.0330
 3757SOL    HW222905   1.719   1.271   9.070  1.0570  1.0164  1.0893
 3758SOL     OW22906   2.411   3.206  16.442  0.2546 -0.0554 -0.3819
 3758SOL    HW122907   2.417   3.256  16.523  0.6244 -0.0841 -0.3910
 3758SOL    HW222908   2.503   3.202  16.416  0.9831 -0.3475  2.2343
 3759SOL     OW22909   0.962   0.460   3.143  0.3432  0.2174 -0.3055
 3759SOL    HW122910   0.920   0.375   3.152 -0.2138  0.4973 -0.2499
 3759SOL    HW222911   0.947   0.509   3.225 -0.7196 -1.5672  0.5600
 3760SOL     OW22912   4.688   0.712  13.874 -0.5367  0.0044  0.0827
 3760SOL    HW122913   4.730   0.736  13.957 -3.2209  1.2994  1.0723
 3760SOL    HW222914   4.610   0.668  13.907  0.7618 -0.9156  1.9303
 3761SOL     OW22915   0.442   2.697   9.270 -0.2989 -0.6765  0.2938
 3761SOL    HW122916   0.419   2.735   9.354 -1.3962  0.4460 -0.5075
 3761SOL    HW222917   0.464   2.607   9.296  3.9566  1.1059  2.7627
 3762SOL     OW22918   0.575   1.671   9.397  0.5844 -0.1457  0.2646
 3762SOL    HW122919   0.662   1.633   9.381  1.3220  0.9490  1.7313
 3762SOL    HW222920   0.581   1.685   9.491  0.0946  0.6500  0.1769
 3763SOL     OW22921   2.918   0.471   6.458  0.5077  0.0690 -0.2299
 3763SOL    HW122922   2.956   0.550   6.496  0.9934 -0.6951  0.8739
 3763SOL    HW222923   2.964   0.400   6.502 -0.5901 -0.4311  0.1316
 3764SOL     OW22924   3.085   0.694   4.758  0.1619  0.1191 -0.4590
 3764SOL    HW122925   3.116   0.627   4.697 -0.8986  0.0455 -0.9312
 3764SOL    HW222926   3.020   0.641   4.804  1.0116 -1.3437 -0.9049
 3765SOL     OW22927   3.591   0.210   2.927  0.0884 -0.3316  0.3416
 3765SOL    HW122928   3.677   0.199   2.968 -0.0697 -1.3222  0.3893
 3765SOL    HW222929   3.586   0.131   2.874 -1.7154 -0.3516  0.5631
 3766SOL     OW22930   3.069   0.698   7.877 -0.6473 -0.1281  0.0672
 3766SOL    HW122931   3.150   0.693   7.926  0.2338  1.1366 -1.2755
 3766SOL    HW222932   3.072   0.613   7.833  2.8443 -0.5681  1.2273
 3767SOL     OW22933   0.042   1.193   7.065 -0.2155 -0.0604 -0.3799
 3767SOL    HW122934   0.138   1.186   7.073 -0.2648 -3.4058 -2.5557
 3767SOL    HW222935   0.015   1.133   7.135  0.4020  0.7048  0.5095
 3768SOL     OW22936   2.273   2.749   7.827  0.4738  0.8873  0.2522
 3768SOL    HW122937   2.186   2.710   7.835  0.0838  1.5602 -0.7329
 3768SOL    HW222938   2.326   2.698   7.889  0.6950  1.7169  0.7416
 3769SOL     OW22939   1.885   0.342   5.314  0.1387 -0.1203  0.5237
 3769SOL    HW122940   1.967   0.391   5.305  1.0296 -1.6063  0.4730
 3769SOL    HW222941   1.840   0.358   5.231 -0.3727  2.3554  1.2743
 3770SOL     OW22942   4.375   2.600   5.257 -0.1033 -0.1477  0.2574
 3770SOL    HW122943   4.318   2.575   5.184 -0.7257 -0.6245  0.9003
 3770SOL    HW222944   4.404   2.685   5.225  2.6439 -1.7340 -1.4943
 3771SOL     OW22945   1.167   1.424   6.001  0.2475 -0.3233 -0.3482
 3771SOL    HW122946   1.237   1.488   6.013 -0.3360 -0.1891  2.4335
 3771SOL    HW222947   1.138   1.451   5.914  0.8431 -0.9526 -0.7383
 3772SOL     OW22948   2.640   1.656   1.526  0.2379 -0.4775 -0.6322
 3772SOL    HW122949   2.670   1.747   1.530 -1.0496 -0.0845  0.3914
 3772SOL    HW222950   2.701   1.614   1.586 -0.7519  1.2098  1.5778
 3773SOL     OW22951   4.191   1.272   0.724  0.0631 -0.1751 -0.1038
 3773SOL    HW122952   4.239   1.261   0.642 -0.9622 -1.9466 -0.4476
 3773SOL    HW222953   4.110   1.228   0.697  0.4922 -2.1596  1.9121
 3774SOL     OW22954   3.478   4.353  14.814  0.2895  0.9467  0.2272
 3774SOL    HW122955   3.413   4.318  14.752  0.6015 -0.9301  0.9412
 3774SOL    HW222956   3.491   4.275  14.868 -0.0075 -0.2444 -1.3992
 3775SOL     OW22957   2.040   1.801   3.338 -0.0559  0.7734 -0.9782
 3775SOL    HW122958   1.998   1.721   3.305  1.1047 -0.1119 -0.3126
 3775SOL    HW222959   2.122   1.808   3.289  0.3097  0.6742 -0.3745
 3776SOL     OW22960   2.550   2.874   2.993  0.1407  0.3916  1.1808
 3776SOL    HW122961   2.506   2.954   2.962  0.1651  0.1898  0.6201
 3776SOL    HW222962   2.619   2.907   3.050 -1.5009  1.0412  2.7830
 3777SOL     OW22963   0.578   3.492   8.701  0.3830  0.0089  0.3101
 3777SOL    HW122964   0.544   3.416   8.748 -0.3274 -0.4918 -1.0110
 3777SOL    HW222965   0.562   3.566   8.759  0.9091 -0.9923  1.7331
 3778SOL     OW22966   1.987   1.878   2.732  0.3719  0.4476 -0.0794
 3778SOL    HW122967   1.893   1.892   2.729  0.0212 -2.2196 -1.5135
 3778SOL    HW222968   1.996   1.832   2.649  1.2578  0.2987  0.0972
 3779SOL     OW22969   1.153   1.809   4.081  0.2446 -0.6075  0.0377
 3779SOL    HW122970   1.217   1.880   4.080 -0.3420 -0.0981 -1.4832
 3779SOL    HW222971   1.075   1.857   4.108 -0.2989 -1.6920  0.4081
 3780SOL     OW22972   0.777   3.319   1.671 -0.4130 -0.3236  0.0151
 3780SOL    HW122973   0.720   3.242   1.666  2.5516 -2.3884 -2.4311
 3780SOL    HW222974   0.863   3.283   1.652 -0.9761 -0.3892 -2.5329
 3781SOL     OW22975   0.273   0.941   8.523  0.1863  0.1048  0.4523
 3781SOL    HW122976   0.204   0.888   8.484  1.7439 -2.1582  0.7911
 3781SOL    HW222977   0.345   0.879   8.533 -0.5497 -1.0817 -1.7015
 3782SOL     OW22978   3.513   2.650  14.506  0.2007  0.0012  0.3160
 3782SOL    HW122979   3.566   2.608  14.438 -0.1029  0.0595  0.0441
 3782SOL    HW222980   3.547   2.607  14.585 -1.7763 -0.6820  0.8016
 3783SOL     OW22981   2.525   4.431   6.116  0.5234  0.6779 -0.2814
 3783SOL    HW122982   2.569   4.515   6.098 -0.0556  1.8477  3.6017
 3783SOL    HW222983   2.518   4.390   6.030  1.5808 -1.9537  0.8934
 3784SOL     OW22984   1.956   2.680  11.564 -0.5816  0.2982 -0.3883
 3784SOL    HW122985   2.015   2.644  11.630 -1.7773 -1.2359 -0.1419
 3784SOL    HW222986   2.026   2.688  11.500 -0.5421  2.3318 -0.0950
 3785SOL     OW22987   2.700   1.885   9.001  1.0740  0.2189 -0.3904
 3785SOL    HW122988   2.719   1.911   8.911  1.4615  0.0879 -0.3458
 3785SOL    HW222989   2.743   1.799   9.002 -1.9162 -1.2695  0.1677
 3786SOL     OW22990   2.719   1.290   2.740 -0.4559  0.0690  0.1946
 3786SOL    HW122991   2.801   1.327   2.706  0.9930 -0.5069  2.9876
 3786SOL    HW222992   2.748   1.243   2.819  1.5070  0.2600 -0.4021
 3787SOL     OW22993   2.383   3.364  14.895 -0.7592  0.4490  0.1323
 3787SOL    HW122994   2.457   3.346  14.837  0.2668  2.9190  0.6341
 3787SOL    HW222995   2.315   3.397  14.836 -0.3493  0.3876 -0.3792
 3788SOL     OW22996   4.397   4.395  14.103 -0.1012  0.3613  0.1875
 3788SOL    HW122997   4.401   4.430  14.192 -0.8449  1.5587 -0.2368
 3788SOL    HW222998   4.470   4.439  14.060  0.9339 -1.2829  0.2596
 3789SOL     OW22999   1.844   3.770   2.919 -0.0989 -0.5447  0.6482
 3789SOL    HW123000   1.910   3.828   2.957 -2.0092  1.4844  0.8593
 3789SOL    HW223001   1.776   3.778   2.985 -1.6288  0.3165 -1.0204
 3790SOL     OW23002   4.262   2.135   0.907 -0.0580 -0.1558  0.3455
 3790SOL    HW123003   4.186   2.120   0.851 -0.5555 -0.8005  1.1856
 3790SOL    HW223004   4.261   2.053   0.958 -2.4001  0.6735  1.6317
 3791SOL     OW23005   4.477   2.745  11.787 -0.0046 -0.2668  0.2145
 3791SOL    HW123006   4.545   2.701  11.838 -1.6236 -1.1916  1.5622
 3791SOL    HW223007   4.414   2.756  11.858 -1.5877  0.7241 -1.3416
 3792SOL     OW23008   1.537   0.958   8.534 -0.0485 -0.1638  0.3724
 3792SOL    HW123009   1.496   1.043   8.554 -1.5094 -1.1269  1.5436
 3792SOL    HW223010   1.521   0.909   8.615 -0.7561 -1.1013 -0.3374
 3793SOL     OW23011   2.715   4.646   6.141 -0.2031 -0.1740  0.1232
 3793SOL    HW123012   2.771   4.656   6.064  0.8401  0.8160  1.0050
 3793SOL    HW223013   2.701   4.726   6.191  0.2813  0.5601 -0.9197
 3794SOL     OW23014   0.249   1.086   2.593 -0.8874 -0.2445  0.2688
 3794SOL    HW123015   0.231   0.994   2.610 -2.5795 -0.1237 -0.8504
 3794SOL    HW223016   0.276   1.088   2.501  0.1658 -1.7086  0.5528
 3795SOL     OW23017   0.442   1.180  16.993  0.3326 -0.3907  0.6387
 3795SOL    HW123018   0.501   1.115  17.033  0.5347  0.4125  1.6674
 3795SOL    HW223019   0.422   1.134  16.912 -1.4082  0.4331  0.5902
 3796SOL     OW23020   2.774   2.625   8.498  0.2992  0.4165 -0.1642
 3796SOL    HW123021   2.725   2.578   8.430 -0.4924  2.9580 -1.3868
 3796SOL    HW223022   2.748   2.581   8.579  0.2164 -0.5654 -0.7286
 3797SOL     OW23023   0.803   1.356   6.855  0.5332 -0.2247 -0.3301
 3797SOL    HW123024   0.877   1.415   6.867  1.2302 -1.0495 -0.5566
 3797SOL    HW223025   0.807   1.312   6.940  2.9327 -1.9360 -1.3419
 3798SOL     OW23026   2.779   1.559  16.613  0.6934  0.5205  0.0744
 3798SOL    HW123027   2.745   1.581  16.700  2.5271 -0.1000  0.9281
 3798SOL    HW223028   2.809   1.648  16.596  3.4589 -0.4930 -0.3038
 3799SOL     OW23029   1.388   0.031   7.422 -0.2464  0.1624 -0.6999
 3799SOL    HW123030   1.313   4.710   7.438 -0.8406  1.8714  2.7760
 3799SOL    HW223031   1.446   4.713   7.371  1.1259  0.2318  0.7879
 3800SOL     OW23032   1.653   1.047   5.615 -0.7075  0.2319  0.6126
 3800SOL    HW123033   1.695   1.128   5.585  0.6792 -1.0873 -1.0473
 3800SOL    HW223034   1.626   1.009   5.531  2.4320 -1.2606  0.2530
 3801SOL     OW23035   3.149   2.888   8.377  0.5080 -0.3670 -0.4039
 3801SOL    HW123036   3.107   2.812   8.339 -0.5113 -0.9667  1.9262
 3801SOL    HW223037   3.173   2.936   8.298 -0.8893 -2.0667 -1.8441
 3802SOL     OW23038   4.300   0.269   4.586  0.1162  0.4321 -0.2584
 3802SOL    HW123039   4.363   0.318   4.533  1.5192 -0.2103  0.8124
 3802SOL    HW223040   4.252   0.217   4.522  0.4540 -0.4741  0.2255
 3803SOL     OW23041   3.617   3.616   9.042  0.2620  0.4193 -0.1053
 3803SOL    HW123042   3.623   3.682   9.110  1.9343 -1.5211  1.6376
 3803SOL    HW223043   3.637   3.666   8.963  0.7481  1.2371  0.5460
 3804SOL     OW23044   0.275   0.607   9.910  0.6714 -0.2640  0.2315
 3804SOL    HW123045   0.296   0.600  10.004 -0.3765  2.7577  0.6821
 3804SOL    HW223046   0.354   0.643   9.871  1.2343 -1.4321  0.2842
 3805SOL     OW23047   4.569   0.665   3.502  0.2099 -0.3041  0.0725
 3805SOL    HW123048   4.567   0.575   3.472 -0.3965  0.0606 -0.9555
 3805SOL    HW223049   4.474   0.677   3.505 -0.0731 -2.6754  0.6179
 3806SOL     OW23050   1.098   1.066   1.779 -0.2451  0.2953 -0.2403
 3806SOL    HW123051   1.173   1.116   1.810  0.5884 -0.9947 -0.2032
 3806SOL    HW223052   1.070   1.007   1.849  1.3814 -0.7413 -0.4630
 3807SOL     OW23053   1.010   1.783   0.770  0.3606 -0.0593  0.4350
 3807SOL    HW123054   0.984   1.842   0.700 -2.0910 -1.3708  0.2377
 3807SOL    HW223055   1.098   1.758   0.742  1.0993  1.0255  1.7757
 3808SOL     OW23056   0.256   2.517   7.260  0.8514 -0.2897  0.0100
 3808SOL    HW123057   0.251   2.559   7.346 -1.2460  0.7424 -0.6212
 3808SOL    HW223058   0.188   2.565   7.213 -1.0251 -1.6991  1.2773
 3809SOL     OW23059   3.482   2.590  14.194  0.1523 -0.1433 -0.2833
 3809SOL    HW123060   3.461   2.503  14.159  1.7572  0.2756 -2.2736
 3809SOL    HW223061   3.425   2.650  14.146  0.5132 -2.0407 -3.0989
 3810SOL     OW23062   2.709   1.721  16.833  0.3890 -0.1240  0.7171
 3810SOL    HW123063   2.711   1.654  16.902 -2.2242  1.6499  2.5191
 3810SOL    HW223064   2.654   1.790  16.872 -0.9182 -0.2209 -0.9335
 3811SOL     OW23065   2.145   1.750   4.884 -0.4076  0.3378  0.1627
 3811SOL    HW123066   2.179   1.665   4.913  0.2712 -0.3026 -2.5080
 3811SOL    HW223067   2.069   1.717   4.835  0.5655 -1.5034 -0.0916
 3812SOL     OW23068   2.768   3.243  13.364 -0.3455  0.2633  0.5532
 3812SOL    HW123069   2.802   3.158  13.334  0.1045  0.2357  1.1377
 3812SOL    HW223070   2.702   3.266  13.298  2.0592 -1.9740 -2.6254
 3813SOL     OW23071   4.633   3.500   3.945 -0.1894  0.5884  0.3440
 3813SOL    HW123072   4.684   3.540   4.016  0.5101  0.3775 -0.0491
 3813SOL    HW223073   4.576   3.572   3.915  0.1485 -0.3467 -2.4988
 3814SOL     OW23074   2.493   3.169  16.869  0.5615  0.3686  0.6040
 3814SOL    HW123075   2.420   3.109  16.856 -0.7958  1.6318  2.2511
 3814SOL    HW223076   2.531   3.164  16.782 -0.1017 -1.3525  0.4093
 3815SOL     OW23077   3.835   4.036   7.282 -1.0537  0.5089 -0.2354
 3815SOL    HW123078   3.849   4.022   7.188  1.3929  2.9497 -0.2368
 3815SOL    HW223079   3.797   4.124   7.275 -3.8723 -0.8062 -1.2523
 3816SOL     OW23080   4.611   2.287   4.472  0.1216  0.0547 -0.4883
 3816SOL    HW123081   4.604   2.245   4.558  1.7209  0.2399 -0.2666
 3816SOL    HW223082   4.628   2.375   4.506  2.3737 -0.6276  0.1514
 3817SOL     OW23083   0.592   3.003  10.187 -0.0338  0.4232  0.5339
 3817SOL    HW123084   0.649   3.035  10.257  1.5665 -1.5558  0.1205
 3817SOL    HW223085   0.575   2.915  10.221 -0.0786  0.8508  1.6435
 3818SOL     OW23086   3.964   1.942   8.205 -0.1865  0.6653 -0.5073
 3818SOL    HW123087   4.029   1.887   8.249 -1.3516  1.1426  1.8225
 3818SOL    HW223088   3.994   2.021   8.251 -1.4034  0.7006  0.2379
 3819SOL     OW23089   4.560   1.424   4.614  0.4448 -0.1164 -0.1385
 3819SOL    HW123090   4.464   1.426   4.604  0.3156  0.4325  1.1920
 3819SOL    HW223091   4.588   1.416   4.523 -0.6432 -0.6251 -0.4425
 3820SOL     OW23092   3.858   0.572  10.561 -0.4207 -0.3082  0.0676
 3820SOL    HW123093   3.928   0.514  10.531  0.1072  0.8066 -0.8729
 3820SOL    HW223094   3.799   0.583  10.487  0.3912 -1.0154 -0.6829
 3821SOL     OW23095   1.950   4.482   3.380 -0.5229  0.1442  0.3678
 3821SOL    HW123096   1.916   4.398   3.349  0.4690 -0.4076  0.7238
 3821SOL    HW223097   1.884   4.545   3.353 -0.3224  0.7915  1.3591
 3822SOL     OW23098   2.932   0.903   8.005  0.1256 -0.1337  0.8771
 3822SOL    HW123099   3.002   0.904   8.070  0.6725 -1.6119  0.3004
 3822SOL    HW223100   2.971   0.853   7.933  2.4237  0.3345  1.7909
 3823SOL     OW23101   0.267   0.553   7.067  0.3719  0.1111  0.0360
 3823SOL    HW123102   0.303   0.606   7.138 -2.5752  1.4096  0.5418
 3823SOL    HW223103   0.352   0.539   7.025 -0.0244 -2.7687  0.1910
 3824SOL     OW23104   0.657   3.844   8.620 -0.9081  1.0072  0.0071
 3824SOL    HW123105   0.740   3.807   8.651  0.2032  2.9772 -0.5871
 3824SOL    HW223106   0.625   3.880   8.702 -0.1465  2.5184 -0.3668
 3825SOL     OW23107   3.137   4.176   7.498  0.6750  0.1725 -0.2013
 3825SOL    HW123108   3.183   4.200   7.417 -1.6972  2.4075 -0.8996
 3825SOL    HW223109   3.115   4.264   7.528  0.7921 -0.0244  0.4468
 3826SOL     OW23110   4.187   2.448   1.302 -0.5477  0.1065 -0.3300
 3826SOL    HW123111   4.215   2.358   1.316 -1.0159 -0.2788 -1.7697
 3826SOL    HW223112   4.099   2.412   1.291 -0.6091 -0.5068  2.2440
 3827SOL     OW23113   0.976   2.951  12.646  0.5049  0.1608 -0.3789
 3827SOL    HW123114   1.064   2.988  12.633  1.8768 -1.6793  3.7957
 3827SOL    HW223115   1.001   2.890  12.715  1.3943 -0.5247 -1.3078
 3828SOL     OW23116   0.064   0.157  15.033  0.0834  0.2496 -0.3686
 3828SOL    HW123117   4.711   0.154  15.065  0.0473 -1.2380 -0.6217
 3828SOL    HW223118   0.078   0.065  15.011  0.3221 -0.4693  2.7567
 3829SOL     OW23119   1.296   1.334   7.397  0.2897 -0.0802 -0.6788
 3829SOL    HW123120   1.204   1.362   7.397  0.0801 -0.7664 -0.5760
 3829SOL    HW223121   1.322   1.340   7.305  2.1289  2.8872  0.0531
 3830SOL     OW23122   2.630   2.546   8.740 -0.0190 -0.2959 -0.3696
 3830SOL    HW123123   2.542   2.556   8.703 -0.6475 -2.2591  0.5603
 3830SOL    HW223124   2.608   2.481   8.807 -0.7688  0.6996  0.3551
 3831SOL     OW23125   2.936   3.771   6.238 -0.5258 -0.1602 -0.0523
 3831SOL    HW123126   2.918   3.730   6.323  0.4774  3.2505  1.8412
 3831SOL    HW223127   2.849   3.793   6.203 -0.7702 -0.2510  0.4896
 3832SOL     OW23128   2.906   0.620   8.149  0.3701  0.1702  0.3828
 3832SOL    HW123129   2.866   0.632   8.063  2.5287  1.2219 -0.4788
 3832SOL    HW223130   2.997   0.648   8.138 -0.2750  1.6998 -1.1070
 3833SOL     OW23131   3.969   1.789   9.311 -0.6051 -0.1102 -0.1569
 3833SOL    HW123132   4.058   1.813   9.284 -0.7355  1.3604  0.7291
 3833SOL    HW223133   3.942   1.867   9.360  1.2313  0.0754  0.5667
 3834SOL     OW23134   0.593   1.589   0.953  0.2971  0.1211  0.4466
 3834SOL    HW123135   0.664   1.648   0.976  1.8244 -0.7436 -2.0688
 3834SOL    HW223136   0.541   1.592   1.033 -1.0748 -3.1851 -0.3045
 3835SOL     OW23137   4.674   3.852   7.241 -0.2379  0.0729  0.2610
 3835SOL    HW123138   4.645   3.766   7.212  1.5068  0.1611 -1.7254
 3835SOL    HW223139   4.731   3.837   7.315  0.3815  1.5642  0.0877
 3836SOL     OW23140   3.936   2.600   0.451  0.8431 -0.4170 -0.0684
 3836SOL    HW123141   3.964   2.588   0.360  1.3472 -0.9046  0.1485
 3836SOL    HW223142   3.849   2.637   0.437  0.1663 -1.8619  0.2706
 3837SOL     OW23143   3.574   3.048  13.237  0.0927 -0.1774  0.1882
 3837SOL    HW123144   3.666   3.056  13.261 -0.2412  0.9484  1.0752
 3837SOL    HW223145   3.571   2.961  13.196  1.7407 -0.6372  1.0116
 3838SOL     OW23146   2.366   1.402  15.137  0.1988  0.3488 -0.2724
 3838SOL    HW123147   2.356   1.314  15.099 -0.6224 -0.3980  1.6871
 3838SOL    HW223148   2.340   1.463  15.068  1.6422 -1.4984 -2.4436
 3839SOL     OW23149   0.233   0.188   1.263  0.2957 -0.8285 -0.0316
 3839SOL    HW123150   0.279   0.190   1.179 -1.0878  0.4418 -0.7513
 3839SOL    HW223151   0.308   0.176   1.321 -1.7824  2.1227  3.1827
 3840SOL     OW23152   2.084   3.389   8.415 -0.5468 -0.1149  0.0433
 3840SOL    HW123153   1.992   3.409   8.432 -0.8852 -1.9399  0.3716
 3840SOL    HW223154   2.084   3.419   8.324 -0.9393  3.0992  1.0876
 3841SOL     OW23155   3.203   2.958   5.178 -0.1063  0.5828  0.2547
 3841SOL    HW123156   3.125   2.962   5.122 -0.4744 -2.0460  0.5946
 3841SOL    HW223157   3.269   2.921   5.120 -1.4560  0.4968 -1.2276
 3842SOL     OW23158   0.219   0.587   3.559 -0.3104  0.0107  0.3144
 3842SOL    HW123159   0.164   0.522   3.515 -0.5229 -0.4886  1.3039
 3842SOL    HW223160   0.158   0.658   3.579 -1.2053 -0.3693 -1.0121
 3843SOL     OW23161   1.035   2.213   8.893 -0.4358 -0.1388 -0.3308
 3843SOL    HW123162   0.984   2.241   8.816 -1.7875  1.5735  1.1584
 3843SOL    HW223163   1.014   2.121   8.904  0.2448 -0.4660 -1.8313
 3844SOL     OW23164   1.785   3.098   5.526  0.3305 -0.2147  0.1261
 3844SOL    HW123165   1.878   3.107   5.506  0.1061 -1.8401 -1.5879
 3844SOL    HW223166   1.753   3.177   5.482 -0.6095 -1.2157 -0.9621
 3845SOL     OW23167   0.921   4.353   7.110  0.7781  0.7284  0.2872
 3845SOL    HW123168   0.911   4.396   7.024 -1.0731  0.7883  0.5326
 3845SOL    HW223169   0.839   4.303   7.114  0.1221  1.9518  1.8875
 3846SOL     OW23170   3.118   0.819   5.053 -0.9149 -0.1959  0.4401
 3846SOL    HW123171   3.034   0.823   5.006 -0.7491 -1.3733  0.0506
 3846SOL    HW223172   3.081   0.822   5.141 -0.7699  0.4161  0.4819
 3847SOL     OW23173   1.322   0.300   9.426  0.3875 -0.2777  0.0488
 3847SOL    HW123174   1.375   0.248   9.366 -1.1936  1.3813 -2.7911
 3847SOL    HW223175   1.261   0.344   9.367 -1.2896 -2.0682  0.4304
 3848SOL     OW23176   3.389   2.204   7.721 -0.3390 -0.0234  0.2225
 3848SOL    HW123177   3.431   2.188   7.636  0.0031 -1.5582  0.6774
 3848SOL    HW223178   3.463   2.202   7.781 -0.2965 -2.2029  0.0950
 3849SOL     OW23179   0.217   0.051   4.689  0.2109 -0.2821  0.0607
 3849SOL    HW123180   0.185   0.136   4.718  0.9632 -0.4529  1.3839
 3849SOL    HW223181   0.169   4.737   4.754  0.0857 -1.1575 -0.7227
 3850SOL     OW23182   4.470   4.012  15.342 -0.6901 -0.1530 -0.5680
 3850SOL    HW123183   4.538   4.027  15.408 -0.5320 -0.6666 -0.6158
 3850SOL    HW223184   4.521   3.963  15.278  0.2558  0.4947 -0.3166
 3851SOL     OW23185   4.611   0.739   2.441 -0.6128 -0.0352  0.2504
 3851SOL    HW123186   4.535   0.781   2.481  0.5177  1.6419  0.6805
 3851SOL    HW223187   4.631   0.674   2.508  1.5194  0.6663  0.2953
 3852SOL     OW23188   3.845   1.591  13.030 -0.0201 -0.2108 -0.5519
 3852SOL    HW123189   3.912   1.659  13.020 -0.7185  0.6995  0.8752
 3852SOL    HW223190   3.870   1.569  13.120 -1.0910 -0.2728 -0.2645
 3853SOL     OW23191   2.038   0.441   5.007 -0.1990 -0.2470 -0.0333
 3853SOL    HW123192   2.105   0.469   4.944 -0.2438 -0.1529 -0.0383
 3853SOL    HW223193   2.088   0.458   5.088 -0.0460 -2.2788  0.3061
 3854SOL     OW23194   1.681   1.449  17.273  0.0293  0.1877 -0.5502
 3854SOL    HW123195   1.777   1.453  17.265 -0.0617  0.0715 -1.6667
 3854SOL    HW223196   1.668   1.493  17.357  1.2324 -0.4782 -0.0154
 3855SOL     OW23197   3.508   4.589   4.687 -0.2442  0.3793 -0.2969
 3855SOL    HW123198   3.587   4.616   4.734 -1.6439  0.6804  1.9036
 3855SOL    HW223199   3.552   4.521   4.636 -0.3033  0.8707 -0.9847
 3856SOL     OW23200   3.376   3.523   5.381  0.2189  0.5655  0.1263
 3856SOL    HW123201   3.436   3.552   5.312 -0.5632  0.4578 -0.5948
 3856SOL    HW223202   3.289   3.562   5.371 -0.1772 -0.0456  1.2646
 3857SOL     OW23203   3.682   2.581  17.710 -0.2065 -0.2835  0.4136
 3857SOL    HW123204   3.762   2.529  17.714  0.8813  1.2825 -0.9692
 3857SOL    HW223205   3.627   2.531   0.020  1.5692 -1.0790  1.3688
 3858SOL     OW23206   0.137   3.170  12.227 -0.0822  0.0829 -0.2953
 3858SOL    HW123207   0.084   3.248  12.244 -1.2509 -0.4205 -1.6456
 3858SOL    HW223208   0.087   3.115  12.287  1.0728 -0.0714  0.5176
 3859SOL     OW23209   4.117   3.022   4.854 -0.8112  0.2903  0.1229
 3859SOL    HW123210   4.024   3.025   4.876 -0.8881 -0.5125 -0.0945
 3859SOL    HW223211   4.160   3.094   4.900 -0.3886  0.1801 -0.0945
 3860SOL     OW23212   1.430   3.544   5.451 -0.2618  0.3485 -0.1637
 3860SOL    HW123213   1.380   3.501   5.382  0.7149 -0.5774 -0.3013
 3860SOL    HW223214   1.434   3.630   5.411  0.5816  1.1982  1.7133
 3861SOL     OW23215   0.982   3.589   1.247 -0.2763 -0.0366 -0.4115
 3861SOL    HW123216   0.991   3.494   1.241  2.8053  0.2271 -0.0852
 3861SOL    HW223217   0.934   3.610   1.167 -0.4039  1.5453  0.0993
 3862SOL     OW23218   2.409   2.884   1.355 -0.2065  0.0989  0.3412
 3862SOL    HW123219   2.433   2.972   1.382  1.0180  0.1060 -0.7589
 3862SOL    HW223220   2.336   2.855   1.410  0.0448 -0.1242  0.5564
 3863SOL     OW23221   1.636   2.173  16.563 -0.3985  0.0709 -0.1575
 3863SOL    HW123222   1.678   2.130  16.488 -0.1184  2.2613 -1.2434
 3863SOL    HW223223   1.573   2.103  16.583  2.3660 -2.3144  0.1680
 3864SOL     OW23224   3.646   4.482   2.147  0.2072 -0.4707 -0.8397
 3864SOL    HW123225   3.729   4.499   2.192  0.2717 -0.2070 -1.0598
 3864SOL    HW223226   3.639   4.386   2.139  0.4457 -0.6964  1.7697
 3865SOL     OW23227   4.248   4.693   1.694 -0.6973 -0.3119  0.2026
 3865SOL    HW123228   4.342   4.700   1.710 -0.8452  0.3124  0.7992
 3865SOL    HW223229   4.223   0.047   1.704 -0.2744 -0.4503  2.5001
 3866SOL     OW23230   1.606   3.634   0.634 -0.1357  0.0836  0.0794
 3866SOL    HW123231   1.578   3.704   0.575 -0.5218 -1.0165 -1.0310
 3866SOL    HW223232   1.675   3.689   0.670  1.4388 -0.3213 -2.3497
 3867SOL     OW23233   0.965   1.156   3.337 -0.0894  0.0548  0.9881
 3867SOL    HW123234   0.997   1.225   3.394 -0.6457 -0.0883  1.4742
 3867SOL    HW223235   1.024   1.151   3.261 -1.6622  0.5220 -0.2751
 3868SOL     OW23236   0.785   4.717  13.313 -0.0954  0.0961  0.1266
 3868SOL    HW123237   0.718   0.047  13.305  0.8189  1.0906  0.8620
 3868SOL    HW223238   0.752   4.653  13.376  1.3051 -0.5384  0.2049
 3869SOL     OW23239   2.671   1.338   8.698 -0.5053 -0.0098  0.7505
 3869SOL    HW123240   2.743   1.298   8.746 -1.4117 -1.6291  0.7785
 3869SOL    HW223241   2.646   1.405   8.762  0.9285  1.5857 -0.3770
 3870SOL     OW23242   2.174   0.561  16.886 -0.1666 -0.0333  0.0766
 3870SOL    HW123243   2.200   0.644  16.926  1.2134 -0.4732  0.0949
 3870SOL    HW223244   2.249   0.507  16.913 -2.2535 -2.3545  1.2483
 3871SOL     OW23245   1.584   1.633   5.473 -0.3044 -0.1726 -0.3309
 3871SOL    HW123246   1.657   1.673   5.426 -0.1991 -0.0652 -0.0711
 3871SOL    HW223247   1.604   1.540   5.488 -0.6697 -0.0953  0.6178
 3872SOL     OW23248   0.234   4.383   2.912 -0.1494  0.6373  0.2172
 3872SOL    HW123249   0.143   4.354   2.908 -0.6227  2.2294 -0.7612
 3872SOL    HW223250   0.282   4.301   2.903  0.7374  1.1698  0.1969
 3873SOL     OW23251   4.206   2.004   7.068  0.0503  0.0119  0.0653
 3873SOL    HW123252   4.244   2.007   7.156 -0.6155 -0.5837  0.3746
 3873SOL    HW223253   4.266   1.952   7.014  2.1370 -0.9402  3.3123
 3874SOL     OW23254   3.675   1.153   9.489 -0.6326 -1.0988 -0.8492
 3874SOL    HW123255   3.659   1.247   9.489  1.0712 -0.8240 -1.6420
 3874SOL    HW223256   3.631   1.126   9.408 -1.4198  0.0219 -0.7941
 3875SOL     OW23257   3.618   0.037   2.379 -0.0222 -0.0151  0.7806
 3875SOL    HW123258   3.590   0.066   2.292  2.0985  0.9374  0.4053
 3875SOL    HW223259   3.697   4.724   2.360 -0.6350 -1.4825  2.1972
 3876SOL     OW23260   3.055   1.762   1.685  0.0771 -0.1839 -0.1307
 3876SOL    HW123261   3.024   1.780   1.597 -0.1550 -2.3931 -0.5017
 3876SOL    HW223262   3.120   1.831   1.699  0.8699 -1.0499  0.4691
 3877SOL     OW23263   1.083   2.310   4.162 -0.3167  0.7438  0.3757
 3877SOL    HW123264   1.061   2.218   4.145  2.2818  0.0407  0.8449
 3877SOL    HW223265   0.994   2.343   4.172 -1.0844 -0.9186 -0.7868
 3878SOL     OW23266   4.348   2.030   3.264 -0.0646 -0.1500  0.3798
 3878SOL    HW123267   4.274   2.058   3.211 -1.2258 -0.5722  1.7615
 3878SOL    HW223268   4.340   2.092   3.337 -0.4554 -0.8622  0.9403
 3879SOL     OW23269   4.343   3.815   7.174  0.2455  0.1535  0.0664
 3879SOL    HW123270   4.396   3.788   7.249  1.6241 -0.2518 -1.0368
 3879SOL    HW223271   4.251   3.807   7.200  0.5061  0.4060  1.0651
 3880SOL     OW23272   2.141   3.319   7.020  0.0330 -0.0951  0.3533
 3880SOL    HW123273   2.178   3.267   6.950  0.0836 -0.6749  0.8109
 3880SOL    HW223274   2.191   3.396   6.994  0.3572 -0.8177 -1.1345
 3881SOL     OW23275   4.588   3.684   4.514  0.5075 -0.1256  0.5349
 3881SOL    HW123276   4.541   3.680   4.597  0.2098 -1.8049  0.2752
 3881SOL    HW223277   4.541   3.615   4.466 -1.9422  1.6757  0.3073
 3882SOL     OW23278   3.821   1.698  17.747  0.3918 -0.0375 -0.1458
 3882SOL    HW123279   3.907   1.740  17.736  1.5429 -2.1201  0.9151
 3882SOL    HW223280   3.790   1.759   0.065 -0.3367  0.4858 -0.9637
 3883SOL     OW23281   0.196   2.423   1.321  0.0123 -0.4811 -0.1368
 3883SOL    HW123282   0.216   2.382   1.237  1.9136  1.7249 -0.7369
 3883SOL    HW223283   0.274   2.466   1.356  1.7754 -4.0946  0.3642
 3884SOL     OW23284   0.953   1.578   1.658  0.2427  0.3346  0.4692
 3884SOL    HW123285   0.999   1.515   1.714  2.3406  2.1938  0.8180
 3884SOL    HW223286   0.869   1.555   1.697 -0.1319  0.9554  0.0209
 3885SOL     OW23287   4.491   0.309   5.104 -0.3972 -0.6365  0.1563
 3885SOL    HW123288   4.463   0.268   5.022  2.5830 -1.3947 -0.4937
 3885SOL    HW223289   4.411   0.308   5.156 -2.8405 -2.0575 -3.6707
 3886SOL     OW23290   1.010   2.560   5.875  0.4214  0.1315 -0.2201
 3886SOL    HW123291   1.000   2.655   5.877 -1.7615 -0.0696 -0.6912
 3886SOL    HW223292   1.040   2.537   5.963 -0.2053 -1.0117 -0.2982
 3887SOL     OW23293   2.223   0.104   3.307  0.1188 -0.4763  0.1028
 3887SOL    HW123294   2.251   0.053   3.231  0.5553 -1.2019  0.7444
 3887SOL    HW223295   2.223   0.038   3.377  0.4410  0.9995  1.4893
 3888SOL     OW23296   1.158   2.617   2.893  0.2100  0.3151  0.1218
 3888SOL    HW123297   1.204   2.558   2.834 -1.1022 -0.6431  0.0488
 3888SOL    HW223298   1.095   2.555   2.930 -1.6026  1.5158 -0.9338
 3889SOL     OW23299   3.614   0.336   4.150  0.0497  0.1373 -0.3130
 3889SOL    HW123300   3.635   0.264   4.208 -1.2649  1.5241  1.8686
 3889SOL    HW223301   3.571   0.393   4.213  2.1911  2.3514 -0.8405
 3890SOL     OW23302   1.580   1.010   1.051 -0.3922 -0.6473 -0.2673
 3890SOL    HW123303   1.495   0.976   1.079  0.4033 -1.6298  0.9389
 3890SOL    HW223304   1.548   1.053   0.971  3.6555  1.9592 -0.4618
 3891SOL     OW23305   1.471   1.105   5.139 -0.9607  0.0739 -0.1096
 3891SOL    HW123306   1.527   1.051   5.083 -1.4353 -0.0340 -0.4775
 3891SOL    HW223307   1.450   1.178   5.080 -0.4753 -0.0845 -0.4757
 3892SOL     OW23308   2.622   2.567  14.438 -0.1078 -0.1405  0.4041
 3892SOL    HW123309   2.692   2.616  14.394  0.6053 -1.3160  0.2252
 3892SOL    HW223310   2.661   2.480  14.448  0.4142  0.1490  0.9010
 3893SOL     OW23311   2.102   1.224   1.781 -0.0621  0.7121  0.1511
 3893SOL    HW123312   2.110   1.318   1.766  2.1164  0.3044 -1.2959
 3893SOL    HW223313   2.033   1.221   1.848 -0.3601 -0.6221 -0.2144
 3894SOL     OW23314   3.460   3.026   7.845  0.1733 -0.3930  0.2820
 3894SOL    HW123315   3.381   3.045   7.795  0.5291  0.2961 -0.0077
 3894SOL    HW223316   3.488   3.117   7.847  1.2412 -0.7129 -0.2442
 3895SOL     OW23317   1.101   1.173   1.514 -0.5716 -0.5618  0.1019
 3895SOL    HW123318   1.150   1.252   1.537 -0.8360 -0.5698  0.6920
 3895SOL    HW223319   1.094   1.133   1.601 -0.7589 -1.6840 -0.4253
 3896SOL     OW23320   0.845   3.937   9.220  0.6142  0.2230  0.0674
 3896SOL    HW123321   0.752   3.941   9.199  0.7886  1.3498 -0.4871
 3896SOL    HW223322   0.839   3.857   9.273  0.5830  0.1431 -0.0556
 3897SOL     OW23323   0.075   3.045   5.365 -0.0542  0.4296 -0.5368
 3897SOL    HW123324   0.125   2.967   5.342 -0.9368  0.2556 -1.8570
 3897SOL    HW223325   0.092   3.099   5.287 -1.9862 -1.3086 -2.1370
 3898SOL     OW23326   2.930   2.111   8.956 -0.4464 -0.1479 -0.2528
 3898SOL    HW123327   2.996   2.049   8.989 -0.0519 -0.5163 -1.7019
 3898SOL    HW223328   2.908   2.066   8.874  0.1548 -1.9462  0.5803
 3899SOL     OW23329   2.283   2.084   4.635 -0.0040 -0.5787 -0.0285
 3899SOL    HW123330   2.289   2.018   4.566  0.5238 -0.1898 -0.3531
 3899SOL    HW223331   2.366   2.133   4.632 -0.0196 -0.4401  1.6653
 3900SOL     OW23332   4.733   3.143   3.813 -0.5834  0.1310 -0.2417
 3900SOL    HW123333   4.723   3.197   3.891  0.8235 -0.5516  0.4056
 3900SOL    HW223334   0.069   3.189   3.774 -0.6743  0.6232  0.1742
 3901SOL     OW23335   4.205   4.673   3.853 -0.4572  0.3774  0.0277
 3901SOL    HW123336   4.216   4.708   3.764  0.6160 -0.9791 -0.3683
 3901SOL    HW223337   4.213   0.016   3.903 -1.7521 -1.6832  3.5439
 3902SOL     OW23338   1.831   0.462   3.136  0.0884  0.0704  0.2011
 3902SOL    HW123339   1.873   0.388   3.181 -2.1324 -1.3336 -0.0633
 3902SOL    HW223340   1.828   0.526   3.207 -1.4565  0.7673 -0.5202
 3903SOL     OW23341   0.863   0.642  11.960  0.1838  0.1358 -0.1556
 3903SOL    HW123342   0.947   0.621  11.921  0.5910  0.7601  0.3885
 3903SOL    HW223343   0.807   0.659  11.884  1.3193 -1.4331 -1.3514
 3904SOL     OW23344   4.607   1.500   2.859 -0.4135 -0.0187  0.1682
 3904SOL    HW123345   4.555   1.420   2.849 -0.7389  0.1247  0.6734
 3904SOL    HW223346   4.691   1.463   2.834 -0.9973  1.2635 -3.7217
 3905SOL     OW23347   1.892   1.982   8.862 -0.1847  0.3885  0.2576
 3905SOL    HW123348   1.889   2.019   8.951 -0.2591 -0.9909  0.8305
 3905SOL    HW223349   1.798   1.975   8.849 -0.1274 -1.8935  1.0378
 3906SOL     OW23350   3.654   3.711  11.775  0.3319  0.0047 -0.1165
 3906SOL    HW123351   3.577   3.740  11.825  1.9223  1.6219  1.4011
 3906SOL    HW223352   3.670   3.629  11.822  4.3229  1.2079  0.6597
 3907SOL     OW23353   1.318   3.396   8.286  0.1837  0.3963 -0.5207
 3907SOL    HW123354   1.378   3.405   8.212  1.1123  0.4278  0.2447
 3907SOL    HW223355   1.284   3.309   8.268  2.5538 -0.6325  0.0031
 3908SOL     OW23356   1.290   3.201   0.135 -0.0338 -0.2549  0.1372
 3908SOL    HW123357   1.259   3.258   0.205  1.0597  1.0268 -0.4035
 3908SOL    HW223358   1.208   3.187   0.087 -0.4369  1.7651  0.2527
 3909SOL     OW23359   3.783   0.386   7.196 -0.6764  0.0136  0.3411
 3909SOL    HW123360   3.751   0.443   7.126  0.7347 -0.5148 -0.7277
 3909SOL    HW223361   3.814   0.451   7.259 -3.6598 -0.2212  2.0352
 3910SOL     OW23362   2.726   3.837   3.993  0.0594  0.6565 -0.1240
 3910SOL    HW123363   2.736   3.930   3.974  0.4150  0.6043 -0.2051
 3910SOL    HW223364   2.714   3.845   4.088  0.2975  0.3642 -0.0688
 3911SOL     OW23365   3.059   2.193   9.717 -0.1057  0.0783  0.2833
 3911SOL    HW123366   3.008   2.269   9.691  0.4366 -0.3618 -2.0571
 3911SOL    HW223367   2.995   2.126   9.739  1.5971 -0.9010  2.2754
 3912SOL     OW23368   2.147   0.190   6.734  0.3700  0.0489 -0.2910
 3912SOL    HW123369   2.152   0.094   6.728  0.6430  0.0531 -0.1441
 3912SOL    HW223370   2.117   0.210   6.645  0.2743 -2.9090 -0.9539
 3913SOL     OW23371   1.841   4.511   3.942 -0.0317 -0.3661 -0.2428
 3913SOL    HW123372   1.752   4.475   3.933  0.6272 -1.6408 -1.6714
 3913SOL    HW223373   1.848   4.534   4.035  1.0989  2.2780 -0.9939
 3914SOL     OW23374   3.055   1.940   9.320 -0.6050 -0.2567 -0.5822
 3914SOL    HW123375   3.024   1.884   9.391 -1.4504 -0.3357 -1.0159
 3914SOL    HW223376   3.021   2.025   9.348  1.3588 -0.0106  1.0362
 3915SOL     OW23377   3.463   2.622  15.005 -0.6701  0.1964  0.3042
 3915SOL    HW123378   3.537   2.589  15.056 -0.6626 -1.4802 -0.7810
 3915SOL    HW223379   3.390   2.587  15.057  0.2767 -1.5898  0.4412
 3916SOL     OW23380   1.364   3.409   7.366 -0.3857  0.3332 -0.2216
 3916SOL    HW123381   1.453   3.432   7.341  0.2569 -1.6923  0.2258
 3916SOL    HW223382   1.382   3.346   7.436 -0.6214  2.8438  2.1015
 3917SOL     OW23383   2.477   2.198   4.091 -0.3421  0.2209  0.0268
 3917SOL    HW123384   2.560   2.214   4.048 -0.2887 -3.1243 -1.1211
 3917SOL    HW223385   2.493   2.105   4.107 -4.3388 -0.6686 -1.1208
 3918SOL     OW23386   2.166   4.046   7.917  0.1005  0.6214 -0.2517
 3918SOL    HW123387   2.162   4.109   7.845 -1.8647  0.7920 -0.0025
 3918SOL    HW223388   2.093   4.077   7.970 -1.3190 -1.0121 -1.2438
 3919SOL     OW23389   1.118   4.198   4.675  0.3250  0.1592 -0.1250
 3919SOL    HW123390   1.208   4.168   4.659  0.3602  0.6613 -0.8559
 3919SOL    HW223391   1.087   4.182   4.586  1.0631  0.2812 -0.4044
 3920SOL     OW23392   0.971   0.588  10.783  0.1184  0.7520 -0.6146
 3920SOL    HW123393   1.038   0.614  10.846 -0.3962  2.8326 -0.9248
 3920SOL    HW223394   1.009   0.526  10.720 -0.2789  0.6104 -0.7160
 3921SOL     OW23395   0.150   0.870   6.291  0.5601  0.0238 -0.6124
 3921SOL    HW123396   0.192   0.937   6.238 -1.2602  2.7720  1.3732
 3921SOL    HW223397   0.189   0.893   6.376 -1.3829 -0.3173  0.3789
 3922SOL     OW23398   4.599   0.179   8.263  0.1514  0.1894  0.1829
 3922SOL    HW123399   4.687   0.167   8.228  0.1874 -1.4352  0.8247
 3922SOL    HW223400   4.603   0.274   8.271  0.4756  0.2550 -0.7644
 3923SOL     OW23401   3.791   0.602   4.264 -0.6854  0.6783 -0.7342
 3923SOL    HW123402   3.713   0.645   4.299 -1.5457 -2.3931  1.1335
 3923SOL    HW223403   3.782   0.599   4.169 -2.0582  2.9683 -0.6868
 3924SOL     OW23404   2.307   4.365  13.186 -0.1682  0.6110 -0.0368
 3924SOL    HW123405   2.270   4.384  13.100  1.4090  2.1485 -0.3617
 3924SOL    HW223406   2.379   4.427  13.192 -0.0635  0.4922 -0.0430
 3925SOL     OW23407   1.572   2.003   9.157 -0.3779 -0.0188 -0.0127
 3925SOL    HW123408   1.562   1.976   9.249  1.6943 -3.3664 -0.8049
 3925SOL    HW223409   1.495   2.060   9.150 -0.6191 -0.4736 -0.9735
 3926SOL     OW23410   4.401   2.576  15.317 -0.3707  0.2730  0.4676
 3926SOL    HW123411   4.488   2.544  15.296 -1.2395 -1.3867 -0.6294
 3926SOL    HW223412   4.371   2.500  15.367 -0.6881 -0.4453 -0.8259
 3927SOL     OW23413   3.903   2.320  14.071  0.0785  0.1601  1.1410
 3927SOL    HW123414   3.971   2.352  14.130  1.6855 -1.2818  0.0832
 3927SOL    HW223415   3.907   2.225  14.080 -1.1459  0.1003  1.0249
 3928SOL     OW23416   2.264   2.345   2.222 -0.4061 -0.1845  0.3341
 3928SOL    HW123417   2.287   2.419   2.165 -0.9078 -0.2588  0.0425
 3928SOL    HW223418   2.169   2.346   2.223 -0.4037 -2.3004  2.7812
 3929SOL     OW23419   1.509   1.698  16.232 -0.9753 -0.2003 -0.3429
 3929SOL    HW123420   1.552   1.630  16.181  0.4780 -0.8492  1.7486
 3929SOL    HW223421   1.428   1.709  16.182 -1.3287 -2.2354 -0.2238
 3930SOL     OW23422   2.194   2.019  14.733 -0.6063  0.3848  0.1231
 3930SOL    HW123423   2.127   2.087  14.726 -0.7171  0.0207 -2.2668
 3930SOL    HW223424   2.255   2.051  14.667 -1.3792  3.4661  0.9029
 3931SOL     OW23425   2.711   4.356  16.588  0.3069 -0.0841 -0.4786
 3931SOL    HW123426   2.733   4.263  16.579 -1.3532 -0.8457  3.3518
 3931SOL    HW223427   2.702   4.381  16.496  1.6045  0.6354 -0.4080
 3932SOL     OW23428   1.012   0.136  10.798  0.1488 -0.4000 -0.1921
 3932SOL    HW123429   1.049   0.059  10.753  0.1442  0.1178 -1.0890
 3932SOL    HW223430   1.091   0.189  10.793 -0.4158  0.3506 -1.0788
 3933SOL     OW23431   3.432   0.697   2.728 -0.3120  0.3780  0.7870
 3933SOL    HW123432   3.474   0.777   2.759  1.5400 -0.2028 -0.2691
 3933SOL    HW223433   3.415   0.663   2.816 -0.6175 -2.0174 -0.2184
 3934SOL     OW23434   3.303   0.730   9.104  0.4231 -0.4727 -0.1846
 3934SOL    HW123435   3.224   0.677   9.101 -0.2074  0.4023  0.7403
 3934SOL    HW223436   3.343   0.710   9.020 -1.4975 -2.0553 -0.7213
 3935SOL     OW23437   0.491   4.654   8.341 -0.2427  0.0601  0.2335
 3935SOL    HW123438   0.444   4.731   8.308 -0.4558 -0.2857 -0.2592
 3935SOL    HW223439   0.527   4.626   8.257  0.3552  0.2013  0.4424
 3936SOL     OW23440   1.444   2.370  14.944  0.1592  0.4189  0.5641
 3936SOL    HW123441   1.464   2.278  14.928 -1.1522 -0.1161  2.0710
 3936SOL    HW223442   1.445   2.374  15.039  1.2429 -0.1603  0.5755
 3937SOL     OW23443   1.363   4.525   3.094  0.1410 -0.2152  0.1446
 3937SOL    HW123444   1.374   4.501   3.186 -2.1058  0.8656  0.6947
 3937SOL    HW223445   1.319   4.609   3.101 -1.4366 -0.8620 -1.7926
 3938SOL     OW23446   3.423   0.702   3.000  0.8141  0.1726 -0.0025
 3938SOL    HW123447   3.464   0.620   3.026 -1.7186 -1.8663 -2.4807
 3938SOL    HW223448   3.330   0.682   3.006  0.9962 -0.6384  0.0330
 3939SOL     OW23449   3.634   4.283   5.323 -0.1210  0.1591  0.2023
 3939SOL    HW123450   3.671   4.369   5.340  0.7890 -0.4611  1.3217
 3939SOL    HW223451   3.562   4.315   5.269  1.5335  1.0043 -1.5230
 3940SOL     OW23452   1.786   3.524   6.338  0.1028  0.1093  0.4486
 3940SOL    HW123453   1.747   3.438   6.357 -0.0178  0.0450 -0.1066
 3940SOL    HW223454   1.718   3.547   6.275  0.7365  1.7867  0.3851
 3941SOL     OW23455   4.038   1.278  11.725  0.4553 -0.2972  0.3263
 3941SOL    HW123456   4.029   1.183  11.718  2.9198 -0.4932 -0.1715
 3941SOL    HW223457   3.963   1.296  11.782  0.4757 -0.5223  0.4233
 3942SOL     OW23458   4.065   3.056   4.433  0.0766  0.1917  0.2607
 3942SOL    HW123459   4.028   3.144   4.442 -1.0340 -0.3961  1.4098
 3942SOL    HW223460   3.991   3.004   4.400  2.1822 -1.7318 -1.3742
 3943SOL     OW23461   4.121   0.697   1.077  0.5710  0.0358 -0.1960
 3943SOL    HW123462   4.137   0.691   1.171  1.8815  0.8671 -0.3724
 3943SOL    HW223463   4.041   0.749   1.083  0.7256  0.4095 -1.3656
 3944SOL     OW23464   4.006   1.399   5.860 -0.1978 -0.0964 -0.1583
 3944SOL    HW123465   4.005   1.305   5.873 -1.0493  0.1572  1.6202
 3944SOL    HW223466   3.911   1.414   5.863  0.0118  1.2470 -0.0050
 3945SOL     OW23467   0.792   3.496   2.677  0.9272  0.3336  0.1016
 3945SOL    HW123468   0.792   3.584   2.637  1.1699 -0.2980 -1.2887
 3945SOL    HW223469   0.703   3.485   2.709  1.2816  0.8845  1.2588
 3946SOL     OW23470   0.471   2.254   1.771  0.0172  0.6188  0.4489
 3946SOL    HW123471   0.397   2.251   1.831  0.0322 -0.6595  0.4127
 3946SOL    HW223472   0.448   2.186   1.707 -1.1270 -0.1487  1.6619
 3947SOL     OW23473   0.253   2.165   7.868 -0.2596 -0.6564 -0.1424
 3947SOL    HW123474   0.214   2.077   7.870  2.8870 -2.1364 -4.3333
 3947SOL    HW223475   0.239   2.171   7.963  2.1013 -0.3566  0.1780
 3948SOL     OW23476   4.442   1.203  11.686 -0.4373  0.1977  0.0243
 3948SOL    HW123477   4.387   1.158  11.622 -2.2490  3.2596 -0.5594
 3948SOL    HW223478   4.496   1.258  11.629  0.2490 -0.5185 -0.0259
 3949SOL     OW23479   1.696   1.492   2.716 -0.4861 -0.6694  0.2937
 3949SOL    HW123480   1.651   1.567   2.754 -0.5932  0.4438 -2.0265
 3949SOL    HW223481   1.766   1.472   2.779 -0.5289 -0.7367  0.3185
 3950SOL     OW23482   1.679   4.706   2.199  0.3539  0.2415 -0.3864
 3950SOL    HW123483   1.674   4.624   2.149 -3.1374 -0.4745  1.1810
 3950SOL    HW223484   1.687   4.678   2.290 -4.1486  0.4241  0.0366
 3951SOL     OW23485   2.585   2.684   3.803 -0.0961  0.5529  0.4545
 3951SOL    HW123486   2.590   2.776   3.777  0.3695  1.2061  2.8081
 3951SOL    HW223487   2.581   2.695   3.898 -0.9542 -0.8259  0.5654
 3952SOL     OW23488   1.455   3.112   1.552  0.1967 -0.1218  0.1690
 3952SOL    HW123489   1.518   3.044   1.577  0.5126  0.5235  1.1387
 3952SOL    HW223490   1.386   3.056   1.518  0.1923 -0.2523  0.3909
 3953SOL     OW23491   2.849   2.480   0.975 -0.1686  0.3935  0.1876
 3953SOL    HW123492   2.800   2.481   1.057  1.8592 -0.1740  1.3958
 3953SOL    HW223493   2.937   2.509   1.000  0.6304 -0.9480 -1.0381
 3954SOL     OW23494   0.841   2.089   5.235  0.6313  0.4039  0.0108
 3954SOL    HW123495   0.815   2.114   5.323  0.6716 -1.8895  0.6913
 3954SOL    HW223496   0.833   2.170   5.185 -0.7757 -1.1351 -2.2714
 3955SOL     OW23497   0.260   2.760  14.177 -0.2540  0.0625 -0.1627
 3955SOL    HW123498   0.177   2.764  14.225 -1.9276  2.3695 -3.2841
 3955SOL    HW223499   0.272   2.844  14.132 -1.0549  0.3288  0.1162
 3956SOL     OW23500   3.790   4.681   4.506  0.1105  0.3623 -0.5046
 3956SOL    HW123501   3.731   4.607   4.493  0.8235 -0.1451 -0.7819
 3956SOL    HW223502   3.867   4.666   4.453  0.7280 -0.5961  0.6734
 3957SOL     OW23503   0.494   3.217  10.364 -0.4388 -0.0843 -0.1146
 3957SOL    HW123504   0.498   3.173  10.279 -0.0608  0.2106 -0.2481
 3957SOL    HW223505   0.445   3.156  10.420 -1.9727  1.0631 -0.2098
 3958SOL     OW23506   3.676   1.814  12.721 -0.2862  0.4638  0.1125
 3958SOL    HW123507   3.587   1.780  12.712  0.3578 -0.5176 -2.4829
 3958SOL    HW223508   3.726   1.748  12.673  0.6505 -0.4864  2.3861
 3959SOL     OW23509   1.175   1.738   0.197 -0.0624 -0.1479  0.0393
 3959SOL    HW123510   1.136   1.650   0.195 -1.5104  0.5041 -0.6352
 3959SOL    HW223511   1.237   1.720   0.267  1.1788  1.8744 -0.5486
 3960SOL     OW23512   4.376   2.605  16.752 -0.1452 -0.2465  0.0715
 3960SOL    HW123513   4.374   2.700  16.756 -1.0276 -0.1653 -2.2330
 3960SOL    HW223514   4.458   2.581  16.795  0.7833  1.0060 -1.0095
 3961SOL     OW23515   0.134   4.385   2.006  0.5115 -0.2946  0.1219
 3961SOL    HW123516   0.189   4.314   1.972  0.6835  0.0291 -0.2810
 3961SOL    HW223517   0.072   4.342   2.064 -0.3130  0.8461  0.0833
 3962SOL     OW23518   4.159   0.050   2.811  0.2224  0.3011 -0.1013
 3962SOL    HW123519   4.226   0.062   2.878 -2.2140  1.8709  2.0659
 3962SOL    HW223520   4.157   0.131   2.761 -1.3239 -0.0470 -0.6212
 3963SOL     OW23521   1.708   0.388   1.622  0.2548  0.5867 -0.0648
 3963SOL    HW123522   1.773   0.319   1.624 -0.0188  0.3749  1.6209
 3963SOL    HW223523   1.708   0.421   1.532 -0.9319 -1.4083 -0.7972
 3964SOL     OW23524   4.617   4.277   2.394  0.1107 -0.3495  0.0806
 3964SOL    HW123525   4.573   4.200   2.430 -0.3624 -0.2937 -0.3899
 3964SOL    HW223526   4.706   4.242   2.397  0.1191 -0.4765 -1.7183
 3965SOL     OW23527   2.814   1.647   2.741 -0.0022  0.0520 -0.4929
 3965SOL    HW123528   2.899   1.692   2.735 -0.4155  0.9217  0.2420
 3965SOL    HW223529   2.810   1.613   2.652  1.8551 -0.5781 -0.3348
 3966SOL     OW23530   0.454   4.610   9.206 -0.5758  0.0558 -0.0752
 3966SOL    HW123531   0.427   4.697   9.235  0.8237  0.1759  0.8665
 3966SOL    HW223532   0.500   4.565   9.276 -1.6051 -0.9707 -0.0565
 3967SOL     OW23533   1.196   2.476   7.619  0.1403  0.0878  0.0633
 3967SOL    HW123534   1.222   2.431   7.700  1.7166  2.8063  1.0842
 3967SOL    HW223535   1.154   2.405   7.571 -0.2112  0.0408  0.4426
 3968SOL     OW23536   0.422   0.394   2.455  0.0606  0.3476  0.2501
 3968SOL    HW123537   0.385   0.309   2.436  0.4155 -0.4931  3.2970
 3968SOL    HW223538   0.498   0.394   2.397  2.7243 -1.9766  3.7223
 3969SOL     OW23539   1.396   1.163   6.558  0.0141 -0.9380 -0.3600
 3969SOL    HW123540   1.429   1.149   6.469  1.8598 -1.6050  0.4323
 3969SOL    HW223541   1.468   1.139   6.616 -0.6362 -1.4717  0.2333
 3970SOL     OW23542   4.528   0.597   5.919 -0.0979 -0.0178  0.0363
 3970SOL    HW123543   4.581   0.635   5.989 -1.4914  0.2535  0.9280
 3970SOL    HW223544   4.559   0.656   5.850 -1.3068 -0.2588 -0.6965
 3971SOL     OW23545   2.702   3.787  10.781  0.2531  0.0879  0.1407
 3971SOL    HW123546   2.662   3.723  10.723  0.8647 -0.9649  0.8809
 3971SOL    HW223547   2.630   3.838  10.819  0.7167 -0.5641  1.8655
 3972SOL     OW23548   2.663   3.808   4.258  0.0122  0.0264  0.0860
 3972SOL    HW123549   2.628   3.877   4.314 -0.7382  0.5172 -0.9809
 3972SOL    HW223550   2.713   3.770   4.330 -0.4683  1.9555  1.4161
 3973SOL     OW23551   3.834   0.414   6.686  0.0389  1.0276 -0.0341
 3973SOL    HW123552   3.814   0.341   6.627  1.7070 -0.2197  0.9630
 3973SOL    HW223553   3.845   0.482   6.620 -0.4135  1.0984 -0.0360
 3974SOL     OW23554   0.516   3.530  10.811 -0.3633  0.0068 -0.1414
 3974SOL    HW123555   0.518   3.599  10.745 -2.2002  0.0093 -0.1981
 3974SOL    HW223556   0.486   3.574  10.891 -0.2739 -2.2532  1.1340
 3975SOL     OW23557   1.320   1.016   9.962 -0.0123 -0.4700  0.2398
 3975SOL    HW123558   1.294   0.992  10.051  2.0240 -1.5519  0.5604
 3975SOL    HW223559   1.237   1.020   9.915 -1.1604 -0.5865  2.2540
 3976SOL     OW23560   3.944   3.751   4.359  0.0925  0.0094 -0.0736
 3976SOL    HW123561   3.873   3.812   4.378  1.4501  1.4662  0.2924
 3976SOL    HW223562   3.989   3.791   4.285  2.1336 -0.5255  0.8615
 3977SOL     OW23563   1.434   1.174  11.284 -0.2358  0.0348 -0.1808
 3977SOL    HW123564   1.525   1.156  11.264 -0.0360 -0.4364  1.1350
 3977SOL    HW223565   1.404   1.230  11.212 -0.0902 -1.5034 -1.4294
 3978SOL     OW23566   0.798   2.132   5.509  0.2933 -0.4639 -0.1784
 3978SOL    HW123567   0.850   2.081   5.573  2.9400 -0.2560 -2.1646
 3978SOL    HW223568   0.782   2.210   5.562  0.4459 -1.1494  0.8886
 3979SOL     OW23569   2.132   2.663   9.101  0.0256  0.0406 -0.3992
 3979SOL    HW123570   2.084   2.649   9.183 -0.1578 -1.0545 -0.6971
 3979SOL    HW223571   2.088   2.735   9.057  0.8390  0.1872 -0.9746
 3980SOL     OW23572   1.593   3.825  15.420  0.0744 -0.4988  0.0050
 3980SOL    HW123573   1.560   3.813  15.509 -0.2900 -2.0814 -0.3500
 3980SOL    HW223574   1.527   3.774  15.373  0.7610  0.0377 -1.5515
 3981SOL     OW23575   3.452   4.118   6.907 -0.2017  0.5802  0.0546
 3981SOL    HW123576   3.476   4.113   6.814 -1.1539 -0.4222 -0.1251
 3981SOL    HW223577   3.360   4.143   6.903 -0.1682  0.7343  0.2582
 3982SOL     OW23578   0.611   2.357   4.549 -0.2725 -0.3145 -0.1825
 3982SOL    HW123579   0.630   2.298   4.476 -0.2082 -0.9137  0.3170
 3982SOL    HW223580   0.518   2.335   4.556 -0.1751 -0.4923  0.6100
 3983SOL     OW23581   3.586   0.831   5.403  0.6702  0.5882  0.2569
 3983SOL    HW123582   3.561   0.764   5.466  1.8645 -0.5825 -0.5094
 3983SOL    HW223583   3.675   0.853   5.431 -0.0736  2.9216  0.7402
 3984SOL     OW23584   0.737   1.518   4.342  0.3781 -0.3487  0.3364
 3984SOL    HW123585   0.751   1.432   4.302 -1.0976 -0.2799 -0.3237
 3984SOL    HW223586   0.822   1.542   4.379  0.5158 -2.0092  1.0799
 3985SOL     OW23587   3.978   4.217   5.652 -0.4911 -0.1674 -0.1891
 3985SOL    HW123588   4.009   4.126   5.654  1.2678  0.4007 -2.1685
 3985SOL    HW223589   4.034   4.260   5.588  1.0660 -3.3975 -0.9982
 3986SOL     OW23590   1.920   2.205   3.907  0.1578 -0.0256 -0.6300
 3986SOL    HW123591   1.963   2.223   3.991  0.5783  1.3716 -1.1380
 3986SOL    HW223592   1.981   2.240   3.842  0.8768 -0.2643 -0.0909
 3987SOL     OW23593   3.169   2.241   4.509 -0.2192  0.1703  0.3350
 3987SOL    HW123594   3.080   2.263   4.481 -1.5180 -3.5374  1.4646
 3987SOL    HW223595   3.167   2.208   4.599  0.0667 -2.2261 -0.5110
 3988SOL     OW23596   3.784   1.341  12.934  0.5846  0.2117  0.0378
 3988SOL    HW123597   3.810   1.425  12.973  3.8966 -1.0774  0.6096
 3988SOL    HW223598   3.782   1.370  12.843  1.2113  0.9411  0.2565
 3989SOL     OW23599   1.519   3.712   2.653  0.2209 -0.6009 -0.5711
 3989SOL    HW123600   1.573   3.746   2.581  0.4961  1.3504  0.5320
 3989SOL    HW223601   1.541   3.619   2.655  1.2912 -0.3554 -0.6811
 3990SOL     OW23602   2.223   3.671   1.265 -0.1493  0.7210  0.0922
 3990SOL    HW123603   2.268   3.614   1.202  0.4692 -0.0261  1.2093
 3990SOL    HW223604   2.268   3.630   1.339 -1.7974  2.4465  2.0629
 3991SOL     OW23605   3.116   3.779   6.047 -0.2149 -0.2422 -0.2430
 3991SOL    HW123606   3.046   3.789   6.112 -0.3627  0.3219 -0.4894
 3991SOL    HW223607   3.079   3.712   5.989  0.1812 -0.2328 -0.5036
 3992SOL     OW23608   0.066   2.429   7.960 -0.0889 -0.1045 -0.0368
 3992SOL    HW123609   0.017   2.451   8.039  0.1910  0.5227 -0.0376
 3992SOL    HW223610   0.108   2.347   7.988 -0.0751 -0.3405 -0.7391
 3993SOL     OW23611   1.866   1.413   1.791  0.2204  0.2026 -0.2574
 3993SOL    HW123612   1.858   1.461   1.708  1.2463 -3.0595 -2.2399
 3993SOL    HW223613   1.931   1.468   1.835  1.9320 -2.3133  0.3691
 3994SOL     OW23614   0.971   1.936  16.505 -0.0835 -0.4550 -0.4890
 3994SOL    HW123615   0.953   1.917  16.413  1.4130 -2.6627 -0.3321
 3994SOL    HW223616   1.064   1.918  16.512 -0.1953 -0.5964  0.6351
 3995SOL     OW23617   4.709   3.037   9.500  0.6788  0.4152 -0.1629
 3995SOL    HW123618   0.067   3.033   9.500  0.6031 -1.6771  0.2237
 3995SOL    HW223619   4.695   2.946   9.528 -0.9822  0.0391 -2.2062
 3996SOL     OW23620   1.500   3.974   2.790  0.3482 -0.0918  0.3374
 3996SOL    HW123621   1.539   3.907   2.735 -1.8406 -0.6488 -0.5490
 3996SOL    HW223622   1.469   4.032   2.721  0.1938  1.2592  1.5472
 3997SOL     OW23623   0.615   1.053   1.373 -0.5684  1.4402  0.1197
 3997SOL    HW123624   0.687   0.991   1.371 -1.5037  0.3284  0.5630
 3997SOL    HW223625   0.623   1.101   1.291 -0.1374 -1.1454 -1.3488
 3998SOL     OW23626   1.733   2.739   9.271 -0.1346 -0.5118 -0.0659
 3998SOL    HW123627   1.803   2.680   9.300 -0.6497 -0.7370  0.7086
 3998SOL    HW223628   1.728   2.708   9.181  1.4775  1.3966 -0.8131
 3999SOL     OW23629   4.356   1.334   7.300 -0.1777 -0.1522  0.3451
 3999SOL    HW123630   4.312   1.252   7.277 -0.8790  0.1941  0.4499
 3999SOL    HW223631   4.379   1.368   7.213  1.0293 -1.2492  0.2352
 4000SOL     OW23632   3.824   1.122   8.710  0.0917 -0.8717  0.2106
 4000SOL    HW123633   3.815   1.162   8.623  0.4262  0.8058  0.9450
 4000SOL    HW223634   3.745   1.161   8.746 -0.3484 -2.1279  0.5872
 4001SOL     OW23635   1.000   3.360   7.575 -0.4805 -0.7835  0.4069
 4001SOL    HW123636   0.969   3.270   7.585 -1.3181 -0.4486  0.7505
 4001SOL    HW223637   0.918   3.401   7.601 -1.1158 -1.3077 -0.7354
 4002SOL     OW23638   3.414   2.103   8.872  0.3811  0.3353  0.2686
 4002SOL    HW123639   3.353   2.140   8.936 -2.8909  1.0182 -3.2129
 4002SOL    HW223640   3.459   2.186   8.854  0.2112 -0.2183 -2.7831
 4003SOL     OW23641   1.337   2.736  16.422  0.0751 -0.0068  0.0437
 4003SOL    HW123642   1.424   2.709  16.391  0.8376  1.4429  0.9362
 4003SOL    HW223643   1.292   2.774  16.346  2.7545 -1.8673 -2.4640
 4004SOL     OW23644   4.163   4.218   5.973 -0.2490 -0.5810  0.5225
 4004SOL    HW123645   4.237   4.169   6.009  1.1019  0.1262 -1.2894
 4004SOL    HW223646   4.099   4.147   5.982 -0.1800 -0.3315  2.8316
 4005SOL     OW23647   1.067   3.186   9.623 -0.0694 -0.0587  0.0776
 4005SOL    HW123648   1.026   3.200   9.709  2.0603  0.6879  0.9772
 4005SOL    HW223649   1.158   3.163   9.641 -0.5769 -1.9566  0.3035
 4006SOL     OW23650   1.394   4.691   3.928  0.0025  1.0486  0.1190
 4006SOL    HW123651   1.372   0.009   3.853 -0.7477  1.5635  0.7198
 4006SOL    HW223652   1.413   0.009   4.003  0.5626 -2.1683  2.3499
 4007SOL     OW23653   1.962   1.136   0.922 -0.9512 -0.2031 -0.6288
 4007SOL    HW123654   1.962   1.070   0.991  0.7667  0.7394  0.2940
 4007SOL    HW223655   1.959   1.076   0.848 -0.0791 -2.6555  1.3103
 4008SOL     OW23656   1.844   3.757   0.719  0.1689 -0.1166  0.2481
 4008SOL    HW123657   1.931   3.755   0.758  0.9086 -1.1647 -1.4379
 4008SOL    HW223658   1.861   3.812   0.642  0.1175 -0.6177 -0.1239
 4009SOL     OW23659   1.706   3.534   6.860 -0.0065  0.2221  0.2832
 4009SOL    HW123660   1.658   3.464   6.905 -0.8770 -0.1955 -1.2897
 4009SOL    HW223661   1.758   3.569   6.932 -2.3966  0.8957  1.6855
 4010SOL     OW23662   4.116   1.945  17.185  0.1491 -0.3406 -0.1263
 4010SOL    HW123663   4.075   1.993  17.258  0.5507  0.0330 -0.1446
 4010SOL    HW223664   4.102   1.855  17.214  1.6092 -0.5117  0.0197
 4011SOL     OW23665   2.609   3.399   2.435 -0.3523 -0.2057 -0.1004
 4011SOL    HW123666   2.591   3.332   2.501  1.3338  0.3978  0.9763
 4011SOL    HW223667   2.522   3.413   2.397 -0.7316  0.5846  1.0821
 4012SOL     OW23668   2.025   1.935   2.405  0.3538  0.1322  0.6376
 4012SOL    HW123669   2.062   2.008   2.454 -0.1606  0.3366  0.7315
 4012SOL    HW223670   2.096   1.873   2.418  1.9281  1.6981 -0.6056
 4013SOL     OW23671   3.577   4.001   8.347  0.4264 -0.4563  0.1301
 4013SOL    HW123672   3.573   4.053   8.427  2.5413 -0.6642  0.3583
 4013SOL    HW223673   3.520   3.932   8.382  0.4662  1.0164  3.1026
 4014SOL     OW23674   2.345   3.477   2.396  0.4761 -0.3170  0.3394
 4014SOL    HW123675   2.340   3.405   2.458 -0.3114 -0.2255  0.3798
 4014SOL    HW223676   2.256   3.469   2.361 -0.7678  1.5225  3.1105
 4015SOL     OW23677   0.898   2.307   7.260  0.1054 -0.0239  0.0898
 4015SOL    HW123678   0.898   2.372   7.330 -0.1877 -1.1649  1.1551
 4015SOL    HW223679   0.944   2.363   7.198 -1.0485  1.8882  0.9496
 4016SOL     OW23680   4.267   0.115   7.688 -0.6977 -0.2892  0.3408
 4016SOL    HW123681   4.297   0.026   7.707 -1.0076 -0.7177 -1.2068
 4016SOL    HW223682   4.300   0.161   7.765 -0.0394 -1.1601  0.5877
 4017SOL     OW23683   2.699   0.826   5.211 -0.3863 -0.4975 -0.1038
 4017SOL    HW123684   2.661   0.741   5.234  0.3847 -0.4268  1.4792
 4017SOL    HW223685   2.786   0.821   5.251  0.8954  0.8938 -2.7234
 4018SOL     OW23686   0.829   0.251   7.537 -0.0305  0.4224  0.2582
 4018SOL    HW123687   0.784   0.182   7.489 -0.5834 -0.2101  1.6719
 4018SOL    HW223688   0.880   0.198   7.600  1.7330  0.7586 -0.8960
 4019SOL     OW23689   0.280   3.588   3.202  0.6760  0.0659  0.3102
 4019SOL    HW123690   0.250   3.536   3.127 -0.4248 -1.4693  1.8408
 4019SOL    HW223691   0.357   3.628   3.162  1.0654 -1.1455 -0.1311
 4020SOL     OW23692   0.258   2.903  14.782  0.2839 -0.4489  0.0661
 4020SOL    HW123693   0.236   2.976  14.838  0.9142 -0.0493 -0.2081
 4020SOL    HW223694   0.344   2.925  14.745 -0.3540 -0.5215 -1.4778
 4021SOL     OW23695   1.234   3.826  17.734  0.5178  0.0011  0.2033
 4021SOL    HW123696   1.282   3.890   0.037 -0.1594  2.6268 -2.3830
 4021SOL    HW223697   1.294   3.804  17.663 -0.8985 -2.5482 -0.2110
 4022SOL     OW23698   3.270   0.590   0.263  0.0262 -0.5008  0.5644
 4022SOL    HW123699   3.301   0.515   0.212 -1.9875 -1.2908  0.4898
 4022SOL    HW223700   3.335   0.654   0.232 -0.7922 -0.9068 -1.9906
 4023SOL     OW23701   1.547   0.794  14.217 -0.2335 -0.0597  0.1882
 4023SOL    HW123702   1.618   0.805  14.153 -0.0564 -0.5026  0.3083
 4023SOL    HW223703   1.520   0.705  14.196 -0.9302  0.1871  0.0440
 4024SOL     OW23704   4.616   2.502   9.315 -0.1339 -0.0333 -0.0859
 4024SOL    HW123705   4.600   2.580   9.262  2.3178  0.2514 -0.3917
 4024SOL    HW223706   4.526   2.482   9.343  0.2165  0.4704  1.3809
 4025SOL     OW23707   4.688   2.781   9.935 -0.4001 -0.1006  0.5391
 4025SOL    HW123708   4.615   2.740   9.983 -0.0624  0.0822  1.2156
 4025SOL    HW223709   4.686   2.870   9.970 -0.1819  0.0173  0.2448
 4026SOL     OW23710   3.369   4.198   4.089  0.4420  0.3999 -0.7114
 4026SOL    HW123711   3.276   4.185   4.072  0.5385 -0.9075 -0.1992
 4026SOL    HW223712   3.362   4.293   4.102  0.8870  0.2855  0.3696
 4027SOL     OW23713   3.471   3.564   1.334  0.5957 -0.1613  0.0832
 4027SOL    HW123714   3.428   3.621   1.271 -1.5823 -1.8450  0.0600
 4027SOL    HW223715   3.396   3.526   1.380 -0.8728  0.0763 -2.1037
 4028SOL     OW23716   2.879   3.103   5.288 -0.2799  0.3974  0.3723
 4028SOL    HW123717   2.933   3.173   5.252  1.4212 -1.9073 -1.5069
 4028SOL    HW223718   2.801   3.156   5.307 -0.6675  0.1094 -0.4413
 4029SOL     OW23719   3.452   2.949  13.488  0.6969 -0.0531  0.3270
 4029SOL    HW123720   3.486   3.019  13.544  1.4426 -0.6378  0.6061
 4029SOL    HW223721   3.491   2.984  13.408 -0.7752 -0.3842 -0.5284
 4030SOL     OW23722   3.381   3.016   4.848 -0.3072 -0.1292  0.8459
 4030SOL    HW123723   3.397   2.953   4.778  2.3357 -0.7452  1.9821
 4030SOL    HW223724   3.286   3.026   4.845 -0.2492  0.0093 -0.3626
 4031SOL     OW23725   3.930   1.756   4.515 -0.2552  0.0494 -1.2089
 4031SOL    HW123726   3.836   1.771   4.516 -0.3192 -0.4258  0.8459
 4031SOL    HW223727   3.933   1.660   4.512  0.3216  0.0217 -0.0327
 4032SOL     OW23728   1.345   2.745   5.979 -0.0083  0.2083 -0.3046
 4032SOL    HW123729   1.415   2.804   6.007 -0.0562  0.2950 -0.3671
 4032SOL    HW223730   1.376   2.664   6.018  0.5983 -0.3395 -1.9089
 4033SOL     OW23731   0.566   0.360   7.551  0.2197 -0.6670  0.0639
 4033SOL    HW123732   0.661   0.357   7.565  0.2202  1.7788  0.5449
 4033SOL    HW223733   0.573   0.382   7.458  2.1318  0.1028  0.3916
 4034SOL     OW23734   0.387   2.434   2.319 -0.5879 -0.2376 -0.0505
 4034SOL    HW123735   0.410   2.405   2.407 -1.0515 -0.3252  0.0410
 4034SOL    HW223736   0.385   2.347   2.278  0.6158 -0.5149  0.4737
 4035SOL     OW23737   3.327   2.117   0.159  0.4902 -0.6434 -0.4060
 4035SOL    HW123738   3.285   2.120   0.245  0.7054 -1.0986 -0.2820
 4035SOL    HW223739   3.253   2.145   0.105  0.6113  0.3669 -0.0473
 4036SOL     OW23740   4.341   0.276  11.461  0.1612  0.2688  0.2841
 4036SOL    HW123741   4.286   0.303  11.388 -1.0321  0.0622  1.1078
 4036SOL    HW223742   4.302   0.325  11.533  0.8709  2.7880 -1.0643
 4037SOL     OW23743   1.586   4.297   0.012 -0.1877 -0.3093  0.5884
 4037SOL    HW123744   1.680   4.281   0.008 -0.3585 -1.0942 -0.0814
 4037SOL    HW223745   1.575   4.321   0.104 -0.0057  2.1246 -0.0271
 4038SOL     OW23746   2.978   2.429   7.043  0.9625  0.5654  0.1766
 4038SOL    HW123747   3.020   2.349   7.075  1.5362  0.4118 -0.9601
 4038SOL    HW223748   3.051   2.468   6.995  0.3856 -0.3578 -1.4689
 4039SOL     OW23749   3.555   3.441   8.339  0.1400 -0.2636 -0.2723
 4039SOL    HW123750   3.462   3.421   8.351  0.9783 -2.5212  2.3497
 4039SOL    HW223751   3.605   3.371   8.379  1.2639  0.2061 -0.8496
 4040SOL     OW23752   4.174   2.749  15.242 -0.1503 -0.3478 -0.2807
 4040SOL    HW123753   4.234   2.779  15.174 -0.8892  0.6747 -0.4874
 4040SOL    HW223754   4.216   2.675  15.285  1.3501  0.6889  0.0412
 4041SOL     OW23755   2.257   3.051   3.144  0.2171 -0.1963  0.1295
 4041SOL    HW123756   2.248   2.972   3.197  2.3658 -0.8317 -0.4662
 4041SOL    HW223757   2.307   3.022   3.068 -0.1039  2.5186 -1.1412
 4042SOL     OW23758   4.312   2.381   1.963  0.5691 -0.1322 -0.0064
 4042SOL    HW123759   4.281   2.451   2.020 -0.8397 -0.0602 -0.8581
 4042SOL    HW223760   4.253   2.313   1.993  3.5134 -2.2395  1.0540
 4043SOL     OW23761   0.853   4.644   3.132  0.0055  0.7302  0.2648
 4043SOL    HW123762   0.885   4.717   3.079  2.1862 -1.1831 -1.0412
 4043SOL    HW223763   0.768   4.682   3.155 -1.2299 -0.8079 -1.6988
 4044SOL     OW23764   1.176   2.318  14.825  0.3838  0.3762  0.2525
 4044SOL    HW123765   1.094   2.276  14.797  1.1614 -0.3867 -0.8781
 4044SOL    HW223766   1.243   2.256  14.796  0.5632 -0.0483  1.5944
 4045SOL     OW23767   4.156   2.378   6.936 -0.4744 -0.1736 -0.0924
 4045SOL    HW123768   4.251   2.380   6.947 -0.5076 -0.7705  0.3245
 4045SOL    HW223769   4.140   2.384   7.030  2.2220  1.7544  0.2273
 4046SOL     OW23770   2.920   2.791   4.835 -0.0146 -0.7703  0.2843
 4046SOL    HW123771   2.876   2.733   4.898  2.6346 -1.5307  1.4418
 4046SOL    HW223772   2.841   2.844   4.827  0.2443 -0.3662  0.4452
 4047SOL     OW23773   1.313   4.691   2.572 -0.1716 -0.7178 -0.0752
 4047SOL    HW123774   1.405   4.700   2.594 -0.4847  0.7045  0.7040
 4047SOL    HW223775   1.278   4.646   2.649 -2.7550  0.4443 -0.5581
 4048SOL     OW23776   1.439   1.813   3.898 -0.3233  0.1992  0.2044
 4048SOL    HW123777   1.495   1.812   3.820  0.4731 -2.0073  0.8061
 4048SOL    HW223778   1.417   1.905   3.906  0.9326  0.4135  1.0982
 4049SOL     OW23779   4.716   1.294   2.477  0.3100  0.1346 -0.1724
 4049SOL    HW123780   4.694   1.205   2.449  0.3565 -0.4056  1.4957
 4049SOL    HW223781   4.638   1.340   2.446  1.6869 -0.1456 -4.0810
 4050SOL     OW23782   0.246   1.724   7.993 -0.1694  0.5982  0.7052
 4050SOL    HW123783   0.298   1.644   7.999  0.5760  0.8080 -2.7723
 4050SOL    HW223784   0.214   1.747   8.080  0.9954  1.4699  0.9070
 4051SOL     OW23785   2.497   0.141   5.800 -0.1753 -0.6522 -0.4881
 4051SOL    HW123786   2.591   0.141   5.813 -0.1055  1.3231 -0.9493
 4051SOL    HW223787   2.465   0.149   5.890  1.0802 -1.5765  0.0271
 4052SOL     OW23788   2.801   2.195   3.189  0.1293  0.7403 -0.6249
 4052SOL    HW123789   2.773   2.246   3.113  0.1075 -1.1701 -1.8931
 4052SOL    HW223790   2.778   2.260   3.256 -2.0795  1.1966 -1.8631
 4053SOL     OW23791   2.392   1.461   1.336  0.1700 -0.3306  0.2370
 4053SOL    HW123792   2.386   1.510   1.418  0.4622  0.2819 -0.1107
 4053SOL    HW223793   2.423   1.520   1.267 -0.4516 -1.4119 -0.9650
 4054SOL     OW23794   4.403   3.009   3.259 -0.3090  0.2295  0.8486
 4054SOL    HW123795   4.456   2.996   3.337  1.3274 -0.4346 -0.3776
 4054SOL    HW223796   4.370   2.922   3.235  1.0476  0.1826 -0.8956
 4055SOL     OW23797   0.488   2.262   3.403 -0.5197  0.2475 -0.2362
 4055SOL    HW123798   0.422   2.326   3.429 -0.3137  0.2365  0.3303
 4055SOL    HW223799   0.558   2.322   3.378  1.7980 -1.7059  1.4079
 4056SOL     OW23800   1.615   3.094   8.712  0.3873 -0.3006  0.3256
 4056SOL    HW123801   1.658   3.136   8.787 -0.3207  0.7359  0.1622
 4056SOL    HW223802   1.662   3.111   8.631 -0.2793  1.4315  0.2984
 4057SOL     OW23803   1.246   3.601   6.338  0.4773  0.1500  0.0772
 4057SOL    HW123804   1.205   3.524   6.299 -2.0633  1.1215  0.8785
 4057SOL    HW223805   1.194   3.619   6.416 -0.6411  0.0527 -0.6528
 4058SOL     OW23806   0.763   3.924   6.155 -0.1285 -0.8189 -0.3054
 4058SOL    HW123807   0.768   3.842   6.204  2.6049  0.9134  2.2869
 4058SOL    HW223808   0.765   3.990   6.223 -0.3260 -0.0069 -1.0857
 4059SOL     OW23809   1.369   0.878   1.114 -0.4580  0.1393 -0.2085
 4059SOL    HW123810   1.307   0.901   1.183 -1.0821  1.8912 -1.3808
 4059SOL    HW223811   1.327   0.805   1.070  1.3047 -1.0014 -0.0152
 4060SOL     OW23812   3.021   2.220  16.300  0.1569 -0.3864  0.2590
 4060SOL    HW123813   3.094   2.275  16.330 -0.8460  1.7132 -1.1459
 4060SOL    HW223814   3.012   2.254  16.211 -0.3087 -0.3750  0.3126
 4061SOL     OW23815   4.694   4.350   5.106  0.4305 -0.5210  0.2832
 4061SOL    HW123816   4.641   4.402   5.167  0.6588 -0.5451  0.5003
 4061SOL    HW223817   4.624   4.298   5.067  0.8349 -0.1040 -1.0102
 4062SOL     OW23818   0.330   1.855   8.356  0.2603  0.6299  0.3163
 4062SOL    HW123819   0.368   1.801   8.425  0.3977 -0.1724 -0.3852
 4062SOL    HW223820   0.395   1.925   8.353 -0.1154  0.8487 -2.6320
 4063SOL     OW23821   0.792   1.811  12.942 -0.7440  0.3274  0.3556
 4063SOL    HW123822   0.737   1.774  13.011 -1.6922  0.6845 -0.2075
 4063SOL    HW223823   0.790   1.734  12.886  0.4144 -0.8439  1.9317
 4064SOL     OW23824   3.139   4.134  17.421  0.0327  0.0890  0.8186
 4064SOL    HW123825   3.102   4.127  17.509  0.2760  0.6971  0.9666
 4064SOL    HW223826   3.133   4.228  17.406 -1.1525 -0.0570  0.3412
 4065SOL     OW23827   1.820   0.936   8.084  0.0829  0.0461 -0.2500
 4065SOL    HW123828   1.816   0.950   8.178  0.4881  0.5178 -0.2996
 4065SOL    HW223829   1.735   0.895   8.070  0.3905  0.1626 -2.5764
 4066SOL     OW23830   1.598   2.697   0.375 -0.4066  0.3083  0.4291
 4066SOL    HW123831   1.553   2.773   0.412  0.5399 -0.0373  2.2967
 4066SOL    HW223832   1.552   2.674   0.294 -0.5673 -0.1773  0.6591
 4067SOL     OW23833   3.767   1.030  16.400  0.4247  0.2510  0.1572
 4067SOL    HW123834   3.710   1.060  16.470  0.6633  0.0366  0.4478
 4067SOL    HW223835   3.758   1.104  16.341  1.1129  2.5419  2.9114
 4068SOL     OW23836   1.709   0.781   3.932  0.3833  0.5457 -0.3395
 4068SOL    HW123837   1.767   0.788   4.008  0.7678  0.7774 -0.6546
 4068SOL    HW223838   1.701   0.871   3.902  2.5271  0.8115 -0.0750
 4069SOL     OW23839   3.802   2.608   5.245 -0.0379 -0.5066 -0.2831
 4069SOL    HW123840   3.835   2.594   5.156  0.2519 -2.6290  0.1802
 4069SOL    HW223841   3.708   2.591   5.250  0.1320 -1.2214  0.3539
 4070SOL     OW23842   0.231   2.064  17.397  0.3686  0.7577  0.3335
 4070SOL    HW123843   0.316   2.093  17.432  0.1319 -0.6986  2.0829
 4070SOL    HW223844   0.217   1.979  17.439  4.3196 -0.7508 -1.4241
 4071SOL     OW23845   4.061   2.341  15.795 -0.1620 -0.4119 -0.0885
 4071SOL    HW123846   4.115   2.415  15.768 -0.8229  0.2534  0.4197
 4071SOL    HW223847   4.123   2.268  15.790  0.4666  0.3146 -3.2126
 4072SOL     OW23848   2.046   0.609   8.882 -0.0909 -0.0148  0.7033
 4072SOL    HW123849   2.038   0.528   8.931  1.2376 -0.7313 -0.2585
 4072SOL    HW223850   2.071   0.670   8.952 -2.5491 -0.8476  2.3055
 4073SOL     OW23851   2.103   1.225   8.867  0.6207 -0.0334  0.1225
 4073SOL    HW123852   2.081   1.249   8.957 -3.1304  0.2473 -0.8677
 4073SOL    HW223853   2.192   1.261   8.863  0.5121  0.3617  1.4229
 4074SOL     OW23854   2.896   4.718  17.543 -1.1490  0.2476  0.2900
 4074SOL    HW123855   2.989   4.705  17.558 -0.9181  1.7350  0.1249
 4074SOL    HW223856   2.885   4.630  17.507  1.5244 -0.3879  1.0181
 4075SOL     OW23857   0.198   4.099   1.886 -0.8121 -0.3951  0.0450
 4075SOL    HW123858   0.207   4.052   1.969 -0.9611 -1.1455 -0.3619
 4075SOL    HW223859   0.285   4.138   1.883 -1.1695  0.6170  3.6340
 4076SOL     OW23860   3.297   1.930   8.511 -0.2064  0.1547  0.2440
 4076SOL    HW123861   3.301   1.942   8.416  0.1351 -0.3300  0.2017
 4076SOL    HW223862   3.379   1.884   8.528  1.3198  3.1924  1.2915
 4077SOL     OW23863   1.861   2.999   1.250  0.4492 -0.4210 -0.2627
 4077SOL    HW123864   1.865   2.906   1.270 -0.0764  0.4912  3.9866
 4077SOL    HW223865   1.785   3.010   1.193  0.4554  0.0696 -0.1724
 4078SOL     OW23866   4.184   1.391   3.226  0.1302  0.2081  0.5326
 4078SOL    HW123867   4.213   1.432   3.144 -0.3571 -0.4206  0.0421
 4078SOL    HW223868   4.119   1.452   3.260  0.7158  0.3215  1.4231
 4079SOL     OW23869   4.167   4.160   4.149 -0.4789  0.2777  0.2614
 4079SOL    HW123870   4.252   4.143   4.110  0.0611  2.3733  0.5059
 4079SOL    HW223871   4.111   4.140   4.074 -0.5320  2.4498 -0.2810
 4080SOL     OW23872   2.114   3.871  12.130  0.3465 -0.5426  0.4714
 4080SOL    HW123873   2.026   3.905  12.146  0.3144 -1.5550  2.4049
 4080SOL    HW223874   2.118   3.787  12.175 -0.3519  0.9830  3.3762
 4081SOL     OW23875   4.210   3.775   4.598 -0.1359  0.4588 -0.0604
 4081SOL    HW123876   4.163   3.692   4.609 -1.1481  0.9932 -0.3789
 4081SOL    HW223877   4.200   3.786   4.504  2.7095  1.2392 -0.2874
 4082SOL     OW23878   3.712   1.748   8.939  0.2402  0.0383 -0.1931
 4082SOL    HW123879   3.698   1.841   8.959  1.4915 -0.0773  1.1526
 4082SOL    HW223880   3.750   1.716   9.021  0.6376 -0.4846 -0.5810
 4083SOL     OW23881   4.214   3.448   7.987 -0.0029  0.5143 -0.4057
 4083SOL    HW123882   4.209   3.522   7.926 -1.0302  1.7231  1.1503
 4083SOL    HW223883   4.167   3.485   8.062 -0.3604 -2.4859  0.8716
 4084SOL     OW23884   3.597   4.113   7.948  0.3271 -0.0298 -0.0402
 4084SOL    HW123885   3.644   4.060   8.012  1.4828  0.7080 -0.2807
 4084SOL    HW223886   3.538   4.057   7.898 -2.2943  0.7803  2.1655
 4085SOL     OW23887   2.078   3.483  16.021 -0.2276  0.3670  0.1382
 4085SOL    HW123888   2.010   3.443  15.966 -2.1638  1.5616  1.6759
 4085SOL    HW223889   2.069   3.576  16.005 -0.4552 -0.0117 -1.8965
 4086SOL     OW23890   4.655   1.841  15.655 -0.4633 -0.2432  0.4432
 4086SOL    HW123891   4.651   1.771  15.720 -0.0646 -0.4389  0.2502
 4086SOL    HW223892   4.674   1.796  15.573 -0.3117  0.3062  0.1718
 4087SOL     OW23893   2.770   1.311   3.795 -0.0014  0.0851  0.1196
 4087SOL    HW123894   2.788   1.267   3.878  1.6340 -1.1874 -0.8763
 4087SOL    HW223895   2.822   1.388   3.819  1.0255 -0.1720 -1.2416
 4088SOL     OW23896   3.641   1.942   4.028  0.8076  0.0849 -0.2176
 4088SOL    HW123897   3.640   2.035   4.049  0.2473  0.4783 -1.9437
 4088SOL    HW223898   3.706   1.947   3.958  0.0492  2.8028 -0.7329
 4089SOL     OW23899   4.081   3.323   7.342  0.3668  1.0491 -0.6032
 4089SOL    HW123900   4.122   3.406   7.368  1.3212  0.8538 -1.5127
 4089SOL    HW223901   4.094   3.325   7.247 -1.2378 -0.1538 -0.8509
 4090SOL     OW23902   2.526   3.375   0.917  0.0864 -0.2649 -0.1784
 4090SOL    HW123903   2.519   3.435   0.992  1.5332 -0.7767  0.3678
 4090SOL    HW223904   2.492   3.423   0.842 -1.7489 -0.3256  0.6240
 4091SOL     OW23905   2.513   4.092  17.059 -0.0475 -0.2299  0.1023
 4091SOL    HW123906   2.597   4.115  17.098  0.2461 -0.1719 -0.5569
 4091SOL    HW223907   2.507   4.120  16.967  1.3590  0.0885  0.1075
 4092SOL     OW23908   4.566   4.658  11.802  0.4669  0.3141  0.2589
 4092SOL    HW123909   4.587   4.696  11.717  0.9723  0.2163  0.3395
 4092SOL    HW223910   4.631   4.704  11.855 -2.8024  1.8568  2.9086
 4093SOL     OW23911   1.471   2.591   6.972 -0.4329 -0.1258  0.3930
 4093SOL    HW123912   1.424   2.508   6.973  0.6233 -0.7451 -2.3246
 4093SOL    HW223913   1.520   2.583   7.053  0.6677  0.6780 -0.1964
 4094SOL     OW23914   1.441   2.268   1.826  0.3666  0.7834 -0.0849
 4094SOL    HW123915   1.371   2.237   1.768  0.2339  0.9638 -0.0198
 4094SOL    HW223916   1.507   2.279   1.758  1.1078  1.7032  0.7815
 4095SOL     OW23917   2.779   2.786   7.610 -0.0198  0.1717 -0.2580
 4095SOL    HW123918   2.704   2.797   7.669 -1.0492 -0.3680 -1.4673
 4095SOL    HW223919   2.849   2.803   7.673 -0.4196 -2.7031  0.9544
 4096SOL     OW23920   0.480   1.556   9.171 -0.3127 -0.1197  0.1832
 4096SOL    HW123921   0.479   1.644   9.134 -0.7356 -1.8939 -3.9361
 4096SOL    HW223922   0.485   1.580   9.264  0.7423 -1.1311  0.3840
 4097SOL     OW23923   4.401   0.835   1.240 -0.0729  0.1279  0.2963
 4097SOL    HW123924   4.353   0.752   1.247 -1.2161  0.7071 -0.7479
 4097SOL    HW223925   4.443   0.835   1.326  0.2014 -0.3386  0.1680
 4098SOL     OW23926   3.053   4.660  13.032 -0.1257 -0.1402 -0.0184
 4098SOL    HW123927   3.018   4.696  12.950 -1.2185 -0.5349  0.2826
 4098SOL    HW223928   3.027   4.728  13.094  0.6102 -1.3428  1.6164
 4099SOL     OW23929   1.293   3.030   8.288  0.1928  0.5807  0.5623
 4099SOL    HW123930   1.237   3.099   8.253 -2.0658 -0.9752  1.1124
 4099SOL    HW223931   1.299   3.072   8.373 -0.1102 -1.0790  1.4020
 4100SOL     OW23932   2.716   1.420   7.036  0.0837 -0.3730  0.0939
 4100SOL    HW123933   2.676   1.416   6.950  0.1233  0.6694  0.0272
 4100SOL    HW223934   2.797   1.374   7.015  0.7757  0.7142  0.3947
 4101SOL     OW23935   3.175   0.475  13.094  0.3908  0.5590  0.0806
 4101SOL    HW123936   3.227   0.506  13.168  1.6199 -2.3569  0.4238
 4101SOL    HW223937   3.094   0.510  13.132  0.7688  1.5575 -0.0269
 4102SOL     OW23938   3.800   4.004   2.635 -0.4272 -0.0984  0.0736
 4102SOL    HW123939   3.738   4.075   2.620 -0.0537  0.1704 -0.2028
 4102SOL    HW223940   3.750   3.931   2.597  1.9871 -0.6482 -2.0509
 4103SOL     OW23941   3.199   1.618   6.239 -0.0062 -0.1829  0.4987
 4103SOL    HW123942   3.189   1.678   6.313 -0.3683  1.1033 -0.5764
 4103SOL    HW223943   3.110   1.591   6.216  0.1498  0.1276 -0.4839
 4104SOL     OW23944   0.354   2.627   1.995 -0.2746 -0.3041  0.1966
 4104SOL    HW123945   0.407   2.547   1.998  0.3643  0.1328  0.5057
 4104SOL    HW223946   0.419   2.692   2.022  0.0619 -0.6451  0.2043
 4105SOL     OW23947   0.727   4.489   8.440 -0.2292  0.3835 -0.1703
 4105SOL    HW123948   0.661   4.474   8.373  1.6098 -1.6780 -1.5071
 4105SOL    HW223949   0.740   4.583   8.431  3.4276 -0.2842 -1.8516
 4106SOL     OW23950   4.221   0.382  11.234  0.7445  0.1572 -0.2120
 4106SOL    HW123951   4.227   0.473  11.204  1.3557  0.4397  0.8093
 4106SOL    HW223952   4.172   0.353  11.156  0.6606 -3.4463  1.1958
 4107SOL     OW23953   1.119   0.084  16.251 -0.1436  0.2315  0.3243
 4107SOL    HW123954   1.107   0.099  16.345  1.7508 -2.0125  0.9274
 4107SOL    HW223955   1.033   0.115  16.223 -0.8337 -2.1010 -0.1233
 4108SOL     OW23956   4.629   2.124   2.725  0.7287  0.0189 -0.1684
 4108SOL    HW123957   4.533   2.118   2.725  0.6927  0.6569 -1.0304
 4108SOL    HW223958   4.650   2.032   2.741 -0.6129 -0.8799 -3.7003
 4109SOL     OW23959   2.746   2.236   1.465 -0.1329  0.7529 -0.0021
 4109SOL    HW123960   2.682   2.307   1.467  0.5294  1.3045  2.1797
 4109SOL    HW223961   2.771   2.257   1.555  1.8661  3.7046 -1.2394
 4110SOL     OW23962   2.450   3.210  11.806  0.3497  0.2116 -0.6393
 4110SOL    HW123963   2.459   3.120  11.836 -0.2626 -0.0949 -1.3409
 4110SOL    HW223964   2.544   3.223  11.793  0.6398 -0.8883  0.4471
 4111SOL     OW23965   3.235   1.949   5.203  0.3498  0.2669  0.7042
 4111SOL    HW123966   3.287   1.979   5.277 -2.3107  4.7942  0.7661
 4111SOL    HW223967   3.297   1.885   5.169  0.0250  0.4929 -0.3267
 4112SOL     OW23968   2.653   2.470   3.611  0.6089 -0.3202  0.2168
 4112SOL    HW123969   2.698   2.482   3.695 -0.1565 -0.7973  0.6920
 4112SOL    HW223970   2.575   2.523   3.621  1.6115  1.0684  0.7048
 4113SOL     OW23971   0.080   2.606  16.421 -0.4291  0.4189 -0.3522
 4113SOL    HW123972   0.003   2.584  16.473 -0.0889  0.7601  0.2896
 4113SOL    HW223973   0.030   2.644  16.348  4.1534  1.2675 -3.0219
 4114SOL     OW23974   1.833   1.706  17.291  0.0645 -0.0732  0.1210
 4114SOL    HW123975   1.790   1.685  17.208 -2.0776 -1.0185  1.4715
 4114SOL    HW223976   1.764   1.702  17.356 -0.6471 -1.7733 -0.7349
 4115SOL     OW23977   1.151   2.575  10.663  0.0134  0.2152 -0.4283
 4115SOL    HW123978   1.107   2.597  10.745 -1.5255 -0.0859 -1.1803
 4115SOL    HW223979   1.081   2.532  10.614  1.0826 -2.4274  0.3742
 4116SOL     OW23980   1.921   0.015   0.315 -0.3865  0.4295 -0.2815
 4116SOL    HW123981   1.973   0.071   0.256  0.6951  0.8051  1.0424
 4116SOL    HW223982   1.831   0.046   0.311 -0.4911  0.1983  0.4359
 4117SOL     OW23983   3.231   4.525   4.750  0.3406  0.5289  0.0813
 4117SOL    HW123984   3.213   4.477   4.669  3.2362 -0.0566 -0.2365
 4117SOL    HW223985   3.317   4.562   4.733  1.2109 -0.3019  2.7029
 4118SOL     OW23986   4.627   1.079   5.731  0.2574 -0.0794 -0.5947
 4118SOL    HW123987   4.717   1.091   5.702 -0.2304  0.3292 -1.9429
 4118SOL    HW223988   4.583   1.155   5.694  1.4680  0.8883 -0.0143
 4119SOL     OW23989   3.687   0.096   8.842 -0.0105  0.4071  0.2889
 4119SOL    HW123990   3.650   0.085   8.754 -0.7815  0.8994  0.5493
 4119SOL    HW223991   3.619   0.041   8.881  1.5027 -1.1645  0.6906
 4120SOL     OW23992   2.397   4.690   1.864 -0.2294  0.2446 -0.6970
 4120SOL    HW123993   2.356   4.722   1.784 -2.5504 -0.9644  0.0151
 4120SOL    HW223994   2.330   4.626   1.888 -0.4534  0.6379 -0.2841
 4121SOL     OW23995   1.645   3.846   1.867  0.6944  0.2957  0.0976
 4121SOL    HW123996   1.662   3.845   1.962  4.3208 -2.0263 -0.5697
 4121SOL    HW223997   1.707   3.913   1.837  0.4049  1.2561  1.5986
 4122SOL     OW23998   1.889   2.426  15.681  0.0652  0.3176  0.0540
 4122SOL    HW123999   1.967   2.412  15.734 -0.2295  2.0746  0.9675
 4122SOL    HW224000   1.849   2.340  15.689 -0.7938  0.8060  1.0375
 4123SOL     OW24001   2.186   2.120  17.653  0.0679 -0.3096  0.5838
 4123SOL    HW124002   2.161   2.206  17.686  0.2346 -1.1673  2.9552
 4123SOL    HW224003   2.239   2.090  17.728  0.0518  1.6095  1.3818
 4124SOL     OW24004   0.694   0.648  11.739  0.5995  0.2465 -0.1273
 4124SOL    HW124005   0.750   0.665  11.664  1.3380  0.2538  0.4347
 4124SOL    HW224006   0.638   0.581  11.698 -0.2948  0.4646  0.7245
 4125SOL     OW24007   4.602   4.363   8.127 -0.3891 -0.3993 -0.0881
 4125SOL    HW124008   4.640   4.451   8.127 -1.3173  0.0103 -2.6369
 4125SOL    HW224009   4.583   4.363   8.220  0.0147 -1.8876 -0.0044
 4126SOL     OW24010   0.352   3.747   9.099 -0.6096  0.0350  0.2807
 4126SOL    HW124011   0.317   3.836   9.094 -0.0155  0.2983  0.9282
 4126SOL    HW224012   0.276   3.716   9.148  0.1447 -0.5458  1.0883
 4127SOL     OW24013   3.492   2.109  13.844  0.0302  0.0732  0.2415
 4127SOL    HW124014   3.555   2.172  13.878  1.0893 -0.7596 -0.1872
 4127SOL    HW224015   3.557   2.054  13.800 -0.5974  0.0533 -0.6556
 4128SOL     OW24016   0.990   1.807   6.927  0.7205  0.2190 -0.1789
 4128SOL    HW124017   0.983   1.728   6.872 -1.7564  0.3215 -0.0481
 4128SOL    HW224018   0.958   1.774   7.011  0.2291 -2.2295 -1.3019
 4129SOL     OW24019   4.527   4.382   0.986  0.1231  0.1002 -0.5249
 4129SOL    HW124020   4.564   4.318   0.925  0.2301  0.2424 -0.6063
 4129SOL    HW224021   4.610   4.394   1.033 -0.0797  0.8974 -0.3719
 4130SOL     OW24022   2.905   1.492   6.570 -0.1246 -0.8627 -0.0054
 4130SOL    HW124023   2.877   1.405   6.541 -1.4511 -0.2580 -0.5690
 4130SOL    HW224024   2.841   1.541   6.517  1.1657  1.7081  0.8051
 4131SOL     OW24025   4.408   1.684   3.641 -0.4576 -0.1995 -0.1559
 4131SOL    HW124026   4.454   1.757   3.684 -1.3330  1.0218 -1.2662
 4131SOL    HW224027   4.403   1.627   3.718  0.5521  0.1302  0.1568
 4132SOL     OW24028   2.036   0.491   4.366  0.1107  0.2944  0.0328
 4132SOL    HW124029   2.005   0.422   4.424 -0.2096  0.4072 -0.0033
 4132SOL    HW224030   2.074   0.442   4.294 -0.6985 -1.7719  1.0143
 4133SOL     OW24031   0.242   0.200   5.688  0.3269 -0.1824  0.0747
 4133SOL    HW124032   0.315   0.138   5.685  0.6947  0.3056 -1.5586
 4133SOL    HW224033   0.186   0.137   5.734 -1.1073  1.5604  0.7196
 4134SOL     OW24034   2.548   3.639  14.708  0.0274  0.1770 -0.4124
 4134SOL    HW124035   2.537   3.629  14.803 -1.6886  1.6835 -0.4404
 4134SOL    HW224036   2.641   3.655  14.691  0.0327  1.3775  0.7141
 4135SOL     OW24037   3.922   3.210   8.482 -0.0350 -0.7210 -0.2318
 4135SOL    HW124038   3.980   3.285   8.474  0.2601 -0.9617 -0.3377
 4135SOL    HW224039   3.941   3.168   8.398 -0.7411  1.1534 -1.3263
 4136SOL     OW24040   2.006   3.496   9.808  0.2437 -0.0080  0.3849
 4136SOL    HW124041   2.086   3.538   9.841 -0.0729 -0.1486  1.3133
 4136SOL    HW224042   1.981   3.455   9.890  1.0023  0.2901  0.7648
 4137SOL     OW24043   3.386   0.955  15.226  0.1116  0.2836 -0.0431
 4137SOL    HW124044   3.357   0.880  15.174  0.0896 -0.7980  1.5203
 4137SOL    HW224045   3.480   0.934  15.230  0.2275  0.4014 -2.0449
 4138SOL     OW24046   3.917   0.706   1.559  0.3943 -0.7600  0.0009
 4138SOL    HW124047   3.925   0.705   1.655  0.8265 -0.7452 -0.0353
 4138SOL    HW224048   3.823   0.690   1.553  0.3053 -1.1860  2.4062
 4139SOL     OW24049   2.737   1.507   7.537 -0.6494 -0.1674 -0.0590
 4139SOL    HW124050   2.732   1.480   7.629  1.3043 -2.6270 -0.6636
 4139SOL    HW224051   2.803   1.576   7.542  0.1654 -0.9025 -0.6640
 4140SOL     OW24052   4.281   0.303   3.297  0.0516  0.1859 -0.4028
 4140SOL    HW124053   4.219   0.248   3.249  0.7605 -1.2607  0.3677
 4140SOL    HW224054   4.226   0.381   3.290 -2.1955 -1.1941  2.0786
 4141SOL     OW24055   2.879   2.489   1.922 -0.1972  0.2567 -0.6926
 4141SOL    HW124056   2.792   2.527   1.934 -0.0807  0.4539 -0.4618
 4141SOL    HW224057   2.919   2.556   1.867  0.0472  0.1403 -0.6606
 4142SOL     OW24058   1.916   0.866   5.644 -0.4051  0.5948  0.0831
 4142SOL    HW124059   1.825   0.893   5.651 -0.1960  1.1115  0.7955
 4142SOL    HW224060   1.959   0.951   5.634  0.3451  0.1767 -0.2670
 4143SOL     OW24061   3.599   1.240   8.821 -0.3449  0.1415  0.1104
 4143SOL    HW124062   3.520   1.288   8.793 -0.7191 -2.3708 -3.2000
 4143SOL    HW224063   3.603   1.272   8.911  1.0126  1.2162 -0.3355
 4144SOL     OW24064   1.721   1.103   7.768 -0.6365 -0.0372 -0.1790
 4144SOL    HW124065   1.628   1.093   7.789 -0.5252 -1.3597 -0.3523
 4144SOL    HW224066   1.737   1.044   7.695  2.2539 -0.0499  0.4474
 4145SOL     OW24067   2.085   3.883   6.089  0.1712 -0.2569 -0.0398
 4145SOL    HW124068   2.117   3.866   6.000 -0.6194 -1.3730 -0.1115
 4145SOL    HW224069   2.019   3.815   6.097 -0.7887  0.2178 -3.5906
 4146SOL     OW24070   0.079   2.833   4.116 -0.3777  0.4154 -0.1892
 4146SOL    HW124071   0.120   2.791   4.040  1.7606 -0.0370  1.1995
 4146SOL    HW224072   0.129   2.915   4.116  1.0206 -0.4380  0.1116
 4147SOL     OW24073   0.243   4.049  13.962  0.5157 -0.0176  0.1278
 4147SOL    HW124074   0.243   3.960  13.927  4.6562  0.0683 -0.0646
 4147SOL    HW224075   0.207   4.091  13.884  0.1095 -0.8607 -0.1409
 4148SOL     OW24076   0.314   4.044   8.998  0.1843  0.6585 -0.0853
 4148SOL    HW124077   0.310   4.114   8.933 -1.7859 -0.3552 -1.0366
 4148SOL    HW224078   0.362   4.098   9.062  0.6796  0.9447 -0.7007
 4149SOL     OW24079   2.274   4.474   7.206 -0.0274 -0.1583  0.1256
 4149SOL    HW124080   2.338   4.436   7.267  0.3395  1.2600  0.6378
 4149SOL    HW224081   2.205   4.410   7.222 -0.7737 -0.1397 -3.0694
 4150SOL     OW24082   1.929   4.195   3.930 -0.5263  0.5620  0.0374
 4150SOL    HW124083   1.944   4.102   3.913  0.2069  0.6683  0.0957
 4150SOL    HW224084   1.861   4.186   3.997 -0.8095 -0.2646 -0.3631
 4151SOL     OW24085   3.385   1.269  10.928 -0.0958  0.3077 -0.0767
 4151SOL    HW124086   3.369   1.301  11.017  1.5395  0.5315  0.1480
 4151SOL    HW224087   3.419   1.182  10.947  0.6311  0.2050 -1.8201
 4152SOL     OW24088   2.194   0.284   0.909  0.1924 -0.4551  0.5228
 4152SOL    HW124089   2.143   0.218   0.862  0.0693  0.6031 -0.8389
 4152SOL    HW224090   2.253   0.229   0.960  0.3327  0.9213  1.8294
 4153SOL     OW24091   1.109   2.216   0.089 -0.1778 -0.5372  0.1236
 4153SOL    HW124092   1.062   2.273   0.149 -0.0399 -1.9332  1.5719
 4153SOL    HW224093   1.044   2.147   0.070 -0.0248 -0.6939  0.1697
 4154SOL     OW24094   3.422   1.013   4.690 -0.0349 -0.4529  0.0204
 4154SOL    HW124095   3.388   1.008   4.779  0.4553  3.0268  0.4100
 4154SOL    HW224096   3.340   0.999   4.642 -1.3957 -3.1024  3.1141
 4155SOL     OW24097   4.261   2.987   5.312 -0.4374  0.0896  0.0267
 4155SOL    HW124098   4.335   2.941   5.273  0.6516 -1.0215  3.3888
 4155SOL    HW224099   4.303   2.993   5.398  2.5233 -0.9653 -1.3426
 4156SOL     OW24100   2.745   2.911   6.514  0.7853  0.7286 -0.0612
 4156SOL    HW124101   2.787   2.997   6.516 -1.6871  1.9212  0.2658
 4156SOL    HW224102   2.668   2.932   6.566  1.5084 -0.1200  1.3644
 4157SOL     OW24103   1.259   3.483   5.750 -0.1074 -0.2264  0.3040
 4157SOL    HW124104   1.280   3.531   5.670 -1.6625  0.4755  0.3136
 4157SOL    HW224105   1.174   3.444   5.729 -0.2875 -0.6031  1.7246
 4158SOL     OW24106   0.567   4.040   3.106  0.1750 -0.0284 -0.3666
 4158SOL    HW124107   0.535   4.074   3.022  2.0050  2.0712 -0.1993
 4158SOL    HW224108   0.621   4.114   3.130 -0.0585 -0.3092  0.9984
 4159SOL     OW24109   1.818   4.174   0.132  0.3167 -0.1354  0.0524
 4159SOL    HW124110   1.823   4.162   0.226  1.3261 -1.0531 -0.1244
 4159SOL    HW224111   1.874   4.098   0.116  1.4620  0.5668  0.6721
 4160SOL     OW24112   2.424   1.513   9.152 -0.3574  0.3707 -0.4833
 4160SOL    HW124113   2.386   1.598   9.175  2.0742  0.9859  1.1974
 4160SOL    HW224114   2.366   1.452   9.197 -2.0980 -0.2111 -3.4937
 4161SOL     OW24115   2.424   0.160   1.025  0.1150 -0.3580  0.0775
 4161SOL    HW124116   2.505   0.120   1.058 -0.5987 -2.4476 -0.7051
 4161SOL    HW224117   2.438   0.251   1.050 -1.3043 -0.8139  2.4875
 4162SOL     OW24118   0.339   2.681   4.876  0.0383  0.8794 -0.1745
 4162SOL    HW124119   0.257   2.650   4.913  0.7310 -0.5993  0.1287
 4162SOL    HW224120   0.334   2.670   4.781 -0.2233  0.5087 -0.1132
 4163SOL     OW24121   4.270   2.981   3.763 -0.0959 -0.2765  0.0118
 4163SOL    HW124122   4.249   3.074   3.773 -1.9927 -0.5433 -1.6286
 4163SOL    HW224123   4.364   2.990   3.776 -0.5417  0.5428  2.6556
 4164SOL     OW24124   2.078   4.512   5.304  0.0247  0.0926 -0.2464
 4164SOL    HW124125   2.155   4.480   5.351  0.0985  1.3709  0.4965
 4164SOL    HW224126   2.115   4.517   5.216  1.6686 -1.6240  0.3423
 4165SOL     OW24127   3.473   4.263  15.173 -0.7347 -0.0739 -0.4960
 4165SOL    HW124128   3.418   4.192  15.138  0.2353 -1.5279  0.9116
 4165SOL    HW224129   3.559   4.233  15.144 -0.4092  1.1747 -0.8057
 4166SOL     OW24130   4.476   1.153   2.609 -0.1384  0.5971 -0.0893
 4166SOL    HW124131   4.412   1.147   2.538  1.3427  1.0837 -1.4354
 4166SOL    HW224132   4.478   1.062   2.638  0.2412  0.5059 -0.4194
 4167SOL     OW24133   1.077   1.435   8.416  0.1564 -0.1151 -0.8436
 4167SOL    HW124134   1.074   1.491   8.494 -2.1845  1.6843 -2.2075
 4167SOL    HW224135   1.142   1.477   8.360  2.2616 -0.5019  1.3074
 4168SOL     OW24136   1.830   3.928   4.508  0.3166 -1.1257 -0.3262
 4168SOL    HW124137   1.881   3.869   4.562 -0.1881 -0.7509  0.5692
 4168SOL    HW224138   1.783   3.970   4.580  1.2734  1.1787 -1.0325
 4169SOL     OW24139   2.588   2.026  13.064  0.0770  0.0453 -0.2827
 4169SOL    HW124140   2.525   1.994  13.128  0.0508 -0.8805 -0.7864
 4169SOL    HW224141   2.662   2.049  13.120 -0.9738 -1.3937  1.6977
 4170SOL     OW24142   0.019   1.549   7.679 -0.1051 -0.3050 -0.4154
 4170SOL    HW124143   4.713   1.604   7.744 -2.6035 -0.6754 -1.7751
 4170SOL    HW224144   0.060   1.485   7.736 -0.8143 -0.0474  0.3782
 4171SOL     OW24145   3.845   3.901  11.637  0.1522  0.2779  0.1106
 4171SOL    HW124146   3.789   3.978  11.642 -0.4057 -0.0067 -1.8269
 4171SOL    HW224147   3.798   3.841  11.695 -0.5038 -0.8790 -1.6394
 4172SOL     OW24148   3.825   0.627   7.785 -0.1444 -0.3497 -0.3913
 4172SOL    HW124149   3.830   0.722   7.776  0.2483 -0.3237  0.1477
 4172SOL    HW224150   3.750   0.617   7.844 -0.9157 -1.1370 -1.5023
 4173SOL     OW24151   2.535   2.965   6.665  0.4500 -0.2458 -0.2433
 4173SOL    HW124152   2.466   2.927   6.719 -1.6790  1.1340 -1.9655
 4173SOL    HW224153   2.585   3.010   6.734  0.0386  1.0998 -0.8144
 4174SOL     OW24154   0.793   4.071   7.265 -0.0273  0.0272  0.1466
 4174SOL    HW124155   0.818   4.047   7.176  2.2260  0.8744  0.5327
 4174SOL    HW224156   0.863   4.030   7.317  0.3467  0.4936  0.0127
 4175SOL     OW24157   3.787   0.407   3.933 -0.5246 -0.0660 -0.2052
 4175SOL    HW124158   3.760   0.367   4.016  0.0291 -0.3563 -0.1622
 4175SOL    HW224159   3.768   0.499   3.951  1.7457  0.5034 -0.6533
 4176SOL     OW24160   0.797   4.305   2.615  0.4139  0.0826  0.0458
 4176SOL    HW124161   0.762   4.312   2.526  2.6192 -1.0237 -0.9209
 4176SOL    HW224162   0.887   4.334   2.602  0.0847  0.0677 -2.1831
 4177SOL     OW24163   0.516   1.724   2.224 -0.2903 -0.1481  0.2451
 4177SOL    HW124164   0.435   1.755   2.184 -1.5079 -0.9393  2.0873
 4177SOL    HW224165   0.482   1.637   2.247  0.6125 -0.1618  1.5641
 4178SOL     OW24166   2.993   1.799   1.400 -0.2497  0.0297  0.0241
 4178SOL    HW124167   2.915   1.850   1.380 -0.5583 -0.3085  0.3541
 4178SOL    HW224168   3.004   1.760   1.314  0.4707  1.1861 -0.4112
 4179SOL     OW24169   1.353   1.815   0.015  0.6276  0.5301 -0.3449
 4179SOL    HW124170   1.324   1.775  17.682 -3.7996  0.4300  1.2803
 4179SOL    HW224171   1.285   1.787   0.076  0.4466 -1.0306 -1.2739
 4180SOL     OW24172   2.493   1.113   3.105  0.4048  0.2456  0.0439
 4180SOL    HW124173   2.449   1.060   3.171 -0.0082  2.0070  1.1878
 4180SOL    HW224174   2.564   1.163   3.145 -0.8564  1.5916  0.6120
 4181SOL     OW24175   4.293   1.264   0.163 -0.4937  0.1999  0.2455
 4181SOL    HW124176   4.304   1.191   0.103  1.5884  3.0186 -2.8313
 4181SOL    HW224177   4.310   1.219   0.246  1.0097  2.8402  1.3892
 4182SOL     OW24178   3.702   0.283   9.033 -0.3610  0.0899  0.8081
 4182SOL    HW124179   3.708   0.224   9.108 -0.3443 -0.6359  0.2346
 4182SOL    HW224180   3.717   0.227   8.957  2.9411  1.9311  0.1182
 4183SOL     OW24181   3.874   0.627   6.488  0.3780 -0.0333 -0.3000
 4183SOL    HW124182   3.834   0.615   6.401  1.7195  1.1524 -1.0860
 4183SOL    HW224183   3.883   0.722   6.496 -0.6486 -0.1467  1.9985
 4184SOL     OW24184   3.829   1.147   3.825  0.0207  0.2673 -0.1120
 4184SOL    HW124185   3.788   1.227   3.790  2.3580  1.6450  0.2534
 4184SOL    HW224186   3.912   1.133   3.779  0.4827  1.4289  0.3542
 4185SOL     OW24187   3.871   1.368   9.235 -0.1520  0.2478  0.6572
 4185SOL    HW124188   3.927   1.385   9.311 -0.0857  0.1331  0.6344
 4185SOL    HW224189   3.852   1.459   9.209  1.1258  0.3337  0.0200
 4186SOL     OW24190   0.470   3.131   2.409 -0.2684  0.2552  0.2095
 4186SOL    HW124191   0.414   3.064   2.370  1.0534  0.4432 -2.0087
 4186SOL    HW224192   0.400   3.196   2.413 -0.0060  0.7101 -2.5907
 4187SOL     OW24193   1.874   0.124  16.846 -0.7877  0.5315  0.0062
 4187SOL    HW124194   1.808   0.084  16.903 -1.1548 -0.3333 -1.0342
 4187SOL    HW224195   1.957   0.100  16.888 -0.3153 -1.4811 -2.1036
 4188SOL     OW24196   1.265   3.782   0.300  0.2783  0.1044 -0.0559
 4188SOL    HW124197   1.288   3.729   0.223  0.6182  0.1448  0.0188
 4188SOL    HW224198   1.206   3.730   0.354 -0.4541  0.8564 -0.1398
 4189SOL     OW24199   0.207   0.060   8.525 -0.0833  0.0259 -0.2588
 4189SOL    HW124200   0.209   0.025   8.615 -0.4194 -0.4591 -0.4411
 4189SOL    HW224201   0.134   0.019   8.479  1.0804 -1.7149 -0.5122
 4190SOL     OW24202   3.645   4.411   3.020  0.2203 -0.5003 -0.5493
 4190SOL    HW124203   3.706   4.351   3.063  0.0892 -0.3055 -0.0848
 4190SOL    HW224204   3.698   4.450   2.951  1.5105 -0.1638  0.6240
 4191SOL     OW24205   3.288   3.998   8.632  0.1821  0.1021 -0.3733
 4191SOL    HW124206   3.319   3.946   8.706 -0.0800  0.6345  0.1145
 4191SOL    HW224207   3.344   3.959   8.565  1.6051 -0.4814  1.1543
 4192SOL     OW24208   2.522   2.871   5.590  0.1815  0.0244 -0.0627
 4192SOL    HW124209   2.466   2.878   5.667  0.1067 -1.3325  0.0066
 4192SOL    HW224210   2.466   2.905   5.520  0.3635 -3.4610 -1.9447
 4193SOL     OW24211   1.623   1.665  17.477  0.1365  0.1395 -0.1547
 4193SOL    HW124212   1.598   1.625  17.560 -0.9302 -0.0105 -0.5410
 4193SOL    HW224213   1.554   1.726  17.448  2.6562  2.7340 -0.6763
 4194SOL     OW24214   2.741   4.039  14.895  0.1199  0.2205  0.0951
 4194SOL    HW124215   2.801   3.982  14.846  3.2907 -0.4337  4.6651
 4194SOL    HW224216   2.734   3.993  14.979 -2.2711  1.4769  0.5772
 4195SOL     OW24217   2.438   4.083   7.989 -0.1876 -0.3473 -0.1675
 4195SOL    HW124218   2.351   4.083   7.949 -0.6955 -1.0058  0.9200
 4195SOL    HW224219   2.416   4.055   8.078 -1.7896  3.1604  0.5581
 4196SOL     OW24220   4.078   3.209  10.835  0.3806 -0.6809 -0.0195
 4196SOL    HW124221   4.024   3.244  10.905  1.4128 -0.0265  0.4477
 4196SOL    HW224222   4.014   3.179  10.771  0.9632 -0.5227 -0.6787
 4197SOL     OW24223   0.089   3.802   7.466  0.2650  0.1959  0.2629
 4197SOL    HW124224   0.098   3.715   7.504 -0.9636  1.2025  2.8590
 4197SOL    HW224225   0.174   3.810   7.421  0.9484 -2.6915  1.0954
 4198SOL     OW24226   3.725   0.068  14.842  0.0659  0.3308 -0.1098
 4198SOL    HW124227   3.697   0.058  14.933  0.8799  1.4569  0.2556
 4198SOL    HW224228   3.682   0.006  14.783  1.2795  0.1456 -0.8092
 4199SOL     OW24229   0.627   2.243   7.105 -0.5228  0.2737 -0.2908
 4199SOL    HW124230   0.570   2.181   7.150 -0.7096  1.4039  1.0262
 4199SOL    HW224231   0.699   2.274   7.161  0.9369 -0.9511 -1.4936
 4200SOL     OW24232   2.467   2.139   2.081 -0.3411  0.0814  0.4270
 4200SOL    HW124233   2.444   2.090   2.160  1.7385  0.1785  1.1088
 4200SOL    HW224234   2.531   2.202   2.114  0.5742 -1.0719  0.8889
 4201SOL     OW24235   1.824   1.283  17.046 -0.0157  0.4743  0.5699
 4201SOL    HW124236   1.848   1.325  17.129  4.3701  0.2893 -0.6329
 4201SOL    HW224237   1.902   1.278  16.991 -0.5998  0.4350 -0.2636
 4202SOL     OW24238   1.508   2.880   5.230  0.4018  0.0534 -0.3435
 4202SOL    HW124239   1.526   2.944   5.162  2.4695  0.3302  0.4670
 4202SOL    HW224240   1.596   2.878   5.268 -0.3549 -0.6036  1.3714
 4203SOL     OW24241   2.968   3.131   1.406 -1.3878 -0.3874 -0.6275
 4203SOL    HW124242   2.986   3.056   1.349  0.0296 -0.8011  0.3608
 4203SOL    HW224243   2.890   3.099   1.452 -1.5545 -0.7317 -1.1513
 4204SOL     OW24244   0.099   3.413   3.367 -0.4120  0.1904 -0.2743
 4204SOL    HW124245   0.179   3.440   3.322  0.1996  0.4097  0.9600
 4204SOL    HW224246   0.039   3.397   3.294 -2.2217  1.0607  1.0218
 4205SOL     OW24247   3.898   3.054  17.360 -0.4304 -0.5897  0.2496
 4205SOL    HW124248   3.976   3.026  17.409 -1.4692 -1.8270  1.1955
 4205SOL    HW224249   3.871   3.134  17.405  0.8493 -0.3819  0.6473
 4206SOL     OW24250   3.206   4.143   4.420 -1.1107 -0.2028  0.3298
 4206SOL    HW124251   3.195   4.050   4.402  1.9377  0.1108 -3.1874
 4206SOL    HW224252   3.119   4.182   4.414 -2.1786 -2.4523  1.0973
 4207SOL     OW24253   3.184   2.174   5.549  0.2644  0.2450  0.0406
 4207SOL    HW124254   3.208   2.180   5.641 -1.6975  0.5936  0.5396
 4207SOL    HW224255   3.252   2.115   5.516  1.7595  1.5975  0.7302
 4208SOL     OW24256   0.133   2.355   7.551  0.3162 -0.3868  0.5214
 4208SOL    HW124257   0.140   2.442   7.590 -0.7428 -0.2835  0.4791
 4208SOL    HW224258   0.049   2.338   7.594  0.2544 -0.4643  0.3710
 4209SOL     OW24259   1.530   0.068  12.026  0.1964 -0.1573 -0.3263
 4209SOL    HW124260   1.578   0.048  11.945  0.3749  2.6403 -0.9354
 4209SOL    HW224261   1.443   0.082  11.989  0.2371 -2.9276 -1.4623
 4210SOL     OW24262   4.259   0.749   4.742 -0.1199 -0.5337  0.2438
 4210SOL    HW124263   4.312   0.819   4.780  0.5046 -0.6976 -0.3422
 4210SOL    HW224264   4.274   0.762   4.649 -0.4207 -1.8364  0.0165
 4211SOL     OW24265   2.560   0.981   5.031 -0.2312 -0.2436  0.4088
 4211SOL    HW124266   2.626   1.050   5.019  0.9241 -1.4369 -0.1756
 4211SOL    HW224267   2.601   0.928   5.099  0.6416 -1.6677 -1.2482
 4212SOL     OW24268   1.055   0.693   9.264  0.2834 -0.2550  0.0512
 4212SOL    HW124269   1.059   0.609   9.309  1.0508 -0.6761 -0.7911
 4212SOL    HW224270   1.016   0.676   9.178 -2.0806 -0.3083  1.1530
 4213SOL     OW24271   0.856   0.899   4.050 -0.4883  0.0144  0.1162
 4213SOL    HW124272   0.881   0.810   4.075 -2.8871  0.0489  2.5828
 4213SOL    HW224273   0.779   0.898   4.107 -0.1453  0.1644  0.5840
 4214SOL     OW24274   1.036   2.042   1.449 -0.0992  0.1356  0.3200
 4214SOL    HW124275   0.998   1.984   1.514 -0.7594  0.0416 -0.1501
 4214SOL    HW224276   0.995   2.124   1.475  0.8598  0.7461 -0.0879
 4215SOL     OW24277   4.127   0.238   2.602 -0.2487  0.3347 -0.2556
 4215SOL    HW124278   4.050   0.265   2.551 -1.3383 -0.6551  0.8823
 4215SOL    HW224279   4.166   0.325   2.602 -0.3450  0.3620  2.6202
 4216SOL     OW24280   3.447   1.453   5.781 -0.1416 -0.3749 -0.2888
 4216SOL    HW124281   3.420   1.531   5.734 -0.8055 -0.1492  0.4555
 4216SOL    HW224282   3.410   1.476   5.866  1.5472 -0.5015  0.4809
 4217SOL     OW24283   4.588   3.058  17.082 -0.4306  0.1802  0.4033
 4217SOL    HW124284   4.595   3.151  17.060  0.4731 -0.2220 -0.9923
 4217SOL    HW224285   4.638   3.030  17.006 -0.9352 -0.7068  0.4080
 4218SOL     OW24286   3.169   0.400   7.389  0.4864  0.0423  0.7665
 4218SOL    HW124287   3.194   0.492   7.404 -2.0038  0.6768  0.9382
 4218SOL    HW224288   3.252   0.366   7.354  0.9639  3.3081 -1.3053
 4219SOL     OW24289   1.743   0.390   7.443 -0.3399  0.7292 -0.7412
 4219SOL    HW124290   1.830   0.382   7.483 -0.6529 -0.5173 -0.3239
 4219SOL    HW224291   1.690   0.327   7.492  0.4115 -0.4319 -1.4144
 4220SOL     OW24292   2.614   4.646   7.646 -0.1010 -0.0578  0.1017
 4220SOL    HW124293   2.607   4.645   7.741 -4.5832  0.3177 -0.2503
 4220SOL    HW224294   2.647   4.736   7.635  1.1240 -0.7475 -1.8481
 4221SOL     OW24295   1.320   2.440   6.372  0.3203 -0.5091 -0.2462
 4221SOL    HW124296   1.239   2.482   6.342  0.3268 -0.5494 -0.3197
 4221SOL    HW224297   1.343   2.504   6.439  0.7077 -0.9605  0.0482
 4222SOL     OW24298   4.515   0.600  12.346 -0.1447 -0.0703 -0.1670
 4222SOL    HW124299   4.574   0.672  12.325 -0.4642 -0.2900 -1.8161
 4222SOL    HW224300   4.514   0.602  12.441 -0.9114 -2.7198 -0.1073
 4223SOL     OW24301   1.332   4.102   4.509  0.6873  0.0652 -0.7196
 4223SOL    HW124302   1.417   4.137   4.481  0.7406  0.7943  0.3478
 4223SOL    HW224303   1.298   4.070   4.426  0.0746 -0.1294 -0.3925
 4224SOL     OW24304   4.237   1.678   2.800  0.0539 -0.1395 -0.3662
 4224SOL    HW124305   4.211   1.764   2.833 -0.6881 -0.7599  0.6459
 4224SOL    HW224306   4.303   1.712   2.739 -0.1888  1.1791  0.1060
 4225SOL     OW24307   3.907   0.068   6.184  0.3301 -0.2106 -0.7385
 4225SOL    HW124308   3.920   0.049   6.091 -0.0030  1.0897 -1.0479
 4225SOL    HW224309   3.866   4.724   6.215 -0.2290  0.1971 -0.4052
 4226SOL     OW24310   4.637   3.903  12.117 -0.3349 -0.6104  0.5436
 4226SOL    HW124311   4.591   3.986  12.127 -1.9747 -1.4138 -0.4399
 4226SOL    HW224312   4.676   3.896  12.204 -1.5903  0.5579  1.1938
 4227SOL     OW24313   2.118   0.581  11.443 -0.2539 -0.0678  0.1109
 4227SOL    HW124314   2.185   0.573  11.375 -2.3045 -3.2735 -1.5246
 4227SOL    HW224315   2.173   0.628  11.505  1.1104 -0.6667 -0.6288
 4228SOL     OW24316   1.972   0.297   3.787 -0.1488 -0.2294 -0.1637
 4228SOL    HW124317   1.913   0.337   3.723 -0.5546 -1.1868 -0.3803
 4228SOL    HW224318   1.996   0.375   3.838 -1.6951 -0.1531  0.4448
 4229SOL     OW24319   1.498   4.415  11.458  0.2203 -0.2815  0.3047
 4229SOL    HW124320   1.429   4.473  11.425 -1.3621 -1.1186  2.1781
 4229SOL    HW224321   1.457   4.363  11.528 -0.8130  1.0803  0.7142
 4230SOL     OW24322   4.736   2.572   8.199  0.1597  0.0059 -0.0988
 4230SOL    HW124323   4.661   2.568   8.258 -0.1555 -0.1411 -0.5101
 4230SOL    HW224324   0.077   2.598   8.248  0.5384 -2.1919  0.4336
 4231SOL     OW24325   4.646   4.036   4.892 -0.0516  0.5600  0.3201
 4231SOL    HW124326   4.608   4.067   4.974 -0.0045 -1.2022  0.9945
 4231SOL    HW224327   4.693   3.957   4.917  0.3775  0.5079 -0.6485
 4232SOL     OW24328   0.118   2.818   6.338 -0.2569 -0.0348  0.0707
 4232SOL    HW124329   0.075   2.903   6.333  1.4636  0.7381 -1.6086
 4232SOL    HW224330   0.169   2.814   6.257 -0.4522 -1.7321  0.0436
 4233SOL     OW24331   4.255   1.097   4.654 -0.2255  0.0874 -0.3259
 4233SOL    HW124332   4.185   1.120   4.593 -0.3365 -3.3001 -1.4703
 4233SOL    HW224333   4.243   1.152   4.731 -0.1443 -1.0599  0.4948
 4234SOL     OW24334   1.588   1.221   8.281  0.0098  0.2611  0.2716
 4234SOL    HW124335   1.675   1.200   8.247 -0.4536 -1.0757 -0.1046
 4234SOL    HW224336   1.576   1.147   8.341  1.2172 -0.3699 -0.2584
 4235SOL     OW24337   2.168   0.587   6.748  0.0441 -0.1850 -0.0385
 4235SOL    HW124338   2.244   0.613   6.800  0.3577 -1.9015  0.3538
 4235SOL    HW224339   2.198   0.516   6.691 -0.3998 -1.8432  1.7880
 4236SOL     OW24340   3.584   3.996  10.410 -0.2021 -0.6373 -0.0618
 4236SOL    HW124341   3.610   3.906  10.428  0.6396  0.2600  3.2752
 4236SOL    HW224342   3.542   3.985  10.325  0.6632  3.1470 -1.0001
 4237SOL     OW24343   0.392   1.692   9.822  0.0582 -0.0934 -0.4864
 4237SOL    HW124344   0.313   1.675   9.872 -0.6590 -1.9323 -2.2144
 4237SOL    HW224345   0.466   1.703   9.882 -0.3790 -0.4908  0.1220
 4238SOL     OW24346   0.640   4.632   6.106  0.5668 -0.1843  0.2770
 4238SOL    HW124347   0.637   4.537   6.094  1.7775  0.1186 -2.4247
 4238SOL    HW224348   0.553   4.660   6.135  1.0094 -1.4259  2.7863
 4239SOL     OW24349   3.710   1.601  15.850 -0.2135 -0.1400  0.5844
 4239SOL    HW124350   3.769   1.632  15.918 -0.5488  2.1284 -0.1347
 4239SOL    HW224351   3.777   1.561  15.795  1.3774  2.3290  0.7441
 4240SOL     OW24352   4.577   3.298  11.669  1.0305  0.2001  0.3416
 4240SOL    HW124353   4.623   3.218  11.694  1.0737  0.5669  1.4443
 4240SOL    HW224354   4.583   3.347  11.751 -1.2069  1.6617 -0.3922
 4241SOL     OW24355   4.655   1.184  16.477  0.2861 -0.0301 -0.5508
 4241SOL    HW124356   0.013   1.184  16.478  0.3051 -1.7477 -1.4355
 4241SOL    HW224357   4.630   1.146  16.562  0.4476 -2.3073 -1.5011
 4242SOL     OW24358   4.711   0.319  14.002  0.2555  0.2825  0.3902
 4242SOL    HW124359   4.701   0.343  14.094  0.7665  0.6971  0.3411
 4242SOL    HW224360   4.668   0.234  14.007 -0.0105  0.3171 -1.2630
 4243SOL     OW24361   1.177   1.330   5.156 -0.0428 -0.6805  0.1579
 4243SOL    HW124362   1.221   1.371   5.230 -1.4685 -1.9644  1.7068
 4243SOL    HW224363   1.242   1.342   5.087  0.5144 -1.1469  0.6012
 4244SOL     OW24364   3.795   3.191   5.901 -0.3291 -0.3018  0.7404
 4244SOL    HW124365   3.770   3.102   5.927 -0.1546 -0.1080  1.5793
 4244SOL    HW224366   3.795   3.189   5.805  1.2831  0.2880  0.7191
 4245SOL     OW24367   3.828   0.635  11.541  0.0957 -0.3530  0.1214
 4245SOL    HW124368   3.923   0.621  11.544 -0.0480 -2.1074 -4.1729
 4245SOL    HW224369   3.790   0.549  11.555 -0.4573 -0.0001  0.8207
 4246SOL     OW24370   4.161   3.205   6.485 -0.1042 -0.2000 -0.6891
 4246SOL    HW124371   4.250   3.211   6.451  0.5801 -2.4325  0.7616
 4246SOL    HW224372   4.163   3.159   6.568  1.3698 -0.0803 -0.6681
 4247SOL     OW24373   2.293   0.913   0.608  0.1618 -0.0100  0.1018
 4247SOL    HW124374   2.384   0.938   0.593  0.1222 -0.0090 -0.1375
 4247SOL    HW224375   2.301   0.822   0.634  2.5919  0.3440  0.5185
 4248SOL     OW24376   2.989   0.298   6.233  0.5380  0.1937  0.4209
 4248SOL    HW124377   3.072   0.277   6.276 -1.1136 -0.8790  3.1112
 4248SOL    HW224378   2.955   0.217   6.196  0.5603  1.4466 -2.3218
 4249SOL     OW24379   1.753   1.701  17.038  0.3433  0.0801  0.3563
 4249SOL    HW124380   1.834   1.736  17.001  0.8410 -0.4929  0.9245
 4249SOL    HW224381   1.686   1.748  16.989  0.1507 -0.9856 -0.3974
 4250SOL     OW24382   1.672   4.533  11.670 -0.0415  0.0831 -0.3323
 4250SOL    HW124383   1.760   4.520  11.635  0.6336  1.7223  0.7335
 4250SOL    HW224384   1.625   4.497  11.595 -0.3965 -2.9505  1.3428
 4251SOL     OW24385   0.104   1.563   5.356 -0.8297  0.1604  0.2847
 4251SOL    HW124386   0.075   1.494   5.415  1.8824 -0.0387  1.3612
 4251SOL    HW224387   0.190   1.588   5.389 -0.8365 -0.4167  0.7452
 4252SOL     OW24388   3.645   2.387  10.444 -0.4141 -0.6633  0.3674
 4252SOL    HW124389   3.661   2.381  10.350 -0.8665  0.0997  0.2370
 4252SOL    HW224390   3.588   2.313  10.464 -1.0665 -0.2840 -0.0887
 4253SOL     OW24391   4.067   0.654   9.028  0.1775  0.1877  0.2129
 4253SOL    HW124392   4.079   0.720   8.960  1.2173  0.0242  0.2313
 4253SOL    HW224393   4.149   0.603   9.026  0.1336  0.1183  0.1746
 4254SOL     OW24394   0.244   0.063   6.644 -0.5963  0.4416 -0.3023
 4254SOL    HW124395   0.322   0.018   6.675 -0.9902  0.2593  0.4315
 4254SOL    HW224396   0.172   0.032   6.699 -0.2707  1.0758  0.4811
 4255SOL     OW24397   1.683   1.047   3.806 -0.9230  0.4644 -1.2362
 4255SOL    HW124398   1.724   1.118   3.856  0.3416 -1.1284 -0.0110
 4255SOL    HW224399   1.595   1.083   3.818 -0.8265  0.4366 -0.4346
 4256SOL     OW24400   0.470   2.820   6.392 -0.3779 -0.0577 -0.0699
 4256SOL    HW124401   0.466   2.878   6.316 -2.5650  0.7092  0.6104
 4256SOL    HW224402   0.565   2.806   6.385 -0.1458  1.2958  0.3739
 4257SOL     OW24403   4.083   2.672  16.895  0.2204 -0.2696  0.4165
 4257SOL    HW124404   4.021   2.709  16.832 -1.0660 -1.2494  1.1346
 4257SOL    HW224405   4.087   2.751  16.949  1.4995  0.6425 -0.9990
 4258SOL     OW24406   0.865   3.532  14.651  0.5389 -0.6292 -0.1978
 4258SOL    HW124407   0.918   3.611  14.663 -2.3977  1.4220 -0.7847
 4258SOL    HW224408   0.787   3.580  14.680  0.5563 -1.7151  1.6716
 4259SOL     OW24409   0.594   0.422   4.438  0.0088 -0.1384 -0.0282
 4259SOL    HW124410   0.657   0.436   4.509 -0.1379  0.2371  0.0246
 4259SOL    HW224411   0.517   0.398   4.489  0.7870 -1.3032  0.6175
 4260SOL     OW24412   0.281   0.845   9.658 -0.6289 -0.1188 -0.2617
 4260SOL    HW124413   0.322   0.759   9.657  0.1041  0.2723 -2.1361
 4260SOL    HW224414   0.347   0.904   9.693 -0.6389  0.4369 -1.1877
 4261SOL     OW24415   0.871   3.216  12.631 -0.4848  0.2140 -0.3889
 4261SOL    HW124416   0.958   3.234  12.596 -0.6273  2.3258  0.3569
 4261SOL    HW224417   0.869   3.121  12.640 -2.1606  0.1556 -1.2162
 4262SOL     OW24418   0.659   4.076   9.429  0.0869  0.1677  0.0689
 4262SOL    HW124419   0.674   4.112   9.516 -5.0444 -0.7276  1.3690
 4262SOL    HW224420   0.605   3.999   9.446  0.7636 -0.2222  0.4028
 4263SOL     OW24421   2.423   4.353   8.049  0.4275 -0.3347 -0.3163
 4263SOL    HW124422   2.461   4.368   8.136  1.7534 -1.0025 -0.7823
 4263SOL    HW224423   2.425   4.257   8.039 -0.4538 -0.3616 -0.3009
 4264SOL     OW24424   2.899   0.645   5.747  0.2445  0.2084  0.0953
 4264SOL    HW124425   2.876   0.593   5.823 -2.0019 -1.3022 -1.6093
 4264SOL    HW224426   2.837   0.620   5.677  0.6726  0.7403 -0.4780
 4265SOL     OW24427   0.842   2.805   2.543  0.1441 -0.0538  0.2997
 4265SOL    HW124428   0.925   2.762   2.565 -1.2961 -2.8228  0.3452
 4265SOL    HW224429   0.846   2.873   2.610  0.4428 -0.7085  0.9511
 4266SOL     OW24430   1.862   0.410   0.003  0.2527 -0.1826 -0.3675
 4266SOL    HW124431   1.952   0.438   0.021  0.3067 -1.1511  0.8957
 4266SOL    HW224432   1.848   0.359   0.083  0.0848  1.5903  0.7571
 4267SOL     OW24433   2.372   1.696  16.884  0.0644  0.8602 -0.9423
 4267SOL    HW124434   2.393   1.620  16.830 -0.7713  0.6874 -1.0179
 4267SOL    HW224435   2.422   1.668  16.961 -2.7236  0.6721  0.7667
 4268SOL     OW24436   0.730   0.741   6.225  0.4384  0.4023  0.3830
 4268SOL    HW124437   0.781   0.750   6.305  0.2208 -2.6208  0.8566
 4268SOL    HW224438   0.727   0.831   6.192 -0.9185  0.0181 -0.5291
 4269SOL     OW24439   0.516   3.683  16.144 -0.1949 -0.5380 -0.3104
 4269SOL    HW124440   0.584   3.639  16.093 -0.1628  0.9125 -1.5367
 4269SOL    HW224441   0.441   3.639  16.104  0.7523 -2.2809 -0.1684
 4270SOL     OW24442   2.987   4.349  13.953 -0.8182 -0.1925  0.1623
 4270SOL    HW124443   2.907   4.321  13.997 -1.7052  1.7246 -0.2202
 4270SOL    HW224444   2.984   4.445  13.960 -0.2183 -0.3267  2.1648
 4271SOL     OW24445   4.481   1.035   4.464  0.7662  0.6773 -0.3056
 4271SOL    HW124446   4.575   1.045   4.480  1.0412 -1.1059 -0.8388
 4271SOL    HW224447   4.439   1.078   4.538  0.8356  0.9095 -0.4002
 4272SOL     OW24448   0.498   0.500   3.359  0.7513 -0.5109 -0.8431
 4272SOL    HW124449   0.483   0.486   3.452 -2.3130  1.1640 -1.1116
 4272SOL    HW224450   0.519   0.592   3.369  2.0315 -0.8323 -0.5000
 4273SOL     OW24451   2.708   1.308  15.496 -0.2265 -0.2816  0.3117
 4273SOL    HW124452   2.664   1.297  15.412 -0.5615 -1.4560  0.6488
 4273SOL    HW224453   2.759   1.228  15.504  1.1443  0.7627  2.2583
 4274SOL     OW24454   3.437   4.352   5.150  0.3160  0.4768  0.0809
 4274SOL    HW124455   3.440   4.411   5.075  0.5086  1.2050  0.6532
 4274SOL    HW224456   3.345   4.329   5.163 -0.3122  2.0134 -1.6982
 4275SOL     OW24457   4.082   3.954  16.541 -0.3757  0.8628  0.1006
 4275SOL    HW124458   4.046   4.020  16.482 -0.8731 -1.7439 -2.5492
 4275SOL    HW224459   4.002   3.917  16.578 -0.7408  1.2437 -0.3033
 4276SOL     OW24460   1.790   0.377   8.927  0.8518  0.3083  0.2988
 4276SOL    HW124461   1.714   0.326   8.899  2.2282 -0.3858 -2.2805
 4276SOL    HW224462   1.753   0.453   8.971 -0.4686  0.8748 -1.7944
 4277SOL     OW24463   3.213   2.159  10.469  0.6969  0.1898 -0.4133
 4277SOL    HW124464   3.134   2.211  10.483  0.6401 -0.6044  2.2625
 4277SOL    HW224465   3.178   2.085  10.420  1.2392  0.9887 -1.9795
 4278SOL     OW24466   2.169   4.656   2.388  0.3993 -0.3147 -0.3049
 4278SOL    HW124467   2.156   0.002   2.432  0.5478 -0.8697  0.7892
 4278SOL    HW224468   2.261   4.645   2.366  0.4282 -2.6846  1.0949
 4279SOL     OW24469   4.115   3.318   9.563 -0.0305  0.0092 -0.4046
 4279SOL    HW124470   4.085   3.243   9.512 -0.9615 -0.8338  1.3609
 4279SOL    HW224471   4.057   3.390   9.538 -0.3416 -1.1861 -3.1338
 4280SOL     OW24472   2.248   1.150   9.472 -0.4293  0.2165 -0.6045
 4280SOL    HW124473   2.192   1.095   9.417  0.4596 -1.3486  0.0643
 4280SOL    HW224474   2.328   1.100   9.454 -0.9064 -1.7689  2.6150
 4281SOL     OW24475   1.438   2.890   8.738  0.7477  0.0078 -0.5127
 4281SOL    HW124476   1.502   2.935   8.683  1.0567  0.7994  0.4988
 4281SOL    HW224477   1.417   2.965   8.794 -1.2748 -0.7931 -0.1664
 4282SOL     OW24478   0.235   2.144  15.796  0.3169 -0.7578  0.4087
 4282SOL    HW124479   0.328   2.163  15.801 -0.2278  2.8666 -3.4467
 4282SOL    HW224480   0.199   2.232  15.784 -0.4428 -0.6990  3.1531
 4283SOL     OW24481   3.936   0.755   6.172  0.1561  0.7001 -0.0665
 4283SOL    HW124482   3.846   0.738   6.198  0.2037 -0.8414 -0.9127
 4283SOL    HW224483   3.930   0.704   6.091  0.0524 -1.0098  1.0084
 4284SOL     OW24484   0.637   4.237   2.860 -0.1603 -0.0985 -0.3538
 4284SOL    HW124485   0.673   4.314   2.905 -0.7021  2.7067 -4.6935
 4284SOL    HW224486   0.656   4.270   2.772 -1.9078  0.4262 -0.5378
 4285SOL     OW24487   1.701   0.836   7.086 -0.5256  0.1169 -0.1823
 4285SOL    HW124488   1.679   0.846   6.994 -1.4390 -0.1314  0.0008
 4285SOL    HW224489   1.620   0.870   7.125 -0.5208  0.9540 -0.9162
 4286SOL     OW24490   3.087   2.548   5.172  0.0275 -0.4050 -0.0883
 4286SOL    HW124491   3.121   2.576   5.257 -0.2065 -0.5567  0.0553
 4286SOL    HW224492   3.169   2.550   5.122 -0.3936 -0.2090 -0.7809
 4287SOL     OW24493   1.366   3.685   7.794  0.2056  0.1385  0.4317
 4287SOL    HW124494   1.354   3.691   7.889  0.3287 -0.7153  0.5025
 4287SOL    HW224495   1.458   3.708   7.781  0.5113 -0.8377  0.8181
 4288SOL     OW24496   3.165   1.031   5.773  0.1043  0.6532 -0.6564
 4288SOL    HW124497   3.210   0.956   5.733 -0.8469  0.5853 -1.6209
 4288SOL    HW224498   3.233   1.097   5.763 -0.2153  0.9941 -0.5803
 4289SOL     OW24499   1.604   0.967   5.356  0.0883 -0.1470  0.0853
 4289SOL    HW124500   1.692   0.968   5.319 -0.7745  0.1207 -1.9269
 4289SOL    HW224501   1.561   1.026   5.295 -1.7465  0.4387  1.9229
 4290SOL     OW24502   1.252   2.938   5.309 -0.0264 -0.3264  0.2635
 4290SOL    HW124503   1.202   2.956   5.230  2.4651 -1.1338 -1.4912
 4290SOL    HW224504   1.341   2.922   5.276 -0.4683  0.6482 -1.3610
 4291SOL     OW24505   1.130   4.016   0.355  0.1757 -0.3930 -0.3196
 4291SOL    HW124506   1.157   4.046   0.442 -1.8105  0.9138 -0.1640
 4291SOL    HW224507   1.184   3.938   0.346 -0.2555 -0.6860 -0.3791
 4292SOL     OW24508   3.210   4.519   8.028  0.8146  0.0164  0.2371
 4292SOL    HW124509   3.269   4.443   8.035  2.2598  1.2661  1.5703
 4292SOL    HW224510   3.216   4.554   8.117 -0.1672  0.0888  0.2703
 4293SOL     OW24511   4.566   4.042   2.521  0.3258 -0.5748  0.3432
 4293SOL    HW124512   4.543   3.958   2.561  0.4163  0.0882  1.7882
 4293SOL    HW224513   4.620   4.082   2.589 -1.2919 -1.8240  2.3817
 4294SOL     OW24514   1.046   0.627  16.849 -0.1981 -0.0809 -0.0263
 4294SOL    HW124515   0.988   0.621  16.925  0.0854 -1.2381  0.0889
 4294SOL    HW224516   1.047   0.540  16.810 -0.5458 -0.9416  1.8865
 4295SOL     OW24517   3.499   3.990   2.137 -0.1846  0.3404 -0.8864
 4295SOL    HW124518   3.467   3.974   2.226  0.3414  0.3383 -0.6968
 4295SOL    HW224519   3.592   3.969   2.144 -0.5205 -1.3132 -1.2653
 4296SOL     OW24520   0.944   2.346   1.113  0.0688  0.5523 -0.4189
 4296SOL    HW124521   0.887   2.397   1.171 -0.8896 -0.4475 -0.4772
 4296SOL    HW224522   0.902   2.372   1.031  1.6546 -0.2220 -1.4724
 4297SOL     OW24523   0.218   2.038   4.386 -0.5871 -0.1640  0.7339
 4297SOL    HW124524   0.270   2.022   4.464  2.3612  0.6651 -1.0514
 4297SOL    HW224525   0.246   1.967   4.327 -1.4905  0.5409 -0.5452
 4298SOL     OW24526   3.052   0.653   9.179 -0.2601 -0.0531 -0.8110
 4298SOL    HW124527   3.009   0.679   9.260 -0.9589  1.6761 -1.7363
 4298SOL    HW224528   2.970   0.621   9.141 -0.0795  0.1862 -1.3981
 4299SOL     OW24529   2.690   3.094   9.808 -0.4297 -0.1530 -0.8119
 4299SOL    HW124530   2.751   3.042   9.755 -1.4304 -0.3559 -1.7532
 4299SOL    HW224531   2.643   3.139   9.738  0.9672  0.3274 -1.4412
 4300SOL     OW24532   3.732   0.617   6.255 -0.1141  0.5066 -0.4376
 4300SOL    HW124533   3.728   0.527   6.221  1.1866  0.5492 -0.7204
 4300SOL    HW224534   3.638   0.630   6.261  0.0445  1.2629  0.4523
 4301SOL     OW24535   4.411   1.452   1.894 -0.6691  0.1445 -0.2849
 4301SOL    HW124536   4.360   1.397   1.954  0.8130 -0.3137  0.5528
 4301SOL    HW224537   4.363   1.446   1.811  0.3373 -2.1907 -0.7092
 4302SOL     OW24538   0.297   4.720   9.471 -0.1603 -0.1012  0.3363
 4302SOL    HW124539   0.344   0.013   9.548  0.5678 -0.8447  0.1833
 4302SOL    HW224540   0.319   0.053   9.410  2.0923  1.1597  2.6628
 4303SOL     OW24541   4.563   0.210   6.984  0.1220  0.6751  0.3561
 4303SOL    HW124542   4.482   0.170   6.955 -0.1967  1.2880  0.4104
 4303SOL    HW224543   4.561   0.300   6.952  0.7421  0.6662  0.2791
 4304SOL     OW24544   2.692   1.233   4.892  0.5856  0.0294  0.0539
 4304SOL    HW124545   2.654   1.319   4.872 -1.1446 -0.3480  1.7414
 4304SOL    HW224546   2.783   1.252   4.869  0.7880 -2.5438 -1.2365
 4305SOL     OW24547   2.062   1.325   7.778  0.0887  0.7374  0.1289
 4305SOL    HW124548   2.156   1.329   7.760  0.0024  0.2610 -0.4338
 4305SOL    HW224549   2.030   1.307   7.689 -0.1686  1.1890  0.1301
 4306SOL     OW24550   0.743   2.261   9.483  0.4878  0.3276  0.9753
 4306SOL    HW124551   0.668   2.201   9.479  0.8231 -0.0719  0.6481
 4306SOL    HW224552   0.826   2.226   9.452 -0.2198  1.0592 -1.8083
 4307SOL     OW24553   1.349   1.593   0.362 -0.0031 -0.1509 -0.0811
 4307SOL    HW124554   1.354   1.682   0.396 -0.2087  0.5991 -2.0134
 4307SOL    HW224555   1.420   1.545   0.404  0.3169 -0.8632 -1.4106
 4308SOL     OW24556   3.440   3.448  15.111 -0.5747 -0.0894 -0.5770
 4308SOL    HW124557   3.421   3.357  15.135  2.7478 -0.9626 -1.3051
 4308SOL    HW224558   3.444   3.448  15.015 -1.6472 -1.2791 -0.6207
 4309SOL     OW24559   1.893   1.493   7.880 -0.0072  0.3946  0.4019
 4309SOL    HW124560   1.821   1.463   7.824 -0.5096  1.8635  0.2708
 4309SOL    HW224561   1.965   1.432   7.860 -0.2654 -0.2589  1.4646
 4310SOL     OW24562   2.344   0.969  15.764  0.0914 -0.6094  0.0317
 4310SOL    HW124563   2.439   0.958  15.760 -0.2505 -2.9209 -2.0456
 4310SOL    HW224564   2.336   1.004  15.675 -1.4515 -0.6299  0.1579
 4311SOL     OW24565   0.257   4.198  14.678 -0.2214 -0.3212 -0.2631
 4311SOL    HW124566   0.342   4.200  14.721 -1.5119  0.2397  2.2825
 4311SOL    HW224567   0.285   4.173  14.590 -0.0633  0.7030 -0.5131
 4312SOL     OW24568   0.516   1.767   6.687 -0.1059  0.1488 -0.0736
 4312SOL    HW124569   0.426   1.735   6.698 -0.0462 -0.1776 -0.5524
 4312SOL    HW224570   0.507   1.848   6.737  0.2609  0.8962 -1.2358
 4313SOL     OW24571   4.720   0.029   6.772 -0.3890  0.1314  0.4973
 4313SOL    HW124572   4.719   0.024   6.867 -0.8417  1.3668  0.5659
 4313SOL    HW224573   4.714   0.125   6.767  0.6353  0.0596 -2.1927
 4314SOL     OW24574   0.430   3.919  11.737  0.4750  0.4229  0.5992
 4314SOL    HW124575   0.515   3.945  11.772  0.8959  0.8289 -0.7266
 4314SOL    HW224576   0.384   4.003  11.729 -0.5478 -0.1965  0.0239
 4315SOL     OW24577   4.567   0.836   9.667 -0.3303 -0.4367  0.1913
 4315SOL    HW124578   4.656   0.816   9.698  0.3188 -0.5388 -1.7452
 4315SOL    HW224579   4.599   0.876   9.586 -1.7939  0.0281 -0.1524
 4316SOL     OW24580   0.406   0.608  15.967  0.5675 -0.0869 -0.1062
 4316SOL    HW124581   0.356   0.543  16.017  0.1212 -1.5819 -2.4679
 4316SOL    HW224582   0.447   0.549  15.903  0.6053 -0.4183  0.2229
 4317SOL     OW24583   3.662   3.350   5.229  0.0129 -0.1627  0.2528
 4317SOL    HW124584   3.615   3.318   5.306 -2.9715  3.0283 -0.2730
 4317SOL    HW224585   3.650   3.274   5.172 -1.9089  1.1216 -1.0315
 4318SOL     OW24586   0.784   1.665   7.969 -0.2579  0.0864 -0.2486
 4318SOL    HW124587   0.801   1.625   8.054 -1.3816 -0.5206 -0.3034
 4318SOL    HW224588   0.691   1.643   7.970 -0.7325  2.1255  0.2591
 4319SOL     OW24589   4.479   2.757   4.553  0.1146  0.5685 -0.5550
 4319SOL    HW124590   4.425   2.800   4.619  0.6798 -0.1277  0.3526
 4319SOL    HW224591   4.536   2.830   4.530 -1.0652  0.8689 -2.5138
 4320SOL     OW24592   4.300   2.514  11.014 -0.0707  0.0792  0.1105
 4320SOL    HW124593   4.351   2.549  11.087 -1.9938  1.4501  0.7930
 4320SOL    HW224594   4.212   2.531  11.048  0.2018 -2.9828  2.3237
 4321SOL     OW24595   0.525   0.601   5.726 -0.3988 -0.4685 -0.5171
 4321SOL    HW124596   0.532   0.598   5.631  0.5076 -0.4367 -0.4517
 4321SOL    HW224597   0.467   0.528   5.749 -0.5690  0.5757  2.4116
 4322SOL     OW24598   3.714   1.291  15.666  0.7350 -0.1049  0.1027
 4322SOL    HW124599   3.668   1.277  15.749 -0.6427 -0.0512 -0.6574
 4322SOL    HW224600   3.723   1.207  15.621 -1.9041  0.2862 -1.1727
 4323SOL     OW24601   3.252   1.127   4.121 -0.0899  0.4129 -0.0687
 4323SOL    HW124602   3.217   1.151   4.206 -2.1799 -1.2121 -0.4852
 4323SOL    HW224603   3.335   1.083   4.140  0.8671  2.8705  1.3887
 4324SOL     OW24604   2.855   3.724   3.555 -0.1625  0.3262 -0.6201
 4324SOL    HW124605   2.939   3.721   3.510  0.4071  0.6332  0.4147
 4324SOL    HW224606   2.879   3.721   3.647 -1.0202 -0.4566 -0.4223
 4325SOL     OW24607   1.490   4.362   6.395 -0.7552  0.1760 -0.2071
 4325SOL    HW124608   1.407   4.326   6.364 -1.5315  1.9344 -0.2095
 4325SOL    HW224609   1.455   4.438   6.443  1.1934  1.2621 -0.5083
 4326SOL     OW24610   4.211   1.052   5.568  0.0455  0.2535  0.2109
 4326SOL    HW124611   4.154   1.115   5.524  2.1720  1.9018 -0.2281
 4326SOL    HW224612   4.155   0.976   5.583 -0.6340  0.2736 -2.2659
 4327SOL     OW24613   4.548   4.207   0.273 -0.1122 -0.1451  0.1850
 4327SOL    HW124614   4.624   4.151   0.257  0.1868 -0.3010  2.1775
 4327SOL    HW224615   4.534   4.192   0.366 -0.2460  1.0375  0.3584
 4328SOL     OW24616   1.959   4.237   4.332  0.7795 -0.2347 -0.4047
 4328SOL    HW124617   1.975   4.295   4.258  0.9003  1.3843  0.8864
 4328SOL    HW224618   1.883   4.280   4.369  0.0752  0.2412 -2.4066
 4329SOL     OW24619   1.398   4.474   3.398 -0.0360 -0.1392  0.2627
 4329SOL    HW124620   1.392   4.534   3.472  0.3338 -1.3107  1.2459
 4329SOL    HW224621   1.361   4.396   3.440 -2.8358 -0.2153 -2.3557
 4330SOL     OW24622   4.591   3.689  10.826 -0.5622  0.3303 -0.4776
 4330SOL    HW124623   4.586   3.600  10.861  1.4674  0.2931 -0.3005
 4330SOL    HW224624   4.648   3.669  10.752 -0.8205 -1.2340 -0.2654
 4331SOL     OW24625   1.051   2.236   2.928 -0.5786  0.4554  0.4244
 4331SOL    HW124626   1.028   2.325   2.954 -0.8552  0.6938 -0.6524
 4331SOL    HW224627   0.978   2.219   2.869 -0.8419 -1.0483  1.1676
 4332SOL     OW24628   0.294   2.156   5.971 -0.5992 -0.0378 -0.5910
 4332SOL    HW124629   0.260   2.164   5.882 -0.7655 -0.1459 -0.5370
 4332SOL    HW224630   0.217   2.171   6.027 -0.7581  1.8918 -1.3005
 4333SOL     OW24631   0.846   1.352   8.087 -0.6148  0.2917 -0.2115
 4333SOL    HW124632   0.875   1.421   8.147 -0.2328 -0.4894  0.5021
 4333SOL    HW224633   0.757   1.339   8.121 -0.1982 -0.0932  0.7408
 4334SOL     OW24634   4.297   4.567   3.492  0.0185  0.5305 -0.2237
 4334SOL    HW124635   4.355   4.518   3.550 -1.3560 -0.5898  0.2241
 4334SOL    HW224636   4.213   4.544   3.534  2.4469  1.2513  5.1070
 4335SOL     OW24637   3.832   1.528  17.211 -0.5634  0.5602 -0.3633
 4335SOL    HW124638   3.742   1.551  17.234 -0.9422 -0.3286 -0.9813
 4335SOL    HW224639   3.842   1.439  17.244 -0.0559  0.7063 -0.1170
 4336SOL     OW24640   0.637   2.934   4.758  0.3768  0.2117 -0.2383
 4336SOL    HW124641   0.592   2.991   4.821 -0.6698 -0.1272 -0.6799
 4336SOL    HW224642   0.651   2.861   4.818 -1.2807  0.7126  0.7319
 4337SOL     OW24643   1.626   1.203  16.404  0.0678 -0.2523  0.6889
 4337SOL    HW124644   1.563   1.204  16.332  1.9179  1.9445 -0.9239
 4337SOL    HW224645   1.588   1.253  16.476 -2.8800 -0.1910 -0.9093
 4338SOL     OW24646   1.653   4.072   4.027  0.0389 -0.1711 -0.0371
 4338SOL    HW124647   1.661   4.011   3.953  1.2324  1.0212 -0.8841
 4338SOL    HW224648   1.690   4.021   4.099  0.5904 -0.3257 -0.4248
 4339SOL     OW24649   2.791   2.905   5.622 -0.2440  0.0975 -0.0883
 4339SOL    HW124650   2.698   2.883   5.624 -0.2172 -0.0164 -0.1055
 4339SOL    HW224651   2.791   2.981   5.681 -0.4446  0.3041 -0.3546
 4340SOL     OW24652   1.484   1.822   5.010  0.1419  0.2459  0.2776
 4340SOL    HW124653   1.447   1.827   5.098 -1.7406 -1.3001 -0.4286
 4340SOL    HW224654   1.573   1.789   5.027 -0.4261  0.0331  2.8898
 4341SOL     OW24655   1.450   4.171   0.756 -0.1007 -0.1562 -0.0837
 4341SOL    HW124656   1.399   4.146   0.678 -1.4905 -0.0669  0.8003
 4341SOL    HW224657   1.456   4.265   0.741 -0.4943  0.0519  1.1330
 4342SOL     OW24658   4.544   2.978  16.101 -0.4441 -0.3329 -0.0784
 4342SOL    HW124659   4.518   3.058  16.055  1.3986 -0.8065 -1.9221
 4342SOL    HW224660   4.459   2.935  16.098 -1.3100  1.1743  2.4469
 4343SOL     OW24661   1.800   4.102   4.878 -0.0741  0.1997 -0.9142
 4343SOL    HW124662   1.889   4.068   4.875 -0.0196  0.0805  2.1810
 4343SOL    HW224663   1.758   4.031   4.927  4.5362 -0.9901  1.2862
 4344SOL     OW24664   2.062   2.336  12.946 -0.5168 -0.0714  0.3122
 4344SOL    HW124665   2.074   2.380  12.862 -0.3426 -0.0106  0.3680
 4344SOL    HW224666   2.004   2.267  12.915  1.2094 -0.6660 -1.5677
 4345SOL     OW24667   4.326   3.150   4.350  0.4371  0.0467  0.1978
 4345SOL    HW124668   4.354   3.062   4.375  0.5267 -0.2757 -1.0676
 4345SOL    HW224669   4.233   3.150   4.371  0.0987 -0.5941 -1.3350
 4346SOL     OW24670   3.666   2.543   6.324  0.7653  0.3194  0.2138
 4346SOL    HW124671   3.635   2.457   6.351  2.9264 -0.6627 -0.5236
 4346SOL    HW224672   3.723   2.573   6.395  2.2314 -0.8422 -0.4813
 4347SOL     OW24673   0.515   3.712  11.019  0.5904  0.4510 -0.7511
 4347SOL    HW124674   0.559   3.755  11.092  0.4808 -0.6562 -0.0261
 4347SOL    HW224675   0.424   3.693  11.043  0.4795  3.5280  1.1502
 4348SOL     OW24676   1.436   2.564   4.164  0.3082 -0.1885  0.0484
 4348SOL    HW124677   1.409   2.553   4.073 -2.5572  0.0759  0.8565
 4348SOL    HW224678   1.509   2.502   4.167  0.2531 -0.2043  1.1545
 4349SOL     OW24679   1.792   4.159   6.308  0.0749  0.5438 -0.6297
 4349SOL    HW124680   1.874   4.203   6.284  1.1372 -0.0359  2.0289
 4349SOL    HW224681   1.777   4.113   6.225 -0.8782 -0.5071  0.1279
 4350SOL     OW24682   4.403   0.183  13.924  0.6375  0.6381 -0.0136
 4350SOL    HW124683   4.439   0.118  13.984 -0.3165  0.6874  0.6134
 4350SOL    HW224684   4.330   0.217  13.976  0.9336 -0.4203  1.0875
 4351SOL     OW24685   0.459   0.579  10.791 -0.2727  0.1350  0.3615
 4351SOL    HW124686   0.455   0.597  10.885  0.7367  2.3853 -0.0320
 4351SOL    HW224687   0.380   0.630  10.774  0.5334  0.5890 -1.9868
 4352SOL     OW24688   1.534   0.867   1.770 -0.1499  0.2076  0.7153
 4352SOL    HW124689   1.623   0.838   1.747 -0.9000 -2.5067  1.1788
 4352SOL    HW224690   1.520   0.796   1.834 -0.9556 -0.2653  0.0085
 4353SOL     OW24691   2.121   2.124   1.600  0.4530 -0.2675  0.2074
 4353SOL    HW124692   2.214   2.102   1.613  1.0899  0.8727 -2.2401
 4353SOL    HW224693   2.081   2.042   1.570  1.6178 -1.2987  1.4438
 4354SOL     OW24694   1.532   0.888   6.856  0.7079 -0.0503 -0.1446
 4354SOL    HW124695   1.471   0.854   6.921  0.2485 -1.8656 -1.5270
 4354SOL    HW224696   1.520   0.817   6.793 -1.2589 -0.3148  0.5495
 4355SOL     OW24697   2.295   0.429   8.052  0.1188  0.0323  0.0903
 4355SOL    HW124698   2.335   0.457   7.969 -0.8472 -0.4317 -0.5279
 4355SOL    HW224699   2.264   0.506   8.099  2.6444  0.9752  0.2244
 4356SOL     OW24700   4.109   3.997   5.508 -0.4008  0.0433 -0.2558
 4356SOL    HW124701   4.177   4.011   5.575 -1.1860  0.4749  0.4522
 4356SOL    HW224702   4.128   3.905   5.487  0.9178  0.4351 -0.7649
 4357SOL     OW24703   3.148   2.714   8.976 -0.1853 -0.0745 -0.1838
 4357SOL    HW124704   3.055   2.696   8.969 -0.2555  0.4011 -0.4364
 4357SOL    HW224705   3.187   2.656   8.911 -0.9619 -0.9514  0.1383
 4358SOL     OW24706   4.194   3.877   3.237  0.3234 -0.6870 -0.0661
 4358SOL    HW124707   4.232   3.946   3.291  0.3733 -1.3622  0.7597
 4358SOL    HW224708   4.257   3.877   3.165  1.6463 -1.4887  1.0976
 4359SOL     OW24709   1.428   2.772   8.485 -0.4215 -0.2021  0.1578
 4359SOL    HW124710   1.434   2.810   8.573 -0.4537 -2.0049  0.9540
 4359SOL    HW224711   1.463   2.683   8.498  4.0282  1.5076  0.0398
 4360SOL     OW24712   3.868   0.528   8.804  0.1116  0.4837  0.3131
 4360SOL    HW124713   3.791   0.573   8.838 -0.7537 -0.1528 -0.8373
 4360SOL    HW224714   3.942   0.590   8.811  1.9911 -1.6656 -0.5280
 4361SOL     OW24715   0.976   2.078   8.434  0.0290  0.2244  0.0625
 4361SOL    HW124716   1.039   2.116   8.495  0.7980 -1.5263  0.3584
 4361SOL    HW224717   1.030   2.073   8.355  0.3835 -0.9069  0.3736
 4362SOL     OW24718   1.136   3.982   1.602  0.0799  0.0320  0.0267
 4362SOL    HW124719   1.160   4.038   1.529 -0.2813  0.2563  0.0848
 4362SOL    HW224720   1.142   3.893   1.565  1.7374  0.5896 -1.0687
 4363SOL     OW24721   2.384   2.314   5.127 -0.2417 -0.0655  0.4709
 4363SOL    HW124722   2.441   2.286   5.056  0.4650  0.7717  0.7006
 4363SOL    HW224723   2.401   2.258   5.203  1.7352 -0.1422 -0.0368
 4364SOL     OW24724   1.816   0.887   5.941  0.1595 -0.1894 -0.8363
 4364SOL    HW124725   1.827   0.834   5.862  0.4173  0.7644 -1.4401
 4364SOL    HW224726   1.738   0.846   5.977 -0.5231  0.4974 -1.5118
 4365SOL     OW24727   2.040   0.364   2.855 -0.6521 -0.3877  0.1842
 4365SOL    HW124728   2.007   0.274   2.861 -0.0623 -0.6083  0.0711
 4365SOL    HW224729   2.118   0.345   2.802 -0.4929 -1.0099  0.6388
 4366SOL     OW24730   4.673   4.725   4.328  0.4479 -0.2065  0.2709
 4366SOL    HW124731   4.618   4.686   4.260  1.4314 -0.1619 -0.5306
 4366SOL    HW224732   0.025   4.707   4.300  0.0449  2.1798 -2.5861
 4367SOL     OW24733   1.223   4.231   5.087  0.3805 -0.7123 -0.0456
 4367SOL    HW124734   1.140   4.260   5.049  0.9473 -1.1070 -1.6138
 4367SOL    HW224735   1.252   4.177   5.013 -0.1501 -1.3262  0.2049
 4368SOL     OW24736   3.833   0.284  17.377  0.2868  0.2305 -0.2686
 4368SOL    HW124737   3.814   0.208  17.322  1.9492  0.2719 -0.9054
 4368SOL    HW224738   3.927   0.293  17.359 -0.1023  0.8413 -1.9821
 4369SOL     OW24739   2.156   1.283   8.341 -0.4648  0.5729  0.0994
 4369SOL    HW124740   2.250   1.288   8.358 -0.4077 -3.6855  1.0489
 4369SOL    HW224741   2.151   1.229   8.262 -1.2637 -0.3827  0.8106
 4370SOL     OW24742   3.938   2.762   9.342 -0.0870  0.2051 -0.1237
 4370SOL    HW124743   4.005   2.821   9.306  1.8134 -1.8314  0.0569
 4370SOL    HW224744   3.923   2.796   9.431 -0.9781  0.0824 -0.2349
 4371SOL     OW24745   1.294   3.442   4.225  0.0245  0.2540  0.0396
 4371SOL    HW124746   1.297   3.420   4.131 -1.4327  3.2336 -0.6910
 4371SOL    HW224747   1.285   3.353   4.259  2.0957  0.0053 -0.0482
 4372SOL     OW24748   1.514   0.057   6.713  0.1142  0.3022 -0.1018
 4372SOL    HW124749   1.553   0.134   6.671 -1.7644  1.9558  1.1857
 4372SOL    HW224750   1.424   0.085   6.731 -0.2363 -0.5091 -0.5799
 4373SOL     OW24751   2.664   0.670  13.258  0.5186 -0.3720 -0.5380
 4373SOL    HW124752   2.674   0.616  13.337  0.0719 -1.3710 -1.1622
 4373SOL    HW224753   2.568   0.669  13.252  0.3926  1.7447  1.1680
 4374SOL     OW24754   0.126   4.126  11.262  0.0143  0.0371  0.1033
 4374SOL    HW124755   0.161   4.115  11.350  0.1933  0.3294  0.0716
 4374SOL    HW224756   0.152   4.053  11.206  2.8973  1.2863 -0.1792
 4375SOL     OW24757   1.725   3.126   8.016  0.3243 -0.0136  0.4052
 4375SOL    HW124758   1.804   3.081   8.046 -0.7371 -1.5390  0.9089
 4375SOL    HW224759   1.702   3.100   7.927  0.0676  0.6911  0.2684
 4376SOL     OW24760   4.288   4.635   8.664 -0.0171  0.6051  0.5661
 4376SOL    HW124761   4.284   4.701   8.595 -2.5864 -0.1132  0.0090
 4376SOL    HW224762   4.383   4.631   8.672  0.0201  0.0960 -0.1420
 4377SOL     OW24763   2.250   1.006   4.017 -0.1000 -0.4661  0.0844
 4377SOL    HW124764   2.195   0.935   4.051  1.1817 -1.8084 -0.6293
 4377SOL    HW224765   2.192   1.034   3.947 -1.5316 -0.7482  1.1517
 4378SOL     OW24766   4.164   0.407   5.716 -0.3441  0.1893 -0.4549
 4378SOL    HW124767   4.197   0.342   5.778 -4.9069 -0.1538  1.6163
 4378SOL    HW224768   4.159   0.476   5.782  0.5336  1.7883 -2.0565
 4379SOL     OW24769   4.007   2.308   6.232 -0.1114  0.9648  0.0174
 4379SOL    HW124770   4.008   2.303   6.328  1.1043 -0.8807 -0.0871
 4379SOL    HW224771   4.093   2.339   6.202 -0.1591 -0.9488 -2.0581
 4380SOL     OW24772   0.509   1.677   2.504  0.1493  0.0712 -0.0272
 4380SOL    HW124773   0.573   1.605   2.500  0.5504  0.5251 -1.9831
 4380SOL    HW224774   0.534   1.716   2.420 -0.3694  1.5876  0.5135
 4381SOL     OW24775   0.454   1.508   4.593 -0.4024 -0.7684  0.2771
 4381SOL    HW124776   0.522   1.443   4.609  1.5655  0.8293 -1.5797
 4381SOL    HW224777   0.496   1.583   4.636 -1.7316  0.6500 -0.9066
 4382SOL     OW24778   1.292   3.863  15.025  0.0000  0.5535  0.1260
 4382SOL    HW124779   1.297   3.780  14.979 -2.8647  0.5361 -0.1841
 4382SOL    HW224780   1.205   3.894  15.000  0.7511  1.9120 -0.8042
 4383SOL     OW24781   3.319   1.152   8.679  0.5698  0.2664  0.3085
 4383SOL    HW124782   3.326   1.106   8.762  0.8089 -0.2968 -0.0283
 4383SOL    HW224783   3.396   1.121   8.632  1.5741 -0.8112  2.6612
 4384SOL     OW24784   2.844   2.041  13.168  0.0738  0.3870  0.2154
 4384SOL    HW124785   2.916   2.104  13.177  1.0924 -0.7034 -0.3388
 4384SOL    HW224786   2.803   2.044  13.254 -1.9397 -1.4376 -0.6709
 4385SOL     OW24787   0.960   0.914   7.121 -0.6034 -0.7035 -0.2619
 4385SOL    HW124788   0.904   0.855   7.070 -0.6379 -2.6143  2.0304
 4385SOL    HW224789   1.001   0.860   7.188 -2.2577  1.3571  2.4069
 4386SOL     OW24790   4.477   0.317  16.797  0.5489 -0.3224  0.2887
 4386SOL    HW124791   4.471   0.330  16.892  0.7268 -0.8548  0.3732
 4386SOL    HW224792   4.395   0.360  16.775  1.8666  1.1297 -1.8122
 4387SOL     OW24793   3.845   1.326   6.323  0.5713  0.3869 -0.2116
 4387SOL    HW124794   3.808   1.385   6.257 -0.5188  0.5845  0.5803
 4387SOL    HW224795   3.939   1.322   6.307  0.3988 -0.0949 -1.1448
 4388SOL     OW24796   1.233   3.087   9.024  0.2964 -0.3148  0.2147
 4388SOL    HW124797   1.166   3.022   9.047 -0.8196 -0.3006 -2.9311
 4388SOL    HW224798   1.183   3.165   9.049 -0.9171 -1.7589  2.3369
 4389SOL     OW24799   3.122   2.186  14.153 -0.2801  0.1344 -0.1817
 4389SOL    HW124800   3.153   2.096  14.158  2.2559  1.0249  0.2646
 4389SOL    HW224801   3.124   2.215  14.062 -0.1826 -0.4712 -0.3682
 4390SOL     OW24802   2.160   0.507   8.383  0.1237 -0.1600  0.3479
 4390SOL    HW124803   2.222   0.541   8.318  0.3562  0.9670  1.1736
 4390SOL    HW224804   2.180   0.413   8.381 -0.4314 -0.2994  1.2734
 4391SOL     OW24805   3.686   1.096   4.050 -0.4711  0.0778 -0.2030
 4391SOL    HW124806   3.743   1.115   3.975 -0.2177 -2.8019 -0.7305
 4391SOL    HW224807   3.601   1.130   4.021 -0.9579 -1.3640 -0.4866
 4392SOL     OW24808   2.582   1.527  17.493  0.0934 -0.4686  0.7096
 4392SOL    HW124809   2.510   1.493  17.440  2.1585 -0.1038 -2.3204
 4392SOL    HW224810   2.550   1.524  17.583 -1.0040 -1.4709  0.2757
 4393SOL     OW24811   3.505   1.684   7.856 -0.3524  0.4675  0.0562
 4393SOL    HW124812   3.456   1.689   7.773 -3.6461  0.4763  2.0134
 4393SOL    HW224813   3.558   1.761   7.834 -0.9381 -0.3368 -4.3332
 4394SOL     OW24814   2.529   2.494   1.865 -0.1436 -0.1488  0.1049
 4394SOL    HW124815   2.490   2.412   1.895 -0.3381  0.3071  1.1169
 4394SOL    HW224816   2.549   2.466   1.776  0.0042 -0.1145  0.1275
 4395SOL     OW24817   4.075   3.992   2.730  0.3380 -0.5822 -0.1755
 4395SOL    HW124818   3.987   4.023   2.705  1.2439  0.4043 -2.1316
 4395SOL    HW224819   4.064   3.900   2.706  2.5696 -0.6067 -1.0574
 4396SOL     OW24820   3.330   2.923   6.069 -0.3715 -0.4473 -0.7224
 4396SOL    HW124821   3.361   2.939   6.158 -0.7916 -1.2874 -0.4261
 4396SOL    HW224822   3.327   3.012   6.034 -2.7488 -0.2125  0.0489
 4397SOL     OW24823   0.441   1.609  12.126  0.4926  0.2166  0.1622
 4397SOL    HW124824   0.498   1.574  12.195  0.7978 -1.0284 -0.7335
 4397SOL    HW224825   0.403   1.687  12.167 -1.2115 -0.0526 -0.9046
 4398SOL     OW24826   4.556   3.913   6.178 -0.2991  0.1811  0.0818
 4398SOL    HW124827   4.545   3.818   6.181  1.0845  0.0396  0.4414
 4398SOL    HW224828   4.591   3.931   6.266  1.6840 -0.5588 -0.5704
 4399SOL     OW24829   0.261   1.800   4.247 -0.2254  0.1009  0.1176
 4399SOL    HW124830   0.319   1.724   4.250  0.1890  0.4946  2.5890
 4399SOL    HW224831   0.174   1.760   4.249 -0.3585  0.3286 -1.0686
 4400SOL     OW24832   3.261   4.524   2.901  0.5868 -0.3819 -0.1412
 4400SOL    HW124833   3.278   4.590   2.968  2.1409 -0.9105  0.0020
 4400SOL    HW224834   3.166   4.514   2.910  0.5984  0.6142  1.0245
 4401SOL     OW24835   0.419   3.093   5.177 -0.0742  0.5743 -0.1648
 4401SOL    HW124836   0.363   3.017   5.160 -1.5184  1.5343  0.2914
 4401SOL    HW224837   0.498   3.071   5.129  0.0753  0.4920  0.1203
 4402SOL     OW24838   1.672   4.310   4.142  0.0775  0.6072  0.3881
 4402SOL    HW124839   1.612   4.353   4.081  1.7147  0.5556 -1.2637
 4402SOL    HW224840   1.681   4.225   4.100  0.0575  0.7558  0.0842
 4403SOL     OW24841   0.288   0.200  15.176 -0.2949  0.2677  0.4158
 4403SOL    HW124842   0.227   0.205  15.249  0.2475 -0.2362  0.9110
 4403SOL    HW224843   0.221   0.183  15.110 -0.6410 -0.8019  1.0322
 4404SOL     OW24844   2.108   3.660  14.118 -0.8720  0.3737 -0.1601
 4404SOL    HW124845   2.051   3.587  14.139 -0.7758  0.3731  0.0935
 4404SOL    HW224846   2.188   3.610  14.098 -2.7053 -3.2153  1.6693
 4405SOL     OW24847   0.052   0.751  14.141 -0.0937  0.1399 -0.4695
 4405SOL    HW124848   0.103   0.670  14.138 -0.7319 -0.3057  0.6293
 4405SOL    HW224849   0.099   0.806  14.205 -0.8696 -0.8107  0.9168
 4406SOL     OW24850   3.182   0.556  13.525 -0.6956 -0.1884 -0.0674
 4406SOL    HW124851   3.230   0.546  13.442 -0.4692 -1.6399  0.2431
 4406SOL    HW224852   3.245   0.517  13.585 -0.6275 -1.7770 -1.1613
 4407SOL     OW24853   3.586   2.811   7.709  0.5618 -0.7876  0.0233
 4407SOL    HW124854   3.531   2.805   7.631 -3.2181  2.0034  2.5009
 4407SOL    HW224855   3.552   2.877   7.770 -0.4093  0.5842 -2.0082
 4408SOL     OW24856   1.588   3.531   4.094 -0.0444  0.2532 -0.2744
 4408SOL    HW124857   1.610   3.542   4.001 -0.5513  1.7403 -0.2129
 4408SOL    HW224858   1.514   3.471   4.090  0.6537 -0.5924 -0.5750
 4409SOL     OW24859   2.091   4.166   6.809 -0.0961  0.2044  0.2322
 4409SOL    HW124860   2.077   4.208   6.894  2.5650 -0.5646  1.0369
 4409SOL    HW224861   2.017   4.107   6.824  0.0643 -0.5990 -2.1427
 4410SOL     OW24862   2.493   2.842   6.285  1.0052 -0.4090 -0.2687
 4410SOL    HW124863   2.503   2.925   6.240 -1.5689  0.9278  1.6105
 4410SOL    HW224864   2.577   2.828   6.328  0.9014 -2.8395 -0.8166
 4411SOL     OW24865   1.468   2.404   9.332 -0.3224 -0.0832  0.2836
 4411SOL    HW124866   1.379   2.439   9.327 -0.1924  0.4020  1.2461
 4411SOL    HW224867   1.515   2.481   9.300  1.8767 -0.6776  2.0566
 4412SOL     OW24868   1.773   0.519  14.269  0.3122  0.0323 -0.4058
 4412SOL    HW124869   1.711   0.549  14.202  0.2269  0.1792 -0.2619
 4412SOL    HW224870   1.727   0.555  14.345  1.1388 -1.9092  1.0150
 4413SOL     OW24871   0.775   0.892   5.146  0.0862  0.6667 -0.5144
 4413SOL    HW124872   0.839   0.898   5.217 -0.6849  0.4413  0.2066
 4413SOL    HW224873   0.698   0.872   5.200  0.2011  0.3560 -0.4665
 4414SOL     OW24874   3.768   2.558   4.095 -0.5720  0.1670 -0.3634
 4414SOL    HW124875   3.747   2.586   4.185  0.7945  0.3880 -0.1184
 4414SOL    HW224876   3.807   2.638   4.059  0.2196  0.1801  0.5423
 4415SOL     OW24877   3.832   4.581   0.316 -0.1704  0.7382 -0.4499
 4415SOL    HW124878   3.821   4.644   0.244 -1.0715  1.6062  0.4405
 4415SOL    HW224879   3.866   4.637   0.385  1.5285  0.0985 -0.7675
 4416SOL     OW24880   4.388   1.313   8.945  0.2060  0.6174  0.2481
 4416SOL    HW124881   4.295   1.299   8.963  0.2123  0.9654  0.5564
 4416SOL    HW224882   4.373   1.374   8.873  1.7661 -0.3232 -0.8708
 4417SOL     OW24883   0.123   0.111   8.124  0.2870 -0.1218  0.0014
 4417SOL    HW124884   0.147   0.181   8.063 -0.2740  1.5736  1.7509
 4417SOL    HW224885   0.196   0.114   8.186  0.2005 -0.5346  0.1244
 4418SOL     OW24886   0.219   4.404   8.417  0.0079  0.5225 -0.2996
 4418SOL    HW124887   0.267   4.474   8.372 -0.1881 -0.0486 -1.3990
 4418SOL    HW224888   0.292   4.345   8.436 -1.3061 -0.8063  0.6608
 4419SOL     OW24889   2.679   4.007   7.291 -0.0203  0.3194  0.4496
 4419SOL    HW124890   2.681   3.977   7.200  1.7731 -0.4990  0.7504
 4419SOL    HW224891   2.773   4.016   7.307  0.2125 -0.4974 -0.4921
 4420SOL     OW24892   2.674   1.538   0.502 -0.2329  0.0432  0.3012
 4420SOL    HW124893   2.603   1.475   0.512  0.4504 -0.9814 -1.3179
 4420SOL    HW224894   2.696   1.521   0.411 -0.9918 -1.2206  0.3530
 4421SOL     OW24895   3.849   4.578   8.097 -0.3851 -0.6111 -0.0223
 4421SOL    HW124896   3.835   4.604   8.006 -3.0013  0.4271  0.6812
 4421SOL    HW224897   3.875   4.487   8.080  2.3911  0.3337 -0.9500
 4422SOL     OW24898   1.784   2.841  14.750 -0.2279  0.3220  0.0177
 4422SOL    HW124899   1.876   2.836  14.774 -0.0508  0.2783 -0.6723
 4422SOL    HW224900   1.780   2.755  14.708 -3.1435  1.0932 -1.3308
 4423SOL     OW24901   1.006   4.428  15.806 -0.4305  1.1132 -0.5389
 4423SOL    HW124902   1.045   4.452  15.890  0.5108  1.6640 -1.1321
 4423SOL    HW224903   0.914   4.454  15.813 -0.1871  1.6700  0.5732
 4424SOL     OW24904   2.816   3.107  14.335  0.2313  0.0934 -0.2100
 4424SOL    HW124905   2.730   3.100  14.293 -0.0293  0.7498  0.2174
 4424SOL    HW224906   2.870   3.113  14.256 -1.5696  0.6506 -1.3998
 4425SOL     OW24907   0.566   0.678   4.764  0.0865  0.4883  0.1146
 4425SOL    HW124908   0.572   0.651   4.855  1.3080  0.7526  0.1193
 4425SOL    HW224909   0.634   0.618   4.733 -0.6628  0.2471 -1.0624
 4426SOL     OW24910   3.083   1.340   5.299  0.1807 -0.2911 -0.1849
 4426SOL    HW124911   3.067   1.382   5.384 -1.0821 -0.4469 -0.3458
 4426SOL    HW224912   3.163   1.378   5.264  0.4584 -2.2745 -1.6147
 4427SOL     OW24913   4.099   0.021   2.442  0.8699  0.0788 -0.0582
 4427SOL    HW124914   4.115   0.097   2.497 -0.2915 -1.8387  2.9695
 4427SOL    HW224915   4.165   0.027   2.373  1.0565  0.5306  0.1603
 4428SOL     OW24916   0.793   3.987  15.136 -0.0316 -0.7123  0.1614
 4428SOL    HW124917   0.755   3.959  15.053  3.2796 -0.7649 -1.3258
 4428SOL    HW224918   0.719   3.973  15.195 -0.9727  0.4420 -0.7533
 4429SOL     OW24919   1.283   4.199   6.031 -0.4318 -0.1583 -0.0831
 4429SOL    HW124920   1.326   4.114   6.038 -2.0840 -0.8725  1.4186
 4429SOL    HW224921   1.334   4.231   5.956 -0.2873 -0.0585  0.0586
 4430SOL     OW24922   0.167   0.163  12.085  0.7321 -0.2815 -0.3573
 4430SOL    HW124923   0.255   0.167  12.048  0.4838 -3.4856 -1.2700
 4430SOL    HW224924   0.149   0.252  12.114  3.0937 -0.2889  1.1752
 4431SOL     OW24925   1.237   0.584   2.223 -0.5469 -0.5993 -0.2761
 4431SOL    HW124926   1.284   0.501   2.221  1.3472  0.4465  0.9560
 4431SOL    HW224927   1.223   0.588   2.128  2.7363 -2.1711 -0.8124
 4432SOL     OW24928   1.832   1.070   5.130 -0.4822  0.3804 -0.0876
 4432SOL    HW124929   1.906   1.014   5.154 -0.4948 -0.0015 -0.9282
 4432SOL    HW224930   1.877   1.151   5.109  0.5281 -0.5450 -1.4946
 4433SOL     OW24931   4.389   3.773   8.689  0.3692 -0.6295  0.1046
 4433SOL    HW124932   4.379   3.852   8.743 -2.3883  0.9425 -2.7173
 4433SOL    HW224933   4.411   3.712   8.759 -0.8800  1.6754  2.5005
 4434SOL     OW24934   2.743   3.195   8.498  0.0419  0.1683 -0.1308
 4434SOL    HW124935   2.709   3.241   8.575  0.0421  0.7608 -0.4895
 4434SOL    HW224936   2.799   3.125   8.530  1.5708  1.4535 -0.0504
 4435SOL     OW24937   4.171   3.916   4.311  0.7836 -0.0330  0.0253
 4435SOL    HW124938   4.266   3.905   4.315  0.5679 -1.6499  0.6997
 4435SOL    HW224939   4.152   3.971   4.235 -0.0321  0.9909  0.9601
 4436SOL     OW24940   4.283   3.069  11.819 -0.0837  0.0103 -0.0364
 4436SOL    HW124941   4.344   3.016  11.767  0.4972 -1.3042  1.9547
 4436SOL    HW224942   4.247   3.008  11.883  1.3052 -0.0048  0.7428
 4437SOL     OW24943   1.689   2.412   8.741  0.3638  0.5149  0.0175
 4437SOL    HW124944   1.659   2.500   8.762  2.0644  0.8452  1.0375
 4437SOL    HW224945   1.783   2.425   8.755  0.0432  1.1512  1.6078
 4438SOL     OW24946   3.270   1.402   9.410 -0.7381 -0.3386  0.0903
 4438SOL    HW124947   3.297   1.320   9.450  1.3214  0.9281  1.2915
 4438SOL    HW224948   3.309   1.466   9.470 -1.0731 -1.6580  1.7272
 4439SOL     OW24949   1.367   1.597  13.407  0.4934  0.5700 -0.0057
 4439SOL    HW124950   1.282   1.556  13.420  0.5010 -0.2830 -2.6922
 4439SOL    HW224951   1.363   1.649  13.488  0.6381  1.4138 -0.5433
 4440SOL     OW24952   2.092   3.444   5.710  0.0326  0.4862 -0.1757
 4440SOL    HW124953   2.144   3.426   5.632  1.6324  0.1260  0.9881
 4440SOL    HW224954   2.002   3.432   5.679  0.6890  0.2632 -1.9733
 4441SOL     OW24955   3.506   1.408   3.682 -0.4692  0.3186 -0.6284
 4441SOL    HW124956   3.472   1.465   3.751 -1.1814  0.4591 -1.0934
 4441SOL    HW224957   3.600   1.408   3.698 -0.6159  0.4856  0.2152
 4442SOL     OW24958   2.799   4.532  10.510  0.0865 -0.1818 -0.1754
 4442SOL    HW124959   2.796   4.501  10.419  1.6436 -3.4860  0.8930
 4442SOL    HW224960   2.706   4.519  10.524  0.1376 -0.6016 -0.2389
 4443SOL     OW24961   2.737   2.474   4.024  0.3313  0.2410 -0.3553
 4443SOL    HW124962   2.748   2.383   3.995  1.1050  0.4151 -0.6221
 4443SOL    HW224963   2.796   2.521   3.964  0.5230 -0.4714 -0.7329
 4444SOL     OW24964   0.482   0.329   2.880 -0.2145 -0.2881  0.2254
 4444SOL    HW124965   0.557   0.377   2.915 -0.2879 -0.9131  1.2253
 4444SOL    HW224966   0.411   0.346   2.942 -0.4412  0.7992 -0.3272
 4445SOL     OW24967   2.989   3.833  17.607  0.5185 -0.3036 -0.1177
 4445SOL    HW124968   3.059   3.877  17.655 -1.0179  3.2269 -1.1011
 4445SOL    HW224969   3.026   3.830  17.519 -0.3394  1.9178 -0.5580
 4446SOL     OW24970   0.609   0.052   3.203  0.0280  0.7886  0.1642
 4446SOL    HW124971   0.615   0.028   3.296  1.2652  3.5322  0.8001
 4446SOL    HW224972   0.651   0.139   3.199  1.5587  0.1507  2.1758
 4447SOL     OW24973   1.072   2.878   6.768 -0.4248  0.0773 -0.1862
 4447SOL    HW124974   1.040   2.790   6.748 -2.3773  1.0292 -1.1786
 4447SOL    HW224975   1.117   2.858   6.851 -5.3707  2.9042  3.1949
 4448SOL     OW24976   1.286   0.194   7.004  0.1135 -0.0672 -0.0774
 4448SOL    HW124977   1.261   0.206   6.912  1.6779 -0.3923 -0.5531
 4448SOL    HW224978   1.300   0.100   7.011  2.2869  0.1540 -1.1217
 4449SOL     OW24979   1.892   3.463  10.093  0.2209  0.0071  0.2983
 4449SOL    HW124980   1.863   3.402  10.161 -1.3081  1.4412  0.9495
 4449SOL    HW224981   1.823   3.453  10.027  0.5933 -0.2686 -0.0456
 4450SOL     OW24982   3.783   3.687   3.216  0.1681 -0.4023  0.2966
 4450SOL    HW124983   3.853   3.665   3.154  0.7563 -1.7376  1.4320
 4450SOL    HW224984   3.829   3.723   3.292 -0.0887 -1.2500  0.8561
 4451SOL     OW24985   4.197   3.764   5.854  0.5467  0.6265  0.1058
 4451SOL    HW124986   4.138   3.785   5.782  0.5110  0.8413  0.1987
 4451SOL    HW224987   4.284   3.787   5.820 -0.2627  2.6547 -0.5481
 4452SOL     OW24988   0.152   1.622   3.228  0.5133  0.3461  0.7891
 4452SOL    HW124989   0.173   1.704   3.184  0.0218  1.3475  2.4096
 4452SOL    HW224990   0.193   1.625   3.315  1.1600  1.0632  0.4572
 4453SOL     OW24991   2.527   1.634  11.750 -0.6325  0.3155  0.3562
 4453SOL    HW124992   2.544   1.728  11.750  1.6572 -0.0976  2.1114
 4453SOL    HW224993   2.516   1.609  11.658  0.9271  0.4701  0.1184
 4454SOL     OW24994   2.073   3.519  13.760 -0.6308 -0.9029 -0.1374
 4454SOL    HW124995   2.004   3.531  13.826  0.4779 -0.0185  0.8519
 4454SOL    HW224996   2.015   3.528  13.684  0.1437  0.0788 -0.6012
 4455SOL     OW24997   0.006   1.070   1.562 -0.0708  0.3699  0.5364
 4455SOL    HW124998   0.056   1.037   1.636  1.6626 -2.6122 -1.9293
 4455SOL    HW224999   0.058   1.143   1.529  0.5981 -0.2829  0.1645
 4456SOL     OW25000   1.581   1.042   8.949  0.1421 -1.1449  0.3243
 4456SOL    HW125001   1.593   0.963   8.896 -1.0293  0.6459 -2.6187
 4456SOL    HW225002   1.552   1.004   9.031 -1.8778  0.9198  0.5602
 4457SOL     OW25003   2.379   4.410   9.001 -0.1627 -0.1478 -0.1043
 4457SOL    HW125004   2.387   4.338   8.938 -0.3999 -0.0805 -0.2095
 4457SOL    HW225005   2.332   4.352   9.062 -1.3126 -0.1242 -0.9832
 4458SOL     OW25006   3.049   0.974   8.926 -0.0317  0.1704 -0.0513
 4458SOL    HW125007   3.096   0.961   9.008 -1.6798 -0.3437  0.7946
 4458SOL    HW225008   2.960   0.974   8.960 -0.5439 -0.5112 -1.3887
 4459SOL     OW25009   0.968   3.443   9.908  0.5075  0.0604 -0.3792
 4459SOL    HW125010   0.923   3.370   9.863 -1.6968  2.3782 -1.9512
 4459SOL    HW225011   0.964   3.423  10.001  2.0286 -1.0120 -0.5417
 4460SOL     OW25012   1.656   0.281  16.965 -0.5254  0.2745 -0.3082
 4460SOL    HW125013   1.634   0.334  16.888  1.1825  1.2002 -0.1530
 4460SOL    HW225014   1.751   0.283  16.970 -0.5707  1.2867  0.1846
 4461SOL     OW25015   2.751   4.391  16.291  0.1720 -0.2602  0.0499
 4461SOL    HW125016   2.734   4.431  16.205 -2.9849 -2.5991 -0.3915
 4461SOL    HW225017   2.833   4.441  16.299 -0.9071  1.2840  1.3392
 4462SOL     OW25018   0.088   1.207   9.154 -0.4181  0.9206  0.0928
 4462SOL    HW125019   0.032   1.257   9.095 -1.1691  0.3709  0.3411
 4462SOL    HW225020   0.072   1.116   9.129  1.0041  0.4935  0.7041
 4463SOL     OW25021   3.109   3.610   8.368  0.3306 -0.1816 -0.2373
 4463SOL    HW125022   3.142   3.692   8.331 -1.1507  0.5391  0.0662
 4463SOL    HW225023   3.027   3.613   8.319  0.3493 -0.2665 -0.2735
 4464SOL     OW25024   1.772   1.826   9.879 -0.3010 -0.1600 -0.4521
 4464SOL    HW125025   1.810   1.867   9.801 -0.3825  0.5560 -0.1129
 4464SOL    HW225026   1.846   1.844   9.937  0.8592 -1.8646 -1.3844
 4465SOL     OW25027   1.170   3.644  10.165  0.3738  0.1500  0.1783
 4465SOL    HW125028   1.153   3.567  10.219 -0.2902 -0.3204 -0.6917
 4465SOL    HW225029   1.265   3.647  10.168  0.3941  0.0779 -0.4272
 4466SOL     OW25030   0.151   2.590   7.757 -0.3230 -0.4961  0.3899
 4466SOL    HW125031   0.129   2.515   7.812 -1.6817  1.6711  2.8630
 4466SOL    HW225032   0.123   2.656   7.821 -0.8840  0.0768 -0.4409
 4467SOL     OW25033   0.434   0.831  13.182  0.1971 -0.3214  0.2105
 4467SOL    HW125034   0.390   0.771  13.121 -1.5343  2.1002 -0.8905
 4467SOL    HW225035   0.423   0.791  13.268 -1.5187  0.0526  0.1622
 4468SOL     OW25036   2.027   4.572   4.426  0.8615  0.7731 -0.0345
 4468SOL    HW125037   2.010   4.591   4.333 -0.7142 -1.5825 -0.2102
 4468SOL    HW225038   1.940   4.582   4.465  0.5107 -0.2521 -0.5819
 4469SOL     OW25039   2.164   4.496   7.744  0.2973 -0.6293  0.1404
 4469SOL    HW125040   2.240   4.501   7.686 -0.5138  1.2050 -0.7443
 4469SOL    HW225041   2.152   4.589   7.762  3.6421  0.1001 -1.3611
 4470SOL     OW25042   2.478   0.837   2.276  0.0800  0.4387  0.3827
 4470SOL    HW125043   2.438   0.868   2.195  1.5076  1.0779 -0.0658
 4470SOL    HW225044   2.571   0.833   2.254  0.7375  0.6506  3.0810
 4471SOL     OW25045   3.498   2.045   4.889 -0.1123  0.0561 -0.1435
 4471SOL    HW125046   3.523   2.006   4.973  1.0798  1.9281  0.3905
 4471SOL    HW225047   3.567   2.011   4.833 -0.8579  0.9372 -1.5945
 4472SOL     OW25048   4.646   3.796   8.893 -0.2815 -0.6626  0.2385
 4472SOL    HW125049   4.719   3.761   8.842  1.3477 -0.3632  2.3625
 4472SOL    HW225050   4.679   3.778   8.981  0.9865 -1.9581 -0.4913
 4473SOL     OW25051   1.547   0.274   7.591 -0.2198  0.2374  0.1778
 4473SOL    HW125052   1.465   0.297   7.547 -1.1462  1.3106  2.4808
 4473SOL    HW225053   1.551   0.183   7.560 -1.0994 -0.2271  1.4015
 4474SOL     OW25054   3.102   1.776   7.732 -0.0811 -0.3703 -0.3455
 4474SOL    HW125055   3.058   1.829   7.798  0.7969 -1.2066  0.9247
 4474SOL    HW225056   3.137   1.840   7.670 -0.6705  0.2621 -0.0308
 4475SOL     OW25057   2.418   0.591   2.328  0.2816 -0.3057 -0.4168
 4475SOL    HW125058   2.437   0.523   2.263 -0.4188 -0.0829 -0.8477
 4475SOL    HW225059   2.446   0.673   2.287  2.5696 -0.7858  0.1456
 4476SOL     OW25060   1.872   3.076   8.539  0.3275  0.3414  0.3814
 4476SOL    HW125061   1.825   3.070   8.455  2.5843 -1.1236 -0.7911
 4476SOL    HW225062   1.879   2.983   8.560 -0.6283  0.5889  1.7678
 4477SOL     OW25063   4.283   1.902  16.765 -0.3625  0.0612  0.3758
 4477SOL    HW125064   4.347   1.908  16.694 -0.6111 -0.7914  0.0854
 4477SOL    HW225065   4.287   1.809  16.785  1.3673  0.0193 -0.1274
 4478SOL     OW25066   2.220   3.686   3.754  0.4624  0.3076  0.1849
 4478SOL    HW125067   2.164   3.688   3.831  1.0823 -0.4876  0.6605
 4478SOL    HW225068   2.300   3.725   3.789  0.6678  0.2028 -0.1619
 4479SOL     OW25069   2.543   2.550   6.621  0.3083  0.1952  0.3224
 4479SOL    HW125070   2.517   2.594   6.702  0.6428 -2.6285  1.9779
 4479SOL    HW225071   2.594   2.479   6.661 -1.5859 -2.1217 -1.3606
 4480SOL     OW25072   4.609   3.024  11.241 -0.4928 -0.7051 -0.0091
 4480SOL    HW125073   4.677   3.021  11.308  0.8256  2.9242 -1.1917
 4480SOL    HW225074   4.657   3.025  11.158 -0.1639  0.6068  0.2119
 4481SOL     OW25075   2.763   1.278   9.576  0.2191  0.0021 -0.2580
 4481SOL    HW125076   2.827   1.347   9.593  0.1889  0.1598 -0.7743
 4481SOL    HW225077   2.772   1.266   9.481  1.0534  0.0161 -0.1814
 4482SOL     OW25078   0.439   3.858   5.066  0.4130  0.4412 -0.1975
 4482SOL    HW125079   0.510   3.862   5.130  0.1394  1.1567  0.0678
 4482SOL    HW225080   0.369   3.911   5.103 -1.8830 -2.0457 -1.0441
 4483SOL     OW25081   0.350   3.965   6.672 -0.7407  0.0830 -0.7162
 4483SOL    HW125082   0.281   4.025   6.645 -1.3879  0.3518  1.5357
 4483SOL    HW225083   0.292   3.901   6.712 -3.0190  2.6520  0.0830
 4484SOL     OW25084   0.404   3.301   9.287 -1.2599  0.1653 -0.2253
 4484SOL    HW125085   0.497   3.279   9.291 -1.0227  1.4167  1.2449
 4484SOL    HW225086   0.391   3.306   9.381  2.1073  1.3878  0.2014
 4485SOL     OW25087   0.671   0.161  15.394 -0.4323  0.3066 -0.1136
 4485SOL    HW125088   0.658   0.080  15.443 -2.8259 -0.6061 -2.2260
 4485SOL    HW225089   0.716   0.208  15.464 -2.3164  0.2503  1.1389
 4486SOL     OW25090   4.734   1.080   8.737  0.3949 -0.4253 -0.3410
 4486SOL    HW125091   0.082   1.123   8.740 -0.5129  1.1578  3.1869
 4486SOL    HW225092   0.019   0.994   8.773  0.6570 -0.1107  0.2469
 4487SOL     OW25093   3.895   3.045   3.908 -0.2533 -0.4699  0.1840
 4487SOL    HW125094   3.907   3.054   3.813 -1.1168  0.2558  0.1320
 4487SOL    HW225095   3.923   3.133   3.932  0.7941 -0.7244 -0.1312
 4488SOL     OW25096   1.680   0.011  14.893  0.4064 -0.2902 -0.2971
 4488SOL    HW125097   1.749   0.005  14.826  0.6313 -0.6584 -0.0317
 4488SOL    HW225098   1.712   0.090  14.937 -0.6609 -0.4424  0.7521
 4489SOL     OW25099   2.656   3.748   3.014 -0.3506 -0.3150 -0.0564
 4489SOL    HW125100   2.609   3.821   2.972  0.2659 -0.2634 -0.6658
 4489SOL    HW225101   2.638   3.672   2.959  0.6717 -0.4663 -0.1866
 4490SOL     OW25102   0.988   3.293   4.218  0.1018 -0.3945  0.1210
 4490SOL    HW125103   0.907   3.341   4.233  0.5725  0.3059  0.4631
 4490SOL    HW225104   0.961   3.220   4.162  3.1117 -1.2953 -0.1636
 4491SOL     OW25105   2.093   1.471   6.896 -0.3474 -0.0595 -0.1789
 4491SOL    HW125106   1.998   1.479   6.884 -0.3896  0.6973  0.6150
 4491SOL    HW225107   2.097   1.422   6.978 -1.3594 -0.4612 -0.3652
 4492SOL     OW25108   3.685   2.058  12.850  0.2535  0.5372 -0.1857
 4492SOL    HW125109   3.688   1.988  12.784 -0.0989  0.7941 -0.4753
 4492SOL    HW225110   3.703   2.013  12.933  1.1913  1.0366 -0.1239
 4493SOL     OW25111   2.571   0.334   2.270 -0.4157 -0.0720 -0.5445
 4493SOL    HW125112   2.619   0.383   2.204 -1.3618  0.2144 -1.0114
 4493SOL    HW225113   2.633   0.266   2.298 -0.4492  0.7148  1.4479
 4494SOL     OW25114   4.035   0.917   2.448  0.2975 -0.4036  0.4829
 4494SOL    HW125115   4.031   0.947   2.357  0.5554 -0.1479  0.5563
 4494SOL    HW225116   4.056   0.827   2.423  0.0418 -0.8547  1.8836
 4495SOL     OW25117   0.501   4.121   3.593 -0.0331  0.2695  0.0004
 4495SOL    HW125118   0.576   4.178   3.576  0.1038 -0.4089 -1.6219
 4495SOL    HW225119   0.431   4.156   3.538 -0.4835  0.3014  0.5966
 4496SOL     OW25120   4.708   4.687  15.279  0.0716  0.1563 -0.4431
 4496SOL    HW125121   0.044   4.694  15.340 -0.5002  0.9170  0.1546
 4496SOL    HW225122   4.704   0.036  15.237 -0.9725  0.1874 -0.2780
 4497SOL     OW25123   1.383   0.817   4.028  0.4290 -0.7516  0.2025
 4497SOL    HW125124   1.353   0.757   3.961  2.0349 -0.6382 -0.6120
 4497SOL    HW225125   1.316   0.884   4.013 -0.5746 -1.4734  1.4549
 4498SOL     OW25126   0.668   2.777  11.142 -0.4114 -0.2187  0.3818
 4498SOL    HW125127   0.637   2.690  11.119 -0.8944  0.8081 -2.8207
 4498SOL    HW225128   0.699   2.809  11.057  1.0045  0.8314  1.2836
 4499SOL     OW25129   4.295   2.608   6.636  0.0929  0.4850 -0.4744
 4499SOL    HW125130   4.283   2.633   6.727 -3.1191 -0.4608 -0.6387
 4499SOL    HW225131   4.386   2.578   6.639  0.3057  1.0699 -1.0425
 4500SOL     OW25132   1.879   3.628   1.961  0.1252 -0.1491  0.2889
 4500SOL    HW125133   1.924   3.554   1.920  0.5670  1.2854 -1.7813
 4500SOL    HW225134   1.791   3.591   1.971  0.0016 -0.1205 -0.6608
 4501SOL     OW25135   1.048   3.420   3.496  0.3472  0.3707  0.8287
 4501SOL    HW125136   1.024   3.459   3.412  1.6785 -1.2784 -0.2889
 4501SOL    HW225137   1.017   3.336   3.464  0.5695  0.6999 -0.2305
 4502SOL     OW25138   2.177   3.145   6.775  0.2237 -0.5131 -0.3862
 4502SOL    HW125139   2.105   3.090   6.807  0.5123 -0.5168  0.2695
 4502SOL    HW225140   2.201   3.097   6.696  1.8098 -1.3442  0.5965
 4503SOL     OW25141   0.038   4.429   5.452  0.0567  0.3249 -0.2106
 4503SOL    HW125142   0.066   4.444   5.543 -1.8484 -2.1795  0.7842
 4503SOL    HW225143   0.100   4.478   5.399  0.9116 -1.1250 -0.5391
 4504SOL     OW25144   2.606   3.260  13.606 -0.8810 -0.6241  0.1449
 4504SOL    HW125145   2.660   3.181  13.594  0.8562  0.7322 -1.0794
 4504SOL    HW225146   2.622   3.322  13.534  1.0280 -0.2265  0.9187
 4505SOL     OW25147   0.895   3.527   2.134 -0.3519  0.4069  0.3653
 4505SOL    HW125148   0.863   3.458   2.076 -0.5288 -0.1433  1.1264
 4505SOL    HW225149   0.893   3.482   2.218 -0.5430  0.4767  0.3961
 4506SOL     OW25150   3.055   4.010   7.703  0.0332 -0.0433 -0.0346
 4506SOL    HW125151   3.088   4.052   7.624 -1.2013 -0.0846 -0.5775
 4506SOL    HW225152   3.134   3.993   7.754  0.8472 -0.7782 -1.5187
 4507SOL     OW25153   4.728   0.752   4.703  0.0143  0.4251  0.0755
 4507SOL    HW125154   0.072   0.716   4.737  0.3291  0.0047 -1.1038
 4507SOL    HW225155   4.730   0.843   4.734 -0.7190 -0.2207  1.9833
 4508SOL     OW25156   3.345   4.683   6.056 -0.0486 -0.3526 -0.1625
 4508SOL    HW125157   3.362   0.001   5.980 -3.6450 -2.9179 -2.8648
 4508SOL    HW225158   3.409   4.719   6.117  1.4646 -1.0662 -1.3293
 4509SOL     OW25159   1.914   2.125   0.665  0.4339 -0.3966 -0.3071
 4509SOL    HW125160   1.904   2.174   0.747 -2.0160 -0.0853 -0.7868
 4509SOL    HW225161   1.916   2.189   0.594  0.0690 -1.8612 -1.6411
 4510SOL     OW25162   1.307   0.213   8.470  0.2114 -0.3380 -0.0776
 4510SOL    HW125163   1.236   0.206   8.533 -1.1030  1.3677 -1.3691
 4510SOL    HW225164   1.300   0.134   8.416 -0.0708  1.4179 -2.6449
 4511SOL     OW25165   2.023   1.749  15.560  0.8627  0.0829 -0.1164
 4511SOL    HW125166   2.106   1.704  15.548  1.0765  1.0300 -2.1754
 4511SOL    HW225167   1.972   1.671  15.581 -0.8924  0.5405 -2.6469
 4512SOL     OW25168   0.308   3.612   4.286 -0.1308 -0.0354 -0.6167
 4512SOL    HW125169   0.230   3.564   4.260  0.6880 -2.3449  1.1850
 4512SOL    HW225170   0.332   3.565   4.366  0.8146 -1.5121 -1.7715
 4513SOL     OW25171   2.860   3.365   4.990 -0.2944  0.1651  0.4058
 4513SOL    HW125172   2.908   3.340   5.069 -0.6738  0.8134  0.8369
 4513SOL    HW225173   2.781   3.315   5.011 -0.0881  0.0710  0.9677
 4514SOL     OW25174   1.497   3.846   5.101 -0.5057 -0.1432 -0.2867
 4514SOL    HW125175   1.577   3.860   5.152  0.6308 -2.0700 -1.5533
 4514SOL    HW225176   1.426   3.893   5.146  0.0372  1.8039 -1.4479
 4515SOL     OW25177   2.641   1.255   1.627  0.5242 -0.6922  0.0355
 4515SOL    HW125178   2.697   1.283   1.554  0.2547  2.4999  1.0232
 4515SOL    HW225179   2.556   1.241   1.585  0.0923  2.2561 -0.0794
 4516SOL     OW25180   1.538   3.028   7.593  0.7175  0.1900  0.2776
 4516SOL    HW125181   1.595   2.953   7.613 -1.0206 -1.3062 -0.3977
 4516SOL    HW225182   1.584   3.094   7.644 -2.8303  0.6946  2.8573
 4517SOL     OW25183   2.318   0.699  14.774 -0.3071  0.6594  0.1552
 4517SOL    HW125184   2.293   0.610  14.801  0.3236  0.7684  1.0868
 4517SOL    HW225185   2.281   0.755  14.842  0.2223 -0.8139  1.6737
 4518SOL     OW25186   1.982   2.867   9.001 -0.2265  0.0653 -0.3587
 4518SOL    HW125187   1.915   2.811   9.039  0.7961 -0.2028  1.0767
 4518SOL    HW225188   1.985   2.945   9.057 -0.2578 -1.0055  1.1229
 4519SOL     OW25189   3.176   2.914   0.776 -0.8731 -0.7270 -0.5426
 4519SOL    HW125190   3.146   2.838   0.825 -0.6491 -1.0697 -0.9301
 4519SOL    HW225191   3.206   2.960   0.854 -1.0591 -0.7840 -0.4383
 4520SOL     OW25192   2.653   1.851   9.703 -0.1668  0.6690  0.3405
 4520SOL    HW125193   2.562   1.882   9.702 -0.5273 -0.4018 -0.3336
 4520SOL    HW225194   2.647   1.784   9.772  0.9191  0.9449  0.7006
 4521SOL     OW25195   0.152   1.072   5.665  0.3638  0.8198 -0.0409
 4521SOL    HW125196   0.164   1.070   5.760  1.3377  1.8188 -0.1274
 4521SOL    HW225197   0.207   1.002   5.630  2.4809  1.0345  2.8011
 4522SOL     OW25198   0.638   0.759   2.666 -0.2196 -0.6938 -0.2358
 4522SOL    HW125199   0.642   0.727   2.576  1.1493 -1.5939  0.1520
 4522SOL    HW225200   0.722   0.803   2.675 -1.1135  0.9506  0.0027
 4523SOL     OW25201   1.319   1.052  15.464 -0.2070  0.4532 -0.5228
 4523SOL    HW125202   1.233   1.055  15.421  0.8896  1.1189 -2.6529
 4523SOL    HW225203   1.306   0.980  15.525  1.1772  2.0815  1.6822
 4524SOL     OW25204   4.436   0.989   2.132 -0.5436 -0.0554  0.0147
 4524SOL    HW125205   4.417   1.004   2.040 -0.7280  0.7861  0.1900
 4524SOL    HW225206   4.483   0.906   2.126 -1.5651 -0.5546 -0.9424
 4525SOL     OW25207   3.066   4.125   4.042 -0.1564 -0.1541  0.2466
 4525SOL    HW125208   3.066   4.118   3.947 -3.0728  4.5413 -0.0731
 4525SOL    HW225209   3.019   4.045   4.069 -1.5362  0.3398 -0.7352
 4526SOL     OW25210   1.613   1.074  15.759 -0.4955 -0.1952  0.8505
 4526SOL    HW125211   1.681   1.020  15.800 -1.1988 -1.4588  0.3301
 4526SOL    HW225212   1.671   1.146  15.733  1.0664 -1.3661  1.0952
 4527SOL     OW25213   3.815   4.620  12.341  0.8209  0.3167 -0.1929
 4527SOL    HW125214   3.741   4.646  12.286 -0.5621 -0.4414  1.3160
 4527SOL    HW225215   3.791   4.528  12.340 -0.0354  0.5287  0.8118
 4528SOL     OW25216   3.119   3.559   7.290  0.2456  0.4540  0.5535
 4528SOL    HW125217   3.042   3.505   7.275  2.7216 -2.9739 -0.0562
 4528SOL    HW225218   3.095   3.650   7.271 -2.2208  0.1318  2.2177
 4529SOL     OW25219   3.147   4.621  17.168 -0.5846 -0.1459  0.7197
 4529SOL    HW125220   3.119   4.640  17.079  1.6156  0.5512  0.1737
 4529SOL    HW225221   3.146   4.713  17.196 -2.4533 -0.0900  0.4886
 4530SOL     OW25222   2.601   1.871   6.544  0.4036 -0.4759 -0.7546
 4530SOL    HW125223   2.551   1.794   6.573 -1.2152  1.2679  1.0974
 4530SOL    HW225224   2.609   1.906   6.633  0.9714 -1.2900 -0.4855
 4531SOL     OW25225   1.322   2.079  14.748  0.0887  0.6611 -0.6066
 4531SOL    HW125226   1.329   2.039  14.661  0.9096  1.3585 -0.8513
 4531SOL    HW225227   1.260   2.019  14.792  0.7564 -0.5020 -1.2446
 4532SOL     OW25228   2.044   0.097   6.284  0.4274 -0.8817  0.2983
 4532SOL    HW125229   2.092   0.035   6.230  0.4497 -0.1456 -0.5268
 4532SOL    HW225230   1.951   0.083   6.263  0.3942 -1.0208  0.5364
 4533SOL     OW25231   0.378   1.423   3.282  0.2051 -0.0950  0.1752
 4533SOL    HW125232   0.340   1.446   3.197 -0.7499 -0.6422  0.4662
 4533SOL    HW225233   0.423   1.504   3.307  1.7813 -0.2254 -2.2009
 4534SOL     OW25234   4.609   0.256  16.413  0.6678 -0.2584 -0.2515
 4534SOL    HW125235   4.668   0.195  16.458  0.5492  1.4901  2.2512
 4534SOL    HW225236   4.570   0.297  16.490 -0.9993  0.4055 -1.4603
 4535SOL     OW25237   0.535   0.863   5.281 -0.0086  0.3686  0.0851
 4535SOL    HW125238   0.467   0.923   5.311  0.6901  1.9915 -1.5478
 4535SOL    HW225239   0.569   0.835   5.365  0.7762  1.7374  0.2299
 4536SOL     OW25240   0.063   1.836   5.023 -0.5164 -0.3454 -0.4573
 4536SOL    HW125241   4.733   1.778   5.057 -0.2747 -0.8225 -0.7872
 4536SOL    HW225242   0.138   1.778   5.010 -1.4379 -1.2493 -1.7607
 4537SOL     OW25243   3.590   3.494   7.067 -1.1002  0.3215  0.0097
 4537SOL    HW125244   3.680   3.515   7.092 -0.5397 -1.3057 -0.6628
 4537SOL    HW225245   3.545   3.568   7.108 -0.1243  0.9261 -0.0167
 4538SOL     OW25246   1.519   0.708   6.648  0.2269 -0.4552 -0.2307
 4538SOL    HW125247   1.610   0.691   6.622 -0.1128  0.0741 -1.7722
 4538SOL    HW225248   1.496   0.761   6.572  0.0312 -0.7718 -0.3912
 4539SOL     OW25249   1.014   0.437  13.200 -0.1124 -0.4752 -0.3337
 4539SOL    HW125250   0.995   0.470  13.288 -0.5635 -1.1230 -0.1877
 4539SOL    HW225251   0.937   0.387  13.173  0.1480 -0.5979 -0.8613
 4540SOL     OW25252   1.799   4.122   2.610 -0.4421 -0.3626 -0.1189
 4540SOL    HW125253   1.749   4.046   2.638  2.3216 -1.6834  1.2034
 4540SOL    HW225254   1.799   4.165   2.695 -2.4921  0.4775 -0.5317
 4541SOL     OW25255   3.172   3.335  14.911 -0.9331 -0.1785 -0.3989
 4541SOL    HW125256   3.246   3.389  14.882 -0.9770  0.2128  0.2160
 4541SOL    HW225257   3.200   3.253  14.871 -0.6973 -0.0481 -0.5050
 4542SOL     OW25258   2.892   2.841   4.121 -0.0490 -0.4051 -0.4877
 4542SOL    HW125259   2.979   2.802   4.120 -0.0139 -0.3823  1.7579
 4542SOL    HW225260   2.863   2.813   4.034  0.0515  0.1962 -0.7156
 4543SOL     OW25261   0.027   2.309   9.628 -0.0169  0.3294 -0.4411
 4543SOL    HW125262   0.015   2.260   9.547  0.4100  2.6164 -1.8850
 4543SOL    HW225263   0.118   2.288   9.648 -0.5206 -1.6783 -0.2391
 4544SOL     OW25264   0.947   3.152   9.341 -0.2611 -0.3068 -0.5004
 4544SOL    HW125265   1.002   3.079   9.371  0.6945  1.2742  1.5773
 4544SOL    HW225266   0.933   3.193   9.427 -0.8376 -2.2462  0.3289
 4545SOL     OW25267   4.600   1.321   4.255 -0.2992 -0.3732  0.0607
 4545SOL    HW125268   4.695   1.314   4.252 -0.1496  1.9955 -0.6568
 4545SOL    HW225269   4.580   1.413   4.273 -0.3741 -0.9057  2.6478
 4546SOL     OW25270   1.387   1.117   4.336  0.6255  0.1902  0.0533
 4546SOL    HW125271   1.313   1.142   4.391  1.6388 -0.5690  1.7579
 4546SOL    HW225272   1.346   1.165   4.263 -2.8019 -0.1028  1.7867
 4547SOL     OW25273   0.350   3.023  10.726 -0.5298  0.3144  0.2510
 4547SOL    HW125274   0.278   3.072  10.767  0.2910  0.6869  1.2273
 4547SOL    HW225275   0.410   3.014  10.799  0.7142  4.1119 -0.2643
 4548SOL     OW25276   1.371   3.955   6.603 -0.0690  0.2757 -0.7762
 4548SOL    HW125277   1.365   4.028   6.664 -1.4215  0.2789 -0.9128
 4548SOL    HW225278   1.422   3.890   6.651  1.6141  0.3324 -2.4930
 4549SOL     OW25279   3.215   1.621   4.966  0.3106  1.0555 -0.0630
 4549SOL    HW125280   3.277   1.686   4.932  2.7574 -1.3525 -0.2667
 4549SOL    HW225281   3.180   1.652   5.049 -0.4060  1.1044 -0.3890
 4550SOL     OW25282   1.108   1.240   5.564 -0.1947  0.4894 -0.3724
 4550SOL    HW125283   1.162   1.175   5.609 -1.9176  0.3620  1.5151
 4550SOL    HW225284   1.170   1.312   5.560  1.0377 -0.5214  0.5997
 4551SOL     OW25285   1.446   2.354   8.913  0.1641  0.3718  0.0796
 4551SOL    HW125286   1.470   2.445   8.896 -0.9261  1.2768  3.3689
 4551SOL    HW225287   1.510   2.310   8.856 -1.0403 -3.0426  1.3349
 4552SOL     OW25288   0.407   3.804   4.794 -0.5491 -0.6760 -0.4317
 4552SOL    HW125289   0.400   3.809   4.889  0.7112 -3.1331 -0.1885
 4552SOL    HW225290   0.320   3.827   4.762 -0.4356 -1.1259 -1.0624
 4553SOL     OW25291   3.487   0.510   7.590 -0.0077 -0.3137 -0.2434
 4553SOL    HW125292   3.511   0.418   7.578  0.3875 -0.0989 -1.0740
 4553SOL    HW225293   3.467   0.527   7.682 -0.4262  0.0529 -0.3980
 4554SOL     OW25294   0.401   1.704   5.773 -0.0304 -0.2645  0.2190
 4554SOL    HW125295   0.408   1.634   5.709  1.4921 -0.3993  0.5468
 4554SOL    HW225296   0.314   1.727   5.739 -0.2324 -2.7021 -0.9431
 4555SOL     OW25297   3.585   3.864  16.600  0.5797 -0.1375 -0.4709
 4555SOL    HW125298   3.503   3.893  16.639 -0.0172 -1.4212 -0.7405
 4555SOL    HW225299   3.556   3.860  16.509 -1.2765 -0.9763  0.1456
 4556SOL     OW25300   3.861   0.425   4.620  0.0063 -0.3384 -0.0153
 4556SOL    HW125301   3.894   0.356   4.563 -0.3738 -0.6334  0.1182
 4556SOL    HW225302   3.942   0.439   4.669  0.7679  0.9117 -1.6366
 4557SOL     OW25303   0.856   1.799  17.437 -0.5677  0.2189 -0.2944
 4557SOL    HW125304   0.809   1.859  17.379  0.2188  0.2554 -0.8966
 4557SOL    HW225305   0.819   1.812  17.524  0.8870  3.1822 -0.1265
 4558SOL     OW25306   2.369   1.919   7.996 -0.0441  0.1114 -0.3041
 4558SOL    HW125307   2.455   1.943   7.960 -0.9427  0.1659 -2.4149
 4558SOL    HW225308   2.335   1.864   7.925  1.3824 -0.2993 -0.6641
 4559SOL     OW25309   2.794   0.127   7.849  0.0320  0.4500  0.7181
 4559SOL    HW125310   2.804   0.040   7.888  1.7097  0.9499  1.3835
 4559SOL    HW225311   2.858   0.121   7.779 -1.0008 -3.3578  0.0863
 4560SOL     OW25312   2.854   0.745   4.473 -0.1408 -0.6623  0.6209
 4560SOL    HW125313   2.884   0.832   4.446 -0.6705 -0.7051 -0.1145
 4560SOL    HW225314   2.936   0.697   4.484  0.0464 -0.3916  0.4287
 4561SOL     OW25315   0.870   2.945  15.933 -0.4369 -0.9991 -0.2359
 4561SOL    HW125316   0.801   3.010  15.946  0.4343 -0.1459  0.0779
 4561SOL    HW225317   0.894   2.977  15.846 -1.1614  0.2017  0.0066
 4562SOL     OW25318   1.529   4.640   2.880 -0.2636  0.4751  0.0001
 4562SOL    HW125319   1.501   4.624   2.970 -3.6374 -0.9384 -1.3188
 4562SOL    HW225320   1.456   4.692   2.846 -0.9371  0.0012  0.7365
 4563SOL     OW25321   0.965   0.106   7.730  0.8711 -0.5350  0.2305
 4563SOL    HW125322   1.035   0.164   7.700 -0.3614  0.3038 -1.0724
 4563SOL    HW225323   1.017   0.043   7.780  0.2673 -2.9363 -2.1884
 4564SOL     OW25324   0.515   4.106  12.008  0.3902 -0.3534  0.5256
 4564SOL    HW125325   0.550   4.070  11.926 -1.3531 -0.0805 -0.3399
 4564SOL    HW225326   0.547   4.196  12.000  1.2140 -0.3888  3.4341
 4565SOL     OW25327   1.592   2.093   1.389 -0.1546  0.5788  0.2878
 4565SOL    HW125328   1.570   2.170   1.338 -2.0722 -0.5563 -0.6072
 4565SOL    HW225329   1.506   2.076   1.428 -0.1560  0.2958  0.1648
 4566SOL     OW25330   2.102   0.274  11.647  0.4857 -0.5230  0.2942
 4566SOL    HW125331   2.109   0.179  11.653  1.1263 -0.7166 -3.3163
 4566SOL    HW225332   2.164   0.288  11.576 -0.5760 -3.5539 -1.2435
 4567SOL     OW25333   1.125   0.174  13.744 -0.0899  0.1224 -0.1833
 4567SOL    HW125334   1.163   0.087  13.759 -1.4075 -0.3765  0.2956
 4567SOL    HW225335   1.199   0.225  13.711 -0.1929 -2.4299 -4.2483
 4568SOL     OW25336   3.041   4.292   6.356  0.0121  0.4329 -0.0092
 4568SOL    HW125337   3.126   4.270   6.394  0.7842  0.7806 -1.5290
 4568SOL    HW225338   2.977   4.242   6.406  0.4487 -0.4726 -0.3641
 4569SOL     OW25339   2.274   3.645   6.052  0.4604 -0.3849  0.8682
 4569SOL    HW125340   2.234   3.675   5.970  0.0331  0.1434  1.2698
 4569SOL    HW225341   2.322   3.720   6.089  2.7087 -0.8111 -1.1509
 4570SOL     OW25342   0.497   1.748   2.958  0.0792 -0.0192 -0.2462
 4570SOL    HW125343   0.406   1.777   2.959  0.2866  0.5423  2.7398
 4570SOL    HW225344   0.496   1.689   3.034 -0.8375 -2.1508 -1.9283
 4571SOL     OW25345   2.023   3.244   3.052 -0.3138  0.1587  0.2545
 4571SOL    HW125346   2.053   3.222   3.140 -2.3125 -0.6035  0.7439
 4571SOL    HW225347   2.070   3.321   3.021 -0.5122 -0.6274 -2.0096
 4572SOL     OW25348   4.083   3.759   7.281 -0.4296 -0.5136  0.2850
 4572SOL    HW125349   4.134   3.684   7.311 -0.2446 -0.3924  0.2722
 4572SOL    HW225350   3.999   3.722   7.255 -0.7691 -0.3781  1.2180
 4573SOL     OW25351   3.289   0.304   3.484  0.4895 -0.3344  0.3465
 4573SOL    HW125352   3.269   0.345   3.568 -0.0359  0.1786 -0.0235
 4573SOL    HW225353   3.283   0.370   3.415 -0.1183  0.4030  1.1064
 4574SOL     OW25354   4.153   1.578   5.998 -0.1877 -0.3476 -0.4742
 4574SOL    HW125355   4.109   1.509   5.948  0.8123  0.7128 -2.8145
 4574SOL    HW225356   4.073   1.608   6.041  0.4517  1.5807 -0.6560
 4575SOL     OW25357   2.235   2.804   6.245  0.4922  0.7279  0.3072
 4575SOL    HW125358   2.196   2.778   6.329 -0.1293  0.0272 -0.1912
 4575SOL    HW225359   2.327   2.818   6.268  0.5280  0.7543  0.1432
 4576SOL     OW25360   2.512   3.707   2.052  0.0491 -0.0142  0.8542
 4576SOL    HW125361   2.457   3.629   2.064  3.6286 -2.3583  1.9033
 4576SOL    HW225362   2.529   3.737   2.141  0.0801  0.9414  0.5283
 4577SOL     OW25363   1.114   4.335   1.205 -0.2537  0.0609 -0.1094
 4577SOL    HW125364   1.159   4.328   1.289  1.6247  0.0916 -1.0953
 4577SOL    HW225365   1.165   4.269   1.158  1.1443  1.4336 -0.5269
 4578SOL     OW25366   0.653   0.737  13.625  0.1365 -0.6829 -0.3498
 4578SOL    HW125367   0.675   0.657  13.578  2.8819 -1.1706  1.7360
 4578SOL    HW225368   0.588   0.699  13.685  1.1364  0.8130  1.6754
 4579SOL     OW25369   3.178   1.546   7.119 -0.2850  0.0262 -0.6770
 4579SOL    HW125370   3.238   1.561   7.192  0.7984 -0.8784 -1.3632
 4579SOL    HW225371   3.095   1.526   7.161  0.6766  0.3342  1.3743
 4580SOL     OW25372   1.942   1.201   1.552 -0.1622  0.1388 -0.5403
 4580SOL    HW125373   1.988   1.252   1.619  2.8886 -2.7348 -0.4174
 4580SOL    HW225374   1.909   1.274   1.501  0.6328  0.5095 -0.5348
 4581SOL     OW25375   2.321   3.527   1.985  0.6493  0.5293 -0.6871
 4581SOL    HW125376   2.316   3.612   1.941  1.4730  0.4481 -0.9214
 4581SOL    HW225377   2.297   3.470   1.912  0.4132 -1.2584  0.7723
 4582SOL     OW25378   2.815   0.049   1.739  0.4290  0.1329 -0.4298
 4582SOL    HW125379   2.865   4.729   1.681 -1.3718 -1.1444 -0.7021
 4582SOL    HW225380   2.786   4.721   1.801 -3.1876  3.8247  1.8090
 4583SOL     OW25381   1.947   1.941   3.861  0.0355 -0.6000  0.5487
 4583SOL    HW125382   1.862   1.921   3.820 -0.6367  0.4199  1.4433
 4583SOL    HW225383   1.942   2.035   3.846  0.0418 -0.3305  2.2643
 4584SOL     OW25384   4.651   4.449   3.458  0.1228  0.0170 -0.3962
 4584SOL    HW125385   4.655   4.518   3.392  1.3973  1.2101  0.9296
 4584SOL    HW225386   4.714   4.382   3.430  0.1846  0.4876 -1.4112
 4585SOL     OW25387   3.412   3.722   4.851 -0.5065 -0.4795 -0.2602
 4585SOL    HW125388   3.461   3.767   4.783  2.0451 -1.7466  0.6745
 4585SOL    HW225389   3.417   3.790   4.918 -1.2566 -1.6212  0.9708
 4586SOL     OW25390   3.740   0.533  14.508  0.1583 -0.3499 -0.4291
 4586SOL    HW125391   3.768   0.618  14.541  1.0816  0.1640 -2.5428
 4586SOL    HW225392   3.713   0.489  14.589  1.2454 -1.8404 -0.8773
 4587SOL     OW25393   3.463   2.502   8.089 -0.6457 -0.5237 -0.3522
 4587SOL    HW125394   3.551   2.536   8.074 -0.9973  0.2727 -0.6190
 4587SOL    HW225395   3.408   2.513   8.012 -0.2843 -1.2570 -0.7094
 4588SOL     OW25396   0.111   1.924   7.860  0.1710 -0.3053  0.5928
 4588SOL    HW125397   0.028   1.914   7.906 -0.4980  1.7803 -0.1743
 4588SOL    HW225398   0.182   1.872   7.900  2.3226  2.1840  0.0088
 4589SOL     OW25399   2.505   4.735  10.771 -0.2460  0.7742 -0.3754
 4589SOL    HW125400   2.467   4.648  10.782 -0.5907  0.6084 -2.8677
 4589SOL    HW225401   2.524   0.003  10.677  1.7819 -0.1993 -0.0228
 4590SOL     OW25402   3.945   2.718   1.627  0.3344  0.1861  0.0593
 4590SOL    HW125403   3.962   2.793   1.684  0.8887 -0.0697  0.2290
 4590SOL    HW225404   4.000   2.750   1.556  2.3888  0.5766  1.8279
 4591SOL     OW25405   3.675   0.017   5.933 -0.1232  0.4934 -0.9227
 4591SOL    HW125406   3.647   4.664   5.937 -0.1689  0.5321 -0.4099
 4591SOL    HW225407   3.591   0.057   5.909 -1.2757 -0.3752  1.7375
 4592SOL     OW25408   1.542   0.745   5.512 -0.0332 -0.0494 -0.3927
 4592SOL    HW125409   1.601   0.683   5.471  0.5480  0.0408  0.2925
 4592SOL    HW225410   1.549   0.816   5.448  1.6591  0.7923  0.7087
 4593SOL     OW25411   2.162   1.045   7.684 -0.6178  0.2111  1.0681
 4593SOL    HW125412   2.196   1.116   7.738 -0.7012  0.3489  0.9391
 4593SOL    HW225413   2.075   1.031   7.721 -1.9054  0.5952 -1.7702
 4594SOL     OW25414   1.703   1.193   4.353 -0.3925 -0.3591 -0.4063
 4594SOL    HW125415   1.683   1.246   4.276  0.7247  0.6976  0.0396
 4594SOL    HW225416   1.653   1.241   4.418 -0.5059  0.0359 -0.7892
 4595SOL     OW25417   0.252   1.559   7.308  0.0175 -0.2386 -0.2661
 4595SOL    HW125418   0.182   1.606   7.352 -1.6166 -1.6020 -1.3907
 4595SOL    HW225419   0.236   1.465   7.305 -0.6631 -0.1547  0.7858
 4596SOL     OW25420   3.664   2.291   6.494 -0.3893  0.2286  0.5411
 4596SOL    HW125421   3.714   2.244   6.561 -1.1231 -0.1623  0.8267
 4596SOL    HW225422   3.724   2.365   6.490 -0.9288  0.6772  0.6636
 4597SOL     OW25423   1.903   3.138   0.673 -0.3836  0.2564 -0.0801
 4597SOL    HW125424   1.994   3.161   0.688 -0.7721  1.9187 -0.2136
 4597SOL    HW225425   1.896   3.152   0.578 -0.9950  0.5979  0.0159
 4598SOL     OW25426   2.388   3.377   7.756  0.0325 -0.2499  0.4845
 4598SOL    HW125427   2.483   3.382   7.750 -0.0253 -0.2773 -0.4082
 4598SOL    HW225428   2.365   3.335   7.673 -2.2443 -0.7264  1.3276
 4599SOL     OW25429   3.767   0.735  15.421  0.0609 -0.1976  0.4153
 4599SOL    HW125430   3.814   0.744  15.504 -1.2519  1.4938  0.9719
 4599SOL    HW225431   3.785   0.650  15.382  0.9586 -0.2014  0.8330
 4600SOL     OW25432   0.004   4.632   8.059 -0.2340 -0.2926 -0.3216
 4600SOL    HW125433   0.069   4.592   8.001  0.4635 -0.8435  0.8585
 4600SOL    HW225434   0.038   4.718   8.083  0.2306 -1.0932  1.7959
 4601SOL     OW25435   3.138   1.242   8.888  0.5204  0.1087  0.1102
 4601SOL    HW125436   3.150   1.148   8.900  0.7937  0.1073 -0.1664
 4601SOL    HW225437   3.146   1.270   8.980  3.0113  0.0485 -0.1075
 4602SOL     OW25438   2.824   1.608   4.525  0.4496 -0.1330  0.3385
 4602SOL    HW125439   2.827   1.691   4.477 -0.7807 -0.3600 -0.1272
 4602SOL    HW225440   2.834   1.626   4.618 -0.1194  0.1789  0.3446
 4603SOL     OW25441   4.490   2.069  14.710  0.2135 -0.2733  0.2774
 4603SOL    HW125442   4.419   2.127  14.736  1.1126  0.6494  0.6754
 4603SOL    HW225443   4.562   2.124  14.742 -0.2147  0.4397 -0.0076
 4604SOL     OW25444   1.789   0.263  14.967  0.5437 -0.2918  0.4727
 4604SOL    HW125445   1.864   0.314  14.935  0.0491 -0.0244 -0.2661
 4604SOL    HW225446   1.741   0.333  15.009  0.5501  0.1575 -0.2595
 4605SOL     OW25447   4.324   1.592   6.509  0.2829 -0.3669  0.3699
 4605SOL    HW125448   4.314   1.576   6.415 -0.8398  0.8494  0.2883
 4605SOL    HW225449   4.237   1.625   6.532 -0.5900 -1.7899 -0.8606
 4606SOL     OW25450   3.386   3.785   1.150  0.2776 -0.5416  0.8223
 4606SOL    HW125451   3.292   3.784   1.135  0.2648 -3.0801  0.9747
 4606SOL    HW225452   3.411   3.785   1.057  0.7067  2.0734  0.9342
 4607SOL     OW25453   1.830   4.450   2.629 -0.4536 -0.1087  0.0558
 4607SOL    HW125454   1.898   4.382   2.622  1.7482  2.0865  0.1247
 4607SOL    HW225455   1.831   4.464   2.724 -0.1285  0.1767  0.0103
 4608SOL     OW25456   2.635   0.167   7.580  0.3493 -0.0397  0.3783
 4608SOL    HW125457   2.692   0.243   7.593  0.3647  0.5326 -2.9046
 4608SOL    HW225458   2.549   0.204   7.597 -0.0929  0.2469 -2.5805
 4609SOL     OW25459   4.525   2.010   3.047 -0.3944  0.3544  0.2597
 4609SOL    HW125460   4.531   1.915   3.044  0.2306  0.4407 -1.2819
 4609SOL    HW225461   4.471   2.016   3.126 -0.2725  1.5192  0.2539
 4610SOL     OW25462   1.132   0.050  14.442 -0.6475 -0.1832  0.1022
 4610SOL    HW125463   1.077   4.710  14.430 -2.0130  0.7282  0.5649
 4610SOL    HW225464   1.183   0.034  14.522 -1.9520  1.8155  1.3341
 4611SOL     OW25465   0.910   1.849   1.599  0.0733 -0.1038  0.1335
 4611SOL    HW125466   0.906   1.892   1.685 -0.4968  1.3573 -0.6305
 4611SOL    HW225467   0.944   1.762   1.619 -1.3244 -0.5308  0.6711
 4612SOL     OW25468   4.149   3.272  13.593  0.2839  0.3655  0.2692
 4612SOL    HW125469   4.102   3.343  13.637 -0.8502  0.2148 -0.6825
 4612SOL    HW225470   4.169   3.305  13.505 -1.4979  0.0722 -0.2491
 4613SOL     OW25471   1.755   1.747   5.069  0.0415 -0.2487 -0.3933
 4613SOL    HW125472   1.721   1.801   5.141 -0.7436 -2.0904  0.5994
 4613SOL    HW225473   1.836   1.723   5.113  0.0510  0.5421  0.0405
 4614SOL     OW25474   2.434   3.812  13.586  0.4395  0.2838 -0.2674
 4614SOL    HW125475   2.402   3.756  13.657  1.4292  1.8834  1.4527
 4614SOL    HW225476   2.482   3.875  13.640  3.0348 -2.5740  0.7154
 4615SOL     OW25477   1.522   0.548   2.430  0.0061 -0.4799 -0.6272
 4615SOL    HW125478   1.522   0.526   2.337 -2.2012  1.3154 -1.0540
 4615SOL    HW225479   1.516   0.643   2.431  0.4198 -0.4570  0.1633
 4616SOL     OW25480   3.494   3.150  12.996  0.2425  0.2920  0.1948
 4616SOL    HW125481   3.506   3.117  13.085  1.2016 -3.6944 -1.4099
 4616SOL    HW225482   3.481   3.071  12.944  0.6955 -0.0348  0.5849
 4617SOL     OW25483   2.835   4.051  13.900 -0.6640  0.1174 -0.0082
 4617SOL    HW125484   2.800   4.120  13.955  0.2063  1.8206 -1.5932
 4617SOL    HW225485   2.857   4.096  13.818 -0.1503  0.4921  0.3408
 4618SOL     OW25486   4.191   1.998   7.527  0.0543 -0.1312  0.2927
 4618SOL    HW125487   4.100   1.981   7.550  0.1048 -1.3881 -0.4345
 4618SOL    HW225488   4.235   1.944   7.593 -0.1380 -1.0345 -0.3175
 4619SOL     OW25489   1.536   2.288   3.595 -0.2323  0.0224  0.0898
 4619SOL    HW125490   1.591   2.223   3.551 -0.0970  0.0106  0.2772
 4619SOL    HW225491   1.482   2.320   3.523 -1.4266  0.0673  0.9985
 4620SOL     OW25492   2.868   0.212   5.575  0.0533 -0.1820 -0.0828
 4620SOL    HW125493   2.781   0.252   5.566 -0.0640 -0.4547 -0.1785
 4620SOL    HW225494   2.878   0.184   5.484 -1.9393 -0.2656 -0.2722
 4621SOL     OW25495   0.802   4.486  16.165 -0.3438  0.0572 -0.5843
 4621SOL    HW125496   0.757   4.552  16.113  0.7340  0.6276 -0.7888
 4621SOL    HW225497   0.839   4.531  16.241  1.2212 -2.4515  0.1473
 4622SOL     OW25498   0.583   0.309   5.442 -0.5087 -0.1063  0.0475
 4622SOL    HW125499   0.622   0.273   5.362 -0.8959  0.2091 -0.2787
 4622SOL    HW225500   0.586   0.235   5.502  0.4882 -0.4064 -0.3574
 4623SOL     OW25501   4.660   2.102   4.028 -0.0380 -0.0018  0.5424
 4623SOL    HW125502   4.725   2.144   4.084 -0.0549  1.1243 -0.2999
 4623SOL    HW225503   4.597   2.169   4.001  2.5984  2.2664  0.1396
 4624SOL     OW25504   4.518   0.398   3.436  0.4103  1.0102  0.9851
 4624SOL    HW125505   4.460   0.387   3.361  0.4234 -1.6218  1.3501
 4624SOL    HW225506   4.452   0.383   3.504 -0.6321 -1.2822 -0.5465
 4625SOL     OW25507   2.010   1.194   2.974  0.6681  0.2807 -0.1675
 4625SOL    HW125508   2.090   1.222   3.018 -0.6262 -0.3079  2.5755
 4625SOL    HW225509   2.048   1.156   2.895 -1.1670 -2.3019  0.1939
 4626SOL     OW25510   3.333   2.692   2.741 -0.1388 -0.0120  0.3392
 4626SOL    HW125511   3.289   2.607   2.747  3.1705 -1.8426 -1.6547
 4626SOL    HW225512   3.374   2.700   2.655  0.2862 -0.4090  0.5024
 4627SOL     OW25513   0.898   3.915   8.955  0.0029 -0.5896  0.5893
 4627SOL    HW125514   0.902   3.888   9.047 -0.5683 -0.5008  0.6411
 4627SOL    HW225515   0.929   4.005   8.966  2.5910 -1.3124 -0.8544
 4628SOL     OW25516   3.668   0.495   6.906  0.1252 -0.6334  0.0274
 4628SOL    HW125517   3.708   0.580   6.889  2.0171 -1.5783 -0.3421
 4628SOL    HW225518   3.732   0.450   6.849 -1.3690 -2.5415 -0.1304
 4629SOL     OW25519   3.301   4.122   2.617  0.5969  0.2276  0.2811
 4629SOL    HW125520   3.262   4.036   2.602  1.8399 -0.4099  0.6568
 4629SOL    HW225521   3.248   4.160   2.687  0.4183 -1.0733  0.8565
 4630SOL     OW25522   2.648   2.860  16.993 -0.4081 -0.5642  0.2915
 4630SOL    HW125523   2.650   2.843  16.899  0.7364  1.1530  0.0015
 4630SOL    HW225524   2.556   2.850  17.017 -0.4860 -2.6813 -0.8430
 4631SOL     OW25525   3.000   2.292   5.168 -0.3384  0.6131  0.0823
 4631SOL    HW125526   3.003   2.387   5.172  1.4634  0.6723 -2.5631
 4631SOL    HW225527   2.958   2.270   5.251 -1.8102 -0.0090 -0.8116
 4632SOL     OW25528   1.014   3.523  11.198 -0.6645 -0.3166  0.3071
 4632SOL    HW125529   1.055   3.534  11.112  2.9030  0.2702  2.0657
 4632SOL    HW225530   0.925   3.502  11.170 -0.8795 -1.0855  1.5242
 4633SOL     OW25531   0.951   3.840  17.142  0.4010 -0.1534 -0.0153
 4633SOL    HW125532   0.971   3.765  17.198  1.0265  1.7360  2.2985
 4633SOL    HW225533   0.988   3.807  17.061  0.0173  1.4789 -0.8418
 4634SOL     OW25534   4.400   4.625   4.453 -0.2091 -0.0687  0.1445
 4634SOL    HW125535   4.443   4.539   4.457  0.3182  0.2299  1.0054
 4634SOL    HW225536   4.430   4.673   4.530 -1.5534  0.7082  0.1764
 4635SOL     OW25537   2.932   2.984   3.520  0.1166 -0.6498  0.5744
 4635SOL    HW125538   2.903   2.942   3.440  3.0299  0.1670 -0.9323
 4635SOL    HW225539   2.869   3.051   3.547  1.5359  0.3191  1.5255
 4636SOL     OW25540   2.049   4.189  10.242 -0.4558  0.6488  0.6695
 4636SOL    HW125541   2.001   4.131  10.183  0.3980  1.5467 -0.9171
 4636SOL    HW225542   2.081   4.126  10.307 -1.4938  0.3134  0.8476
 4637SOL     OW25543   1.416   0.878   2.189 -0.1055 -0.2238 -0.3433
 4637SOL    HW125544   1.375   0.859   2.104 -0.0410  2.3184 -0.9208
 4637SOL    HW225545   1.483   0.941   2.164  0.9840 -0.9684  0.7088
 4638SOL     OW25546   3.927   1.500   3.233  0.1139 -0.2204  0.1926
 4638SOL    HW125547   3.941   1.592   3.212 -3.6852  0.4898  0.6846
 4638SOL    HW225548   3.869   1.473   3.161  0.8516  2.7102 -1.5298
 4639SOL     OW25549   1.747   1.493   7.281  0.9264 -0.3593  0.6120
 4639SOL    HW125550   1.722   1.584   7.263 -1.5807 -1.1558  0.0449
 4639SOL    HW225551   1.830   1.509   7.325  1.6608  2.0676 -1.6109
 4640SOL     OW25552   0.394   1.346   1.781  0.2263 -0.2497 -0.0313
 4640SOL    HW125553   0.405   1.321   1.689  0.7981  1.4962 -0.4378
 4640SOL    HW225554   0.424   1.262   1.817 -0.4951 -0.4441  0.1073
 4641SOL     OW25555   3.528   1.835   9.509  0.4283  0.1037 -0.0593
 4641SOL    HW125556   3.527   1.927   9.535  0.8540 -0.0861  0.6281
 4641SOL    HW225557   3.614   1.825   9.550  0.5836 -1.8302 -0.8586
 4642SOL     OW25558   2.331   3.079   0.930 -0.0420 -0.6968 -0.2835
 4642SOL    HW125559   2.379   3.149   0.885 -0.0219 -0.7027 -0.2711
 4642SOL    HW225560   2.350   3.105   1.020 -3.1545  2.1939 -0.4690
 4643SOL     OW25561   2.214   4.578   6.827 -0.1156 -0.0066  0.3672
 4643SOL    HW125562   2.196   4.623   6.910 -0.2700  1.2139 -0.3374
 4643SOL    HW225563   2.278   4.510   6.848 -1.0245 -0.5276  1.4387
 4644SOL     OW25564   2.879   1.512   3.967  0.3448  0.0266 -0.5787
 4644SOL    HW125565   2.911   1.430   4.005  0.8676  0.3968 -0.2181
 4644SOL    HW225566   2.896   1.590   4.019  0.3375 -0.7358  0.5834
 4645SOL     OW25567   2.545   3.899  11.902  0.3212 -0.7090  0.9544
 4645SOL    HW125568   2.621   3.937  11.945  0.4530 -0.7178  0.7261
 4645SOL    HW225569   2.476   3.931  11.960  2.4936  2.7778  1.5680
 4646SOL     OW25570   1.146   4.451   5.988 -0.6743  0.3243 -0.5828
 4646SOL    HW125571   1.147   4.357   5.966 -0.5223  0.3334 -0.6142
 4646SOL    HW225572   1.236   4.472   6.014 -0.5318  0.8979 -1.5511
 4647SOL     OW25573   0.936   1.919   6.542 -0.4667  0.2001  0.2521
 4647SOL    HW125574   0.872   1.855   6.512  0.9991 -1.1096 -0.0842
 4647SOL    HW225575   0.977   1.957   6.465  0.9199 -3.6291 -0.8968
 4648SOL     OW25576   0.736   0.262   8.470  0.2915  0.5560  0.5360
 4648SOL    HW125577   0.649   0.301   8.475 -0.7337 -1.7404  0.1776
 4648SOL    HW225578   0.797   0.332   8.494  0.8152  0.3369 -0.1640
 4649SOL     OW25579   0.027   2.300   2.923  0.8206 -0.0403 -0.3089
 4649SOL    HW125580   4.722   2.242   2.860 -0.4977  0.3956  0.1877
 4649SOL    HW225581   0.031   2.241   2.999 -0.9328  0.2867  0.0350
 4650SOL     OW25582   3.453   1.623   8.677  0.5641 -0.2345 -0.1683
 4650SOL    HW125583   3.378   1.579   8.717 -0.3136  3.7631  2.5559
 4650SOL    HW225584   3.427   1.711   8.703  4.3594  0.8045  0.1759
 4651SOL     OW25585   1.820   0.641   4.968 -0.0206  0.1168 -0.4043
 4651SOL    HW125586   1.876   0.565   4.951  1.0819  1.0521 -1.0491
 4651SOL    HW225587   1.891   0.705   4.956  0.3508 -0.6727 -2.4204
 4652SOL     OW25588   2.424   0.633   5.991  0.2452  0.2039  0.0606
 4652SOL    HW125589   2.461   0.555   6.032  0.3820 -0.0344 -0.5223
 4652SOL    HW225590   2.500   0.691   5.980  0.6345  0.0618  1.9493
 4653SOL     OW25591   0.996   4.112   6.161  0.0289 -0.2795  0.1962
 4653SOL    HW125592   0.950   4.082   6.083  0.4348 -2.1432  0.6798
 4653SOL    HW225593   1.089   4.117   6.137 -0.1785  1.6481 -0.2237
 4654SOL     OW25594   0.555   1.076   3.015  0.4478  0.3694 -0.1803
 4654SOL    HW125595   0.496   1.087   3.090  2.0420  0.5571  1.0443
 4654SOL    HW225596   0.565   0.982   3.003 -2.4084  0.0209  0.2095
 4655SOL     OW25597   3.748   3.945   4.419 -0.3433 -0.0143 -0.2175
 4655SOL    HW125598   3.655   3.934   4.440  0.0305  1.3701  2.1470
 4655SOL    HW225599   3.758   4.034   4.450  1.1525 -0.5473  0.8136
 4656SOL     OW25600   1.939   4.070  12.497  0.1591  0.1441 -0.9818
 4656SOL    HW125601   1.893   4.130  12.555 -0.5740 -0.7927 -0.5858
 4656SOL    HW225602   2.021   4.069  12.545 -2.4438 -2.0847  3.4481
 4657SOL     OW25603   3.984   2.603   5.451  0.4121 -0.2454  0.4461
 4657SOL    HW125604   3.928   2.572   5.380  0.6000  0.8650 -0.1831
 4657SOL    HW225605   3.956   2.694   5.457 -0.2206 -0.4031 -0.0526
 4658SOL     OW25606   4.568   3.605   7.160 -0.0766 -0.1049 -0.5182
 4658SOL    HW125607   4.644   3.549   7.175 -1.4037 -0.8892  3.5416
 4658SOL    HW225608   4.495   3.543   7.151  0.3004 -0.5619 -0.4234
 4659SOL     OW25609   1.841   0.953   0.724  0.1924 -0.9123 -0.3960
 4659SOL    HW125610   1.887   0.999   0.654 -1.3422  1.2481  0.0432
 4659SOL    HW225611   1.884   0.867   0.725 -1.1751 -1.5833  0.1212
 4660SOL     OW25612   0.482   2.796   8.718 -0.5179  0.3266 -0.5538
 4660SOL    HW125613   0.554   2.733   8.714 -0.3161  0.3953  1.8056
 4660SOL    HW225614   0.409   2.736   8.705 -0.4372  0.0621  0.1967
 4661SOL     OW25615   1.517   1.051   5.834 -0.5951 -0.0742  0.5765
 4661SOL    HW125616   1.576   1.058   5.759  0.6530 -1.1383  1.4716
 4661SOL    HW225617   1.560   0.978   5.878  0.3047  0.3937  0.4768
 4662SOL     OW25618   3.095   0.944  15.254 -0.3517  0.4464 -0.3390
 4662SOL    HW125619   3.115   1.027  15.212  3.4599 -0.8163 -0.9371
 4662SOL    HW225620   3.179   0.902  15.268  0.3705  2.1208  0.3812
 4663SOL     OW25621   2.245   4.662  16.279  0.6588 -0.0257 -0.2438
 4663SOL    HW125622   2.191   4.626  16.350 -0.0029  0.7637 -0.3357
 4663SOL    HW225623   2.210   4.618  16.202 -0.3808 -2.0825  1.3805
 4664SOL     OW25624   0.911   0.487   3.864 -0.1735 -0.4726 -0.2509
 4664SOL    HW125625   0.919   0.508   3.957  0.3655 -1.5349 -0.0564
 4664SOL    HW225626   0.859   0.560   3.830  0.6879  1.7347  3.2273
 4665SOL     OW25627   2.660   2.215  17.568  0.0275  0.2650  0.3202
 4665SOL    HW125628   2.648   2.258  17.484  0.8286  1.0720  0.6100
 4665SOL    HW225629   2.754   2.233  17.579  0.2658 -0.0143 -1.3372
 4666SOL     OW25630   3.989   3.627   0.882  0.1246  0.3586 -0.3566
 4666SOL    HW125631   4.022   3.595   0.798 -1.1321  1.8626 -1.4078
 4666SOL    HW225632   4.066   3.604   0.935  1.4859  0.7892 -2.1400
 4667SOL     OW25633   0.933   4.256  11.740  0.1283 -0.2752 -0.0658
 4667SOL    HW125634   0.864   4.212  11.691  0.8594 -0.3839 -0.9796
 4667SOL    HW225635   0.976   4.182  11.781 -1.5741 -0.1822  1.9310
 4668SOL     OW25636   0.339   4.460   4.751  0.3753  0.3976 -0.1365
 4668SOL    HW125637   0.314   4.535   4.806  0.7411  0.5702 -0.2000
 4668SOL    HW225638   0.258   4.414   4.730 -1.0415  0.8108  4.3213
 4669SOL     OW25639   4.279   4.048   3.425 -0.0630  0.4819  0.2815
 4669SOL    HW125640   4.358   4.100   3.413  0.5928 -0.7099 -0.6370
 4669SOL    HW225641   4.235   4.101   3.491  0.1458  0.4903  0.4146
 4670SOL     OW25642   0.545   3.055  16.836  0.3982 -0.0980  0.6133
 4670SOL    HW125643   0.475   3.119  16.825  1.0708  0.4895 -0.2061
 4670SOL    HW225644   0.505   2.974  16.804  2.1734  0.1869 -2.3618
 4671SOL     OW25645   1.420   1.575  10.890  0.0632  1.0762 -0.1447
 4671SOL    HW125646   1.330   1.577  10.924  0.3959  1.7276  0.6847
 4671SOL    HW225647   1.407   1.494  10.840 -1.3187  0.3683  1.3738
 4672SOL     OW25648   0.928   2.071   9.383 -0.0635  0.4399  0.3023
 4672SOL    HW125649   0.993   2.075   9.312 -1.2860 -1.2980 -0.9171
 4672SOL    HW225650   0.985   2.046   9.454 -0.1158  1.4016  0.6904
 4673SOL     OW25651   0.327   1.898  14.822  0.0659  0.1915  0.4232
 4673SOL    HW125652   0.289   1.854  14.745 -0.4288 -0.5974  1.1233
 4673SOL    HW225653   0.334   1.814  14.867  1.5793  0.0604 -0.0587
 4674SOL     OW25654   0.657   0.632   5.002  0.2002 -0.0910  0.1978
 4674SOL    HW125655   0.725   0.570   5.029  1.1100  0.2665 -1.3042
 4674SOL    HW225656   0.685   0.712   5.046  0.6671 -0.2338  0.1571
 4675SOL     OW25657   4.588   3.708   9.374  0.2967 -0.6298  0.1829
 4675SOL    HW125658   4.508   3.706   9.322 -0.3641 -4.3645  1.3326
 4675SOL    HW225659   4.574   3.623   9.416  1.2106 -1.6665 -1.5920
 4676SOL     OW25660   0.388   3.469   6.818 -0.5628  0.6104 -0.5281
 4676SOL    HW125661   0.431   3.472   6.904 -1.7929 -3.0609  0.2378
 4676SOL    HW225662   0.305   3.511   6.839  0.6593  1.5390  2.4291
 4677SOL     OW25663   4.073   4.118   6.641  0.1609 -0.2094 -0.6013
 4677SOL    HW125664   4.046   4.027   6.631  0.0702 -0.4154  1.5827
 4677SOL    HW225665   3.994   4.159   6.604  2.1601  0.5022 -4.0549
 4678SOL     OW25666   4.065   4.603  10.130  0.2592  0.2738 -0.2503
 4678SOL    HW125667   4.016   4.576  10.208  2.0520  1.2952  1.2556
 4678SOL    HW225668   4.153   4.579  10.159 -0.0383 -1.6382 -0.9268
 4679SOL     OW25669   2.871   2.585   3.382  0.1729 -0.2810  0.0946
 4679SOL    HW125670   2.863   2.676   3.352  0.3595 -1.0517 -2.3036
 4679SOL    HW225671   2.792   2.548   3.343  1.4335 -2.8159 -0.0403
 4680SOL     OW25672   1.988   2.988   2.618  0.4940  0.4053 -0.6042
 4680SOL    HW125673   1.900   3.028   2.620 -0.0529 -1.0430  3.8619
 4680SOL    HW225674   2.009   2.977   2.710 -0.4079 -0.7852 -0.5398
 4681SOL     OW25675   2.999   0.237   9.396 -0.2888  0.3057  0.3750
 4681SOL    HW125676   3.016   0.308   9.458 -0.7664  1.2366 -0.5473
 4681SOL    HW225677   3.091   0.218   9.377 -0.6409 -1.7911  0.8776
 4682SOL     OW25678   1.902   3.398   3.981 -0.0589 -0.6483  0.1496
 4682SOL    HW125679   1.927   3.411   4.073 -0.6842 -2.8363  0.6354
 4682SOL    HW225680   1.891   3.489   3.954 -1.9726 -1.2864 -1.2058
 4683SOL     OW25681   1.380   1.314  11.894 -0.3839  0.1411 -0.8583
 4683SOL    HW125682   1.466   1.300  11.934 -0.5471  0.4972 -0.3814
 4683SOL    HW225683   1.320   1.320  11.968  0.0760  2.3459 -0.6349
 4684SOL     OW25684   3.983   1.794   7.275  0.1315 -0.0260 -0.2898
 4684SOL    HW125685   4.056   1.737   7.300 -1.2812 -1.9926 -0.5859
 4684SOL    HW225686   3.910   1.751   7.319  0.6751 -1.5573 -0.8757
 4685SOL     OW25687   2.381   3.275   2.560 -0.5153  0.8610 -0.3812
 4685SOL    HW125688   2.377   3.186   2.525 -2.1410  1.1582 -0.9446
 4685SOL    HW225689   2.400   3.259   2.652 -1.5943  2.2689  0.0822
 4686SOL     OW25690   1.382   4.310   8.089 -0.2666 -0.0255 -0.0910
 4686SOL    HW125691   1.449   4.242   8.092  1.3073  1.6259  1.8329
 4686SOL    HW225692   1.442   4.383   8.099 -1.3698  1.0695 -1.3684
 4687SOL     OW25693   0.322   0.405  11.107 -0.5253 -0.3244  0.2305
 4687SOL    HW125694   0.401   0.355  11.088  2.3169  3.3821  2.5178
 4687SOL    HW225695   0.250   0.343  11.090 -1.6617  1.0292  0.1526
 4688SOL     OW25696   2.889   0.719   2.611  0.5198 -0.2957  0.1159
 4688SOL    HW125697   2.923   0.647   2.559 -1.0795 -1.6363  0.9392
 4688SOL    HW225698   2.795   0.709   2.600  0.3014  0.6871  1.0002
 4689SOL     OW25699   0.742   3.459  11.085 -0.3894  0.2149  0.4548
 4689SOL    HW125700   0.706   3.416  11.162 -0.7964  1.1453  0.7724
 4689SOL    HW225701   0.662   3.498  11.049  0.9633  2.1055 -0.5134
 4690SOL     OW25702   4.580   4.487   3.716 -0.6279  0.5008  0.4311
 4690SOL    HW125703   4.649   4.534   3.760  0.1338  1.1509 -1.4527
 4690SOL    HW225704   4.608   4.473   3.625 -0.2765 -1.7418  0.8686
 4691SOL     OW25705   2.907   0.224   9.101 -0.5488  0.2787 -0.6564
 4691SOL    HW125706   2.985   0.266   9.137 -1.3540  0.0188  1.4013
 4691SOL    HW225707   2.861   0.190   9.178  1.0317 -0.7245 -0.1546
 4692SOL     OW25708   2.080   3.489   8.169 -0.1794  0.1323  0.3330
 4692SOL    HW125709   2.015   3.471   8.102 -1.2054 -0.8447  1.5949
 4692SOL    HW225710   2.143   3.548   8.127  0.0820  0.2021  0.8147
 4693SOL     OW25711   3.648   2.638   7.006  0.4369  0.0855 -0.0136
 4693SOL    HW125712   3.638   2.595   6.921  0.8911 -1.3038  0.6441
 4693SOL    HW225713   3.647   2.729   6.978 -2.5498 -0.0270 -0.2808
 4694SOL     OW25714   0.366   2.972   3.161  0.2363 -0.2979  0.4996
 4694SOL    HW125715   0.452   2.931   3.154 -0.1169 -0.8892 -0.3167
 4694SOL    HW225716   0.319   2.892   3.138  0.4759 -0.4013  0.3629
 4695SOL     OW25717   4.499   1.080   4.128  0.7803 -0.6512 -0.2996
 4695SOL    HW125718   4.555   1.143   4.173 -0.2805 -2.7355  3.8754
 4695SOL    HW225719   4.553   1.001   4.122  2.5728  0.5900 -0.6165
 4696SOL     OW25720   2.395   4.112   2.522 -0.7797 -0.2239 -0.5576
 4696SOL    HW125721   2.389   4.190   2.577 -0.7930 -0.4444 -0.2454
 4696SOL    HW225722   2.309   4.119   2.481 -0.4042 -1.1232 -1.5129
 4697SOL     OW25723   1.571   1.584   9.662 -0.6926  0.4576  0.2464
 4697SOL    HW125724   1.635   1.609   9.729 -0.8523 -0.6443  0.8103
 4697SOL    HW225725   1.587   1.657   9.603 -1.0135  1.3197  1.2239
 4698SOL     OW25726   4.559   0.023   5.896 -0.1708 -0.6364 -0.4486
 4698SOL    HW125727   4.525   0.018   5.807 -0.4071 -2.1428 -0.2874
 4698SOL    HW225728   4.480   0.038   5.948  0.2384 -1.1071  0.3227
 4699SOL     OW25729   3.335   4.248  14.591  0.0665  1.1886 -0.2825
 4699SOL    HW125730   3.254   4.267  14.544 -0.2095  1.0861  0.1487
 4699SOL    HW225731   3.386   4.221  14.515  0.3993 -3.3132  1.5521
 4700SOL     OW25732   4.211   4.312   7.052 -0.6764  0.1551  0.1647
 4700SOL    HW125733   4.208   4.395   7.006  1.6640  0.7286  1.0345
 4700SOL    HW225734   4.253   4.339   7.134 -1.9829  0.4036  0.7536
 4701SOL     OW25735   0.585   4.173  11.576 -0.0006  0.2442 -0.7392
 4701SOL    HW125736   0.623   4.121  11.505  1.3710  0.2165  0.0214
 4701SOL    HW225737   0.577   4.263  11.545  0.3247  0.1236 -1.1745
 4702SOL     OW25738   0.740   3.521   0.539  0.3556  0.3302 -0.3675
 4702SOL    HW125739   0.770   3.481   0.621  0.5321  2.5803  0.6688
 4702SOL    HW225740   0.743   3.443   0.484 -1.5462  0.6767 -0.9416
 4703SOL     OW25741   1.807   2.941   0.847  0.3200  0.4857  0.3095
 4703SOL    HW125742   1.854   3.002   0.789 -0.8495  0.9261 -0.1734
 4703SOL    HW225743   1.754   2.894   0.782 -1.0322  0.2186  1.6105
 4704SOL     OW25744   1.706   2.939   2.899  0.3490 -0.0609 -0.4155
 4704SOL    HW125745   1.762   2.887   2.957  0.4653 -0.7370 -1.1219
 4704SOL    HW225746   1.736   3.026   2.925  2.6072 -1.4477  1.6418
 4705SOL     OW25747   2.809   1.119  15.272  0.4034  0.0335  0.4682
 4705SOL    HW125748   2.842   1.032  15.250  1.3290  0.8981 -1.6124
 4705SOL    HW225749   2.762   1.131  15.190  2.9639  1.9352 -0.7342
 4706SOL     OW25750   3.544   2.925   5.345 -0.3262  0.0917 -0.1488
 4706SOL    HW125751   3.513   2.846   5.300 -1.6027  0.1763  0.5776
 4706SOL    HW225752   3.633   2.895   5.360 -0.8742 -0.2086  2.5320
 4707SOL     OW25753   1.570   4.301   2.561 -0.4010 -0.5758 -0.0946
 4707SOL    HW125754   1.662   4.285   2.580 -0.6486 -1.8536  0.0739
 4707SOL    HW225755   1.543   4.329   2.649  1.1176 -3.8825  1.4217
 4708SOL     OW25756   0.111   3.130   6.676 -0.0272  0.0239 -0.4587
 4708SOL    HW125757   0.046   3.174   6.621 -0.8190  2.1251  2.1217
 4708SOL    HW225758   0.173   3.097   6.612  0.9369 -0.7238  0.8680
 4709SOL     OW25759   3.392   0.648   8.548 -0.5577 -0.1267 -0.0833
 4709SOL    HW125760   3.487   0.660   8.561 -0.7843  1.3506  0.2147
 4709SOL    HW225761   3.400   0.601   8.465 -1.3977  1.5860 -1.1231
 4710SOL     OW25762   0.392   3.879   3.714 -0.2151 -0.5576  0.3069
 4710SOL    HW125763   0.424   3.968   3.695 -1.2617 -0.5040 -1.1787
 4710SOL    HW225764   0.373   3.851   3.624  3.3311  0.9880 -0.9577
 4711SOL     OW25765   1.712   2.608   7.479  0.6701  0.2716  0.1077
 4711SOL    HW125766   1.772   2.589   7.552  0.3954 -0.0866  0.2426
 4711SOL    HW225767   1.637   2.643   7.528 -1.0243 -1.0946 -1.5126
 4712SOL     OW25768   0.202   0.363   5.449 -0.1454 -0.3287  0.1638
 4712SOL    HW125769   0.227   0.303   5.520  0.9060 -1.8985 -1.5437
 4712SOL    HW225770   0.107   0.352   5.458 -0.3595  0.9433 -0.5944
 4713SOL     OW25771   0.909   2.721   1.950  0.5065  0.3717 -0.0771
 4713SOL    HW125772   0.942   2.702   2.038 -1.0209 -1.1048  0.1853
 4713SOL    HW225773   0.935   2.641   1.903  1.7396 -0.2108  1.6060
 4714SOL     OW25774   2.254   4.486   5.072 -0.2606 -0.2449 -0.3643
 4714SOL    HW125775   2.227   4.423   5.005 -2.0766 -1.5615  1.5988
 4714SOL    HW225776   2.347   4.481   5.051  0.2643 -0.4928  1.9741
 4715SOL     OW25777   2.439   0.506   7.794  0.0253 -0.0072  0.6082
 4715SOL    HW125778   2.510   0.443   7.807 -0.1887 -0.7166 -1.5529
 4715SOL    HW225779   2.395   0.480   7.713  0.8196 -0.4854  0.3326
 4716SOL     OW25780   1.460   4.535  11.934 -0.1187 -0.6873 -0.0833
 4716SOL    HW125781   1.519   4.503  11.866 -0.7465  1.2366 -1.5136
 4716SOL    HW225782   1.378   4.506  11.893 -0.0572 -0.1323 -0.5959
 4717SOL     OW25783   4.382   3.126   6.226  0.4414  0.4728 -0.4857
 4717SOL    HW125784   4.392   3.050   6.284 -2.6086  0.1020 -0.4281
 4717SOL    HW225785   4.358   3.194   6.289  2.1066  1.6022 -1.0574
 4718SOL     OW25786   2.186   0.762   5.918  0.1043  0.2513  0.0659
 4718SOL    HW125787   2.268   0.714   5.916 -0.2080 -0.2419 -1.0398
 4718SOL    HW225788   2.132   0.686   5.940  0.2863 -0.1628 -0.9569
 4719SOL     OW25789   0.135   2.142   8.378 -0.5207  0.2685 -0.4345
 4719SOL    HW125790   0.126   2.071   8.442  0.0090  0.8179  0.2588
 4719SOL    HW225791   0.053   2.191   8.376 -1.0908 -0.6830  0.0674
 4720SOL     OW25792   0.550   0.354  14.248 -0.3985  0.0060  0.1930
 4720SOL    HW125793   0.554   0.422  14.315 -1.6918 -1.2405  1.5620
 4720SOL    HW225794   0.613   0.291  14.284 -0.0124 -0.3717 -1.1298
 4721SOL     OW25795   1.820   1.661   4.031  0.1224  0.1740  0.3193
 4721SOL    HW125796   1.743   1.660   4.088 -2.7710  1.6212 -3.5681
 4721SOL    HW225797   1.780   1.716   3.964 -2.5617 -0.8514  1.0769
 4722SOL     OW25798   3.386   1.700   1.694 -0.5304 -0.3028 -0.1108
 4722SOL    HW125799   3.326   1.635   1.731  1.1552  0.2300  3.5505
 4722SOL    HW225800   3.470   1.657   1.704 -1.2077 -1.2745  1.2978
 4723SOL     OW25801   1.157   0.878   2.310  0.2330 -0.1937  0.1316
 4723SOL    HW125802   1.104   0.809   2.349  0.6042 -1.5145 -1.7268
 4723SOL    HW225803   1.244   0.848   2.335  0.8312  0.9860 -0.5200
 4724SOL     OW25804   1.832   2.155   6.715  0.4033 -0.4873  0.4216
 4724SOL    HW125805   1.780   2.182   6.639 -2.2774  1.0299  2.7586
 4724SOL    HW225806   1.921   2.179   6.689 -0.0058 -0.8084 -1.2762
 4725SOL     OW25807   0.990   2.892  11.862 -0.4894 -0.0916  0.3999
 4725SOL    HW125808   0.991   2.874  11.956 -0.4775 -1.0649  0.2139
 4725SOL    HW225809   1.017   2.984  11.867  3.6138 -1.5116  4.4039
 4726SOL     OW25810   2.621   2.319  17.292  0.2337 -0.4960 -0.0809
 4726SOL    HW125811   2.597   2.236  17.250  1.5626 -0.2048 -1.4305
 4726SOL    HW225812   2.703   2.348  17.252 -0.3673 -1.3853 -1.9592
 4727SOL     OW25813   0.808   2.515   1.283  0.3983  0.5535  0.4998
 4727SOL    HW125814   0.895   2.537   1.315  0.5449 -0.9442  1.1324
 4727SOL    HW225815   0.767   2.600   1.267 -1.6053 -0.4106  0.4887
 4728SOL     OW25816   2.640   3.060   6.190 -0.3666  0.0807  0.1423
 4728SOL    HW125817   2.616   3.044   6.099 -1.8207  0.7977  0.4033
 4728SOL    HW225818   2.658   3.153   6.200  2.9819 -0.5495  0.2056
 4729SOL     OW25819   3.809   2.406  16.108 -0.1665  0.6362  0.5806
 4729SOL    HW125820   3.854   2.447  16.035 -0.1990  1.0928  0.8143
 4729SOL    HW225821   3.717   2.431  16.094 -0.5611 -0.4207  1.2625
 4730SOL     OW25822   0.045   4.500   9.215  0.0620  0.2330 -0.0137
 4730SOL    HW125823   0.036   4.419   9.165  0.9525  0.8211 -1.1336
 4730SOL    HW225824   0.109   4.480   9.283 -0.5031 -2.3230 -0.2311
 4731SOL     OW25825   0.575   4.135  15.412  0.1856  0.2266  0.3731
 4731SOL    HW125826   0.624   4.076  15.469  1.1927  1.8592  1.2191
 4731SOL    HW225827   0.546   4.067  15.351  2.0192  1.3863 -1.8027
 4732SOL     OW25828   3.479   3.243   5.424  0.0169  0.4037  0.2100
 4732SOL    HW125829   3.420   3.170   5.443 -0.9842  1.4160  0.9957
 4732SOL    HW225830   3.411   3.305   5.449 -1.2097 -0.0147 -2.0465
 4733SOL     OW25831   1.816   3.666   4.345  0.4829 -0.1217  0.5085
 4733SOL    HW125832   1.814   3.570   4.348  0.2597 -0.0897  1.5312
 4733SOL    HW225833   1.794   3.685   4.436 -1.1939  1.7687 -0.2975
 4734SOL     OW25834   0.858   0.327   1.726  0.6998  1.1921  0.5395
 4734SOL    HW125835   0.782   0.281   1.763 -0.0611  1.9577 -0.0783
 4734SOL    HW225836   0.846   0.338   1.632 -1.6194  0.5024  0.7407
 4735SOL     OW25837   0.220   2.666   8.759 -0.3913 -0.0247  0.6130
 4735SOL    HW125838   0.196   2.573   8.768  0.2986 -0.0042  2.5481
 4735SOL    HW225839   0.222   2.700   8.848 -0.8864  1.3307  0.1058
 4736SOL     OW25840   2.921   4.438   4.473  0.3063  0.2288  0.4593
 4736SOL    HW125841   2.926   4.388   4.391  0.1091 -1.5033  1.5186
 4736SOL    HW225842   2.975   4.386   4.532  0.7753  0.5211  0.2890
 4737SOL     OW25843   3.683   0.758  12.319 -0.4944 -0.1858 -0.2788
 4737SOL    HW125844   3.747   0.815  12.362 -1.7219  1.6451 -0.8767
 4737SOL    HW225845   3.748   0.688  12.307 -0.9105 -0.5936 -0.1268
 4738SOL     OW25846   1.235   4.117   0.942  0.0315  0.6211 -0.3607
 4738SOL    HW125847   1.271   4.032   0.965 -2.1582 -0.4205 -0.8180
 4738SOL    HW225848   1.305   4.161   0.894  0.1439 -0.9201 -1.6036
 4739SOL     OW25849   3.752   2.898   5.062  0.3065  0.1792 -0.0238
 4739SOL    HW125850   3.712   2.854   4.987 -0.8831  0.1013  0.6477
 4739SOL    HW225851   3.718   2.831   5.122  0.2793 -0.9040 -1.2268
 4740SOL     OW25852   2.615   0.325   8.126  0.6939 -0.0961  0.0675
 4740SOL    HW125853   2.574   0.395   8.177  1.3547 -1.7195  2.8245
 4740SOL    HW225854   2.636   0.256   8.189 -0.5461 -1.1702 -0.6783
 4741SOL     OW25855   4.047   3.968   5.980  0.0305 -0.1415 -0.3141
 4741SOL    HW125856   4.018   3.921   6.058  0.2394  3.6245  1.9779
 4741SOL    HW225857   4.081   3.895   5.927  0.8932  0.8351 -1.1016
 4742SOL     OW25858   1.055   0.142   6.164  0.1768  0.2129 -0.1813
 4742SOL    HW125859   1.016   0.059   6.188 -1.0631  0.6993 -0.5452
 4742SOL    HW225860   1.131   0.109   6.115 -0.8839 -1.8566 -0.4434
 4743SOL     OW25861   3.838   3.713  11.291  0.1758 -0.0140 -0.1487
 4743SOL    HW125862   3.800   3.642  11.343  1.8494  0.3985  1.6362
 4743SOL    HW225863   3.919   3.734  11.337 -0.2735  2.6886 -0.5777
 4744SOL     OW25864   2.357   3.372  17.284  0.4352  0.0286  0.2087
 4744SOL    HW125865   2.284   3.399  17.228  2.5918 -0.4786 -2.8538
 4744SOL    HW225866   2.360   3.278  17.267  2.1042 -0.2837  2.2095
 4745SOL     OW25867   1.129   2.409   9.060  0.6917 -0.1350  0.6117
 4745SOL    HW125868   1.064   2.476   9.039  0.8892 -0.3881 -0.8077
 4745SOL    HW225869   1.114   2.344   8.992 -1.3419  0.6935  0.2629
 4746SOL     OW25870   0.236   3.429   5.363  0.7349 -0.0181 -0.2175
 4746SOL    HW125871   0.160   3.444   5.420  0.5836  0.9111 -0.6576
 4746SOL    HW225872   0.254   3.338   5.387 -0.8673 -0.8339 -2.0264
 4747SOL     OW25873   3.193   3.341   1.948 -0.2467  0.1346  0.3430
 4747SOL    HW125874   3.119   3.348   1.887 -0.2641 -2.0648  0.1127
 4747SOL    HW225875   3.156   3.322   2.034 -0.7779 -3.3924 -0.6579
 4748SOL     OW25876   0.996   3.421   6.073 -0.3206  0.1386 -0.2354
 4748SOL    HW125877   1.072   3.383   6.118  0.4515  1.2352 -0.6154
 4748SOL    HW225878   0.927   3.357   6.090 -0.8849  0.6393 -0.6273
 4749SOL     OW25879   0.846   1.303   8.417  0.2799 -0.1734  0.4507
 4749SOL    HW125880   0.799   1.319   8.499 -0.8359 -2.5071  0.2660
 4749SOL    HW225881   0.927   1.354   8.425  0.2433  0.0242 -0.3950
 4750SOL     OW25882   1.649   3.793   3.118  0.3875  0.3690  0.2796
 4750SOL    HW125883   1.569   3.741   3.111  0.3967  0.5885 -1.3121
 4750SOL    HW225884   1.619   3.883   3.131 -0.4555 -0.1203  1.8269
 4751SOL     OW25885   2.737   3.051   2.173  0.5585 -0.6398 -0.1426
 4751SOL    HW125886   2.804   3.003   2.222  0.2049  0.6594  1.6242
 4751SOL    HW225887   2.660   3.012   2.214 -0.3948  0.2733 -1.0592
 4752SOL     OW25888   0.019   1.222   3.531  0.3505 -0.1201 -0.2823
 4752SOL    HW125889   4.692   1.275   3.577 -0.7242  0.1462 -2.0805
 4752SOL    HW225890   0.027   1.274   3.451 -2.2550 -0.1985 -0.6081
 4753SOL     OW25891   1.936   4.658  12.872 -0.0446  0.0154  0.0520
 4753SOL    HW125892   1.864   4.634  12.930  1.4617  3.3533  3.2711
 4753SOL    HW225893   1.896   4.647  12.786  0.4352  0.1529 -0.1860
 4754SOL     OW25894   3.767   4.294   2.401 -0.1406  0.6250  0.2290
 4754SOL    HW125895   3.793   4.211   2.360  1.5349  0.7722  0.9752
 4754SOL    HW225896   3.674   4.285   2.380 -0.5971  4.1427  0.7825
 4755SOL     OW25897   3.245   4.578  13.190 -0.1797  0.5243 -0.7369
 4755SOL    HW125898   3.193   4.617  13.119 -1.0134 -0.6002 -0.7388
 4755SOL    HW225899   3.295   4.518  13.135  1.1993  1.0188 -0.0434
 4756SOL     OW25900   0.649   2.213   3.053 -0.2433  0.1714  0.1951
 4756SOL    HW125901   0.664   2.120   3.036 -0.0789  0.6041 -2.0423
 4756SOL    HW225902   0.736   2.244   3.078 -0.0992 -0.1263  0.0656
 4757SOL     OW25903   1.015   1.408   3.824 -0.1582 -0.3786  0.4628
 4757SOL    HW125904   0.933   1.398   3.776 -0.9768  1.6653  1.4534
 4757SOL    HW225905   1.089   1.383   3.769  0.6053 -0.2610  1.4375
 4758SOL     OW25906   1.167   3.582   4.704 -0.0162  0.4392  0.4177
 4758SOL    HW125907   1.225   3.534   4.646 -0.4211  0.6597 -0.1683
 4758SOL    HW225908   1.174   3.669   4.664  0.5827 -0.7994 -2.1545
 4759SOL     OW25909   4.459   4.084   4.676 -0.3781 -1.1306  0.6802
 4759SOL    HW125910   4.389   4.029   4.712 -2.1771  0.7376  0.0965
 4759SOL    HW225911   4.525   4.069   4.743  2.3948  1.0840 -1.5232
 4760SOL     OW25912   1.972   2.329   7.141 -0.3283  0.1483 -0.0261
 4760SOL    HW125913   2.033   2.357   7.074  0.1674  2.3009  1.3311
 4760SOL    HW225914   1.940   2.413   7.174 -0.4373  0.3471 -0.6501
 4761SOL     OW25915   0.069   4.548   6.119 -0.0479 -0.0672 -0.2903
 4761SOL    HW125916   0.126   4.550   6.196 -0.0556 -0.8724 -0.2687
 4761SOL    HW225917   0.051   4.642   6.120 -0.0283 -0.0755  0.4087
 4762SOL     OW25918   1.940   2.521   6.782  0.2955 -0.0666  0.0464
 4762SOL    HW125919   1.869   2.553   6.837  0.3094  0.1042 -0.0340
 4762SOL    HW225920   1.929   2.584   6.710 -1.0247 -1.1359 -0.7004
 4763SOL     OW25921   2.634   0.404  12.530 -0.8246  0.3455  0.2309
 4763SOL    HW125922   2.539   0.396  12.528 -0.8643  1.0149 -0.6212
 4763SOL    HW225923   2.660   0.481  12.480 -2.8751  2.5006  2.5013
 4764SOL     OW25924   1.719   3.029   7.334  0.3924  0.2859  0.1640
 4764SOL    HW125925   1.760   3.028   7.420  0.9300  0.7386 -0.0835
 4764SOL    HW225926   1.633   2.989   7.346 -0.0915  0.8229 -1.5272
 4765SOL     OW25927   1.587   2.037   3.375  0.2276  0.0264 -0.1261
 4765SOL    HW125928   1.615   1.953   3.341 -1.8927 -0.7835  0.1418
 4765SOL    HW225929   1.493   2.023   3.379 -0.0202  1.1840 -2.0157
 4766SOL     OW25930   4.501   2.015   9.252 -0.0901  0.3069 -0.0951
 4766SOL    HW125931   4.498   1.984   9.162 -1.0037 -0.2044  0.1119
 4766SOL    HW225932   4.472   2.105   9.238  0.5419  0.6795  0.9466
 4767SOL     OW25933   1.829   0.424  12.694 -0.4941  0.2561 -0.0952
 4767SOL    HW125934   1.881   0.498  12.726 -0.6473 -0.3822  1.6481
 4767SOL    HW225935   1.892   0.352  12.692  0.3378  0.9948 -0.8903
 4768SOL     OW25936   1.685   2.307   1.106  0.2085 -0.4664  0.2420
 4768SOL    HW125937   1.736   2.334   1.181 -1.0445  0.1170  0.8903
 4768SOL    HW225938   1.601   2.278   1.143  0.9469 -1.1319  1.3603
 4769SOL     OW25939   2.564   0.053  11.022  0.1622  0.0156 -0.7494
 4769SOL    HW125940   2.659   0.038  11.026  0.0448 -0.6090 -0.3634
 4769SOL    HW225941   2.538   0.020  10.936  3.0058 -2.0677 -0.8096
 4770SOL     OW25942   1.923   1.752   7.840  0.2088 -1.2996  0.1089
 4770SOL    HW125943   1.919   1.659   7.858  2.4032 -1.2929  0.5867
 4770SOL    HW225944   1.893   1.781   7.926 -0.5414  1.6793 -1.1448
 4771SOL     OW25945   0.499   1.709  17.576  0.1115 -0.0949  0.5869
 4771SOL    HW125946   0.439   1.669  17.639  1.3693  0.8893  2.4443
 4771SOL    HW225947   0.446   1.707  17.496  0.6014 -0.1581  0.2663
 4772SOL     OW25948   0.102   2.299   3.547 -0.5309  0.2938  0.2058
 4772SOL    HW125949   0.015   2.294   3.506  0.5631  1.2782 -2.2636
 4772SOL    HW225950   0.136   2.369   3.491 -2.7865  0.4401 -0.9784
 4773SOL     OW25951   4.097   4.139   9.662  0.5259  0.4591 -0.4084
 4773SOL    HW125952   4.106   4.044   9.652  0.8001  0.2272  2.0589
 4773SOL    HW225953   4.164   4.167   9.724  0.6478  0.4394 -0.5308
 4774SOL     OW25954   4.481   0.972   3.493  0.2141  0.1254  0.5047
 4774SOL    HW125955   4.444   0.884   3.484 -0.8083  0.6325 -0.2223
 4774SOL    HW225956   4.568   0.956   3.457 -0.6770 -2.0029 -0.7299
 4775SOL     OW25957   0.260   4.170  10.839 -0.1646 -0.1654  0.0994
 4775SOL    HW125958   0.191   4.103  10.832  0.8933 -1.3066  0.6380
 4775SOL    HW225959   0.217   4.243  10.883 -0.4109  0.8035 -1.7559
 4776SOL     OW25960   4.080   0.131  10.123  0.4435 -0.0017  0.1188
 4776SOL    HW125961   4.072   0.038  10.148  0.5594 -0.3338 -1.0868
 4776SOL    HW225962   4.056   0.176  10.204  1.2182  0.2048  0.2412
 4777SOL     OW25963   4.578   2.634  14.158 -1.0333 -0.7379  0.4600
 4777SOL    HW125964   4.650   2.647  14.220 -1.8455 -0.0066  1.2524
 4777SOL    HW225965   4.560   2.727  14.146  0.6688 -0.2130  2.0100
 4778SOL     OW25966   3.846   3.898  16.905 -0.3000  0.5603  0.1059
 4778SOL    HW125967   3.753   3.917  16.890 -0.1433  1.2797  0.0621
 4778SOL    HW225968   3.863   3.946  16.986  0.5294  0.6114 -0.0958
 4779SOL     OW25969   4.356   4.420   7.941  0.3181 -0.2552  0.4819
 4779SOL    HW125970   4.378   4.339   7.895 -1.1350  0.0983 -0.8476
 4779SOL    HW225971   4.344   4.400   8.034  0.9087 -1.3488  0.3278
 4780SOL     OW25972   2.652   3.475   5.552 -0.1136  0.3258 -0.0859
 4780SOL    HW125973   2.576   3.422   5.578 -0.5295 -0.5642 -3.0685
 4780SOL    HW225974   2.612   3.558   5.524 -2.1017 -1.0850 -1.4616
 4781SOL     OW25975   2.243   2.791  16.593 -0.0973 -0.6858  0.0413
 4781SOL    HW125976   2.149   2.794  16.608 -0.0668  1.0751 -0.1346
 4781SOL    HW225977   2.258   2.739  16.514 -0.9186 -2.1639  0.8536
 4782SOL     OW25978   1.743   1.518   8.124 -0.3091 -0.6100  0.3605
 4782SOL    HW125979   1.796   1.474   8.190 -0.5064 -2.5751 -0.8048
 4782SOL    HW225980   1.801   1.518   8.048  2.4429 -0.1653  2.4443
 4783SOL     OW25981   4.293   4.354   5.177 -0.0727 -0.7027 -0.1013
 4783SOL    HW125982   4.337   4.385   5.098 -0.2234  1.0317  0.5030
 4783SOL    HW225983   4.352   4.379   5.249 -0.5315  0.3443 -0.0964
 4784SOL     OW25984   2.209   1.011   6.011 -0.0422  0.3324 -0.1137
 4784SOL    HW125985   2.127   1.048   5.980 -0.5146 -2.3979 -2.0509
 4784SOL    HW225986   2.211   0.928   5.964 -0.8531 -1.7983  3.6130
 4785SOL     OW25987   4.492   2.488   5.519 -0.0257 -0.0926  0.3995
 4785SOL    HW125988   4.399   2.510   5.514  0.2434  0.7973 -1.0116
 4785SOL    HW225989   4.519   2.519   5.432  0.1097 -0.9814  0.1260
 4786SOL     OW25990   2.263   3.836   2.164  0.3545 -0.1044  1.2376
 4786SOL    HW125991   2.265   3.867   2.074  1.0587 -0.5957  1.0855
 4786SOL    HW225992   2.340   3.878   2.204 -0.3418  2.4167 -0.0659
 4787SOL     OW25993   4.131   1.939   6.305 -0.2730 -0.0529  0.5701
 4787SOL    HW125994   4.052   1.925   6.357 -1.3411 -2.9632 -1.8381
 4787SOL    HW225995   4.157   2.029   6.327 -2.3233  0.6208  0.2133
 4788SOL     OW25996   3.257   0.776   9.660 -0.4863 -0.8512 -0.1278
 4788SOL    HW125997   3.291   0.698   9.704  0.5941 -0.4639 -0.2721
 4788SOL    HW225998   3.275   0.760   9.568 -0.2600  1.3807 -0.4859
 4789SOL     OW25999   3.120   3.665  12.625 -0.1576  0.0470  0.6514
 4789SOL    HW126000   3.172   3.664  12.544 -0.0985 -0.2873  0.6948
 4789SOL    HW226001   3.153   3.594  12.679  1.1037 -0.8602 -1.3169
 4790SOL     OW26002   4.024   2.067   1.057  0.5003 -0.3074  0.4127
 4790SOL    HW126003   4.058   1.979   1.077 -0.4994 -0.7631  0.0798
 4790SOL    HW226004   3.999   2.062   0.965  0.7091 -0.7572  0.3807
 4791SOL     OW26005   2.369   4.465  14.491  0.3217 -0.0842 -0.3985
 4791SOL    HW126006   2.281   4.501  14.488 -0.2869 -1.1925  3.3505
 4791SOL    HW226007   2.344   4.379  14.524 -0.6872  0.0056 -0.9342
 4792SOL     OW26008   3.106   1.311   3.982  0.2660 -0.5902  0.1881
 4792SOL    HW126009   3.162   1.239   4.011 -2.7763 -2.4329  1.5160
 4792SOL    HW226010   3.026   1.291   4.031  1.4257  3.4504  3.7139
 4793SOL     OW26011   2.373   2.029   1.698  0.2093  0.0676 -0.0957
 4793SOL    HW126012   2.410   1.953   1.653  0.0029  0.0237 -0.1932
 4793SOL    HW226013   2.445   2.072   1.743 -0.9499  0.9617  0.9091
 4794SOL     OW26014   3.284   1.004  11.178  0.6286  0.0935  0.0332
 4794SOL    HW126015   3.351   1.033  11.116  0.5991 -1.2112 -0.5939
 4794SOL    HW226016   3.334   0.945  11.234  1.2901 -1.5449 -2.3253
 4795SOL     OW26017   4.565   2.895   6.117 -0.5943  0.3289 -0.6159
 4795SOL    HW126018   4.612   2.915   6.198  0.6347  0.1139 -1.2726
 4795SOL    HW226019   4.604   2.811   6.095  0.2861  1.0062 -1.6678
 4796SOL     OW26020   4.064   2.175   4.087  0.2329 -0.5057 -0.0674
 4796SOL    HW126021   4.035   2.251   4.138  0.0029 -0.7282  0.1368
 4796SOL    HW226022   4.018   2.187   4.004  0.6136  0.3425 -0.1554
 4797SOL     OW26023   1.239   2.370  12.707  0.2511 -0.1747 -0.1348
 4797SOL    HW126024   1.265   2.315  12.633 -1.3045 -1.8778  0.5751
 4797SOL    HW226025   1.174   2.320  12.756  0.5907  0.3384  0.8315
 4798SOL     OW26026   2.742   1.418   4.325 -0.2748  0.0898  0.1380
 4798SOL    HW126027   2.700   1.489   4.277  0.3535  0.4110  0.0563
 4798SOL    HW226028   2.768   1.479   4.394  0.4848  0.3562 -0.3878
 4799SOL     OW26029   4.106   2.305  17.098 -0.3686 -0.1478  0.2048
 4799SOL    HW126030   4.167   2.355  17.043 -0.7157  0.2337  0.1655
 4799SOL    HW226031   4.112   2.219  17.056 -0.1410  1.4467 -3.0411
 4800SOL     OW26032   0.129   3.519   6.894  0.6918 -0.5533  0.5621
 4800SOL    HW126033   0.121   3.424   6.904 -1.2280 -0.3421  1.0776
 4800SOL    HW226034   0.060   3.538   6.831 -0.2292  1.4665  2.1751
 4801SOL     OW26035   4.481   0.784   8.283  0.0420  0.5750 -0.9710
 4801SOL    HW126036   4.397   0.817   8.317  0.1096  0.6714 -0.8979
 4801SOL    HW226037   4.502   0.719   8.350 -1.8731  0.8624 -0.0954
 4802SOL     OW26038   2.127   1.340   0.954  0.0532  0.6670 -0.0231
 4802SOL    HW126039   2.057   1.278   0.933 -0.9641  1.1621  1.8557
 4802SOL    HW226040   2.204   1.285   0.963  0.1852  1.1963  2.3351
 4803SOL     OW26041   1.137   2.224   4.437 -0.2507 -0.1113  0.6075
 4803SOL    HW126042   1.112   2.252   4.349  2.1615  0.4667  0.1011
 4803SOL    HW226043   1.157   2.132   4.418  1.3215  0.3587  0.0108
 4804SOL     OW26044   0.947   3.379  12.269 -0.1317  0.0832  0.4539
 4804SOL    HW126045   0.987   3.330  12.342 -0.4913 -0.1919  0.4665
 4804SOL    HW226046   0.897   3.443  12.320  0.3869  1.8207 -1.2376
 4805SOL     OW26047   3.435   2.910   1.767 -0.6696 -0.6100 -0.2468
 4805SOL    HW126048   3.439   2.906   1.671 -0.0633  3.2343 -0.3782
 4805SOL    HW226049   3.402   2.997   1.789 -1.9334 -1.1310 -0.1054
 4806SOL     OW26050   3.046   2.139  12.874  1.1734 -0.2859 -0.0342
 4806SOL    HW126051   3.083   2.080  12.939  2.1762 -0.4259 -0.7326
 4806SOL    HW226052   3.065   2.089  12.794  0.0575 -1.5064  0.4673
 4807SOL     OW26053   1.543   3.478  15.557 -0.5211 -0.2220  0.3882
 4807SOL    HW126054   1.600   3.449  15.627 -1.1679  0.0271  1.0176
 4807SOL    HW226055   1.586   3.556  15.522  1.4106 -1.3251  0.3304
 4808SOL     OW26056   3.951   2.365   0.617 -0.6204  0.3757 -0.6154
 4808SOL    HW126057   3.953   2.450   0.573 -0.1389  0.1771 -0.9665
 4808SOL    HW226058   3.855   2.357   0.618 -0.5485 -0.3287  0.2935
 4809SOL     OW26059   3.281   0.175   9.349 -0.0719 -0.6444  0.2059
 4809SOL    HW126060   3.338   0.230   9.297 -0.7877 -1.1989 -1.1649
 4809SOL    HW226061   3.250   0.110   9.285  0.1205  2.0892 -2.6308
 4810SOL     OW26062   0.895   2.536   6.887  0.0987  0.3058 -0.3668
 4810SOL    HW126063   0.821   2.480   6.911 -1.0897  1.7488 -0.6830
 4810SOL    HW226064   0.858   2.618   6.919  1.3904  1.5766 -2.1237
 4811SOL     OW26065   3.950   4.713   1.735 -0.2531 -0.3400 -0.6642
 4811SOL    HW126066   3.971   4.631   1.780  2.0843  1.0971  0.8476
 4811SOL    HW226067   3.856   4.706   1.719 -0.8824 -1.8888  3.5308
 4812SOL     OW26068   4.056   3.049   7.913 -0.0750 -0.6092 -0.1357
 4812SOL    HW126069   4.081   2.973   7.860 -1.6275 -2.8275  2.2739
 4812SOL    HW226070   4.043   3.106   7.838 -0.5920 -0.6402 -0.0687
 4813SOL     OW26071   1.151   3.067  15.088 -0.0539  0.0078 -0.0667
 4813SOL    HW126072   1.209   3.041  15.016  0.9769  1.4538  0.2347
 4813SOL    HW226073   1.182   3.008  15.157  3.0021 -0.6392 -1.9451
 4814SOL     OW26074   1.396   3.640   3.159  0.3341 -0.9743  0.1554
 4814SOL    HW126075   1.330   3.667   3.095  1.3942  0.0595 -0.4894
 4814SOL    HW226076   1.364   3.575   3.222  0.2219 -1.0147  0.0570
 4815SOL     OW26077   3.456   0.094   6.480 -0.8831  0.1616  0.2573
 4815SOL    HW126078   3.544   0.071   6.509 -1.1977  0.7445  1.6481
 4815SOL    HW226079   3.413   0.011   6.460 -0.2328  0.0248 -0.6316
 4816SOL     OW26080   4.089   2.789   7.825 -0.3137 -0.0600  0.6592
 4816SOL    HW126081   3.998   2.806   7.798  0.4965 -0.5556 -2.3905
 4816SOL    HW226082   4.099   2.698   7.796  4.5703  0.2901  1.2680
 4817SOL     OW26083   1.128   0.861   4.442 -0.0576 -0.6689  0.7420
 4817SOL    HW126084   1.178   0.883   4.520 -0.3081 -0.4709  0.8493
 4817SOL    HW226085   1.100   0.944   4.403 -0.6653 -1.5057 -0.6192
 4818SOL     OW26086   0.908   2.329   2.158 -0.4393  0.0363 -0.2568
 4818SOL    HW126087   1.000   2.307   2.147  0.3181  3.3313 -0.6031
 4818SOL    HW226088   0.867   2.244   2.175 -0.5225  0.1561  0.1454
 4819SOL     OW26089   2.443   3.482   4.483  0.0170 -0.1136 -0.0458
 4819SOL    HW126090   2.351   3.464   4.501 -0.1074 -0.0324 -0.5783
 4819SOL    HW226091   2.434   3.536   4.404  0.7641 -1.6578 -1.1923
 4820SOL     OW26092   3.071   1.928   6.224  0.3012 -0.3655 -0.2185
 4820SOL    HW126093   3.137   1.948   6.290 -1.7269  1.0284  1.3799
 4820SOL    HW226094   3.002   1.882   6.271 -0.5036  1.0621  0.0036
 4821SOL     OW26095   0.026   2.778  17.341 -0.3302 -0.5220 -0.0772
 4821SOL    HW126096   0.091   2.772  17.411 -0.2971 -2.7275 -0.3172
 4821SOL    HW226097   0.011   2.871  17.326  0.6220 -0.4455 -0.5344
 4822SOL     OW26098   3.673   4.663   5.564  0.3578 -0.0873  0.3898
 4822SOL    HW126099   3.610   4.674   5.635 -0.6876 -0.5430 -0.4696
 4822SOL    HW226100   3.619   4.640   5.489  2.6061  0.4487 -1.3832
 4823SOL     OW26101   3.609   2.507   7.229 -0.1777  0.2429 -0.2727
 4823SOL    HW126102   3.670   2.528   7.300  0.6099 -1.8873 -0.3035
 4823SOL    HW226103   3.661   2.534   7.154 -0.3416  0.8125 -0.1791
 4824SOL     OW26104   3.827   3.705  12.485 -0.4034  0.0718  0.1251
 4824SOL    HW126105   3.771   3.692  12.561 -1.1650 -0.2974 -0.5053
 4824SOL    HW226106   3.899   3.650  12.515  0.5497  0.9843 -0.4602
 4825SOL     OW26107   2.100   4.166  17.354  0.0770 -0.1481  0.0653
 4825SOL    HW126108   2.192   4.143  17.368  0.2636  0.2119 -0.5494
 4825SOL    HW226109   2.075   4.236  17.414 -2.2587  0.0513 -1.1241
 4826SOL     OW26110   4.099   4.545   9.224 -0.3391  0.0337  0.7610
 4826SOL    HW126111   4.142   4.493   9.292 -2.9979 -0.0925  2.3634
 4826SOL    HW226112   4.164   4.552   9.155 -0.0283 -0.0324  1.0460
 4827SOL     OW26113   0.264   2.065   5.176 -0.2914  0.2670  0.4424
 4827SOL    HW126114   0.324   1.996   5.147 -0.2829  1.7579 -3.0043
 4827SOL    HW226115   0.255   2.112   5.093  1.9520  0.6131  0.3928
 4828SOL     OW26116   0.078   3.460  16.044 -0.0678 -0.0918 -0.4634
 4828SOL    HW126117   4.732   3.463  15.999 -0.0856  1.1374 -0.3409
 4828SOL    HW226118   0.065   3.520  16.117 -0.0948 -2.1893  1.2544
 4829SOL     OW26119   2.436   2.880   8.052 -0.1841  0.3326 -0.8086
 4829SOL    HW126120   2.354   2.836   8.030  0.7350 -1.5064 -0.5040
 4829SOL    HW226121   2.459   2.857   8.142 -0.2936  0.3995 -0.7626
 4830SOL     OW26122   1.047   4.463   8.418 -0.3380 -0.2306  0.1405
 4830SOL    HW126123   1.083   4.379   8.446  0.4715 -0.4336 -1.5051
 4830SOL    HW226124   0.964   4.431   8.385 -0.1515 -0.5083 -0.0548
 4831SOL     OW26125   3.187   1.191  13.911 -0.3912  0.6454  0.0806
 4831SOL    HW126126   3.250   1.172  13.842 -2.8669 -2.6897 -1.2614
 4831SOL    HW226127   3.109   1.210  13.858  0.0720 -0.6932 -1.0686
 4832SOL     OW26128   0.060   3.648   3.018 -0.2310 -0.8037  0.2893
 4832SOL    HW126129   0.016   3.727   3.049  1.5514  0.4153 -0.2597
 4832SOL    HW226130   0.142   3.674   2.975  1.2542 -1.8273  2.5413
 4833SOL     OW26131   3.075   2.597   7.356  0.0613  0.0275 -0.1321
 4833SOL    HW126132   3.104   2.672   7.408  1.2321 -0.0648 -0.6451
 4833SOL    HW226133   2.984   2.585   7.381  0.2632  0.0360  0.5951
 4834SOL     OW26134   2.588   1.973  10.091  0.0217  0.3347 -0.1454
 4834SOL    HW126135   2.629   1.901  10.043 -1.1018  1.0358 -2.1901
 4834SOL    HW226136   2.502   1.949  10.056  0.3578  1.9313 -2.0496
 4835SOL     OW26137   2.671   1.634   4.185  0.4857  0.1990 -0.0012
 4835SOL    HW126138   2.747   1.682   4.150  0.8081 -0.5517 -0.3304
 4835SOL    HW226139   2.628   1.618   4.101  1.7285  0.9502 -0.7934
 4836SOL     OW26140   2.871   2.766  13.673 -0.1528  0.3291  0.0081
 4836SOL    HW126141   2.949   2.714  13.693 -0.2681 -0.1217 -0.7221
 4836SOL    HW226142   2.815   2.688  13.668  0.2373  0.1306 -1.3361
 4837SOL     OW26143   2.272   4.651   2.882  0.3545  0.5060  0.1417
 4837SOL    HW126144   2.359   4.629   2.849 -1.3418 -1.4177 -3.0549
 4837SOL    HW226145   2.209   4.623   2.815  0.8935 -1.4381  0.4435
 4838SOL     OW26146   2.289   2.704   8.875 -0.3537 -0.5822 -0.2650
 4838SOL    HW126147   2.258   2.671   8.959 -2.0308 -0.6292 -0.9012
 4838SOL    HW226148   2.208   2.736   8.836  0.1111  2.0355  0.8633
 4839SOL     OW26149   2.324   3.040  12.790  0.5129  0.1587 -0.2170
 4839SOL    HW126150   2.268   3.012  12.717 -1.4537 -0.3859  1.4963
 4839SOL    HW226151   2.407   3.042  12.742  0.5094  0.2022 -0.2209
 4840SOL     OW26152   2.576   0.902  15.664 -0.5358  0.7716 -0.1006
 4840SOL    HW126153   2.561   0.873  15.574 -0.3545 -1.2265  0.5034
 4840SOL    HW226154   2.660   0.947  15.659 -0.1098 -0.0028 -0.0272
 4841SOL     OW26155   4.637   3.179   5.542  0.0803 -0.4090  0.0084
 4841SOL    HW126156   4.704   3.124   5.501  0.3009  0.7956 -1.2460
 4841SOL    HW226157   4.607   3.123   5.613 -3.7465  0.0108 -1.2707
 4842SOL     OW26158   0.573   3.931   6.837 -0.1240 -0.8990  0.3169
 4842SOL    HW126159   0.501   3.900   6.891 -2.0979 -0.8120 -2.2834
 4842SOL    HW226160   0.518   3.955   6.763  0.7312  2.4647  0.7193
 4843SOL     OW26161   3.709   2.460   9.076 -0.6459  0.2999  0.3476
 4843SOL    HW126162   3.650   2.526   9.039 -0.1420 -0.3075 -1.5318
 4843SOL    HW226163   3.789   2.512   9.074 -0.2169 -0.4158 -0.7792
 4844SOL     OW26164   3.226   2.319  16.438  0.0668 -0.7680  0.3991
 4844SOL    HW126165   3.304   2.265  16.419 -0.7919 -1.7330 -0.3764
 4844SOL    HW226166   3.209   2.310  16.531 -0.0074  0.2683  0.4844
 4845SOL     OW26167   4.237   0.378  11.947  0.3073  0.0354  0.0523
 4845SOL    HW126168   4.258   0.287  11.925 -2.0890 -0.2884 -0.9006
 4845SOL    HW226169   4.271   0.376  12.036 -1.4747 -2.3126  0.6984
 4846SOL     OW26170   1.631   2.062   0.255 -0.7518  0.0607 -0.1633
 4846SOL    HW126171   1.638   2.033   0.346 -3.6550 -0.0842  0.0109
 4846SOL    HW226172   1.541   2.037   0.237 -0.0804 -0.4660 -2.8806
 4847SOL     OW26173   1.775   2.306   8.216 -0.1502  0.2829 -0.0554
 4847SOL    HW126174   1.748   2.215   8.201 -1.8589  0.5901  1.1690
 4847SOL    HW226175   1.869   2.312   8.195 -0.4887  2.9832 -0.8019
 4848SOL     OW26176   3.991   4.536   4.366 -1.0672 -0.6175  0.9288
 4848SOL    HW126177   3.998   4.444   4.392 -0.3281 -0.9868 -0.5833
 4848SOL    HW226178   3.994   4.525   4.271  2.6186  2.1409  0.7064
 4849SOL     OW26179   1.367   3.437   1.018 -0.1806  0.2362  0.0713
 4849SOL    HW126180   1.373   3.413   1.111  0.9765  1.2832  0.2647
 4849SOL    HW226181   1.449   3.392   1.000  0.0763 -0.2635  2.3887
 4850SOL     OW26182   0.044   3.415   7.208  0.4173 -0.5683 -0.0329
 4850SOL    HW126183   0.019   3.332   7.168 -2.9509  0.5695 -0.2190
 4850SOL    HW226184   0.128   3.398   7.251 -0.3058 -2.1093  0.7754
 4851SOL     OW26185   3.574   3.745   6.375  0.4183  0.0674 -0.0258
 4851SOL    HW126186   3.552   3.718   6.286  1.0011 -0.3237 -0.0543
 4851SOL    HW226187   3.497   3.791   6.409  0.4161 -0.0492  0.1284
 4852SOL     OW26188   2.209   4.649  12.934  0.0449  0.2846 -0.3099
 4852SOL    HW126189   2.119   4.653  12.902 -0.3775  0.0041  0.8204
 4852SOL    HW226190   2.246   4.704  12.865  4.0747 -4.1501 -1.6511
 4853SOL     OW26191   3.661   3.604   4.605 -0.2632  0.0427 -0.3770
 4853SOL    HW126192   3.602   3.677   4.588  1.4485  1.4370 -0.3240
 4853SOL    HW226193   3.614   3.547   4.667  0.2070  0.6347  0.5306
 4854SOL     OW26194   4.646   4.058   9.924  0.2747 -0.1730  0.1013
 4854SOL    HW126195   4.685   3.975   9.953  1.5838  1.4583  3.0701
 4854SOL    HW226196   4.694   4.120   9.979  0.3509 -1.6923  1.7529
 4855SOL     OW26197   1.585   0.027   2.608 -0.1469 -0.3389 -0.0172
 4855SOL    HW126198   1.665   0.036   2.660  0.0764  0.5152 -0.5090
 4855SOL    HW226199   1.559   0.117   2.592 -0.5636 -0.4255  0.1739
 4856SOL     OW26200   2.573   4.173   9.194 -0.5887  0.1100  0.4023
 4856SOL    HW126201   2.581   4.175   9.099 -0.1242  0.1762  0.4435
 4856SOL    HW226202   2.609   4.260   9.211 -0.3964 -0.0864  0.9951
 4857SOL     OW26203   3.049   0.543   3.920 -0.0107 -0.7027  0.1721
 4857SOL    HW126204   3.095   0.509   3.844 -0.4640  0.2504 -0.5244
 4857SOL    HW226205   3.011   0.463   3.958 -0.1159 -0.8478 -0.2437
 4858SOL     OW26206   3.686   1.463  15.452  0.6102  0.0775  0.0318
 4858SOL    HW126207   3.698   1.412  15.532 -0.4740  0.4929  0.4708
 4858SOL    HW226208   3.620   1.525  15.483 -0.9889 -2.2297  1.2689
 4859SOL     OW26209   2.401   3.173   0.267 -0.0759 -0.2280 -0.6250
 4859SOL    HW126210   2.445   3.254   0.242 -0.4510  0.4831  1.0090
 4859SOL    HW226211   2.438   3.123   0.194 -0.5757  0.9880 -1.6946
 4860SOL     OW26212   3.619   2.009   8.326 -0.7860  0.2849 -0.2865
 4860SOL    HW126213   3.619   1.945   8.396 -1.1662 -1.1835 -1.6246
 4860SOL    HW226214   3.531   2.045   8.337 -0.6023  1.2549 -1.9251
 4861SOL     OW26215   4.502   1.671  16.370  0.3471  0.0977  0.7773
 4861SOL    HW126216   4.524   1.584  16.402  0.4361 -0.3179 -0.4404
 4861SOL    HW226217   4.450   1.706  16.442 -0.5259  0.6070 -0.0998
 4862SOL     OW26218   1.443   1.748   6.923  0.7023  0.4433 -0.1495
 4862SOL    HW126219   1.448   1.833   6.966  1.1051  0.2590  0.1647
 4862SOL    HW226220   1.495   1.767   6.845 -0.4761 -0.9082 -1.2720
 4863SOL     OW26221   3.151   0.297  13.378 -0.6006 -0.5156 -0.1526
 4863SOL    HW126222   3.182   0.383  13.405 -0.9540 -1.1040  2.1652
 4863SOL    HW226223   3.231   0.245  13.371 -0.9379 -1.3599  2.0377
 4864SOL     OW26224   2.928   3.264   6.846  0.0269  0.2980  0.6342
 4864SOL    HW126225   2.914   3.298   6.934  0.1818  3.0407 -0.3806
 4864SOL    HW226226   3.021   3.249   6.855  0.0416 -0.7282 -1.1978
 4865SOL     OW26227   0.921   1.285   5.158 -0.0674 -0.7333  0.3171
 4865SOL    HW126228   0.941   1.207   5.106  0.4966 -0.3568 -0.0217
 4865SOL    HW226229   1.010   1.315   5.171  0.2898 -1.3759 -0.6509
 4866SOL     OW26230   2.677   4.119   6.739  0.0621  0.8363  0.6459
 4866SOL    HW126231   2.600   4.065   6.719 -0.9606  2.1969  0.9205
 4866SOL    HW226232   2.689   4.114   6.833  0.5518 -0.8107  0.5005
 4867SOL     OW26233   1.409   3.179  11.656  0.4612 -0.9056 -0.1893
 4867SOL    HW126234   1.456   3.095  11.651 -0.3196 -1.3169 -0.6192
 4867SOL    HW226235   1.378   3.182  11.746  1.7869  1.8030  0.1748
 4868SOL     OW26236   4.409   4.383   4.081  0.3910  0.3402 -0.1129
 4868SOL    HW126237   4.371   4.379   3.993 -1.0460 -0.3720  0.5525
 4868SOL    HW226238   4.405   4.292   4.109  0.5271  0.8639  1.6179
 4869SOL     OW26239   0.985   4.596   6.157 -0.1468 -0.1645 -0.1702
 4869SOL    HW126240   1.028   4.542   6.091  3.1549  1.2767  0.8121
 4869SOL    HW226241   0.948   4.527   6.212 -0.5456 -0.0915 -0.3458
 4870SOL     OW26242   0.468   3.354   6.395 -0.2955 -0.3460  0.5336
 4870SOL    HW126243   0.527   3.346   6.470 -0.8520 -0.0700  0.9947
 4870SOL    HW226244   0.391   3.396   6.431  0.8656 -1.0949  3.8931
 4871SOL     OW26245   1.255   0.918  11.192 -0.3595 -0.1663  0.3720
 4871SOL    HW126246   1.326   0.980  11.207 -2.2251  2.4079 -1.3795
 4871SOL    HW226247   1.307   0.839  11.207  0.1247  0.1653  0.4035
 4872SOL     OW26248   0.961   0.661   4.127 -0.0886  0.0862  0.4999
 4872SOL    HW126249   1.050   0.691   4.143 -1.2283  2.1579  2.8059
 4872SOL    HW226250   0.971   0.569   4.151 -2.0122 -0.2067  0.1864
 4873SOL     OW26251   4.704   3.752   6.452  0.1953 -0.2564 -0.1152
 4873SOL    HW126252   4.652   3.741   6.531  0.8529 -1.0301  0.2119
 4873SOL    HW226253   4.684   3.673   6.401 -2.4316 -1.5562  2.9463
 4874SOL     OW26254   0.332   3.536  15.395 -0.9506 -0.3596  0.0534
 4874SOL    HW126255   0.350   3.487  15.475  0.5260  2.6313  1.5744
 4874SOL    HW226256   0.280   3.468  15.353 -0.8674 -1.0962  1.1576
 4875SOL     OW26257   3.759   1.122   2.493  0.1449 -0.4394 -0.1890
 4875SOL    HW126258   3.696   1.122   2.421  0.3305  1.2944 -0.3564
 4875SOL    HW226259   3.776   1.028   2.501  3.6754  0.1750 -0.6462
 4876SOL     OW26260   3.464   1.180   5.754  0.4883  0.2144  0.0744
 4876SOL    HW126261   3.450   1.274   5.745  0.4110  0.4631  2.7842
 4876SOL    HW226262   3.436   1.177   5.846 -0.5227 -2.6100 -0.3309
 4877SOL     OW26263   1.503   2.789   3.654 -0.4653 -0.5931  0.0595
 4877SOL    HW126264   1.511   2.818   3.745  1.0457  2.1890 -0.9780
 4877SOL    HW226265   1.516   2.695   3.666  2.6768 -0.4236 -2.1163
 4878SOL     OW26266   1.108   0.600   5.883 -0.1718 -0.1385  0.5658
 4878SOL    HW126267   1.193   0.609   5.926 -0.5885 -0.1815  1.3895
 4878SOL    HW226268   1.084   0.519   5.928 -1.1676  0.9500  1.9876
 4879SOL     OW26269   1.528   1.775  12.501  0.2272  0.0681  0.0033
 4879SOL    HW126270   1.445   1.729  12.514  1.2671 -1.5590  0.8159
 4879SOL    HW226271   1.523   1.782  12.406 -0.8452  2.2249  0.2130
 4880SOL     OW26272   3.341   4.724   4.276 -0.2441  0.4266  0.1708
 4880SOL    HW126273   3.287   0.063   4.256 -0.3519  0.4291  0.4823
 4880SOL    HW226274   3.336   4.726   4.371 -0.8692 -0.1283  0.1484
 4881SOL     OW26275   3.101   1.018   9.236 -0.0522 -0.0231 -0.2643
 4881SOL    HW126276   3.037   0.956   9.271 -1.2503  2.4562  2.0334
 4881SOL    HW226277   3.129   1.052   9.322  1.4760 -1.4554 -0.2122
 4882SOL     OW26278   3.209   2.526   6.945 -0.1680  0.0038  0.0904
 4882SOL    HW126279   3.251   2.486   7.020 -1.4119 -1.4293  0.0217
 4882SOL    HW226280   3.267   2.511   6.870  0.3427  2.1641  0.0585
 4883SOL     OW26281   2.257   2.485   4.507  0.3707  0.5225 -0.2410
 4883SOL    HW126282   2.273   2.481   4.602  0.5499 -2.6888 -0.3988
 4883SOL    HW226283   2.225   2.396   4.491  1.3588  0.3543 -1.2113
 4884SOL     OW26284   1.341   2.531   3.906 -0.0830  0.2409 -0.0092
 4884SOL    HW126285   1.406   2.572   3.849  1.0033  0.6969  1.5531
 4884SOL    HW226286   1.262   2.569   3.869  1.4205  2.2922 -1.1411
 4885SOL     OW26287   0.501   2.716   6.083 -0.2471  0.0337  0.1338
 4885SOL    HW126288   0.408   2.727   6.101 -0.7498 -2.0175 -1.1724
 4885SOL    HW226289   0.503   2.639   6.140  0.9775  0.4725  0.6888
 4886SOL     OW26290   2.142   2.209  14.410  0.1561  0.0685  0.0947
 4886SOL    HW126291   2.159   2.200  14.316  0.8684 -1.9104  0.4174
 4886SOL    HW226292   2.099   2.126  14.429  0.5192  0.5601  2.9541
 4887SOL     OW26293   1.270   1.319  11.655  0.5551 -0.4776 -0.5504
 4887SOL    HW126294   1.242   1.228  11.663  0.5919 -0.4700 -0.3485
 4887SOL    HW226295   1.316   1.329  11.738  3.4879  2.4494 -2.5267
 4888SOL     OW26296   1.369   1.978   7.527 -0.0234 -0.0271 -0.1212
 4888SOL    HW126297   1.350   2.007   7.438  2.4631 -0.7732 -0.8936
 4888SOL    HW226298   1.422   1.899   7.513  1.2990  0.4888  2.0629
 4889SOL     OW26299   4.210   0.781   0.815  0.1674  0.4308  0.4363
 4889SOL    HW126300   4.168   0.718   0.874 -0.3385 -0.7670 -1.2120
 4889SOL    HW226301   4.206   0.863   0.864  1.3547  0.4819  0.4562
 4890SOL     OW26302   4.374   0.098   7.202 -0.1554 -0.4831 -0.0425
 4890SOL    HW126303   4.362   0.186   7.165 -0.6011 -0.3890  0.3379
 4890SOL    HW226304   4.418   0.125   7.283  0.2711  0.8705 -0.7171
 4891SOL     OW26305   3.729   2.990   1.573  0.0150  0.3586  0.5223
 4891SOL    HW126306   3.675   3.032   1.505 -1.5160 -1.2252  0.7402
 4891SOL    HW226307   3.740   2.904   1.532  4.4756  0.6940  1.1187
 4892SOL     OW26308   3.615   3.323   3.969 -0.1104  0.5364 -0.6779
 4892SOL    HW126309   3.525   3.295   3.955 -0.5582  1.5642  0.1212
 4892SOL    HW226310   3.646   3.299   3.882 -0.2585 -2.2312  0.0196
 4893SOL     OW26311   2.488   0.283   0.600 -0.3036 -0.1645  0.9537
 4893SOL    HW126312   2.555   0.221   0.629 -1.5126 -1.3253  1.2716
 4893SOL    HW226313   2.485   0.344   0.674 -0.0604  2.4474 -1.1691
 4894SOL     OW26314   1.553   3.597   0.089  0.1115 -0.6054  0.0220
 4894SOL    HW126315   1.460   3.603   0.110 -0.4416  0.0159 -2.6981
 4894SOL    HW226316   1.547   3.556   0.003  1.2481 -0.6028 -0.0541
 4895SOL     OW26317   1.040   3.754   6.539  0.3224  0.4644 -0.1986
 4895SOL    HW126318   0.959   3.798   6.563 -0.2215  0.4403 -1.9892
 4895SOL    HW226319   1.038   3.774   6.445  3.6375  1.1338 -0.1478
 4896SOL     OW26320   4.499   4.408   0.684  0.4185 -0.1999 -0.3198
 4896SOL    HW126321   4.556   4.346   0.638  1.9004 -0.8291  2.3510
 4896SOL    HW226322   4.568   4.464   0.719 -0.8976  2.0600 -1.3627
 4897SOL     OW26323   0.540   2.679   7.168  0.7510 -0.1071  0.0139
 4897SOL    HW126324   0.523   2.601   7.114 -0.5086 -0.2881  0.6700
 4897SOL    HW226325   0.575   2.642   7.249  3.1315 -1.4591 -1.6218
 4898SOL     OW26326   3.045   2.413  14.445 -0.0397 -0.4622 -0.2747
 4898SOL    HW126327   3.103   2.476  14.488 -1.3796  0.2831  0.4604
 4898SOL    HW226328   3.113   2.365  14.399  0.8943  0.5766  0.0239
 4899SOL     OW26329   1.492   3.009   7.030  0.4047 -0.1825 -0.5649
 4899SOL    HW126330   1.438   3.086   7.044  0.0029 -0.8911  1.6942
 4899SOL    HW226331   1.429   2.940   7.050  1.5425 -1.4510 -1.3044
 4900SOL     OW26332   3.247   0.159  13.125 -0.5721 -0.1673  0.0326
 4900SOL    HW126333   3.160   0.126  13.147 -0.4317 -0.6762 -0.1890
 4900SOL    HW226334   3.240   0.244  13.081  2.2909  0.3223  0.5048
 4901SOL     OW26335   4.575   3.925   3.665 -0.7225  0.3978  0.3298
 4901SOL    HW126336   4.637   3.854   3.648  0.0233  1.1127  0.0878
 4901SOL    HW226337   4.621   3.994   3.617  1.8802 -0.7799  1.1534
 4902SOL     OW26338   1.125   3.668   4.976  0.5402  0.2930 -0.2886
 4902SOL    HW126339   1.069   3.595   5.002 -0.5640  1.9370  2.0170
 4902SOL    HW226340   1.155   3.636   4.891  5.4111 -0.6622  1.8222
 4903SOL     OW26341   2.546   3.352   8.776 -0.0261 -0.5982  0.3474
 4903SOL    HW126342   2.485   3.378   8.708 -1.7555  1.3728  2.6710
 4903SOL    HW226343   2.510   3.265   8.794  0.3696 -0.6846  0.7184
 4904SOL     OW26344   3.513   2.928  12.839 -0.1125 -0.0609 -0.0931
 4904SOL    HW126345   3.498   2.840  12.873 -0.0720  0.3004  0.8562
 4904SOL    HW226346   3.475   2.926  12.751 -0.2851 -0.5389 -0.0061
 4905SOL     OW26347   4.635   4.286   2.125 -0.4833  0.8917  0.1209
 4905SOL    HW126348   4.608   4.260   2.213 -1.0258 -0.8023 -0.5315
 4905SOL    HW226349   4.568   4.237   2.078 -1.6275  1.0030  1.6292
 4906SOL     OW26350   2.566   0.329   6.852 -0.3639 -0.1225 -0.0931
 4906SOL    HW126351   2.570   0.384   6.773  1.3145  1.2255  0.9309
 4906SOL    HW226352   2.474   0.340   6.879  0.0190  2.6456  0.1035
 4907SOL     OW26353   4.227   3.749  11.282 -0.0899 -0.0089 -0.4409
 4907SOL    HW126354   4.247   3.681  11.346  0.2653 -0.4585 -1.0351
 4907SOL    HW226355   4.153   3.799  11.318  2.6139  2.2999  1.9014
 4908SOL     OW26356   3.915   1.207   9.757 -0.0315  0.4585  0.0921
 4908SOL    HW126357   3.839   1.159   9.790  1.1543  0.0720  2.3064
 4908SOL    HW226358   3.899   1.225   9.665  1.3542 -0.1282 -0.2719
 4909SOL     OW26359   4.208   2.180   1.255 -0.3577 -0.8077 -0.1782
 4909SOL    HW126360   4.296   2.145   1.244  0.2334  1.7096 -3.3969
 4909SOL    HW226361   4.167   2.139   1.178 -0.0891 -1.7037  0.1601
 4910SOL     OW26362   2.468   3.127   8.333 -0.4308 -0.7754 -0.1859
 4910SOL    HW126363   2.433   3.207   8.293  0.0295  0.5459  2.0808
 4910SOL    HW226364   2.560   3.153   8.341 -0.2617 -1.0509 -1.2161
 4911SOL     OW26365   2.893   3.292  11.617  0.5073 -0.4232  0.1472
 4911SOL    HW126366   2.921   3.345  11.542  5.2765 -2.0457  0.7615
 4911SOL    HW226367   2.971   3.243  11.642  0.6168  0.9045  2.4376
 4912SOL     OW26368   0.210   0.659   1.170 -0.2303 -0.2394  0.2809
 4912SOL    HW126369   0.288   0.615   1.203  0.2872  0.9605  0.6626
 4912SOL    HW226370   0.164   0.686   1.250  0.7766  1.8297  0.1618
 4913SOL     OW26371   2.759   0.707   6.307  0.0490  0.4717  0.7521
 4913SOL    HW126372   2.832   0.731   6.251  1.1980 -0.6993  1.7607
 4913SOL    HW226373   2.793   0.652   6.377  0.0076  0.2813  0.6238
 4914SOL     OW26374   3.275   4.462   7.036 -0.0670 -0.4194  0.3854
 4914SOL    HW126375   3.223   4.472   7.116 -1.1453  1.2090 -0.5101
 4914SOL    HW226376   3.356   4.429   7.076  0.4495 -0.1995 -0.4855
 4915SOL     OW26377   2.931   0.228   4.609  0.2759  0.1517 -0.0030
 4915SOL    HW126378   2.966   0.141   4.588  1.5926  0.1183  2.3643
 4915SOL    HW226379   2.895   0.219   4.698 -0.4844 -0.7429 -0.3929
 4916SOL     OW26380   3.327   0.103   0.115 -0.5513  0.2235 -0.0743
 4916SOL    HW126381   3.331   0.111   0.019 -1.6958  0.5580 -0.0922
 4916SOL    HW226382   3.370   0.019   0.127 -2.5794 -1.0466 -1.7036
 4917SOL     OW26383   0.564   3.712   7.232  0.2022  0.1752 -0.3613
 4917SOL    HW126384   0.597   3.624   7.218 -0.1384  0.4358 -2.8141
 4917SOL    HW226385   0.648   3.755   7.248  0.4276 -1.2385  2.3019
 4918SOL     OW26386   2.091   1.631   2.890 -0.3506  0.5055 -0.4067
 4918SOL    HW126387   2.184   1.606   2.883 -0.6008 -0.4941 -0.1660
 4918SOL    HW226388   2.102   1.725   2.877  1.3424 -0.1659 -4.1205
 4919SOL     OW26389   2.110   2.531  10.167  0.0297 -0.5427  0.0884
 4919SOL    HW126390   2.017   2.551  10.155  0.7014  2.1818 -0.7111
 4919SOL    HW226391   2.117   2.507  10.260 -0.2907 -1.4165 -0.1211
 4920SOL     OW26392   0.233   1.790   3.428  0.2595  0.0564 -0.0533
 4920SOL    HW126393   0.227   1.783   3.524  1.6043 -1.2126 -0.0716
 4920SOL    HW226394   0.168   1.857   3.407  1.7042  1.4310 -0.1354
 4921SOL     OW26395   2.272   0.759   1.491 -0.0814  0.1713 -0.2193
 4921SOL    HW126396   2.239   0.840   1.531  0.7358  0.9612 -1.1325
 4921SOL    HW226397   2.244   0.690   1.552  0.6724 -0.1280 -0.2230
 4922SOL     OW26398   2.431   3.687   4.271 -0.3569 -0.7051  0.4162
 4922SOL    HW126399   2.514   3.732   4.260  0.5010 -2.5443 -0.5766
 4922SOL    HW226400   2.384   3.762   4.308  1.2147  0.6058 -0.2729
 4923SOL     OW26401   0.331   4.313   9.250  0.1805 -0.1151  0.2048
 4923SOL    HW126402   0.365   4.378   9.188  0.6165 -0.5315  0.0100
 4923SOL    HW226403   0.283   4.358   9.319  0.4712  0.5438 -0.0199
 4924SOL     OW26404   3.989   0.605   0.813 -0.5466  0.4161  0.3301
 4924SOL    HW126405   4.025   0.633   0.897 -0.2152  1.3966 -0.1410
 4924SOL    HW226406   3.907   0.559   0.831  0.0518 -0.5968  0.4327
 4925SOL     OW26407   2.854   2.852   3.295 -0.1576 -0.7460  0.6906
 4925SOL    HW126408   2.760   2.853   3.276 -0.1464 -1.5711  0.6240
 4925SOL    HW226409   2.881   2.889   3.211  0.2825  1.1817  1.6792
 4926SOL     OW26410   2.387   2.560   4.221 -0.0299 -0.4293 -0.3983
 4926SOL    HW126411   2.344   2.593   4.142 -0.4159 -1.0179 -0.4366
 4926SOL    HW226412   2.321   2.578   4.288 -0.8607 -1.4159 -0.9421
 4927SOL     OW26413   3.275   2.795   4.106  0.2669 -1.0640 -0.3959
 4927SOL    HW126414   3.288   2.757   4.193 -0.3038  0.2227  0.2487
 4927SOL    HW226415   3.244   2.717   4.061 -0.2188 -0.6872 -0.7107
 4928SOL     OW26416   1.059   0.948   8.483  0.1334  0.1268  0.8560
 4928SOL    HW126417   1.106   0.919   8.405  1.5326 -0.1645  1.8171
 4928SOL    HW226418   1.122   0.997   8.535  1.7645 -1.1042  0.0401
 4929SOL     OW26419   0.906   1.965   1.831 -0.2168 -0.1493 -0.2705
 4929SOL    HW126420   0.861   2.018   1.896  1.4484  0.6488  0.2448
 4929SOL    HW226421   0.992   2.005   1.846 -1.0457 -0.0505  4.1095
 4930SOL     OW26422   1.795   1.306  15.977  0.5465  0.1699 -0.0258
 4930SOL    HW126423   1.786   1.211  15.972 -0.1924  0.1562  1.4818
 4930SOL    HW226424   1.838   1.321  15.893  0.1386  0.0061 -0.2594
 4931SOL     OW26425   1.035   4.690   2.140 -0.5070 -0.1992 -0.0401
 4931SOL    HW126426   1.006   0.032   2.095  1.3992  0.2287 -0.5189
 4931SOL    HW226427   1.110   4.726   2.189  0.4472 -2.4412  0.1496
 4932SOL     OW26428   2.206   0.085   7.606  0.3612  0.2846  0.5062
 4932SOL    HW126429   2.116   0.085   7.573  0.2361 -2.0226  0.8982
 4932SOL    HW226430   2.194   0.055   7.696  0.8745  2.9217  1.4712
 4933SOL     OW26431   0.705   1.011   6.089  0.0599 -0.8593  0.5421
 4933SOL    HW126432   0.660   0.949   6.031  0.7888 -3.7161  3.0122
 4933SOL    HW226433   0.743   1.076   6.030  0.9450 -1.6123  0.2799
 4934SOL     OW26434   2.949   4.117   8.452 -0.0373 -0.0519  0.6353
 4934SOL    HW126435   2.912   4.061   8.384  0.8735 -0.3245  0.3735
 4934SOL    HW226436   2.946   4.064   8.531  0.3083 -0.0717  0.6342
 4935SOL     OW26437   0.934   1.182   7.893 -0.4332  0.9624 -0.1239
 4935SOL    HW126438   0.963   1.227   7.813 -1.6023  0.5163 -0.7999
 4935SOL    HW226439   0.904   1.248   7.956  0.8073  0.2675  1.1794
 4936SOL     OW26440   0.996   0.765   6.696 -0.0546 -0.6014 -0.0757
 4936SOL    HW126441   1.040   0.850   6.697 -0.3477 -0.4766  2.7137
 4936SOL    HW226442   0.980   0.766   6.790 -1.0026  1.3878 -0.2615
 4937SOL     OW26443   4.309   1.771   9.276  0.0649  0.4462 -0.4276
 4937SOL    HW126444   4.370   1.821   9.223  3.1323 -2.5552  0.2882
 4937SOL    HW226445   4.279   1.843   9.332 -1.7438  1.4019 -2.6074
 4938SOL     OW26446   4.616   4.441  15.227  0.0146  0.8026  0.4626
 4938SOL    HW126447   4.590   4.448  15.135  0.6063 -0.0823  0.2334
 4938SOL    HW226448   4.651   4.527  15.250  0.8538  0.0791  1.9363
 4939SOL     OW26449   1.254   3.635   2.602  0.7032  0.2075  0.8140
 4939SOL    HW126450   1.213   3.591   2.676  0.4986 -1.4789 -0.3147
 4939SOL    HW226451   1.343   3.654   2.632  0.8567 -0.1092  0.5553
 4940SOL     OW26452   0.881   1.104   5.850  0.2568 -0.5416 -0.0069
 4940SOL    HW126453   0.845   1.015   5.851 -2.0154  0.3872  0.8678
 4940SOL    HW226454   0.912   1.111   5.760 -0.4579  0.5491 -0.1697
 4941SOL     OW26455   4.157   2.134  16.294 -0.8948  0.6734 -0.2157
 4941SOL    HW126456   4.120   2.056  16.254 -0.1339  1.0750 -1.7101
 4941SOL    HW226457   4.079   2.186  16.310 -0.1558  1.6811  0.1522
 4942SOL     OW26458   0.852   3.076   3.198 -0.3789 -0.6174  0.0120
 4942SOL    HW126459   0.828   3.157   3.152  2.0496  0.7303  1.1364
 4942SOL    HW226460   0.945   3.079   3.179 -0.1250  0.0273  1.3690
 4943SOL     OW26461   0.052   0.491   3.787  0.1097  0.7479  0.2417
 4943SOL    HW126462   4.700   0.512   3.760 -0.0090  0.7327  0.6170
 4943SOL    HW226463   0.088   0.441   3.713 -0.6690 -1.5844  1.4306
 4944SOL     OW26464   0.594   3.720  10.594 -0.3282 -0.1790 -0.3025
 4944SOL    HW126465   0.606   3.652  10.527  0.5978  0.5812 -0.9046
 4944SOL    HW226466   0.648   3.792  10.561  1.8472 -0.6421  2.2949
 4945SOL     OW26467   1.997   2.259   8.653  0.8663 -0.4201  0.1360
 4945SOL    HW126468   1.984   2.180   8.707 -0.8522  0.5889  1.2381
 4945SOL    HW226469   1.910   2.251   8.613  2.0103  0.0681 -2.3950
 4946SOL     OW26470   4.479   4.691  14.887 -0.2360  0.0179 -0.2744
 4946SOL    HW126471   4.410   4.680  14.951  0.0816  5.0008  0.9684
 4946SOL    HW226472   4.491   0.042  14.921 -1.3136 -0.4534  1.3216
 4947SOL     OW26473   2.890   2.381   8.921  0.2576  0.1348  0.4406
 4947SOL    HW126474   2.845   2.398   9.004 -0.3957 -3.7810  0.8990
 4947SOL    HW226475   2.896   2.286   8.932 -2.3544  0.0837  1.5736
 4948SOL     OW26476   3.798   2.095   1.962 -0.2874 -0.0993 -0.6953
 4948SOL    HW126477   3.837   2.118   1.878  1.2368  2.0325  0.5926
 4948SOL    HW226478   3.718   2.141   1.935  0.2212 -0.0790 -2.1684
 4949SOL     OW26479   2.780   0.546  10.429 -0.1475  0.6793 -0.2251
 4949SOL    HW126480   2.820   0.623  10.390 -0.7085  0.3222 -1.4965
 4949SOL    HW226481   2.773   0.569  10.522 -0.9026  2.0001 -0.6091
 4950SOL     OW26482   1.283   4.111   2.191 -0.0587 -0.5679 -0.7688
 4950SOL    HW126483   1.357   4.112   2.131 -0.3527 -0.5779 -1.1293
 4950SOL    HW226484   1.315   4.057   2.263 -1.7112 -2.2066 -1.2556
 4951SOL     OW26485   4.437   0.669  12.890 -0.1167  0.0890 -0.1494
 4951SOL    HW126486   4.458   0.598  12.829  1.0326  0.0136  0.3547
 4951SOL    HW226487   4.519   0.680  12.937 -0.5066 -1.0551  0.7915
 4952SOL     OW26488   0.749   3.720   2.473 -0.7350  0.2672 -0.1601
 4952SOL    HW126489   0.729   3.633   2.439  0.7697 -0.3029  0.4345
 4952SOL    HW226490   0.804   3.747   2.400  0.0195 -0.0278  0.2961
 4953SOL     OW26491   3.436   0.033   7.005  0.0973 -0.1333 -0.7197
 4953SOL    HW126492   3.515   0.057   7.054 -3.5692 -0.4610  5.4057
 4953SOL    HW226493   3.475   4.700   6.954  0.5111  0.6484 -1.4870
 4954SOL     OW26494   2.755   1.971   1.386 -0.6473  0.1529  0.4449
 4954SOL    HW126495   2.700   1.999   1.459 -0.1245  0.0688  0.8700
 4954SOL    HW226496   2.797   2.054   1.360 -0.2761 -0.0349  0.4498
 4955SOL     OW26497   2.005   2.577   0.649 -0.0307  0.6016 -0.6421
 4955SOL    HW126498   1.925   2.534   0.618 -0.6687  0.7901  0.7749
 4955SOL    HW226499   2.068   2.507   0.630 -0.4957 -0.0810  0.2997
 4956SOL     OW26500   0.299   3.015   4.648 -0.3280 -0.0384  0.4674
 4956SOL    HW126501   0.299   2.920   4.636 -0.3006 -0.2362  2.1636
 4956SOL    HW226502   0.317   3.048   4.560 -3.1357  0.6887  0.1526
 4957SOL     OW26503   2.992   0.627   0.286 -0.1884  0.7007  0.4628
 4957SOL    HW126504   2.997   0.695   0.353  1.3851  0.5671  0.4924
 4957SOL    HW226505   3.079   0.589   0.273 -1.5688 -2.0129 -0.6765
 4958SOL     OW26506   3.899   1.168   2.029 -0.1973  0.0388  0.2857
 4958SOL    HW126507   3.817   1.118   2.024  0.3853 -0.7911 -0.8960
 4958SOL    HW226508   3.861   1.255   2.042 -1.4449 -0.7687  2.1209
 4959SOL     OW26509   2.033   0.087  10.320  0.1954  0.1749  0.6016
 4959SOL    HW126510   2.046   0.042  10.237 -0.0971  3.1646 -1.0565
 4959SOL    HW226511   2.068   0.025  10.384 -1.6008 -1.3795  0.0771
 4960SOL     OW26512   0.248   2.119   4.726 -0.3607  0.2748 -0.0513
 4960SOL    HW126513   0.221   2.207   4.753  1.8261  1.4142 -1.5984
 4960SOL    HW226514   0.333   2.114   4.770  0.3869  2.8368 -1.1965
 4961SOL     OW26515   2.719   3.548   8.736 -0.2895 -0.4704 -0.1911
 4961SOL    HW126516   2.650   3.614   8.730 -0.2889 -0.3666  1.0259
 4961SOL    HW226517   2.669   3.466   8.744  0.8094 -0.9417  1.8529
 4962SOL     OW26518   0.171   2.289   8.998  0.5755 -0.3729 -0.1389
 4962SOL    HW126519   0.262   2.318   8.996 -0.6649  3.4666 -1.2200
 4962SOL    HW226520   0.183   2.200   9.032 -1.7035 -0.7310 -0.2647
 4963SOL     OW26521   2.548   3.124   7.391  0.3629 -0.5878  0.2938
 4963SOL    HW126522   2.636   3.100   7.420 -0.0099 -2.6865 -0.3399
 4963SOL    HW226523   2.564   3.138   7.298 -1.4631 -1.5580 -0.1778
 4964SOL     OW26524   2.599   1.289   7.236  0.4942  0.4496  0.5816
 4964SOL    HW126525   2.633   1.358   7.178 -3.4160  2.2276  0.3780
 4964SOL    HW226526   2.667   1.226   7.213 -0.6615 -0.7235  0.3801
 4965SOL     OW26527   4.282   1.704   4.073 -0.1999 -0.0613 -0.7132
 4965SOL    HW126528   4.246   1.636   4.129 -2.1197  0.7433 -0.9678
 4965SOL    HW226529   4.377   1.694   4.075 -0.1696  0.2187 -0.7339
 4966SOL     OW26530   0.506   2.945   6.886 -0.4011 -0.4951 -0.2152
 4966SOL    HW126531   0.431   3.002   6.870  0.5999  1.1013  0.8095
 4966SOL    HW226532   0.464   2.859   6.884  0.3883 -0.9277  1.8050
 4967SOL     OW26533   3.668   2.472  12.567  0.1422 -0.3187  0.2298
 4967SOL    HW126534   3.757   2.438  12.560  1.3318  3.0356 -0.7405
 4967SOL    HW226535   3.634   2.424  12.643 -0.9352  0.0453 -0.0198
 4968SOL     OW26536   2.452   1.496  11.058  0.0366 -0.3301 -0.3664
 4968SOL    HW126537   2.503   1.554  11.116 -2.1503  0.3362  0.8892
 4968SOL    HW226538   2.392   1.557  11.014 -1.0377 -1.1068  0.0299
 4969SOL     OW26539   2.320   0.385   9.811  0.1498 -1.2083 -0.3344
 4969SOL    HW126540   2.295   0.322   9.879  4.5027 -1.5968  0.8749
 4969SOL    HW226541   2.235   0.425   9.793  0.9722  0.9174  0.4867
 4970SOL     OW26542   1.941   1.295  14.035 -0.4981 -0.3515 -0.1558
 4970SOL    HW126543   1.912   1.237  13.965 -0.5614 -1.7102  0.9879
 4970SOL    HW226544   1.917   1.240  14.110 -1.8095  0.4933  0.0436
 4971SOL     OW26545   4.683   0.845   3.020 -0.1222 -0.1123 -0.9361
 4971SOL    HW126546   4.671   0.938   3.041  1.4746 -0.4288  1.3691
 4971SOL    HW226547   4.668   0.796   3.100  0.9045 -0.5194 -0.9944
 4972SOL     OW26548   1.803   1.145   9.179  0.1162  0.1976  1.0492
 4972SOL    HW126549   1.738   1.136   9.249  2.5573 -3.0946  2.8882
 4972SOL    HW226550   1.778   1.059   9.145  0.5314  0.9564 -1.1902
 4973SOL     OW26551   0.404   0.831   7.938 -0.2972  0.0665 -0.5793
 4973SOL    HW126552   0.462   0.846   7.863 -0.7318 -1.0819 -1.1369
 4973SOL    HW226553   0.339   0.898   7.919 -0.2971  1.1092  3.0447
 4974SOL     OW26554   0.803   2.926  14.657  0.0531 -0.0211 -0.5004
 4974SOL    HW126555   0.853   2.899  14.580  0.6695 -1.1772  0.3011
 4974SOL    HW226556   0.789   3.021  14.653 -0.7520 -0.0443  1.7247
 4975SOL     OW26557   3.539   2.337   0.376  0.6897 -0.0914 -0.4318
 4975SOL    HW126558   3.579   2.297   0.454  0.9802  0.1906 -0.4338
 4975SOL    HW226559   3.447   2.319   0.392 -0.4715  3.9448 -2.5325
 4976SOL     OW26560   1.719   2.521  11.462  0.0824 -0.0389  0.2745
 4976SOL    HW126561   1.809   2.554  11.454  0.4495 -0.5328  2.3925
 4976SOL    HW226562   1.726   2.428  11.438 -1.3879  0.1094 -0.7008
 4977SOL     OW26563   3.853   1.742   6.841 -0.3038  0.1570  0.1727
 4977SOL    HW126564   3.868   1.829   6.878 -1.3500  0.4820 -0.1532
 4977SOL    HW226565   3.942   1.708   6.843  0.5044  2.2402 -0.5679
 4978SOL     OW26566   3.529   3.873   7.476  0.7685 -1.0378 -0.3385
 4978SOL    HW126567   3.477   3.808   7.523 -0.2972 -0.3545 -0.5585
 4978SOL    HW226568   3.599   3.892   7.538  1.5912  0.2806 -1.6846
 4979SOL     OW26569   0.553   1.973   4.232 -0.1796  0.5357  0.1492
 4979SOL    HW126570   0.615   1.954   4.302  0.5800  1.2956 -0.3030
 4979SOL    HW226571   0.602   1.917   4.172  0.2088 -0.2665  1.2174
 4980SOL     OW26572   1.766   3.821   4.947 -0.3003  0.2726 -0.5695
 4980SOL    HW126573   1.771   3.735   4.906 -1.2173  0.4321 -1.0154
 4980SOL    HW226574   1.686   3.800   4.994  0.1787 -0.4907 -0.0966
 4981SOL     OW26575   2.006   1.844   0.341 -0.0024  0.3617  0.9404
 4981SOL    HW126576   2.073   1.791   0.299 -2.3707 -1.2680 -0.7937
 4981SOL    HW226577   1.946   1.862   0.268 -2.3335 -2.4961  2.1690
 4982SOL     OW26578   1.201   0.946  10.772  0.2646 -0.0478  0.0432
 4982SOL    HW126579   1.276   0.975  10.822 -0.6608  0.5472  1.0902
 4982SOL    HW226580   1.227   0.961  10.681  2.5626 -0.4194  0.6413
 4983SOL     OW26581   4.075   0.843   2.991  0.1040 -0.2657  0.1191
 4983SOL    HW126582   4.038   0.781   2.928  0.0864 -1.8286  1.6639
 4983SOL    HW226583   3.989   0.859   3.031 -0.6559 -0.0637 -1.5731
 4984SOL     OW26584   3.837   4.099   3.859 -0.2069  0.2317  0.1084
 4984SOL    HW126585   3.846   4.189   3.890  2.0688 -0.4379  1.3821
 4984SOL    HW226586   3.924   4.086   3.821  0.3271  0.3576  1.2930
 4985SOL     OW26587   2.358   1.379   5.479  0.0557  0.4952 -0.1540
 4985SOL    HW126588   2.352   1.411   5.389  0.3324  0.7725 -0.0735
 4985SOL    HW226589   2.270   1.398   5.511 -0.8848  1.1952 -3.1307
 4986SOL     OW26590   1.097   2.345   8.028  0.8164 -0.0448  0.6036
 4986SOL    HW126591   1.086   2.440   8.028 -1.3812 -0.2960 -0.6463
 4986SOL    HW226592   1.148   2.328   7.949 -0.4957 -0.2548 -0.2010
 4987SOL     OW26593   2.505   1.182   1.874 -0.0482 -0.4320  0.2552
 4987SOL    HW126594   2.485   1.266   1.916  2.7761 -0.7300  2.1165
 4987SOL    HW226595   2.554   1.214   1.799 -0.2472 -0.8922 -0.0741
 4988SOL     OW26596   2.602   4.004  13.756 -0.4194  0.0815  0.5614
 4988SOL    HW126597   2.660   3.971  13.824  0.1595 -0.1661 -0.0429
 4988SOL    HW226598   2.670   4.044  13.701 -0.1592 -0.3650  0.5589
 4989SOL     OW26599   2.215   0.650   2.582  0.2285 -0.1980  0.5537
 4989SOL    HW126600   2.259   0.621   2.662 -0.2621  2.6562  1.8761
 4989SOL    HW226601   2.273   0.620   2.512 -0.7438  1.0426 -0.8017
 4990SOL     OW26602   1.490   2.767   9.386 -0.0947 -0.4140 -0.9886
 4990SOL    HW126603   1.454   2.788   9.300 -0.6493  0.8143 -0.4529
 4990SOL    HW226604   1.584   2.770   9.366  0.3686 -1.5077  1.0509
 4991SOL     OW26605   0.233   0.642   2.244  0.1517  0.3151 -0.1427
 4991SOL    HW126606   0.262   0.675   2.330  1.4352 -2.6911  0.5844
 4991SOL    HW226607   0.182   0.717   2.214  0.2004 -0.2800 -1.7020
 4992SOL     OW26608   3.550   0.656   5.624 -0.0721 -0.3392  0.4774
 4992SOL    HW126609   3.486   0.590   5.652 -1.0001  0.8156  1.0879
 4992SOL    HW226610   3.571   0.709   5.700  0.7697  0.0915 -0.0528
 4993SOL     OW26611   1.379   1.458   5.360  0.2993  0.0935  0.3646
 4993SOL    HW126612   1.450   1.455   5.296 -0.3419 -2.0888 -0.2172
 4993SOL    HW226613   1.395   1.544   5.399 -3.4639  0.0121  2.0324
 4994SOL     OW26614   3.722   4.238  16.764 -0.4096  0.0638 -0.7138
 4994SOL    HW126615   3.701   4.204  16.851  1.8023  1.1013  0.2301
 4994SOL    HW226616   3.643   4.206  16.720  0.3045 -1.6711 -0.7299
 4995SOL     OW26617   3.345   2.925  12.594  0.0709  0.1044  0.2776
 4995SOL    HW126618   3.391   2.841  12.592  0.5172  0.3534  0.0817
 4995SOL    HW226619   3.362   2.956  12.505  1.0137  0.8190  0.7150
 4996SOL     OW26620   3.450   0.875   7.607  0.1814  0.1658  0.8134
 4996SOL    HW126621   3.447   0.834   7.520  1.6579 -0.3444  1.0054
 4996SOL    HW226622   3.538   0.903   7.630  0.8391 -0.4531 -0.9873
 4997SOL     OW26623   2.880   1.582  12.952 -0.1708 -0.1101  0.8232
 4997SOL    HW126624   2.789   1.568  12.976 -0.8335 -0.6775 -2.0499
 4997SOL    HW226625   2.878   1.673  12.983  1.7669  0.4025 -0.5160
 4998SOL     OW26626   2.498   3.225   4.317  0.6156 -0.1819  0.5339
 4998SOL    HW126627   2.421   3.201   4.369 -0.0268 -1.0632 -0.8322
 4998SOL    HW226628   2.566   3.229   4.384 -0.3634 -0.4778  1.5502
 4999SOL     OW26629   1.879   1.511   6.519  0.1526 -0.2660  0.0292
 4999SOL    HW126630   1.832   1.427   6.515  0.6068 -0.4443 -1.5919
 4999SOL    HW226631   1.857   1.527   6.611  0.3019  0.0012  0.0165
 5000SOL     OW26632   2.596   0.401  16.684  0.5665  0.3270  0.3551
 5000SOL    HW126633   2.593   0.334  16.752  2.3174  0.8275  0.9264
 5000SOL    HW226634   2.529   0.365  16.626  1.4475  0.3917 -0.6887
 5001SOL     OW26635   2.492   1.235  11.151  0.4023 -0.2434  0.0106
 5001SOL    HW126636   2.582   1.240  11.186  0.6527  0.5560 -0.7454
 5001SOL    HW226637   2.479   1.325  11.123 -1.9162 -0.3755  0.6771
 5002SOL     OW26638   4.023   1.460   7.871 -0.2299 -0.4343 -0.3642
 5002SOL    HW126639   4.017   1.477   7.777 -1.0005 -1.9825 -0.5870
 5002SOL    HW226640   4.118   1.453   7.883 -0.0021  1.6971 -0.9585
 5003SOL     OW26641   3.894   2.165   6.630  0.1245 -0.0356  0.5040
 5003SOL    HW126642   3.967   2.161   6.691 -0.3122 -0.7035  0.9880
 5003SOL    HW226643   3.935   2.117   6.558  0.6550 -1.4004  1.7189
 5004SOL     OW26644   3.133   2.801   1.998  0.4644  0.6130 -0.0196
 5004SOL    HW126645   3.219   2.763   1.979  1.0955  1.1525  1.7382
 5004SOL    HW226646   3.166   2.885   2.030  1.1016 -0.5159  2.2564
 5005SOL     OW26647   2.001   2.617  12.032 -0.5890  0.2441  0.3753
 5005SOL    HW126648   1.957   2.698  12.005  1.5500  1.5803  0.8632
 5005SOL    HW226649   2.023   2.637  12.124  0.4071  0.3663  0.1169
 5006SOL     OW26650   1.573   3.387   4.961  0.2210  0.6511 -0.0969
 5006SOL    HW126651   1.512   3.458   4.980 -0.9628 -0.2295 -0.5773
 5006SOL    HW226652   1.654   3.431   4.986  0.0736  2.1981 -2.3697
 5007SOL     OW26653   1.490   2.049  17.714  0.3687 -0.2098  0.6495
 5007SOL    HW126654   1.456   1.961  17.733  1.8497 -1.1552 -1.0768
 5007SOL    HW226655   1.490   2.043  17.619 -2.0158  1.0189  0.5664
 5008SOL     OW26656   1.905   0.057   5.156  0.0399  0.3545 -0.2562
 5008SOL    HW126657   1.903   4.706   5.120 -0.5336  0.2155  0.1169
 5008SOL    HW226658   1.999   0.069   5.139  0.3231 -2.8589 -0.9834
 5009SOL     OW26659   3.182   2.545   8.562 -0.3180 -0.4507 -0.0618
 5009SOL    HW126660   3.132   2.464   8.557 -0.1734 -0.5475  0.1007
 5009SOL    HW226661   3.251   2.532   8.497 -0.4144  3.1263 -0.9148
 5010SOL     OW26662   0.854   4.008   7.663  0.3587 -0.1000  0.0197
 5010SOL    HW126663   0.791   4.047   7.602  1.7670 -0.1772 -1.4928
 5010SOL    HW226664   0.877   4.077   7.725  1.5574 -0.4644 -0.0251
 5011SOL     OW26665   3.580   0.878   3.142 -0.2568  0.2019 -0.2158
 5011SOL    HW126666   3.565   0.812   3.210  0.6135 -0.7268 -0.9340
 5011SOL    HW226667   3.520   0.848   3.073 -1.5690  0.1721  0.9257
 5012SOL     OW26668   2.191   4.551   3.756  0.4661  0.0224 -0.0138
 5012SOL    HW126669   2.205   4.591   3.670 -0.0103 -0.1513 -0.1746
 5012SOL    HW226670   2.121   4.488   3.738  0.2996  0.1197  0.2928
 5013SOL     OW26671   2.406   2.678  16.311  0.4784  0.1324 -0.4073
 5013SOL    HW126672   2.484   2.691  16.257  2.8130  0.0590  2.9387
 5013SOL    HW226673   2.419   2.589  16.343 -0.8533 -0.2229 -0.8417
 5014SOL     OW26674   3.584   1.424   6.519  0.0528  0.5992 -0.0027
 5014SOL    HW126675   3.539   1.371   6.454  0.4330 -0.2348  0.4123
 5014SOL    HW226676   3.555   1.372   6.594  1.3209  1.2685  0.9528
 5015SOL     OW26677   1.076   3.600  14.978 -0.8274 -0.7229 -0.5860
 5015SOL    HW126678   1.089   3.582  15.071 -1.4843  1.8197  0.0087
 5015SOL    HW226679   0.983   3.619  14.984 -0.2575  2.3300 -1.2636
 5016SOL     OW26680   2.123   3.920   1.321  0.0291 -0.1132  0.3847
 5016SOL    HW126681   2.109   3.966   1.238  0.9371 -0.4168  0.0569
 5016SOL    HW226682   2.139   3.834   1.282 -4.8065 -0.5701 -0.5084
 5017SOL     OW26683   2.547   2.854  11.366  0.3651 -0.1824 -0.6681
 5017SOL    HW126684   2.492   2.916  11.413 -1.3869 -1.5294 -0.9167
 5017SOL    HW226685   2.531   2.764  11.394  0.8734 -0.3362 -0.8652
 5018SOL     OW26686   1.132   4.055   7.154  0.5552  0.2562  0.1950
 5018SOL    HW126687   1.082   4.002   7.091 -1.4810  0.2522  1.8005
 5018SOL    HW226688   1.108   4.142   7.123  0.5987  0.1528 -0.1298
 5019SOL     OW26689   3.002   2.733   6.678 -0.3445  0.0089  0.1213
 5019SOL    HW126690   2.909   2.743   6.698 -0.6766 -0.8166 -1.0215
 5019SOL    HW226691   3.035   2.770   6.760  0.7206 -2.5676  0.8428
 5020SOL     OW26692   1.568   2.738   6.750 -0.0589  0.6573 -0.2567
 5020SOL    HW126693   1.623   2.676   6.701  1.6980  1.1225  1.0915
 5020SOL    HW226694   1.530   2.687   6.821 -1.0442 -1.4576 -2.3215
 5021SOL     OW26695   2.248   3.754   4.860 -0.0403  0.0551  0.4837
 5021SOL    HW126696   2.310   3.800   4.917 -0.8321 -1.2842  2.4321
 5021SOL    HW226697   2.293   3.740   4.777 -1.8143 -1.8043 -0.1671
 5022SOL     OW26698   3.259   1.427  13.670  0.2046  0.1434  0.5492
 5022SOL    HW126699   3.171   1.396  13.689  0.0223  0.5576  0.3854
 5022SOL    HW226700   3.303   1.343  13.681 -2.4788 -0.7446  4.3055
 5023SOL     OW26701   1.914   4.597  16.673 -0.2495  0.5621  0.4211
 5023SOL    HW126702   1.853   4.568  16.740  0.9246 -2.0718  0.3550
 5023SOL    HW226703   1.897   4.691  16.683 -1.0084  0.0168  4.1397
 5024SOL     OW26704   4.371   1.917   6.474 -0.0431  0.7972 -0.0787
 5024SOL    HW126705   4.290   1.918   6.423 -0.5382 -1.7158  0.6574
 5024SOL    HW226706   4.402   1.828   6.462  1.2546  1.2772 -0.2771
 5025SOL     OW26707   1.978   2.275  17.075 -0.1243  0.1269  0.4509
 5025SOL    HW126708   2.017   2.320  17.151 -0.3260  1.2637 -0.1258
 5025SOL    HW226709   1.903   2.328  17.051 -0.4236 -1.0592 -1.2320
 5026SOL     OW26710   2.884   0.571   4.874 -0.2849  0.3475  0.3752
 5026SOL    HW126711   2.807   0.624   4.853  1.2052  1.9766 -1.0053
 5026SOL    HW226712   2.859   0.529   4.956 -1.2669 -2.7259 -1.5070
 5027SOL     OW26713   3.958   0.184  14.768 -0.0819 -0.3038 -0.6019
 5027SOL    HW126714   3.917   0.240  14.702 -0.0985 -0.4304 -0.7005
 5027SOL    HW226715   3.886   0.128  14.798 -0.2246  1.3520  2.1163
 5028SOL     OW26716   2.907   4.710   7.244  0.0305 -0.0369  0.0811
 5028SOL    HW126717   2.828   0.005   7.287 -1.1003 -0.1417 -1.8609
 5028SOL    HW226718   2.959   0.050   7.229  0.6741 -0.3399  0.7787
 5029SOL     OW26719   2.770   2.652   6.848 -0.2308  0.0782  0.6979
 5029SOL    HW126720   2.771   2.561   6.877  2.2378 -0.4379 -1.0392
 5029SOL    HW226721   2.681   2.673   6.877 -1.0965 -0.8968 -1.2629
 5030SOL     OW26722   2.455   1.433   6.271  0.4761  0.0128 -0.0349
 5030SOL    HW126723   2.386   1.499   6.275 -0.9622 -1.4453 -0.5421
 5030SOL    HW226724   2.403   1.354   6.285 -0.5530  0.4759 -1.1574
 5031SOL     OW26725   0.566   1.192   6.966  0.1027 -0.5352 -0.1779
 5031SOL    HW126726   0.618   1.186   7.047  0.0938 -2.1441 -0.2748
 5031SOL    HW226727   0.615   1.134   6.907  0.0864  1.4337 -2.1038
 5032SOL     OW26728   3.951   3.104   7.639 -0.0619 -0.5425  0.0986
 5032SOL    HW126729   3.908   3.027   7.678  1.0120 -0.0850  2.2216
 5032SOL    HW226730   3.878   3.163   7.626 -0.8872 -1.5090  0.2832
 5033SOL     OW26731   1.317   3.642   1.612 -0.4919 -0.3580 -0.0431
 5033SOL    HW126732   1.364   3.637   1.529  0.4840  2.3494  0.3449
 5033SOL    HW226733   1.227   3.636   1.581 -0.4713 -0.4618 -0.0820
 5034SOL     OW26734   0.820   0.445   8.884  0.0191 -0.6557  0.3332
 5034SOL    HW126735   0.802   0.359   8.846  0.8455 -0.8927  0.4866
 5034SOL    HW226736   0.909   0.426   8.912  0.7463  0.7558 -1.0468
 5035SOL     OW26737   2.853   2.360  14.744  0.2795 -0.5762  0.0380
 5035SOL    HW126738   2.943   2.332  14.730  0.2197 -1.6281  1.7062
 5035SOL    HW226739   2.824   2.382  14.656 -0.1632 -0.6608  0.1605
 5036SOL     OW26740   2.898   2.351  17.488 -0.6857 -0.7494 -0.2308
 5036SOL    HW126741   2.903   2.446  17.499  4.4477 -1.0534  0.0095
 5036SOL    HW226742   2.990   2.330  17.503 -0.9832 -1.5380  0.5542
 5037SOL     OW26743   0.772   1.477   6.068  0.0349 -0.0054 -0.1964
 5037SOL    HW126744   0.809   1.436   5.990 -0.6624  0.3116 -0.6936
 5037SOL    HW226745   0.737   1.557   6.030 -0.4753  0.3507  1.0272
 5038SOL     OW26746   3.419   3.436  14.851 -0.1673 -0.4415 -0.2494
 5038SOL    HW126747   3.385   3.419  14.763 -0.7685  1.2315 -0.3407
 5038SOL    HW226748   3.477   3.510  14.832 -0.3634 -0.6217 -1.5202
 5039SOL     OW26749   4.004   3.879   7.986  0.5590  0.3654 -0.4266
 5039SOL    HW126750   3.943   3.951   8.002 -1.4327 -1.5836  0.7125
 5039SOL    HW226751   3.968   3.845   7.904  0.3236 -0.4695  0.0255
 5040SOL     OW26752   0.497   3.046  14.687  0.4247  0.0346  0.2383
 5040SOL    HW126753   0.563   3.031  14.754  1.7365  2.9832 -0.3729
 5040SOL    HW226754   0.480   3.140  14.696 -3.6205 -0.8012  1.2975
 5041SOL     OW26755   1.880   1.122   9.528 -0.5022 -0.8231  0.2618
 5041SOL    HW126756   1.807   1.069   9.495 -0.0692 -1.3656  0.1626
 5041SOL    HW226757   1.847   1.206   9.560  3.9474  1.7206 -1.8144
 5042SOL     OW26758   1.064   2.536   1.359  0.2332  0.0843  0.3235
 5042SOL    HW126759   1.098   2.466   1.416 -1.0603 -0.6757  0.1566
 5042SOL    HW226760   1.144   2.569   1.318 -1.0019 -0.2224 -2.2770
 5043SOL     OW26761   1.142   2.225   8.614 -0.1672  0.3301 -0.1181
 5043SOL    HW126762   1.199   2.217   8.691  0.9941 -1.0723 -1.1177
 5043SOL    HW226763   1.126   2.319   8.604  0.7462  0.3804 -1.2169
 5044SOL     OW26764   4.652   4.140   7.990  0.1388  0.3202  1.0121
 5044SOL    HW126765   4.691   4.181   7.913  0.5794  0.0453  1.0879
 5044SOL    HW226766   4.622   4.220   8.034  1.8378  1.5408 -0.0377
 5045SOL     OW26767   0.409   2.837   5.815  0.0094  0.5974  0.5564
 5045SOL    HW126768   0.458   2.904   5.768  0.1397 -0.9065 -1.4720
 5045SOL    HW226769   0.474   2.784   5.861  1.4624  1.7364 -0.1907
 5046SOL     OW26770   4.067   3.060  12.983  0.0422 -0.1332  0.2607
 5046SOL    HW126771   3.991   3.113  12.959  0.6891  0.8668  0.4131
 5046SOL    HW226772   4.064   2.999  12.909 -1.1992 -0.1798  0.3565
 5047SOL     OW26773   0.312   3.025  10.439 -0.1825 -0.8358 -0.3608
 5047SOL    HW126774   0.289   2.936  10.414  3.3754 -1.7901 -0.3048
 5047SOL    HW226775   0.298   3.023  10.533  0.0424  1.3052 -0.2760
 5048SOL     OW26776   1.258   1.378   6.708  0.4178  0.0724 -0.4517
 5048SOL    HW126777   1.247   1.309   6.773 -0.8218 -0.5738 -1.3386
 5048SOL    HW226778   1.301   1.326   6.640  0.6676  1.4475 -1.3383
 5049SOL     OW26779   0.929   4.025  10.030  0.5196  0.1592 -0.2369
 5049SOL    HW126780   0.970   4.068  10.105  1.4244  1.0109 -1.2207
 5049SOL    HW226781   0.988   4.048   9.958  0.1585  1.2477 -0.1831
 5050SOL     OW26782   2.032   3.810   4.652 -0.3777  0.0629 -0.2435
 5050SOL    HW126783   2.036   3.795   4.746 -0.6817  1.0337 -0.0819
 5050SOL    HW226784   2.123   3.811   4.621 -0.4465 -0.4221 -0.4599
 5051SOL     OW26785   3.506   2.783   0.706 -0.2040  0.4001 -0.5330
 5051SOL    HW126786   3.500   2.689   0.691  0.5824  0.3117 -0.3004
 5051SOL    HW226787   3.420   2.820   0.686  0.5014  1.2303 -2.0189
 5052SOL     OW26788   0.703   0.692   8.397  0.3968 -0.0405  0.5097
 5052SOL    HW126789   0.757   0.740   8.459 -1.3459 -1.0192  2.7460
 5052SOL    HW226790   0.764   0.672   8.325 -0.4598  0.6368 -0.4006
 5053SOL     OW26791   4.126   3.568   4.339 -0.2984  0.0722 -0.3491
 5053SOL    HW126792   4.047   3.620   4.348  0.5142  1.2158  0.2474
 5053SOL    HW226793   4.158   3.610   4.258 -0.5010  0.9927  0.0513
 5054SOL     OW26794   3.718   3.967   3.662 -0.3637  0.0352  0.1550
 5054SOL    HW126795   3.649   4.033   3.653 -1.8268 -1.2772  1.7366
 5054SOL    HW226796   3.763   4.009   3.735 -0.9263  1.3334 -0.2424
 5055SOL     OW26797   3.985   1.415   8.781 -0.2557 -0.0552  0.4764
 5055SOL    HW126798   3.928   1.341   8.800  0.4810 -0.6914  0.2301
 5055SOL    HW226799   4.039   1.424   8.859  0.6513  2.0827 -0.3858
 5056SOL     OW26800   2.995   4.529   2.954  0.2781  0.4363 -0.0631
 5056SOL    HW126801   2.979   4.561   3.043 -1.7408 -1.4211  0.2452
 5056SOL    HW226802   2.960   4.604   2.906 -0.7042  0.5938  0.8869
 5057SOL     OW26803   0.908   0.292  11.215  0.3200  0.3654 -0.4304
 5057SOL    HW126804   0.828   0.266  11.261 -0.8501  1.4070 -1.8412
 5057SOL    HW226805   0.906   0.226  11.145 -0.7386 -1.5591  1.4018
 5058SOL     OW26806   1.726   4.505  15.027  0.0592 -0.5295 -1.1694
 5058SOL    HW126807   1.638   4.475  15.008 -1.0616  1.1955  1.2129
 5058SOL    HW226808   1.713   4.595  14.996 -1.7363 -0.1940  0.5410
 5059SOL     OW26809   3.284   3.567   2.532 -0.1948  0.2428 -0.3786
 5059SOL    HW126810   3.354   3.587   2.469  2.0764 -1.5231  1.6128
 5059SOL    HW226811   3.295   3.472   2.527  1.2708  0.3489  0.7311
 5060SOL     OW26812   2.711   3.494   7.598  0.2907  0.1836 -0.2706
 5060SOL    HW126813   2.770   3.505   7.673 -0.6763 -0.1153  0.5449
 5060SOL    HW226814   2.681   3.583   7.582  0.6546  0.5276  0.9587
 5061SOL     OW26815   1.934   1.152  17.519  0.1276  0.2627  0.3228
 5061SOL    HW126816   1.872   1.183  17.585  1.3933  1.2571  1.0453
 5061SOL    HW226817   1.901   1.063  17.509  0.2383  0.2973 -0.3459
 5062SOL     OW26818   1.803   4.237   7.907 -0.2187 -0.0313 -0.4044
 5062SOL    HW126819   1.737   4.280   7.853  0.0972  1.0178  0.0448
 5062SOL    HW226820   1.873   4.302   7.900 -2.1392  1.9353 -1.4407
 5063SOL     OW26821   4.273   4.670   8.060  0.0949 -0.0494 -0.9635
 5063SOL    HW126822   4.283   4.601   7.995 -0.2708  0.1577 -1.2387
 5063SOL    HW226823   4.241   4.613   8.130 -0.3411  1.7381  0.3027
 5064SOL     OW26824   0.753   0.493  16.745 -0.7333  0.4154 -0.6236
 5064SOL    HW126825   0.711   0.577  16.724  0.3659  1.0831 -0.1366
 5064SOL    HW226826   0.776   0.478  16.653 -1.4656 -0.2956 -0.6901
 5065SOL     OW26827   3.883   2.630   7.319 -0.3804 -0.1101  0.1051
 5065SOL    HW126828   3.941   2.686   7.371  0.3277 -1.4353  0.7383
 5065SOL    HW226829   3.828   2.701   7.286  0.1922  0.4505  0.3725
 5066SOL     OW26830   1.201   4.328   7.121  0.6289  0.3353 -0.6049
 5066SOL    HW126831   1.113   4.358   7.103  0.1287 -2.1103 -2.2858
 5066SOL    HW226832   1.242   4.412   7.142  1.9003 -0.5778  0.5985
 5067SOL     OW26833   4.362   1.827  17.108  0.1602 -0.4447  0.6459
 5067SOL    HW126834   4.352   1.860  17.019 -0.4806 -2.4724 -0.0215
 5067SOL    HW226835   4.296   1.869  17.162 -1.2412  0.6554 -1.9311
 5068SOL     OW26836   1.283   2.774   5.724  0.1232 -0.0063  0.1564
 5068SOL    HW126837   1.329   2.856   5.704  0.4762 -0.5226 -1.1643
 5068SOL    HW226838   1.296   2.770   5.818  1.8399 -1.2347 -0.1352
 5069SOL     OW26839   3.902   3.563   7.183  0.9980 -0.9145  0.5633
 5069SOL    HW126840   3.837   3.622   7.220  2.6248  1.2725 -0.0591
 5069SOL    HW226841   3.893   3.496   7.251 -0.3538  0.5206  1.7862
 5070SOL     OW26842   1.906   2.885   0.238  0.3222  0.0185  0.2829
 5070SOL    HW126843   1.980   2.927   0.195 -0.2311  0.7816  0.0754
 5070SOL    HW226844   1.949   2.805   0.269  2.0529  0.3115 -1.3815
 5071SOL     OW26845   3.230   1.134   2.234  0.3075 -0.4501 -0.0984
 5071SOL    HW126846   3.220   1.140   2.139 -1.0900 -2.7751 -0.1171
 5071SOL    HW226847   3.206   1.224   2.254  0.0598  0.0554 -2.6844
 5072SOL     OW26848   0.371   0.611  10.154 -0.2586  0.1288 -0.1929
 5072SOL    HW126849   0.310   0.582  10.222 -0.9525 -0.5463 -1.0983
 5072SOL    HW226850   0.446   0.647  10.201 -0.5868  0.3610  0.1598
 5073SOL     OW26851   0.643   2.011   5.823 -0.6471 -0.1510 -0.3805
 5073SOL    HW126852   0.633   2.099   5.787 -2.7641  0.1960  1.0796
 5073SOL    HW226853   0.724   2.002   5.772 -0.2090 -0.9776  0.4566
 5074SOL     OW26854   2.869   3.097   4.506 -0.5288 -0.1611 -0.2053
 5074SOL    HW126855   2.900   3.187   4.494  2.2610 -1.1020 -0.0118
 5074SOL    HW226856   2.826   3.069   4.425  0.6472 -0.4667 -0.7173
 5075SOL     OW26857   1.237   3.465   6.774  0.0207  0.0049 -0.6127
 5075SOL    HW126858   1.259   3.384   6.820  0.6710 -0.1898 -1.2600
 5075SOL    HW226859   1.205   3.521   6.844  1.0690  0.2356 -0.3276
 5076SOL     OW26860   1.531   0.451   2.158 -0.4870 -0.3611 -0.8253
 5076SOL    HW126861   1.542   0.371   2.209  2.4293  0.3670 -0.3678
 5076SOL    HW226862   1.449   0.439   2.109 -0.4807 -0.4352 -0.8166
 5077SOL     OW26863   2.562   2.842   3.458  0.8883 -0.1405 -0.1091
 5077SOL    HW126864   2.556   2.848   3.553 -0.7405 -1.9505 -0.0943
 5077SOL    HW226865   2.561   2.934   3.430 -1.4149  0.2472  1.2181
 5078SOL     OW26866   3.549   3.779   4.208 -0.6246 -0.3151  0.5670
 5078SOL    HW126867   3.608   3.822   4.147  0.2024 -0.4510  1.2716
 5078SOL    HW226868   3.564   3.685   4.199 -1.3182 -0.4131  0.4097
 5079SOL     OW26869   3.373   4.448   3.374  0.5480  0.3673 -0.7546
 5079SOL    HW126870   3.407   4.365   3.342  1.2752  0.0305  0.8686
 5079SOL    HW226871   3.441   4.508   3.344  1.0879 -1.0141 -2.2364
 5080SOL     OW26872   0.398   4.365   6.581 -0.6303 -0.3822  0.0536
 5080SOL    HW126873   0.404   4.398   6.671 -2.3714  1.9907 -0.6756
 5080SOL    HW226874   0.418   4.447   6.536 -1.9252  0.0320  0.2170
 5081SOL     OW26875   4.359   2.405  11.587  0.1559 -0.0556 -0.1304
 5081SOL    HW126876   4.341   2.321  11.546 -0.2773  0.2975 -0.6521
 5081SOL    HW226877   4.400   2.386  11.672  0.1002 -0.5096 -0.2028
 5082SOL     OW26878   3.398   4.471   6.790  0.4885 -0.1595 -0.5504
 5082SOL    HW126879   3.334   4.466   6.719 -0.3400 -0.3264  0.2101
 5082SOL    HW226880   3.348   4.470   6.872  1.5421  0.8389  0.1027
 5083SOL     OW26881   0.199   4.459   3.741 -0.4734 -0.0928 -0.2969
 5083SOL    HW126882   0.273   4.417   3.785 -1.7300 -0.2352  1.6639
 5083SOL    HW226883   0.151   4.487   3.819 -0.5568  0.2481 -0.4695
 5084SOL     OW26884   2.721   1.392   7.793  0.1808  0.4417 -0.0687
 5084SOL    HW126885   2.683   1.305   7.781  1.8480 -0.0525 -1.6864
 5084SOL    HW226886   2.655   1.431   7.851  0.1359 -0.7859  0.6993
 5085SOL     OW26887   0.047   4.670   4.874 -0.0045 -0.5881  0.7242
 5085SOL    HW126888   4.690   4.682   4.868  0.0354 -0.2827  0.7452
 5085SOL    HW226889   0.061   4.655   4.967  1.8108  0.4981  0.6245
 5086SOL     OW26890   3.986   4.198   1.552 -0.0803  0.8116  0.8484
 5086SOL    HW126891   3.900   4.217   1.514  0.3246 -0.3348 -0.6441
 5086SOL    HW226892   3.966   4.209   1.644 -2.8786 -2.2194  0.6152
 5087SOL     OW26893   4.335   2.687   7.199  0.2918  0.5509  0.7821
 5087SOL    HW126894   4.428   2.703   7.212  0.5327 -0.5970  0.4233
 5087SOL    HW226895   4.323   2.636   7.279 -2.3344  0.2485  0.2106
 5088SOL     OW26896   4.731   0.379   2.268  0.4677 -0.0255 -0.6323
 5088SOL    HW126897   4.695   0.338   2.190  0.1021 -0.5098 -0.2063
 5088SOL    HW226898   4.676   0.340   2.336 -0.9848  3.8558  0.4653
 5089SOL     OW26899   2.147   4.099  12.676  0.2845 -0.1740 -0.4040
 5089SOL    HW126900   2.224   4.118  12.730 -1.8286 -0.1637  2.5964
 5089SOL    HW226901   2.086   4.167  12.702  1.9974  0.1485  2.6655
 5090SOL     OW26902   2.389   4.148  11.406 -0.4195  0.2653  0.4052
 5090SOL    HW126903   2.455   4.208  11.440 -0.4502 -0.0926  1.0956
 5090SOL    HW226904   2.351   4.107  11.484  0.8071 -0.2599  0.7402
 5091SOL     OW26905   0.115   0.062   5.355 -0.2800 -0.3046 -0.3232
 5091SOL    HW126906   0.046   0.061   5.289 -0.2707 -1.3417 -0.3172
 5091SOL    HW226907   0.061   0.097   5.425  0.1231 -0.7150  0.1951
 5092SOL     OW26908   4.387   3.567   5.646  0.1843 -0.2448  0.2998
 5092SOL    HW126909   4.435   3.521   5.715  1.0964  0.8968  0.4314
 5092SOL    HW226910   4.300   3.540   5.676 -0.7967  0.7056 -1.6935
 5093SOL     OW26911   1.673   1.478   4.856 -0.2603  0.4212  0.3586
 5093SOL    HW126912   1.668   1.521   4.771 -0.5019 -1.2697 -0.4755
 5093SOL    HW226913   1.763   1.445   4.848 -0.2535  0.5112  0.0744
 5094SOL     OW26914   2.320   1.843   9.247 -0.5079 -0.3879 -0.0095
 5094SOL    HW126915   2.355   1.891   9.172  0.7702 -1.6465 -0.2158
 5094SOL    HW226916   2.226   1.848   9.228 -0.8770 -2.0344  1.4049
 5095SOL     OW26917   4.208   1.515  15.731  0.6788  0.1181 -0.2127
 5095SOL    HW126918   4.178   1.490  15.818  0.0859  1.2791 -0.0728
 5095SOL    HW226919   4.125   1.523  15.684  1.3720  0.3666 -1.4003
 5096SOL     OW26920   1.520   2.469   0.624  0.4291 -0.3226  0.1376
 5096SOL    HW126921   1.468   2.548   0.616  0.8282  0.0153  0.8463
 5096SOL    HW226922   1.470   2.416   0.686 -0.9355  0.2563 -0.4787
 5097SOL     OW26923   4.266   1.511   3.013  0.5286 -0.3695  0.1242
 5097SOL    HW126924   4.327   1.470   2.952  0.3460 -0.7815  0.2191
 5097SOL    HW226925   4.254   1.592   2.963 -0.3803 -0.3370  0.3980
 5098SOL     OW26926   2.634   1.974  15.929  0.6043  0.1153  0.0166
 5098SOL    HW126927   2.644   1.881  15.950 -1.3356  0.0626  0.6622
 5098SOL    HW226928   2.553   1.978  15.879  0.9477  1.1487 -0.4648
 5099SOL     OW26929   1.733   2.683  17.720  0.5691 -0.8621  0.1784
 5099SOL    HW126930   1.674   2.705  17.648  0.1617 -0.5738  0.5960
 5099SOL    HW226931   1.751   2.771   0.004 -2.1106 -0.1685 -0.1710
 5100SOL     OW26932   0.891   4.046   1.713  0.0805  0.2035 -0.2636
 5100SOL    HW126933   0.980   4.029   1.683  1.1678  1.1393  2.4993
 5100SOL    HW226934   0.856   3.966   1.674  0.3463 -0.1398  0.2095
 5101SOL     OW26935   3.443   3.422  11.573  0.4288 -0.2768  0.1248
 5101SOL    HW126936   3.382   3.480  11.618 -0.7178 -0.2753 -1.4212
 5101SOL    HW226937   3.410   3.432  11.483  0.9462 -0.3790 -0.0776
 5102SOL     OW26938   3.814   3.604   3.698 -0.5655 -0.2610  0.3520
 5102SOL    HW126939   3.855   3.543   3.637  1.3538  1.1343  0.2665
 5102SOL    HW226940   3.803   3.677   3.638  1.6800  0.8027  1.2289
 5103SOL     OW26941   1.295   0.245   6.719  0.1767 -0.0579  0.4407
 5103SOL    HW126942   1.218   0.301   6.727  1.6466  2.3112 -1.5749
 5103SOL    HW226943   1.340   0.286   6.644  1.2415 -1.0877  0.5105
 5104SOL     OW26944   0.649   2.262  10.007 -0.5732  0.3832 -0.0048
 5104SOL    HW126945   0.739   2.271   9.976 -0.9387 -0.5137 -1.3172
 5104SOL    HW226946   0.655   2.172  10.039 -0.1453  0.1965 -0.6046
 5105SOL     OW26947   3.421   0.151   5.899  0.1679  0.1881 -0.4535
 5105SOL    HW126948   3.402   0.172   5.807 -1.5479 -1.5189 -0.4814
 5105SOL    HW226949   3.390   0.229   5.945 -0.8260  0.1578 -1.0761
 5106SOL     OW26950   2.294   1.154  15.046  0.4157 -0.2932 -0.4325
 5106SOL    HW126951   2.239   1.088  15.003  1.4728 -2.5625  1.7152
 5106SOL    HW226952   2.360   1.099  15.087 -0.2576 -0.0678  0.9321
 5107SOL     OW26953   0.486   0.341   4.154 -0.5654  0.1625 -0.1413
 5107SOL    HW126954   0.448   0.265   4.200  2.4687  0.2286  2.5396
 5107SOL    HW226955   0.548   0.366   4.223  1.3441  0.3185 -1.9322
 5108SOL     OW26956   4.480   3.589   5.304 -0.0430 -0.2971  0.0879
 5108SOL    HW126957   4.517   3.521   5.362 -0.8283 -0.3484  0.5200
 5108SOL    HW226958   4.529   3.660   5.346 -0.7088  0.5252 -0.5633
 5109SOL     OW26959   0.916   4.224   3.388  0.4231  0.3415 -0.2478
 5109SOL    HW126960   0.972   4.161   3.434 -1.2352 -2.6671 -2.3579
 5109SOL    HW226961   0.974   4.243   3.315  1.8918  0.0559  0.8539
 5110SOL     OW26962   1.579   1.839   1.267 -0.0046 -0.0822  0.0870
 5110SOL    HW126963   1.496   1.843   1.316  0.9895 -2.0479  1.9623
 5110SOL    HW226964   1.611   1.929   1.260  0.3526 -0.1421  1.0079
 5111SOL     OW26965   0.664   0.725   6.839  0.0953  0.4841  0.0793
 5111SOL    HW126966   0.691   0.706   6.749 -0.6751  1.0277 -0.2652
 5111SOL    HW226967   0.588   0.668   6.848 -0.5757  1.4366  0.3831
 5112SOL     OW26968   4.346   1.185   3.255  0.2034 -0.2084  0.5330
 5112SOL    HW126969   4.290   1.132   3.198  1.3932 -0.1929 -0.6451
 5112SOL    HW226970   4.305   1.270   3.237 -0.8375 -0.5846  1.1229
 5113SOL     OW26971   1.628   0.207   3.643 -0.0288  0.2944  0.0265
 5113SOL    HW126972   1.537   0.236   3.637 -0.1038  0.2249  0.8351
 5113SOL    HW226973   1.658   0.298   3.646 -1.6791  0.8275  0.2208
 5114SOL     OW26974   1.567   1.362   4.614 -1.2886 -0.9547 -0.4197
 5114SOL    HW126975   1.538   1.453   4.611 -0.1024 -0.5894 -0.7582
 5114SOL    HW226976   1.584   1.347   4.707 -1.7740 -2.9893 -0.6665
 5115SOL     OW26977   1.019   0.779   7.984  0.3597 -0.4314 -0.2891
 5115SOL    HW126978   1.051   0.693   7.956  0.9025 -1.3075  2.9889
 5115SOL    HW226979   0.961   0.757   8.057 -1.0211  1.3446 -0.8532
 5116SOL     OW26980   2.952   4.313   2.094  0.5049  0.7387 -0.1799
 5116SOL    HW126981   2.906   4.397   2.100  3.1302  2.2678 -1.5723
 5116SOL    HW226982   2.959   4.291   2.001  1.3018  1.4281 -0.2833
 5117SOL     OW26983   4.249   4.274  13.046  0.2584 -0.7339 -0.2854
 5117SOL    HW126984   4.331   4.320  13.024 -0.9087  0.9565 -1.1131
 5117SOL    HW226985   4.223   4.337  13.113 -2.2930 -1.6789 -0.3940
 5118SOL     OW26986   2.429   2.162   2.373 -0.0085  0.0439  0.5713
 5118SOL    HW126987   2.357   2.150   2.434 -0.2313 -1.7767 -0.0275
 5118SOL    HW226988   2.383   2.193   2.295  0.8179 -0.0280  0.0528
 5119SOL     OW26989   0.620   4.206  17.311 -0.3078  0.7282  0.2511
 5119SOL    HW126990   0.655   4.117  17.309 -2.8653 -0.2509 -0.6992
 5119SOL    HW226991   0.653   4.241  17.228  0.5280 -2.7490 -0.8919
 5120SOL     OW26992   4.138   2.896  17.034 -0.0067 -0.2952  0.2790
 5120SOL    HW126993   4.151   2.871  17.126  0.2134  0.4609  0.4575
 5120SOL    HW226994   4.114   2.988  17.044  1.7043  0.2478 -0.5578
 5121SOL     OW26995   3.196   2.838  13.742 -0.0330  0.1099 -0.3096
 5121SOL    HW126996   3.247   2.914  13.769  1.7138 -1.2847  0.3254
 5121SOL    HW226997   3.150   2.880  13.669  1.1007  1.2633 -0.3446
 5122SOL     OW26998   4.580   1.099   1.084  0.5930  0.8152 -0.6069
 5122SOL    HW126999   4.614   1.010   1.087 -0.5467  0.3538 -1.7305
 5122SOL    HW227000   4.495   1.084   1.043 -0.2548 -2.1744  2.2918
 5123SOL     OW27001   4.081   0.036   4.822 -0.2670  0.6315 -0.1074
 5123SOL    HW127002   4.117   0.028   4.734  1.0116  0.3768  0.4390
 5123SOL    HW227003   4.094   4.685   4.854  0.3701  0.4483 -0.8682
 5124SOL     OW27004   0.301   1.215   2.120 -0.3114 -0.5090 -0.1304
 5124SOL    HW127005   0.385   1.192   2.079  0.1652 -1.9931  1.7207
 5124SOL    HW227006   0.237   1.217   2.048 -2.1071  1.3721  1.5037
 5125SOL     OW27007   1.361   3.089   5.654 -0.1238  0.4266  0.1031
 5125SOL    HW127008   1.400   3.144   5.721 -2.7658  0.8285  1.3071
 5125SOL    HW227009   1.384   3.146   5.580  1.9094  1.2699  1.4144
 5126SOL     OW27010   2.496   2.003   9.428 -0.0108 -0.2528 -0.2121
 5126SOL    HW127011   2.578   1.956   9.410 -0.7445 -1.2540 -0.9796
 5126SOL    HW227012   2.435   1.949   9.377  0.2601  0.2068 -1.0226
 5127SOL     OW27013   1.308   2.617   8.980  1.0097  0.0012  0.0052
 5127SOL    HW127014   1.243   2.655   8.921  0.4905 -3.3400 -1.5218
 5127SOL    HW227015   1.269   2.530   8.989  1.4877 -0.1023  1.1935
 5128SOL     OW27016   1.779   0.794  10.676 -0.1196 -0.3340 -0.9552
 5128SOL    HW127017   1.853   0.734  10.664  0.2126 -0.3689  1.2683
 5128SOL    HW227018   1.799   0.837  10.759  1.1686 -0.8980 -0.9675
 5129SOL     OW27019   3.319   3.270   6.576 -0.7348  0.6749  0.3471
 5129SOL    HW127020   3.343   3.214   6.503 -2.1253  0.7964 -0.2054
 5129SOL    HW227021   3.331   3.356   6.536 -0.3588  1.1114  1.3817
 5130SOL     OW27022   2.806   4.217   7.983 -0.2315  0.5365 -0.4636
 5130SOL    HW127023   2.810   4.312   7.981 -0.2225  0.5544  0.5166
 5130SOL    HW227024   2.832   4.199   7.893  2.1418 -1.1203  0.5324
 5131SOL     OW27025   2.258   4.065   8.228  0.0277  0.4589  0.0081
 5131SOL    HW127026   2.188   4.100   8.173 -0.5844  0.0001  0.5037
 5131SOL    HW227027   2.245   4.122   8.303  1.8573  1.3169 -0.3299
 5132SOL     OW27028   3.158   3.648  14.867 -0.5390  0.1654 -0.0976
 5132SOL    HW127029   3.094   3.588  14.829  0.0380  1.0885 -2.4889
 5132SOL    HW227030   3.226   3.591  14.903  0.0978 -0.1574 -1.7911
 5133SOL     OW27031   0.897   3.591  11.440  0.0043 -0.1874  0.4229
 5133SOL    HW127032   0.888   3.506  11.398 -0.1820  0.0027  0.0848
 5133SOL    HW227033   0.981   3.581  11.485 -0.7606 -5.3990  0.6513
 5134SOL     OW27034   0.827   3.035   6.929 -0.3660 -0.0469  0.5269
 5134SOL    HW127035   0.829   2.943   6.903  0.4643 -0.7049  3.0365
 5134SOL    HW227036   0.911   3.050   6.972  0.0427  0.0529 -0.3070
 5135SOL     OW27037   3.650   2.898   3.335  0.0606 -0.2592 -0.2159
 5135SOL    HW127038   3.643   2.990   3.311  1.0052 -0.4257 -1.1430
 5135SOL    HW227039   3.734   2.875   3.296  0.3204 -0.2408  0.3228
 5136SOL     OW27040   0.520   3.344   6.136 -0.1511  0.2585 -0.1173
 5136SOL    HW127041   0.529   3.351   6.231  0.0978  0.3895 -0.1509
 5136SOL    HW227042   0.496   3.433   6.114  1.4058  0.5074 -0.8249
 5137SOL     OW27043   3.331   1.688   4.341  0.0665  0.4354  0.4411
 5137SOL    HW127044   3.274   1.699   4.418  1.3115 -2.7692  1.7843
 5137SOL    HW227045   3.333   1.594   4.324 -2.3597  0.3207  0.8254
 5138SOL     OW27046   1.418   3.225   6.818 -0.1286 -0.1406  0.4904
 5138SOL    HW127047   1.473   3.153   6.785  0.7170  0.2158  1.1353
 5138SOL    HW227048   1.333   3.181   6.810 -0.5997  0.7952  0.3200
 5139SOL     OW27049   1.534   0.139   5.666 -0.3700 -0.7327  0.1946
 5139SOL    HW127050   1.477   0.077   5.621 -1.7958 -0.0307  1.0202
 5139SOL    HW227051   1.570   0.198   5.599 -1.0893 -2.9805 -2.1590
 5140SOL     OW27052   1.405   3.180  10.770 -0.0189  0.0734  0.0651
 5140SOL    HW127053   1.384   3.164  10.862 -1.7955 -1.8439 -0.6820
 5140SOL    HW227054   1.487   3.131  10.765 -0.8792 -1.2645 -1.0178
 5141SOL     OW27055   1.201   0.321  11.108  0.1013  0.1967  0.0679
 5141SOL    HW127056   1.214   0.333  11.014 -2.1409 -0.1932 -0.2916
 5141SOL    HW227057   1.107   0.332  11.119 -0.3423 -1.3153 -2.3085
 5142SOL     OW27058   1.881   3.071  17.576 -0.7021  0.2847 -0.1201
 5142SOL    HW127059   1.801   3.064  17.523 -0.7007 -0.8568  0.0247
 5142SOL    HW227060   1.866   3.010  17.648  0.2545  0.1237 -0.0628
 5143SOL     OW27061   3.183   4.657   1.876 -0.1221 -0.1963  0.1098
 5143SOL    HW127062   3.135   4.696   1.949  0.4487  0.0761  0.3390
 5143SOL    HW227063   3.216   4.579   1.920  2.9383  2.8909  3.3103
 5144SOL     OW27064   2.668   2.895   0.711  0.2853  0.3137 -0.0531
 5144SOL    HW127065   2.634   2.978   0.678 -0.1029  0.9883  2.0678
 5144SOL    HW227066   2.597   2.861   0.765  0.8723  0.5109  0.8430
 5145SOL     OW27067   0.435   2.715   2.291  0.1184  0.2550  0.3833
 5145SOL    HW127068   0.445   2.741   2.383  1.3235 -2.4608  1.0327
 5145SOL    HW227069   0.419   2.620   2.297 -1.3203  0.4857  0.3283
 5146SOL     OW27070   2.072   2.349   3.764 -0.1414  0.4198 -0.1964
 5146SOL    HW127071   2.108   2.433   3.794 -2.0126  1.5190 -1.0001
 5146SOL    HW227072   1.995   2.380   3.717 -0.6789 -0.8361 -0.1403
 5147SOL     OW27073   2.673   0.368   4.597 -0.3367  0.8807  0.1017
 5147SOL    HW127074   2.657   0.368   4.691  1.1089 -1.0578  0.3501
 5147SOL    HW227075   2.767   0.349   4.593 -0.1882  1.8500 -1.1987
 5148SOL     OW27076   3.908   1.751   5.238  0.0150  0.1383 -1.4704
 5148SOL    HW127077   3.998   1.784   5.235  0.2262 -0.2455  0.6692
 5148SOL    HW227078   3.930   1.667   5.198 -0.9433 -0.7565 -0.1389
 5149SOL     OW27079   2.726   1.648   6.741 -0.4978 -0.6841  0.0417
 5149SOL    HW127080   2.636   1.641   6.773  0.4515 -2.1991  2.3666
 5149SOL    HW227081   2.740   1.580   6.676  0.7308  0.6374 -1.0851
 5150SOL     OW27082   1.507   1.180   2.158 -0.2774 -0.1923  0.2481
 5150SOL    HW127083   1.508   1.251   2.222 -0.4158  0.4743 -0.4842
 5150SOL    HW227084   1.599   1.152   2.160 -0.2002  0.0022 -0.5809
 5151SOL     OW27085   1.258   3.767  12.639  0.0535 -0.0668  0.0657
 5151SOL    HW127086   1.327   3.822  12.675 -0.1724 -0.9458  1.8523
 5151SOL    HW227087   1.255   3.775  12.543 -1.4114 -0.8921  0.0430
 5152SOL     OW27088   1.906   3.671   5.705 -0.2223  0.1054  0.4543
 5152SOL    HW127089   1.834   3.681   5.643  2.3627 -0.7179 -2.6906
 5152SOL    HW227090   1.867   3.598   5.753  0.8302  0.9912  2.6637
 5153SOL     OW27091   2.198   1.337  17.749  0.2818 -0.0970  0.3965
 5153SOL    HW127092   2.175   1.418   0.046 -2.0257 -0.4462 -0.1563
 5153SOL    HW227093   2.128   1.281   0.032  0.3790 -1.1146 -1.1765
 5154SOL     OW27094   2.819   3.745   4.474 -0.6338  0.5105  0.1954
 5154SOL    HW127095   2.854   3.671   4.523  0.7630  0.9066 -0.2018
 5154SOL    HW227096   2.748   3.779   4.528  0.3369  1.1582  1.0701
 5155SOL     OW27097   4.587   2.034   5.609 -0.1986 -0.4783  0.1642
 5155SOL    HW127098   4.581   1.948   5.567  0.1311 -0.6790  0.5299
 5155SOL    HW227099   4.675   2.039   5.646  0.0523 -2.7417 -0.1063
 5156SOL     OW27100   0.668   0.257  11.843  0.0243  0.3066 -0.2757
 5156SOL    HW127101   0.618   0.330  11.805  1.4027  2.1445  1.4447
 5156SOL    HW227102   0.751   0.277  11.801  0.2153  1.7535  0.7998
 5157SOL     OW27103   2.974   2.301  11.882  0.2498 -0.3887  0.4516
 5157SOL    HW127104   2.951   2.331  11.969 -1.9651  2.4075 -1.0898
 5157SOL    HW227105   3.016   2.383  11.855 -0.8049 -0.9069 -2.8583
 5158SOL     OW27106   4.319   3.106   2.989  0.0835 -0.0404  0.3306
 5158SOL    HW127107   4.405   3.107   3.031  0.4822 -1.3876 -0.4532
 5158SOL    HW227108   4.274   3.081   3.070 -0.1564 -1.9724 -0.3971
 5159SOL     OW27109   2.339   2.985  17.726  0.0403  0.2137  0.1656
 5159SOL    HW127110   2.356   2.892  17.711  0.4551  0.1883  0.7878
 5159SOL    HW227111   2.407   3.025  17.672 -0.2655 -0.6984 -0.8788
 5160SOL     OW27112   4.565   2.459   8.905  0.4207  0.0279 -0.3445
 5160SOL    HW127113   4.540   2.529   8.845  0.5971  1.1629  0.9231
 5160SOL    HW227114   4.610   2.510   8.972 -0.4411  2.7781 -1.8942
 5161SOL     OW27115   3.729   0.027   6.517  0.4023  0.4215  0.0843
 5161SOL    HW127116   3.767   0.014   6.604 -0.9302  1.7877  0.8699
 5161SOL    HW227117   3.764   4.687   6.474  1.7655  0.9390  0.2676
 5162SOL     OW27118   0.363   1.553   2.781  0.3389  0.5425 -0.4918
 5162SOL    HW127119   0.426   1.505   2.727  0.5833 -0.8042  0.9961
 5162SOL    HW227120   0.364   1.636   2.733 -0.1288  0.6773 -0.2664
 5163SOL     OW27121   2.813   0.391   8.837 -0.2583 -0.7933  0.0280
 5163SOL    HW127122   2.803   0.304   8.877  0.5408 -0.2342  1.4742
 5163SOL    HW227123   2.724   0.420   8.817  0.1865  0.4826 -0.1251
 5164SOL     OW27124   0.379   3.598  13.405 -0.5862 -0.3629 -0.1864
 5164SOL    HW127125   0.338   3.559  13.482 -0.5502 -0.1087 -0.0388
 5164SOL    HW227126   0.438   3.528  13.378 -3.2741 -1.7339 -2.5105
 5165SOL     OW27127   1.869   3.880   8.262  0.0400  0.2261 -0.3226
 5165SOL    HW127128   1.894   3.824   8.188  1.2402  1.4139 -0.8209
 5165SOL    HW227129   1.847   3.958   8.211 -0.9427 -0.0522 -0.3302
 5166SOL     OW27130   1.390   4.262   5.798  0.6368  0.3358 -0.3381
 5166SOL    HW127131   1.480   4.292   5.813  0.1254  1.9526 -0.5134
 5166SOL    HW227132   1.397   4.259   5.703  1.0685 -0.5072 -0.2757
 5167SOL     OW27133   2.491   0.255   1.988 -0.3912 -0.3407 -0.0273
 5167SOL    HW127134   2.581   0.251   1.953 -0.4971  0.6692 -0.4043
 5167SOL    HW227135   2.454   0.178   1.945 -0.1113 -0.4742 -0.0311
 5168SOL     OW27136   0.565   1.937   5.484 -0.0442 -0.0678 -0.2968
 5168SOL    HW127137   0.634   1.991   5.447 -2.3229  1.2776 -2.6284
 5168SOL    HW227138   0.612   1.862   5.521  0.7769  0.6817  0.1729
 5169SOL     OW27139   1.963   1.130  15.508  0.2155 -0.6084  0.6086
 5169SOL    HW127140   1.883   1.182  15.496  0.6770 -0.0600 -0.0532
 5169SOL    HW227141   1.999   1.133  15.420  1.1397 -2.0503  0.9446
 5170SOL     OW27142   1.506   1.399   8.819  0.3295 -0.6369  0.2506
 5170SOL    HW127143   1.478   1.491   8.814 -0.7433 -1.0475 -1.2662
 5170SOL    HW227144   1.423   1.355   8.836 -1.5621  2.7369 -0.1942
 5171SOL     OW27145   4.144   0.724   7.744 -0.2962  0.4844  0.3386
 5171SOL    HW127146   4.125   0.632   7.763 -0.1361  0.3116 -0.3245
 5171SOL    HW227147   4.221   0.735   7.800  0.3197  1.6197 -0.7383
 5172SOL     OW27148   1.570   2.347   2.109  0.2754  0.2468  0.9018
 5172SOL    HW127149   1.496   2.300   2.147  0.3922 -0.5573  0.1365
 5172SOL    HW227150   1.578   2.423   2.166  2.1795  0.2172  0.7048
 5173SOL     OW27151   1.055   2.041   3.430 -0.0212  0.5527  0.2179
 5173SOL    HW127152   1.040   1.974   3.497 -0.2892 -0.7478 -1.1373
 5173SOL    HW227153   1.019   2.113   3.481 -1.1022 -0.2101  0.5286
 5174SOL     OW27154   2.086   0.941  15.821  0.7077 -0.3242  0.0860
 5174SOL    HW127155   2.178   0.963  15.807 -0.3926  2.3505 -2.9287
 5174SOL    HW227156   2.090   0.933  15.916 -1.0352  0.1227  0.2012
 5175SOL     OW27157   3.735   3.759   7.251 -0.2483 -0.3007  0.2003
 5175SOL    HW127158   3.652   3.770   7.298 -1.4765  0.4855 -2.1126
 5175SOL    HW227159   3.767   3.849   7.259  0.0753 -0.5153  1.2925
 5176SOL     OW27160   4.702   0.269   2.013  0.1781  0.0002 -0.1930
 5176SOL    HW127161   4.662   0.202   1.959  0.6961 -0.9399  0.5874
 5176SOL    HW227162   4.700   0.336   1.945  0.3136 -0.6813 -0.8602
 5177SOL     OW27163   0.189   4.475   5.032  0.1448 -0.7117  1.2342
 5177SOL    HW127164   0.221   4.477   5.123 -0.5561  2.7064  1.4089
 5177SOL    HW227165   0.103   4.434   5.045 -0.4569 -0.2062 -1.1069
 5178SOL     OW27166   0.902   0.707  11.542 -0.1976 -0.5816  0.2346
 5178SOL    HW127167   0.973   0.752  11.495 -0.2969 -0.1195  0.5294
 5178SOL    HW227168   0.865   0.651  11.474  2.2966  0.4798 -2.0195
 5179SOL     OW27169   1.109   3.259   1.960  0.1422  0.5508 -0.0636
 5179SOL    HW127170   1.101   3.182   1.904 -1.0952 -1.0309  2.2945
 5179SOL    HW227171   1.027   3.306   1.943  0.0922  1.0600  1.6214
 5180SOL     OW27172   3.947   2.860   8.468  1.0509  0.2672  0.8605
 5180SOL    HW127173   3.896   2.920   8.414  1.6197  1.5484  1.7353
 5180SOL    HW227174   4.012   2.920   8.507  0.4533  1.9165 -0.6869
 5181SOL     OW27175   3.922   3.827   5.736 -0.0956 -0.1233 -0.6138
 5181SOL    HW127176   3.910   3.741   5.774  1.8110 -0.7632 -1.4266
 5181SOL    HW227177   3.852   3.886   5.764  0.9633 -0.5181  2.8612
 5182SOL     OW27178   0.343   4.505   8.986  0.6401  0.4026 -0.2671
 5182SOL    HW127179   0.253   4.519   9.016  0.3127 -0.2953 -0.9593
 5182SOL    HW227180   0.398   4.547   9.052 -0.7108 -0.9620  1.7434
 5183SOL     OW27181   1.483   0.442   5.784 -0.0804  0.3487  0.2760
 5183SOL    HW127182   1.400   0.397   5.800 -0.0223  0.4235  0.8027
 5183SOL    HW227183   1.493   0.495   5.863 -0.5055 -1.6328  1.6621
 5184SOL     OW27184   1.020   4.327   0.412 -0.2015 -0.1813  0.1492
 5184SOL    HW127185   0.933   4.303   0.380 -0.2756  0.0536  0.1683
 5184SOL    HW227186   1.032   4.283   0.497  1.7441  0.0013 -0.0371
 5185SOL     OW27187   4.658   3.835   5.616  0.3929 -0.2185  0.6442
 5185SOL    HW127188   4.702   3.916   5.591 -0.9763 -0.3029 -2.0277
 5185SOL    HW227189   4.637   3.795   5.532  2.0013 -0.1944  0.2324
 5186SOL     OW27190   1.994   2.200   0.234 -0.2092  0.2050  0.0621
 5186SOL    HW127191   1.928   2.162   0.175  0.1843  2.8760 -2.1129
 5186SOL    HW227192   2.054   2.126   0.243 -0.2768  0.0668 -0.5770
 5187SOL     OW27193   3.423   3.672   9.754 -0.9583 -0.1706  0.4556
 5187SOL    HW127194   3.358   3.643   9.690 -0.2148 -3.5300  1.2281
 5187SOL    HW227195   3.423   3.598   9.814 -0.8822 -0.7333 -0.2385
 5188SOL     OW27196   1.550   4.139   7.992 -0.0688 -0.0885 -0.4044
 5188SOL    HW127197   1.574   4.053   8.027  0.4350  0.3485  0.3413
 5188SOL    HW227198   1.635   4.175   7.965 -0.2992  0.8401  0.0978
 5189SOL     OW27199   2.126   2.000   6.837  0.5829  0.1092 -0.7046
 5189SOL    HW127200   2.220   2.019   6.827  0.5480 -0.4134 -1.9891
 5189SOL    HW227201   2.128   1.913   6.878 -1.4484 -0.0271 -0.8962
 5190SOL     OW27202   1.603   0.031   6.442  0.2440 -0.6657 -0.0103
 5190SOL    HW127203   1.682   0.016   6.494  0.3300  1.9109  0.5826
 5190SOL    HW227204   1.536   4.728   6.497  0.6604 -1.3458 -0.0033
 5191SOL     OW27205   1.448   2.864   7.331 -0.0471 -0.3473 -0.0330
 5191SOL    HW127206   1.421   2.803   7.399  0.0373 -0.7989 -0.4095
 5191SOL    HW227207   1.388   2.938   7.341 -0.8593 -0.8653 -1.1901
 5192SOL     OW27208   2.147   4.291   5.889 -0.4292 -0.1367  0.0787
 5192SOL    HW127209   2.067   4.343   5.894 -0.1691 -0.0780  3.7988
 5192SOL    HW227210   2.219   4.341   5.851 -1.0563 -0.3218 -1.3425
 5193SOL     OW27211   4.211   1.462   4.230  0.3251  0.0416  0.3177
 5193SOL    HW127212   4.159   1.417   4.164  1.2484 -0.6074  0.0323
 5193SOL    HW227213   4.240   1.381   4.271 -0.8272 -0.2994  0.4425
 5194SOL     OW27214   1.856   3.921   3.799 -0.6371  0.4163  0.4278
 5194SOL    HW127215   1.823   3.845   3.751 -0.1863 -0.4399  1.4584
 5194SOL    HW227216   1.838   3.996   3.743 -2.3222  0.8476  1.5600
 5195SOL     OW27217   3.072   0.426   8.418 -0.4283  0.4742 -0.2894
 5195SOL    HW127218   3.013   0.372   8.365  0.6194  0.0670 -1.0549
 5195SOL    HW227219   3.018   0.501   8.440  0.3775  1.1179 -0.4969
 5196SOL     OW27220   2.996   3.713   3.810  0.0842 -0.0211 -0.3936
 5196SOL    HW127221   3.012   3.629   3.853 -1.5976 -0.7737 -1.2518
 5196SOL    HW227222   2.931   3.746   3.872  2.0598  2.4360  0.3932
 5197SOL     OW27223   0.405   1.231   0.013  0.4055 -0.5485 -0.7153
 5197SOL    HW127224   0.331   1.275   0.055  0.7063 -0.6717 -0.0556
 5197SOL    HW227225   0.440   1.160   0.066  1.3673 -0.5046 -1.2979
 5198SOL     OW27226   1.841   1.137  13.810 -0.2099 -0.1793 -1.0245
 5198SOL    HW127227   1.841   1.161  13.717 -0.2490  0.8512 -0.7603
 5198SOL    HW227228   1.872   1.049  13.788 -2.3299 -1.9280  3.0816
 5199SOL     OW27229   0.139   4.438  12.344 -0.3712 -0.0721 -0.2361
 5199SOL    HW127230   0.136   4.369  12.277 -1.6301 -0.5399  0.3136
 5199SOL    HW227231   0.086   4.511  12.313 -1.1668  0.2262  1.8666
 5200SOL     OW27232   3.616   0.815  10.341  0.8144  0.3751 -0.1539
 5200SOL    HW127233   3.703   0.814  10.380  1.1300 -1.2630 -0.9304
 5200SOL    HW227234   3.633   0.763  10.263 -0.1163  1.7386 -1.2852
 5201SOL     OW27235   3.688   3.934  11.330  0.0907  0.3554 -0.1086
 5201SOL    HW127236   3.648   3.873  11.392  0.8942  0.1050  0.1562
 5201SOL    HW227237   3.753   3.870  11.303 -0.9237 -0.5592 -0.3772
 5202SOL     OW27238   2.359   1.700   8.264  0.8529 -0.0552 -0.0037
 5202SOL    HW127239   2.446   1.700   8.303 -0.3529 -2.2973  2.6544
 5202SOL    HW227240   2.375   1.654   8.182  0.7380 -1.9253  1.0324
 5203SOL     OW27241   3.994   3.726   2.671 -0.2412  0.0219 -0.0696
 5203SOL    HW127242   3.914   3.702   2.718 -1.7544  1.7274 -1.7735
 5203SOL    HW227243   3.977   3.672   2.594  1.2516  0.5647 -0.7709
 5204SOL     OW27244   0.611   1.275   8.863 -0.2580  0.2746  0.3471
 5204SOL    HW127245   0.612   1.179   8.856  0.2278  0.1926  1.4321
 5204SOL    HW227246   0.536   1.298   8.918  0.5095  1.5250  0.8610
 5205SOL     OW27247   1.759   0.022   7.927 -0.3118 -0.2029 -0.8670
 5205SOL    HW127248   1.753   0.117   7.941  2.1107 -0.3787  1.3759
 5205SOL    HW227249   1.821   4.735   7.995 -1.5033 -0.6964  0.0323
 5206SOL     OW27250   3.244   4.493   2.639 -0.2355 -0.2216 -0.1591
 5206SOL    HW127251   3.265   4.498   2.732 -0.5694  0.8361 -0.1394
 5206SOL    HW227252   3.316   4.528   2.588  1.3069 -1.6688  1.0184
 5207SOL     OW27253   0.832   4.229  15.999 -0.5776 -0.0796  0.5938
 5207SOL    HW127254   0.813   4.305  16.053  1.0011  2.0712 -1.8372
 5207SOL    HW227255   0.926   4.216  16.013 -0.5444 -1.7862 -1.1852
 5208SOL     OW27256   0.375   0.296   4.565 -0.3191  0.5369  0.2117
 5208SOL    HW127257   0.286   0.301   4.528 -0.1530  1.4473 -0.0675
 5208SOL    HW227258   0.411   0.212   4.539  0.4645  0.9074  0.1019
 5209SOL     OW27259   0.256   3.277  10.853 -0.2371  0.0739 -0.4376
 5209SOL    HW127260   0.283   3.310  10.938  1.3547 -2.2379 -0.0495
 5209SOL    HW227261   0.203   3.349  10.817  0.2528 -0.6146 -2.5657
 5210SOL     OW27262   0.394   0.718   2.454 -0.0175  0.2306 -0.8359
 5210SOL    HW127263   0.418   0.811   2.461  0.9172 -0.2590  2.2636
 5210SOL    HW227264   0.479   0.673   2.461  1.1113  2.2644 -1.3698
 5211SOL     OW27265   0.433   0.481   6.448  0.7038 -0.5486  0.3392
 5211SOL    HW127266   0.476   0.484   6.363 -1.2847  1.4613 -0.6076
 5211SOL    HW227267   0.393   0.395   6.446  1.2306 -0.8566  2.8888
 5212SOL     OW27268   4.586   0.937   2.768  0.1626 -0.4593  0.1227
 5212SOL    HW127269   4.649   1.006   2.793 -1.0772  1.1125 -1.1041
 5212SOL    HW227270   4.594   0.891   2.852 -2.7173 -0.0494  0.6040
 5213SOL     OW27271   0.979   3.112   1.656  0.2800 -0.1493 -0.0085
 5213SOL    HW127272   0.924   3.042   1.621  0.8567 -1.2583  1.2724
 5213SOL    HW227273   1.042   3.063   1.709  0.4591  1.0662  0.9017
 5214SOL     OW27274   2.660   3.975   2.569 -0.6197 -0.1881 -0.3396
 5214SOL    HW127275   2.615   3.916   2.629 -1.6314 -1.8802 -2.7321
 5214SOL    HW227276   2.591   4.027   2.528 -0.7147  0.3572  0.5291
 5215SOL     OW27277   1.966   2.701  13.277 -0.0289 -0.4251 -0.3557
 5215SOL    HW127278   1.960   2.780  13.222  0.2896 -0.6503 -0.7149
 5215SOL    HW227279   1.885   2.718  13.325 -0.1718  3.1233 -1.8574
 5216SOL     OW27280   2.343   0.386   5.127  0.3394  0.1055 -0.1332
 5216SOL    HW127281   2.363   0.473   5.093 -2.1413 -0.0253 -1.9698
 5216SOL    HW227282   2.348   0.328   5.051  1.2472 -0.0443  0.0372
 5217SOL     OW27283   2.193   3.540   4.079 -0.4809  0.2952 -0.3145
 5217SOL    HW127284   2.121   3.588   4.040 -0.4435  0.6993  0.1271
 5217SOL    HW227285   2.180   3.549   4.173 -1.1185  0.5461 -0.4299
 5218SOL     OW27286   1.007   0.761   5.669 -0.5442 -0.2358  0.0258
 5218SOL    HW127287   1.085   0.801   5.630  0.5378 -0.0548  2.3795
 5218SOL    HW227288   1.064   0.711   5.728  0.7905 -1.8359 -2.6326
 5219SOL     OW27289   4.108   1.030   4.261 -0.2601  0.1292  0.0807
 5219SOL    HW127290   4.153   0.967   4.205  0.1383 -0.1537  0.7178
 5219SOL    HW227291   4.048   0.967   4.299  0.6112  0.1115  1.4392
 5220SOL     OW27292   0.853   0.943   3.649  0.0458  0.6164  0.6776
 5220SOL    HW127293   0.913   0.996   3.701 -0.7639  2.3341 -0.1658
 5220SOL    HW227294   0.792   1.013   3.625  0.7785  0.9149 -0.2871
 5221SOL     OW27295   1.170   0.893   4.702 -0.4427 -0.0024  0.5770
 5221SOL    HW127296   1.077   0.902   4.725 -0.3003  0.4098  0.9917
 5221SOL    HW227297   1.207   0.974   4.736  0.7877  0.3734 -1.6150
 5222SOL     OW27298   3.799   4.237   3.167  0.5986 -0.2363 -0.3033
 5222SOL    HW127299   3.827   4.164   3.111  0.7472  0.0756 -0.6424
 5222SOL    HW227300   3.781   4.199   3.253  1.8874  0.4307  0.2658
 5223SOL     OW27301   0.113   2.919   2.675 -0.1609 -0.4372  0.1657
 5223SOL    HW127302   0.028   2.878   2.685  0.2784 -1.9111 -2.2201
 5223SOL    HW227303   0.103   2.916   2.580 -0.0373  2.0397  0.0691
 5224SOL     OW27304   3.509   3.729   2.744  0.2157 -0.0694  0.3076
 5224SOL    HW127305   3.483   3.812   2.784  0.1896  0.6324 -1.1672
 5224SOL    HW227306   3.422   3.690   2.734  0.6479 -0.3417 -2.3275
 5225SOL     OW27307   4.368   0.363   7.233 -0.4844 -0.6920 -0.2806
 5225SOL    HW127308   4.346   0.450   7.200  1.6113 -0.6331 -1.4991
 5225SOL    HW227309   4.300   0.363   7.300  1.8732  0.8485  2.1235
 5226SOL     OW27310   1.945   2.975   8.098 -0.3932  0.1577 -0.0572
 5226SOL    HW127311   2.006   3.023   8.154  1.3608 -0.5447 -1.3639
 5226SOL    HW227312   1.917   2.904   8.156 -0.6527 -0.8006 -1.3507
 5227SOL     OW27313   1.361   1.913   8.125 -0.1366  0.4651 -0.0794
 5227SOL    HW127314   1.313   1.832   8.108 -0.2472  0.2621  1.2078
 5227SOL    HW227315   1.292   1.980   8.123 -1.4840 -0.9077 -0.2023
 5228SOL     OW27316   3.810   1.167  12.569 -0.2278  0.4871  0.8805
 5228SOL    HW127317   3.792   1.118  12.489  1.3585  1.1485  0.1132
 5228SOL    HW227318   3.891   1.207  12.536 -0.5312 -0.5239 -1.1113
 5229SOL     OW27319   2.423   2.490  15.049  0.0955 -0.0114 -0.4348
 5229SOL    HW127320   2.371   2.460  14.974 -0.3009 -1.1056  0.2691
 5229SOL    HW227321   2.514   2.471  15.026 -0.0132  0.5275 -1.3085
 5230SOL     OW27322   4.362   0.864   9.426 -0.2202 -0.0757  0.5183
 5230SOL    HW127323   4.346   0.795   9.361  3.0014  0.4790 -0.9249
 5230SOL    HW227324   4.454   0.882   9.404 -0.5528 -0.8828 -1.5457
 5231SOL     OW27325   4.233   3.664   2.774 -0.4007 -0.8116  0.3484
 5231SOL    HW127326   4.146   3.679   2.736  0.6972 -0.1803 -1.9657
 5231SOL    HW227327   4.252   3.573   2.753  0.5108 -1.0136  2.0590
 5232SOL     OW27328   4.283   0.518   8.586  0.6490  0.2511 -0.3721
 5232SOL    HW127329   4.265   0.435   8.629  0.7675  0.0891 -0.6405
 5232SOL    HW227330   4.366   0.549   8.622  0.8785  1.0460 -1.5862
 5233SOL     OW27331   3.482   0.503   2.120  0.1026  0.0795 -0.2053
 5233SOL    HW127332   3.525   0.420   2.101  1.2355  0.5032  0.5236
 5233SOL    HW227333   3.454   0.491   2.211 -0.0589  0.6769 -0.1779
 5234SOL     OW27334   4.002   4.474   9.855 -0.1108 -0.4594  0.2638
 5234SOL    HW127335   4.039   4.396   9.896  0.6591 -0.2586 -0.0412
 5234SOL    HW227336   3.922   4.433   9.824 -0.6860  2.2601 -1.7600
 5235SOL     OW27337   0.704   3.322   9.013  0.0487 -0.5479  0.1136
 5235SOL    HW127338   0.722   3.395   9.073  0.1793  0.4743 -1.1678
 5235SOL    HW227339   0.790   3.310   8.973 -0.1324  0.1224 -0.4818
 5236SOL     OW27340   1.633   3.957   6.867  0.2271 -0.7094 -0.0885
 5236SOL    HW127341   1.586   4.028   6.824  1.3569 -0.0224 -0.1908
 5236SOL    HW227342   1.672   4.002   6.942 -1.3159 -1.4262  1.1466
 5237SOL     OW27343   1.578   2.980   6.417 -0.6151 -0.2035 -0.0225
 5237SOL    HW127344   1.647   2.930   6.372  0.9253 -0.2400  2.3556
 5237SOL    HW227345   1.574   3.055   6.359 -1.6778  0.0973  0.4458
 5238SOL     OW27346   3.231   1.937   1.451  0.3562  0.5641  0.1090
 5238SOL    HW127347   3.201   2.024   1.478  0.1233  0.8331 -1.0414
 5238SOL    HW227348   3.149   1.893   1.430 -1.0392  2.9000  0.7371
 5239SOL     OW27349   1.220   4.362   6.705 -0.2831 -0.4861 -0.5958
 5239SOL    HW127350   1.197   4.272   6.682  1.1407 -0.5522 -1.7437
 5239SOL    HW227351   1.140   4.402   6.671 -0.6133 -0.8044 -0.1871
 5240SOL     OW27352   0.776   2.574   3.148 -0.1872  0.6577  0.1719
 5240SOL    HW127353   0.693   2.536   3.176 -1.4279  2.9636 -0.3358
 5240SOL    HW227354   0.812   2.614   3.228  0.9112  0.5331 -0.2602
 5241SOL     OW27355   3.324   0.894   5.608  0.1249  0.5345  0.3217
 5241SOL    HW127356   3.416   0.870   5.609 -0.0802 -0.3874 -1.8330
 5241SOL    HW227357   3.296   0.802   5.599  1.4836  0.0807  0.7218
 5242SOL     OW27358   1.700   1.636   4.594 -0.7216  0.4057 -0.0791
 5242SOL    HW127359   1.752   1.584   4.533  1.6460  3.0330 -0.2716
 5242SOL    HW227360   1.750   1.717   4.597 -1.1307  0.6832 -0.6010
 5243SOL     OW27361   4.648   3.721   2.466  0.0642  0.2297 -0.1369
 5243SOL    HW127362   4.579   3.753   2.524 -0.0913  0.5488 -0.4932
 5243SOL    HW227363   4.605   3.641   2.437 -0.2759 -0.6596  2.9054
 5244SOL     OW27364   3.154   2.380   4.215 -0.0987 -0.5764 -0.2277
 5244SOL    HW127365   3.211   2.307   4.192  0.0895 -1.2369  2.2831
 5244SOL    HW227366   3.201   2.420   4.289  0.9961  0.4686 -1.4884
 5245SOL     OW27367   2.175   2.594   8.362 -0.1322 -0.0355  0.1617
 5245SOL    HW127368   2.084   2.563   8.371 -0.3612  1.3212  2.3675
 5245SOL    HW227369   2.216   2.524   8.413  0.5240  2.2793  2.7740
 5246SOL     OW27370   0.406   2.296   2.565  0.3286  0.3132 -0.2678
 5246SOL    HW127371   0.415   2.247   2.647  0.1631  0.6075 -0.0708
 5246SOL    HW227372   0.313   2.285   2.546  1.1084 -1.5245 -3.0457
 5247SOL     OW27373   1.236   0.541   7.901  0.0298  0.2082  0.3366
 5247SOL    HW127374   1.216   0.476   7.969  1.3274  0.9507  1.4141
 5247SOL    HW227375   1.162   0.532   7.840  1.2627  0.0342 -1.1343
 5248SOL     OW27376   0.505   0.805   2.890 -0.4833 -0.1866 -0.2189
 5248SOL    HW127377   0.543   0.780   2.806  0.8290  1.0550 -0.0037
 5248SOL    HW227378   0.414   0.785   2.871 -0.2356 -2.0632  0.6191
 5249SOL     OW27379   3.225   4.407   9.534  0.2482  0.6692 -0.0035
 5249SOL    HW127380   3.274   4.327   9.553  1.8562  1.5210 -0.5246
 5249SOL    HW227381   3.295   4.459   9.493  0.8926  1.6140  2.2934
 5250SOL     OW27382   0.611   4.015   4.872 -0.3774 -0.3405 -0.5419
 5250SOL    HW127383   0.574   4.103   4.885  1.0934  0.1650  0.3243
 5250SOL    HW227384   0.538   3.959   4.846 -2.3531  1.7442  0.4883
 5251SOL     OW27385   4.149   1.297   9.576 -0.5428 -0.3391 -0.2659
 5251SOL    HW127386   4.127   1.363   9.510 -1.3262  0.7060  1.0404
 5251SOL    HW227387   4.072   1.302   9.632  1.0870  0.2797  1.9197
 5252SOL     OW27388   2.348   0.196   6.032 -0.2879 -0.9183 -0.2064
 5252SOL    HW127389   2.383   0.255   6.098 -1.4136  0.8859 -1.2005
 5252SOL    HW227390   2.294   0.260   5.985  0.7900 -1.5143 -2.2751
 5253SOL     OW27391   3.624   2.904   6.781 -0.6611  0.4724 -0.5614
 5253SOL    HW127392   3.623   2.880   6.689  1.8112 -1.2954 -0.1332
 5253SOL    HW227393   3.698   2.965   6.781 -0.4603  0.2311  3.7046
 5254SOL     OW27394   4.516   2.255  15.774  0.4587  0.1705  0.3928
 5254SOL    HW127395   4.594   2.218  15.816 -0.4764 -1.1223  1.0198
 5254SOL    HW227396   4.554   2.311  15.707 -0.0613  3.3608  2.8002
 5255SOL     OW27397   1.181   2.864  17.440 -0.4621  0.1134 -0.4536
 5255SOL    HW127398   1.259   2.819  17.409 -0.2705  0.1972 -0.0888
 5255SOL    HW227399   1.122   2.788  17.446 -0.7186  0.2094 -1.6099
 5256SOL     OW27400   1.570   2.523   3.713  0.8317  0.0031  0.1341
 5256SOL    HW127401   1.526   2.451   3.666 -2.6370  2.1815  0.0559
 5256SOL    HW227402   1.612   2.475   3.784  0.8505 -0.9018 -0.4813
 5257SOL     OW27403   2.703   3.614   1.902  0.2118 -0.5358  0.3665
 5257SOL    HW127404   2.768   3.683   1.918  1.1107 -0.9319 -1.5284
 5257SOL    HW227405   2.639   3.638   1.969  0.9501  1.1773  0.4486
 5258SOL     OW27406   0.485   1.210   7.760  0.0674  0.1818  0.1380
 5258SOL    HW127407   0.512   1.238   7.672  0.3968  1.1827  0.5524
 5258SOL    HW227408   0.554   1.147   7.779  0.0765  0.0092 -0.4657
 5259SOL     OW27409   0.669   3.281   7.993 -0.0626 -0.4820  0.9634
 5259SOL    HW127410   0.590   3.335   7.992  0.0995 -0.2098  3.9640
 5259SOL    HW227411   0.673   3.266   8.087 -0.9706  0.6785  1.1800
 5260SOL     OW27412   2.223   2.161   8.850  0.2986 -0.4876  0.1515
 5260SOL    HW127413   2.200   2.247   8.885  0.6844 -0.5350  0.5164
 5260SOL    HW227414   2.309   2.164   8.808  1.0435 -2.4566  1.5723
 5261SOL     OW27415   0.937   4.045   2.631 -0.5051 -1.3159 -0.0182
 5261SOL    HW127416   0.877   4.115   2.654 -1.5772 -1.9401 -0.9304
 5261SOL    HW227417   0.926   4.059   2.537 -1.2483  0.8010  0.3979
 5262SOL     OW27418   4.200   3.342   4.702 -0.6997  0.0319 -0.8420
 5262SOL    HW127419   4.282   3.373   4.739 -0.9661  1.3670 -1.3897
 5262SOL    HW227420   4.178   3.264   4.754  1.6443  0.5065  0.8631
 5263SOL     OW27421   2.558   2.695   9.016  0.3705 -0.4452  0.2014
 5263SOL    HW127422   2.500   2.676   8.943  1.6381 -2.3484 -0.3186
 5263SOL    HW227423   2.623   2.633   8.981  1.4317  0.4294  0.6115
 5264SOL     OW27424   1.974   2.430   2.193  0.3974  0.2718  0.1795
 5264SOL    HW127425   1.912   2.483   2.142  0.0375 -0.9333 -0.6195
 5264SOL    HW227426   2.020   2.498   2.243 -0.3832  0.3314  0.8314
 5265SOL     OW27427   4.688   1.669  14.680 -0.3084  0.1411  0.1040
 5265SOL    HW127428   4.681   1.666  14.776  0.4897  0.6078  0.1760
 5265SOL    HW227429   0.020   1.734  14.681  0.1293 -0.3256 -1.1189
 5266SOL     OW27430   2.592   4.441  13.378 -0.3304  0.1984  0.6179
 5266SOL    HW127431   2.678   4.401  13.382  0.2315  1.1870 -1.6252
 5266SOL    HW227432   2.625   4.527  13.402  3.8418 -1.2587  0.0305
 5267SOL     OW27433   4.202   1.531   9.170  0.0273 -0.1488  0.9189
 5267SOL    HW127434   4.222   1.593   9.240 -0.8930  0.6611  0.4673
 5267SOL    HW227435   4.186   1.586   9.092  2.4841  0.8294  1.1263
 5268SOL     OW27436   4.275   2.935  15.046 -0.1915  0.2069  0.1796
 5268SOL    HW127437   4.302   2.980  14.966 -0.9062 -1.1540 -0.8369
 5268SOL    HW227438   4.187   2.969  15.059  0.3958  1.3728  1.0976
 5269SOL     OW27439   1.998   4.580   2.182  0.0150  0.5506  0.0556
 5269SOL    HW127440   1.959   4.493   2.176  3.7436 -1.2700  2.5404
 5269SOL    HW227441   2.050   4.569   2.261 -1.7968  1.1010  1.3163
 5270SOL     OW27442   2.529   3.376  14.654  0.7646 -0.0145 -0.6884
 5270SOL    HW127443   2.593   3.337  14.594  1.8253  0.2855  0.2606
 5270SOL    HW227444   2.530   3.469  14.630  0.1520  0.3697  0.8047
 5271SOL     OW27445   0.420   2.372   5.560  0.0353  0.0507 -0.3361
 5271SOL    HW127446   0.335   2.332   5.545  1.3213 -1.0482 -4.5886
 5271SOL    HW227447   0.396   2.461   5.584 -1.2132 -0.1291 -0.9580
 5272SOL     OW27448   4.165   2.641   5.995  0.5877  0.3786 -0.2001
 5272SOL    HW127449   4.218   2.720   5.987  2.2329 -0.6382  0.6900
 5272SOL    HW227450   4.120   2.649   5.911 -1.4123 -0.6351  0.7765
 5273SOL     OW27451   3.180   1.319   2.939  0.6674  0.6155  0.0458
 5273SOL    HW127452   3.230   1.362   3.008  1.9775  1.6996 -1.5677
 5273SOL    HW227453   3.196   1.372   2.861  2.9166 -0.9045 -0.5160
 5274SOL     OW27454   0.048   2.948   2.402 -0.1570  0.6865 -0.0937
 5274SOL    HW127455   0.136   2.948   2.363 -0.0530 -2.6146  0.2099
 5274SOL    HW227456   0.013   3.018   2.347  0.1831  0.9935  0.0783
 5275SOL     OW27457   4.186   3.187  15.421 -0.2394 -0.7538  0.3038
 5275SOL    HW127458   4.170   3.172  15.328 -2.1530 -0.6040  0.6096
 5275SOL    HW227459   4.138   3.116  15.464  1.2648 -0.6856  2.1298
 5276SOL     OW27460   2.411   1.673   3.359 -0.1239  0.2111 -0.5105
 5276SOL    HW127461   2.378   1.745   3.412 -0.1300  0.2808 -0.6095
 5276SOL    HW227462   2.477   1.710   3.301 -0.4013  1.4905  0.0071
 5277SOL     OW27463   0.158   0.283   8.826  0.4967 -0.1222 -0.1410
 5277SOL    HW127464   0.184   0.194   8.849  1.9977  0.6394  1.1116
 5277SOL    HW227465   0.244   0.311   8.794 -0.5104  2.6253 -0.4605
 5278SOL     OW27466   3.747   3.581   8.491  0.2047 -0.0590 -0.1284
 5278SOL    HW127467   3.683   3.536   8.436  0.8842 -0.9661 -0.1786
 5278SOL    HW227468   3.825   3.535   8.459  1.8886  1.3286  1.9596
 5279SOL     OW27469   3.405   3.762  10.162 -0.3504 -0.6718 -0.0936
 5279SOL    HW127470   3.499   3.771  10.144 -0.3858  0.4466  0.2620
 5279SOL    HW227471   3.373   3.846  10.196 -0.0945 -0.4557 -0.3820
 5280SOL     OW27472   2.144   0.450   5.276 -0.5133  0.1144 -0.5863
 5280SOL    HW127473   2.177   0.538   5.297  2.3141 -1.5892  2.1741
 5280SOL    HW227474   2.223   0.413   5.236 -0.4527 -0.6432  0.2350
 5281SOL     OW27475   0.305   1.871   5.990  0.7309  0.1763 -0.4159
 5281SOL    HW127476   0.302   1.964   5.967  1.0717 -0.0110 -1.2252
 5281SOL    HW227477   0.350   1.839   5.911 -2.8747  0.0261 -2.3943
 5282SOL     OW27478   4.661   2.300   5.299 -0.0231 -0.3657 -0.2224
 5282SOL    HW127479   4.674   2.216   5.255  4.0587 -0.0050  0.2996
 5282SOL    HW227480   4.728   2.291   5.367  0.8242  0.3468 -0.9559
 5283SOL     OW27481   0.124   1.004   1.812  0.5899  0.0821 -0.1596
 5283SOL    HW127482   0.116   1.084   1.864 -0.1918 -0.3349  0.3589
 5283SOL    HW227483   0.219   0.992   1.813  0.5067 -0.7335 -1.5364
 5284SOL     OW27484   4.105   4.082   5.257 -0.0808  0.6680 -0.1076
 5284SOL    HW127485   4.011   4.099   5.251 -0.5408 -1.6180  0.6566
 5284SOL    HW227486   4.117   4.078   5.352  1.3032 -0.8302 -0.3264
 5285SOL     OW27487   2.513   3.224  15.462 -0.7253  0.4121  0.2750
 5285SOL    HW127488   2.522   3.294  15.397 -0.0338 -0.5107 -0.6232
 5285SOL    HW227489   2.594   3.241  15.511 -1.0898 -0.3313  1.1357
 5286SOL     OW27490   2.789   1.807   0.104  0.1341  0.5148  0.6238
 5286SOL    HW127491   2.731   1.847   0.040  1.5908  1.7488  0.0744
 5286SOL    HW227492   2.877   1.838   0.081 -1.5430  3.5961 -1.5691
 5287SOL     OW27493   0.254   3.679  11.154  1.7150  0.2932  0.0574
 5287SOL    HW127494   0.196   3.620  11.107  0.4227  1.2793  0.4388
 5287SOL    HW227495   0.261   3.643  11.242 -0.7687  0.5855  0.3574
 5288SOL     OW27496   2.524   2.383   9.664  0.3368  0.1582  0.2856
 5288SOL    HW127497   2.514   2.298   9.707 -0.3652  0.2809  0.3723
 5288SOL    HW227498   2.491   2.430   9.740  1.1137 -1.3163  1.5362
 5289SOL     OW27499   3.996   0.783  11.297  0.0695 -0.3513 -0.1005
 5289SOL    HW127500   3.947   0.756  11.375 -0.1424 -0.2939 -0.2146
 5289SOL    HW227501   3.979   0.877  11.302 -0.1892 -0.3499 -0.9642
 5290SOL     OW27502   3.722   3.923   1.725  0.3197 -0.6843 -0.2273
 5290SOL    HW127503   3.711   4.013   1.755 -1.2257 -0.8357 -0.3244
 5290SOL    HW227504   3.737   3.873   1.805  4.3990  0.2307 -0.4406
 5291SOL     OW27505   0.976   3.289   9.037 -0.2530  0.0942  0.7242
 5291SOL    HW127506   0.997   3.313   9.128 -0.7312  3.1188  0.0532
 5291SOL    HW227507   0.946   3.201   9.059  1.0273 -0.3530  0.6664
 5292SOL     OW27508   0.570   3.963   4.535  0.1920  0.7067 -0.0161
 5292SOL    HW127509   0.489   3.924   4.568  1.0110  0.1169  1.3047
 5292SOL    HW227510   0.624   3.885   4.518 -0.8333 -0.2055  0.9272
 5293SOL     OW27511   2.858   3.509  15.053  0.2215  0.3931  0.4351
 5293SOL    HW127512   2.776   3.503  15.102 -0.2854 -3.8144 -0.9167
 5293SOL    HW227513   2.839   3.469  14.968  1.9764  1.3211 -0.3905
 5294SOL     OW27514   3.942   2.259   3.860  0.1571  0.1877 -0.2209
 5294SOL    HW127515   3.870   2.321   3.876  2.4358  2.5443  0.8425
 5294SOL    HW227516   4.010   2.324   3.844 -0.5758  0.6409 -1.4751
 5295SOL     OW27517   3.660   4.192  15.979  0.0856  0.1970  0.1749
 5295SOL    HW127518   3.606   4.258  15.936  1.3146  0.2260 -1.3224
 5295SOL    HW227519   3.677   4.131  15.907  0.8334  0.5701  0.0279
 5296SOL     OW27520   3.786   3.952   5.509 -0.1290  0.1210  0.0722
 5296SOL    HW127521   3.743   3.957   5.424  1.2164  1.4733 -0.5228
 5296SOL    HW227522   3.873   3.983   5.486 -1.3191  1.3038 -2.8317
 5297SOL     OW27523   3.957   1.462   2.434 -0.2408  0.4716 -0.4254
 5297SOL    HW127524   3.998   1.415   2.362 -0.1815 -1.2216  0.6942
 5297SOL    HW227525   4.029   1.499   2.485  0.2417  1.0391 -1.5222
 5298SOL     OW27526   0.345   1.195   2.820 -0.2619 -0.1334 -0.1196
 5298SOL    HW127527   0.416   1.134   2.845 -1.0282 -0.8595  0.2845
 5298SOL    HW227528   0.318   1.149   2.740 -0.1942 -0.8852  0.2865
 5299SOL     OW27529   1.549   3.308   2.489  0.6244  0.3117  0.3568
 5299SOL    HW127530   1.557   3.359   2.570  2.3812 -1.7994  1.5298
 5299SOL    HW227531   1.506   3.231   2.526  2.6546 -0.1977  1.6757
 5300SOL     OW27532   1.108   0.413   9.294  0.1167 -0.3646  0.2637
 5300SOL    HW127533   1.062   0.332   9.270  0.5608 -0.4796 -0.1756
 5300SOL    HW227534   1.062   0.423   9.378 -1.5687 -2.7089 -0.3497
 5301SOL     OW27535   0.124   1.144   2.997  0.1998 -0.2822 -0.1285
 5301SOL    HW127536   0.060   1.187   2.940 -0.4206  1.7367  2.0708
 5301SOL    HW227537   0.201   1.157   2.940  0.4846 -1.0410  0.0947
 5302SOL     OW27538   1.633   1.071  13.992 -0.3483  0.1717  0.5775
 5302SOL    HW127539   1.695   1.001  14.008 -1.0591 -0.6900 -0.4476
 5302SOL    HW227540   1.694   1.117  13.933 -1.2260 -0.4897 -0.8490
 5303SOL     OW27541   4.131   1.403   6.819  0.2493  0.4901 -0.0873
 5303SOL    HW127542   4.048   1.364   6.845  0.2126  0.2576 -0.5629
 5303SOL    HW227543   4.179   1.331   6.778 -1.2696  0.6700 -2.1480
 5304SOL     OW27544   0.806   4.553   1.171  0.2178 -0.4414  0.4230
 5304SOL    HW127545   0.748   4.478   1.177 -1.9004  0.9175 -3.3187
 5304SOL    HW227546   0.778   4.606   1.246 -1.1197  1.4125 -1.3900
 5305SOL     OW27547   3.533   4.129   9.799 -0.1572 -0.2223  0.2341
 5305SOL    HW127548   3.568   4.194   9.738 -2.9484  1.4285  0.4012
 5305SOL    HW227549   3.495   4.064   9.740  1.1929 -0.3331 -0.4941
 5306SOL     OW27550   0.349   0.213   3.560  0.5221  0.3594 -0.4968
 5306SOL    HW127551   0.311   0.127   3.542  1.0252  0.6372 -2.8648
 5306SOL    HW227552   0.275   0.269   3.584  1.1011  1.6839 -1.8535
 5307SOL     OW27553   4.242   0.480  16.828 -0.2549 -0.0593 -0.4749
 5307SOL    HW127554   4.234   0.548  16.895 -1.2889 -0.4145 -0.2421
 5307SOL    HW227555   4.158   0.434  16.823 -0.2964 -0.0930  0.5255
 5308SOL     OW27556   2.619   0.528  15.423  0.0227  0.7474  0.0551
 5308SOL    HW127557   2.642   0.497  15.336 -2.5271  1.2513 -0.7846
 5308SOL    HW227558   2.594   0.618  15.405 -0.4283  0.9146  1.5139
 5309SOL     OW27559   2.202   1.046   4.385  0.2506  0.0910 -0.3255
 5309SOL    HW127560   2.108   1.040   4.369  0.2111  1.2246 -0.5495
 5309SOL    HW227561   2.205   1.135   4.421  0.9682  0.2877 -0.8733
 5310SOL     OW27562   4.250   2.444  16.926  0.5952 -0.0976 -0.0395
 5310SOL    HW127563   4.183   2.509  16.944  0.7522 -0.1737  0.8196
 5310SOL    HW227564   4.287   2.489  16.850 -1.8145 -1.8747 -2.2450
 5311SOL     OW27565   4.250   3.484  14.698 -0.1323 -0.0703 -0.8099
 5311SOL    HW127566   4.330   3.534  14.687  2.1480 -3.8924 -1.5801
 5311SOL    HW227567   4.200   3.543  14.755  0.7198  1.3087 -1.5141
 5312SOL     OW27568   0.216   1.732   3.726  0.2776  0.3368 -0.2669
 5312SOL    HW127569   0.277   1.791   3.769 -1.2195  1.6728  0.0361
 5312SOL    HW227570   0.183   1.679   3.799  0.8454  1.0786  0.5166
 5313SOL     OW27571   4.691   0.860   1.148 -0.0952 -0.5633 -0.1174
 5313SOL    HW127572   4.612   0.819   1.184  0.7169 -1.5996  0.4883
 5313SOL    HW227573   0.016   0.866   1.220  1.1317 -0.1994 -1.2149
 5314SOL     OW27574   4.724   3.422  12.198  0.2295 -0.3856  0.4516
 5314SOL    HW127575   0.051   3.492  12.206 -0.6642  0.4221  0.6106
 5314SOL    HW227576   4.659   3.460  12.258  0.3003 -2.0723  1.6044
 5315SOL     OW27577   2.195   0.036  13.175  0.5688 -0.0074 -0.3298
 5315SOL    HW127578   2.162   4.711  13.239  0.8210 -2.1333 -2.2743
 5315SOL    HW227579   2.189   4.728  13.091  5.0135 -0.6815 -0.2669
 5316SOL     OW27580   1.577   3.426   3.006 -0.4648  0.1286 -0.2152
 5316SOL    HW127581   1.486   3.404   2.990 -0.8987  0.2484  2.0911
 5316SOL    HW227582   1.581   3.454   3.098  0.2669 -1.1879  0.1568
 5317SOL     OW27583   1.014   4.175   8.762 -0.4704 -0.2057 -0.5310
 5317SOL    HW127584   0.955   4.182   8.687 -1.5073 -0.2224  0.2661
 5317SOL    HW227585   0.951   4.188   8.834 -0.9929  1.4328 -1.2893
 5318SOL     OW27586   2.585   2.126   3.420 -0.1463  0.0933  0.2847
 5318SOL    HW127587   2.612   2.210   3.383  0.1039  0.9847  2.4807
 5318SOL    HW227588   2.649   2.102   3.487 -2.0843 -1.0027  1.7700
 5319SOL     OW27589   0.952   2.477   2.977  0.4794 -0.5659 -0.1274
 5319SOL    HW127590   0.908   2.536   3.038  0.0014 -0.9788 -0.0738
 5319SOL    HW227591   0.882   2.435   2.927 -2.2480  2.4723  1.1795
 5320SOL     OW27592   4.223   1.636   7.294 -0.8749  0.2809 -0.3001
 5320SOL    HW127593   4.219   1.596   7.208  0.3816 -0.4663 -0.0114
 5320SOL    HW227594   4.281   1.571   7.334 -1.7918  0.6234  1.5999
 5321SOL     OW27595   1.356   2.456  15.214 -0.1352  0.1875  0.0415
 5321SOL    HW127596   1.421   2.443  15.283  1.5560 -1.3341 -1.8448
 5321SOL    HW227597   1.364   2.551  15.217  0.7647  0.0359  2.7063
 5322SOL     OW27598   2.714   1.157   9.321 -0.2764 -0.3022 -0.6251
 5322SOL    HW127599   2.735   1.077   9.369  0.2746  0.8984  1.1351
 5322SOL    HW227600   2.634   1.193   9.359  0.9693 -0.7315  2.3888
 5323SOL     OW27601   3.715   2.800   8.088 -0.1426  0.0770 -0.4463
 5323SOL    HW127602   3.723   2.826   7.996 -0.5068  1.8778  0.0156
 5323SOL    HW227603   3.620   2.803   8.094 -0.1233  1.5959 -0.7240
 5324SOL     OW27604   2.046   3.437   5.390  0.0354  0.1344  0.6394
 5324SOL    HW127605   2.013   3.423   5.301  1.4663 -2.4014  0.5031
 5324SOL    HW227606   2.020   3.361   5.443  1.8470 -0.2099  1.0454
 5325SOL     OW27607   3.913   4.039   3.039 -0.0927 -0.4326 -0.1903
 5325SOL    HW127608   4.008   4.046   3.027 -0.5477 -0.5242 -4.0200
 5325SOL    HW227609   3.882   3.969   2.981 -2.1406  0.9468 -0.7559
 5326SOL     OW27610   1.060   3.932   3.897 -0.0617 -0.2550  0.2961
 5326SOL    HW127611   1.081   3.913   3.806  1.4503 -0.3772  0.6699
 5326SOL    HW227612   1.050   4.027   3.891  0.5978 -0.0192  2.8931
 5327SOL     OW27613   3.573   2.359   5.748 -0.0641 -0.2545 -0.2120
 5327SOL    HW127614   3.556   2.453   5.747  3.1255  0.3134  0.2048
 5327SOL    HW227615   3.590   2.333   5.657  0.6781 -1.0515  0.1489
 5328SOL     OW27616   1.035   3.000  10.454  0.0192  0.2956 -0.5817
 5328SOL    HW127617   1.100   3.043  10.510 -1.9442 -0.2312  2.0951
 5328SOL    HW227618   1.091   2.935  10.411  0.1102 -0.2098  0.3175
 5329SOL     OW27619   3.015   0.961   4.745  0.1376 -0.1566 -0.5857
 5329SOL    HW127620   3.080   0.974   4.676  2.1524  1.3753  1.6058
 5329SOL    HW227621   3.038   0.871   4.767 -0.9256  0.2337  2.1270
 5330SOL     OW27622   3.917   2.880   5.858  0.1028  0.5204  0.5497
 5330SOL    HW127623   3.998   2.829   5.855 -1.3119 -1.5649 -1.7620
 5330SOL    HW227624   3.906   2.924   5.774  1.3313 -1.8197 -0.8038
 5331SOL     OW27625   1.412   0.672  11.251  0.2047  0.0261 -0.5703
 5331SOL    HW127626   1.481   0.640  11.192  0.8540 -1.2219  0.8596
 5331SOL    HW227627   1.406   0.598  11.311  3.2948 -0.3156 -0.6951
 5332SOL     OW27628   0.654   0.063   3.468  0.4393  0.1172  0.2849
 5332SOL    HW127629   0.597   0.092   3.538  0.4401  0.7381  0.0299
 5332SOL    HW227630   0.718   0.134   3.474  0.2577  0.2051  1.1066
 5333SOL     OW27631   2.006   3.391   5.961 -0.1121  0.1110 -0.3329
 5333SOL    HW127632   2.091   3.365   5.995  0.1369  1.1312 -0.1839
 5333SOL    HW227633   2.025   3.407   5.869  1.1702 -3.2054 -0.6386
 5334SOL     OW27634   0.867   2.034   9.113 -0.4536  0.1093  0.0990
 5334SOL    HW127635   0.802   1.965   9.112 -0.7788  0.4861 -3.8618
 5334SOL    HW227636   0.871   2.052   9.207  0.5503 -1.2454  0.3065
 5335SOL     OW27637   1.505   0.588   4.034 -0.4061 -0.1102 -0.3265
 5335SOL    HW127638   1.470   0.676   4.043 -2.7342 -1.0676 -0.0264
 5335SOL    HW227639   1.573   0.577   4.100  0.8830  1.5280 -1.3675
 5336SOL     OW27640   0.541   3.043   6.071 -0.3497 -0.1596 -0.9827
 5336SOL    HW127641   0.569   3.084   5.989 -0.0518  0.2459 -0.6753
 5336SOL    HW227642   0.607   2.974   6.069  0.1134  0.2598 -0.0676
 5337SOL     OW27643   3.744   1.259   3.352 -0.2708 -0.0270 -0.4235
 5337SOL    HW127644   3.695   1.178   3.364  0.0149 -0.1803 -0.2961
 5337SOL    HW227645   3.808   1.249   3.282  0.4300  0.0366  0.2050
 5338SOL     OW27646   4.691   3.278   4.531 -0.8195  0.1140  0.0710
 5338SOL    HW127647   4.710   3.224   4.608 -0.2552 -0.6723 -0.6223
 5338SOL    HW227648   0.019   3.244   4.471 -0.4672  0.0890  0.4737
 5339SOL     OW27649   3.030   3.982  13.044  0.2147 -0.1734  0.4084
 5339SOL    HW127650   2.996   3.892  13.042  0.4003 -0.2870  2.2396
 5339SOL    HW227651   2.949   4.033  13.043  1.2185  1.4013 -0.2738
 5340SOL     OW27652   0.174   3.102  11.332  0.1911 -0.3564 -0.5785
 5340SOL    HW127653   0.114   3.083  11.404  2.0350  1.4701  1.4476
 5340SOL    HW227654   0.146   3.190  11.309 -1.9768 -0.7351  0.6590
 5341SOL     OW27655   0.032   1.297   3.253  0.1839 -0.3690 -0.4027
 5341SOL    HW127656   0.012   1.240   3.179  0.8109 -1.7516  0.4974
 5341SOL    HW227657   0.115   1.336   3.226 -0.7405  1.7952 -0.1155
 5342SOL     OW27658   1.987   1.770   0.928 -0.0475 -0.1227  0.3317
 5342SOL    HW127659   1.989   1.845   0.986 -0.5307  0.4110 -0.3416
 5342SOL    HW227660   1.973   1.815   0.844  1.3664  1.9724  1.2313
 5343SOL     OW27661   4.463   2.705   5.721  0.2678  0.1712  0.0096
 5343SOL    HW127662   4.466   2.649   5.643  0.0450  0.5400 -0.2646
 5343SOL    HW227663   4.532   2.666   5.775 -1.1813 -3.4142 -0.7378
 5344SOL     OW27664   3.496   4.196   1.525 -0.0622 -0.4663  0.4327
 5344SOL    HW127665   3.475   4.109   1.559  0.0853 -0.3327  0.8541
 5344SOL    HW227666   3.487   4.184   1.430  0.5937 -0.1249  0.3266
 5345SOL     OW27667   2.244   1.977  11.142  0.6270  0.2207  0.1612
 5345SOL    HW127668   2.257   2.065  11.178 -1.6775  0.3969  0.5077
 5345SOL    HW227669   2.287   1.973  11.056 -2.1443 -0.8462 -1.1780
 5346SOL     OW27670   1.845   3.331   2.409 -0.4197 -0.2093 -0.7343
 5346SOL    HW127671   1.761   3.317   2.451  0.4282 -0.1608  0.9870
 5346SOL    HW227672   1.867   3.419   2.438  0.2294 -0.0696 -1.6372
 5347SOL     OW27673   4.290   4.652   5.052  0.6232  0.0246  0.0521
 5347SOL    HW127674   4.238   4.590   5.000 -0.5924  1.9050 -0.9543
 5347SOL    HW227675   4.261   4.621   5.138  0.5971 -0.3768 -0.1005
 5348SOL     OW27676   2.369   1.819   8.778  0.1350  0.1831  0.1548
 5348SOL    HW127677   2.336   1.732   8.757 -2.0505  1.4165 -1.4705
 5348SOL    HW227678   2.298   1.878   8.750 -0.2635 -0.3561  0.0382
 5349SOL     OW27679   4.172   2.836   3.557  0.1641  0.2204 -0.0033
 5349SOL    HW127680   4.184   2.895   3.632  1.8347 -0.2195  0.0926
 5349SOL    HW227681   4.259   2.801   3.536 -0.5496 -2.2836  1.3495
 5350SOL     OW27682   2.886   4.717   5.934 -0.1385  0.3310 -0.3824
 5350SOL    HW127683   2.902   4.647   5.871  0.2768 -0.1057  0.2227
 5350SOL    HW227684   2.960   4.711   5.995  2.1336  0.0110 -3.1530
 5351SOL     OW27685   2.702   1.513  16.352 -0.6956  0.1610  0.3952
 5351SOL    HW127686   2.730   1.532  16.441  1.0271 -0.3782 -0.0355
 5351SOL    HW227687   2.784   1.481  16.314 -0.7711  1.4967 -0.8967
 5352SOL     OW27688   1.740   2.806   6.276  0.2190  0.1741  0.1451
 5352SOL    HW127689   1.834   2.791   6.264  0.1025 -0.2756 -0.2053
 5352SOL    HW227690   1.703   2.821   6.189 -1.9490 -2.8250  0.5744
 5353SOL     OW27691   0.972   2.068  15.170  0.5859 -0.1119 -0.3421
 5353SOL    HW127692   0.905   2.129  15.139 -0.8902 -1.8906 -0.6962
 5353SOL    HW227693   0.909   2.002  15.199  1.5376 -0.2218  1.4602
 5354SOL     OW27694   4.000   1.474   8.162  0.0794  0.2975 -0.7227
 5354SOL    HW127695   3.919   1.526   8.162  0.2109  0.4864  1.6546
 5354SOL    HW227696   3.997   1.464   8.067 -0.7001 -1.3541 -0.5191
 5355SOL     OW27697   1.180   2.619   7.252  0.2303  0.2494  0.2393
 5355SOL    HW127698   1.227   2.538   7.270  0.5172  0.4783  0.5097
 5355SOL    HW227699   1.197   2.671   7.331 -0.7049 -1.6659  1.7105
 5356SOL     OW27700   2.856   3.377   3.020 -0.1927 -0.2202  0.3029
 5356SOL    HW127701   2.905   3.445   3.065 -0.9398  0.5655 -0.0675
 5356SOL    HW227702   2.796   3.354   3.091 -1.5213 -0.5552 -0.9113
 5357SOL     OW27703   3.491   4.014   3.944 -0.0797  0.5220  0.0145
 5357SOL    HW127704   3.485   4.076   4.017 -0.1468 -0.2313  0.6499
 5357SOL    HW227705   3.469   4.070   3.870 -0.4618  1.1683  0.6157
 5358SOL     OW27706   0.145   0.413   1.345 -0.5826  0.5305 -0.6373
 5358SOL    HW127707   0.167   0.321   1.329  0.8718  0.8575 -0.5314
 5358SOL    HW227708   0.234   0.448   1.349 -0.5331  0.2593  0.5794
 5359SOL     OW27709   1.339   1.265   4.126 -0.2198 -0.6858  0.0442
 5359SOL    HW127710   1.313   1.208   4.054  1.1868 -1.4285  0.1310
 5359SOL    HW227711   1.271   1.331   4.113  0.5627  0.5385  2.1772
 5360SOL     OW27712   3.936   3.438  17.203 -0.3198 -0.2221  0.0400
 5360SOL    HW127713   3.846   3.413  17.184  0.2671 -1.8898 -0.5476
 5360SOL    HW227714   3.921   3.533  17.200  0.8063 -0.0811 -1.0040
 5361SOL     OW27715   2.518   1.418  14.628 -0.0818 -0.5667 -0.9693
 5361SOL    HW127716   2.487   1.377  14.547 -4.3658 -2.5181  1.6620
 5361SOL    HW227717   2.437   1.456  14.662  0.4200 -1.4321  1.2027
 5362SOL     OW27718   4.652   1.888   3.848  0.3881 -0.1143 -0.4427
 5362SOL    HW127719   4.650   1.971   3.896 -0.0064  0.0909 -0.8151
 5362SOL    HW227720   4.730   1.918   3.801 -0.0273  1.0169 -0.4170
 5363SOL     OW27721   3.740   0.158  10.191  0.3409  0.0802  0.6259
 5363SOL    HW127722   3.791   0.133  10.268  0.3417  1.2062  1.0048
 5363SOL    HW227723   3.676   0.087  10.191  0.7303 -0.2941  3.5200
 5364SOL     OW27724   0.932   0.081   1.465 -0.7374  0.3024  0.4137
 5364SOL    HW127725   0.991   0.088   1.390 -1.3156  0.3361 -0.0387
 5364SOL    HW227726   0.856   0.036   1.429 -0.3955 -1.5131  1.9342
 5365SOL     OW27727   1.546   2.625  15.597  0.0497 -0.6262 -0.0879
 5365SOL    HW127728   1.538   2.553  15.660  1.0030 -1.9357 -1.4470
 5365SOL    HW227729   1.584   2.703  15.636 -1.9879  0.7386 -0.8127
 5366SOL     OW27730   2.352   4.266  13.431 -0.2724  0.1407  0.1275
 5366SOL    HW127731   2.338   4.274  13.337 -0.5029 -0.7311  0.0876
 5366SOL    HW227732   2.422   4.327  13.454 -1.7890  1.6979  0.6206
 5367SOL     OW27733   1.979   2.193   9.395 -0.4778  0.5269  0.3430
 5367SOL    HW127734   2.034   2.123   9.430 -0.8906  1.1444  2.2054
 5367SOL    HW227735   1.973   2.232   9.482  0.5043  1.9172 -0.2026
 5368SOL     OW27736   2.161   2.459  10.428  0.7174  0.4257 -0.1660
 5368SOL    HW127737   2.165   2.367  10.402  0.8568  0.2540  0.4539
 5368SOL    HW227738   2.154   2.458  10.523 -1.5197 -0.2736 -0.3266
 5369SOL     OW27739   0.618   0.715  14.714 -0.0579  0.1019 -0.4146
 5369SOL    HW127740   0.660   0.695  14.631 -1.7057  0.1418 -1.2723
 5369SOL    HW227741   0.530   0.747  14.694  0.1563  1.6851  1.1378
 5370SOL     OW27742   4.251   3.473   2.484  0.6438  0.1129  0.2238
 5370SOL    HW127743   4.319   3.412   2.511 -0.6095 -1.2488  0.3285
 5370SOL    HW227744   4.282   3.492   2.396 -1.4674  2.4923  0.0079
 5371SOL     OW27745   0.723   1.026   4.361 -0.2554 -0.2374  0.7030
 5371SOL    HW127746   0.699   0.948   4.411  0.4114  0.1224  1.5792
 5371SOL    HW227747   0.634   1.053   4.338 -0.2926 -1.4542 -0.5809
 5372SOL     OW27748   3.238   0.987   7.066 -0.1047 -0.1877  0.2190
 5372SOL    HW127749   3.234   1.082   7.074 -0.8177  0.0032 -2.3988
 5372SOL    HW227750   3.234   0.958   7.158  1.0118  0.8183  0.5826
 5373SOL     OW27751   1.217   1.948   7.060 -0.1028 -0.0471  0.5337
 5373SOL    HW127752   1.143   1.914   7.010  1.4737  1.7184 -2.9947
 5373SOL    HW227753   1.165   1.982   7.133 -0.6246 -2.2312  1.1645
 5374SOL     OW27754   0.656   0.981  13.231  0.0183 -0.3866 -0.6669
 5374SOL    HW127755   0.695   0.899  13.259  1.2505  0.6028  0.5133
 5374SOL    HW227756   0.581   0.937  13.190 -0.7465  0.5105 -0.2318
 5375SOL     OW27757   2.521   2.113   6.152 -0.3619  0.0387 -0.2389
 5375SOL    HW127758   2.468   2.101   6.231 -2.0326  0.4783 -1.2794
 5375SOL    HW227759   2.603   2.145   6.188 -1.8887  3.5819  0.0275
 5376SOL     OW27760   4.334   2.875  16.842 -0.2930  0.3491 -0.4721
 5376SOL    HW127761   4.332   2.964  16.807 -1.0604  0.8630  0.8932
 5376SOL    HW227762   4.267   2.878  16.910 -1.3047  1.7730 -1.5381
 5377SOL     OW27763   1.493   0.345  10.761 -0.4701  0.1678  0.9064
 5377SOL    HW127764   1.547   0.274  10.725  0.5726  1.2608  0.2937
 5377SOL    HW227765   1.554   0.416  10.739 -2.5829  1.9957  0.9528
 5378SOL     OW27766   2.402   2.469   3.343  0.3332 -0.1171 -0.0124
 5378SOL    HW127767   2.366   2.504   3.425  1.5216  1.1944 -0.0510
 5378SOL    HW227768   2.335   2.421   3.295  2.3681 -1.4073 -1.5383
 5379SOL     OW27769   0.330   2.322   3.750  0.3174 -0.4159  0.8147
 5379SOL    HW127770   0.334   2.402   3.802 -0.0406 -0.8601  1.5260
 5379SOL    HW227771   0.281   2.351   3.672  2.4227 -0.0445 -0.3687
 5380SOL     OW27772   4.235   3.384   3.314 -0.0737 -0.1604 -0.2352
 5380SOL    HW127773   4.224   3.455   3.376  1.7158  1.8716 -2.2504
 5380SOL    HW227774   4.326   3.354   3.323 -0.5848 -1.6096  0.1142
 5381SOL     OW27775   4.242   0.639   5.863 -0.3867  0.1212  0.2435
 5381SOL    HW127776   4.320   0.609   5.911 -0.1695 -1.1616 -0.9219
 5381SOL    HW227777   4.232   0.732   5.884  0.8144  0.2828  0.0893
 5382SOL     OW27778   0.277   1.596   0.043 -0.3421  0.1032 -0.3411
 5382SOL    HW127779   0.182   1.608   0.053  0.0101  0.8052  2.1577
 5382SOL    HW227780   0.285   1.511   0.086 -1.9581 -0.4350 -1.0923
 5383SOL     OW27781   2.142   3.784   6.723 -0.0737 -0.1089  0.3937
 5383SOL    HW127782   2.053   3.816   6.736 -0.8947 -1.2119 -2.5547
 5383SOL    HW227783   2.187   3.821   6.799  0.5014  0.8515 -0.4033
 5384SOL     OW27784   3.364   1.093   9.149 -0.2397  0.1390 -0.6905
 5384SOL    HW127785   3.269   1.107   9.153 -0.0870  0.5538  1.3677
 5384SOL    HW227786   3.384   1.030   9.218  1.1358  0.7622 -0.5368
 5385SOL     OW27787   3.846   1.811  16.244 -0.1431  0.4776  0.7469
 5385SOL    HW127788   3.868   1.881  16.305  1.0810 -0.7261  1.6785
 5385SOL    HW227789   3.776   1.767  16.293 -1.8728  0.4102 -1.7874
 5386SOL     OW27790   2.259   3.637   8.489 -0.1666 -0.2892  0.1744
 5386SOL    HW127791   2.166   3.614   8.491  0.3325 -2.3973  0.0800
 5386SOL    HW227792   2.265   3.695   8.414 -0.9747  0.2259  0.5079
 5387SOL     OW27793   3.429   0.172   3.301 -0.3524 -0.0264 -0.2476
 5387SOL    HW127794   3.368   0.231   3.256 -1.4195  0.6808  2.1253
 5387SOL    HW227795   3.383   0.182   3.385 -0.9378 -2.3722 -0.2824
 5388SOL     OW27796   2.196   4.379  12.948 -0.0109  0.1641 -0.8231
 5388SOL    HW127797   2.132   4.367  12.877 -0.2590 -3.2668 -0.0119
 5388SOL    HW227798   2.190   4.474  12.936  1.9135  0.8557  3.9277
 5389SOL     OW27799   0.293   3.718   2.880  0.0454  0.4112 -0.2264
 5389SOL    HW127800   0.258   3.694   2.794 -0.2412 -0.6166  0.1783
 5389SOL    HW227801   0.355   3.651   2.908  0.3173  0.9482  0.4527
 5390SOL     OW27802   3.692   2.681  11.440 -0.6029 -0.3131 -0.1019
 5390SOL    HW127803   3.668   2.762  11.396 -0.1267 -0.8635 -1.4012
 5390SOL    HW227804   3.616   2.637  11.402 -1.4419  0.2781  0.9032
 5391SOL     OW27805   1.276   0.550   2.586  0.0356  0.9726  0.5406
 5391SOL    HW127806   1.350   0.551   2.526 -1.0803 -0.1602 -0.8559
 5391SOL    HW227807   1.312   0.595   2.662 -0.3577 -1.1754  1.9981
 5392SOL     OW27808   1.706   2.430  16.462  0.0046 -0.0488  0.2898
 5392SOL    HW127809   1.778   2.465  16.515  1.7146 -1.1060 -1.3007
 5392SOL    HW227810   1.687   2.344  16.501 -0.6195  1.0652  2.4232
 5393SOL     OW27811   2.582   1.766   2.989  0.0226  0.1066 -0.2703
 5393SOL    HW127812   2.621   1.819   2.919  0.9158  0.4071  0.4581
 5393SOL    HW227813   2.636   1.687   2.988  3.1208  2.1720  1.6826
 5394SOL     OW27814   2.047   0.321   8.931 -0.0590  0.0428 -0.1134
 5394SOL    HW127815   1.956   0.329   8.902 -0.1565 -0.3108  0.0963
 5394SOL    HW227816   2.021   0.265   9.004 -1.0182 -1.7779 -1.8249
 5395SOL     OW27817   0.534   3.606   9.370 -0.3575  0.5772  0.3154
 5395SOL    HW127818   0.515   3.550   9.446 -1.3563 -0.5554 -0.7708
 5395SOL    HW227819   0.448   3.638   9.343 -1.9926 -1.5020  3.0129
 5396SOL     OW27820   4.531   4.620   8.859  0.3278 -0.4263 -0.2171
 5396SOL    HW127821   4.583   4.548   8.822  0.5186 -1.3894  1.9086
 5396SOL    HW227822   4.492   4.588   8.940  1.3559  1.3064  0.9578
 5397SOL     OW27823   4.377   2.464   7.378  0.1853  0.0937 -0.1253
 5397SOL    HW127824   4.373   2.368   7.374  0.1973  0.0876 -0.0070
 5397SOL    HW227825   4.387   2.495   7.468 -1.5411 -0.9270  0.4192
 5398SOL     OW27826   0.311   0.664  14.286 -0.4951 -0.2206  0.7316
 5398SOL    HW127827   0.282   0.585  14.241 -1.1419 -0.5940  1.8111
 5398SOL    HW227828   0.340   0.717  14.211  0.1206 -1.9313 -0.2397
 5399SOL     OW27829   3.226   3.462   7.787 -0.0503 -0.2630  0.6591
 5399SOL    HW127830   3.163   3.480   7.857  1.1912  2.2293  1.1153
 5399SOL    HW227831   3.196   3.506   7.707  0.9411 -0.5129  0.1507
 5400SOL     OW27832   0.927   2.970   8.353 -0.1494 -0.4655 -0.2746
 5400SOL    HW127833   0.996   2.944   8.414  0.7586  0.3145 -0.9656
 5400SOL    HW227834   0.950   3.055   8.317  2.5954 -0.7610  0.7630
 5401SOL     OW27835   4.048   3.338   4.485  0.2434 -0.2377  0.0977
 5401SOL    HW127836   4.085   3.408   4.432 -0.6785  1.4725  1.6915
 5401SOL    HW227837   4.116   3.334   4.552  1.3672  3.4523 -0.8485
 5402SOL     OW27838   4.334   1.235   4.320  0.3162  0.3087  0.3950
 5402SOL    HW127839   4.308   1.170   4.254  2.2858 -1.3814  1.2695
 5402SOL    HW227840   4.428   1.232   4.302  0.3856 -2.2094  1.1984
 5403SOL     OW27841   0.589   0.806   7.091  0.3856  0.3631  0.0037
 5403SOL    HW127842   0.496   0.797   7.071 -0.3300  1.2299  2.9377
 5403SOL    HW227843   0.627   0.749   7.025 -0.6841 -0.8207  0.3956
 5404SOL     OW27844   0.834   0.816   5.850 -0.5924  0.6003 -0.2149
 5404SOL    HW127845   0.896   0.790   5.783  0.0466  0.7337  0.3241
 5404SOL    HW227846   0.813   0.725   5.871 -0.3313  0.4085 -0.8098
 5405SOL     OW27847   2.265   3.252   8.101  0.0213 -0.2433 -1.0042
 5405SOL    HW127848   2.231   3.342   8.092 -1.4642 -0.9219 -2.2137
 5405SOL    HW227849   2.241   3.225   8.189  1.7780 -2.5328 -1.2489
 5406SOL     OW27850   4.501   3.444   5.859  0.4101 -0.0111 -0.6793
 5406SOL    HW127851   4.437   3.483   5.918  1.1331  0.6671 -0.3333
 5406SOL    HW227852   4.527   3.368   5.909  0.7378  0.4934 -0.0880
 5407SOL     OW27853   1.605   0.319   6.868  0.0007 -0.4783  0.2761
 5407SOL    HW127854   1.557   0.340   6.949  0.2261  0.2813  0.2141
 5407SOL    HW227855   1.542   0.350   6.803 -0.0595  0.6168  0.8493
 5408SOL     OW27856   3.981   3.544   9.348 -0.1672 -0.0412  0.5086
 5408SOL    HW127857   3.971   3.480   9.278  1.0526  0.0336  0.2692
 5408SOL    HW227858   3.910   3.516   9.407 -0.6318  1.7259  0.7979
 5409SOL     OW27859   3.182   2.454  17.078 -0.1157  0.0506  0.0443
 5409SOL    HW127860   3.255   2.446  17.138  1.3688 -2.5294 -2.1049
 5409SOL    HW227861   3.131   2.529  17.109 -2.9285 -1.4723 -0.8527
 5410SOL     OW27862   0.834   1.653   8.629 -0.4227  1.0534 -0.2156
 5410SOL    HW127863   0.768   1.692   8.686 -0.4084  0.5965  0.1165
 5410SOL    HW227864   0.837   1.712   8.554  2.0768 -1.1594 -1.8593
 5411SOL     OW27865   4.571   3.903   1.776 -0.4246 -0.3556  0.1474
 5411SOL    HW127866   4.509   3.883   1.707  1.9079 -1.3853 -1.6418
 5411SOL    HW227867   4.584   3.823   1.828  0.3039 -0.4706 -0.2176
 5412SOL     OW27868   0.125   0.206  15.404  0.6355  0.8472  0.4154
 5412SOL    HW127869   0.038   0.247  15.404 -0.6492 -1.8644  1.1798
 5412SOL    HW227870   0.137   0.209  15.499  0.7169  1.7132  0.3805
 5413SOL     OW27871   1.782   0.679   3.377  0.0342 -0.2628  0.5675
 5413SOL    HW127872   1.804   0.761   3.334  0.4335 -1.0851 -0.7951
 5413SOL    HW227873   1.749   0.706   3.463  0.3159  0.6034  0.3996
 5414SOL     OW27874   2.140   2.321   4.984  0.2426 -0.1988 -0.0764
 5414SOL    HW127875   2.147   2.231   4.954  0.0878 -0.5024  0.8170
 5414SOL    HW227876   2.228   2.330   5.022  0.6084  1.5918 -1.3215
 5415SOL     OW27877   4.663   4.413   4.747  0.5339  0.6627  0.2486
 5415SOL    HW127878   4.724   4.486   4.759  2.3804 -0.6354 -1.0709
 5415SOL    HW227879   4.603   4.447   4.681  2.1447  1.1062 -0.9956
 5416SOL     OW27880   0.929   0.497   7.519  0.6463 -0.5008  0.7444
 5416SOL    HW127881   0.888   0.412   7.506  0.3591 -0.3125  0.3957
 5416SOL    HW227882   0.989   0.501   7.444  0.7299 -2.8103  0.7041
 5417SOL     OW27883   1.663   3.266   0.305  0.6645 -0.3701 -0.4672
 5417SOL    HW127884   1.719   3.196   0.340  1.1131  1.2064  1.9955
 5417SOL    HW227885   1.723   3.311   0.246 -2.1768  1.9249 -1.5784
 5418SOL     OW27886   0.363   4.423  16.288  0.3400  0.1328  0.7715
 5418SOL    HW127887   0.301   4.373  16.236 -0.4311  1.3186  0.5474
 5418SOL    HW227888   0.448   4.383  16.271 -0.3255 -0.7350 -0.4618
 5419SOL     OW27889   1.727   4.356   4.417 -1.1794 -0.3599 -0.0063
 5419SOL    HW127890   1.648   4.360   4.470 -0.3329  3.8454  0.9050
 5419SOL    HW227891   1.687   4.344   4.331 -1.0138 -0.3645 -0.0838
 5420SOL     OW27892   3.524   3.535   6.701 -0.0907  0.1575  0.5496
 5420SOL    HW127893   3.594   3.502   6.645  0.7002 -0.4465  1.9062
 5420SOL    HW227894   3.575   3.600   6.749  2.4618 -1.9123  0.5954
 5421SOL     OW27895   3.171   1.288   7.385  0.2308  0.3705 -0.3232
 5421SOL    HW127896   3.139   1.204   7.417  2.1610 -0.3563 -0.2731
 5421SOL    HW227897   3.118   1.343   7.443 -0.0096 -1.0494  0.8064
 5422SOL     OW27898   0.765   4.259   1.598  0.1396 -0.2164 -0.3823
 5422SOL    HW127899   0.827   4.193   1.630 -1.1727 -1.0217  0.5136
 5422SOL    HW227900   0.816   4.290   1.523  1.5837  0.7980  1.0108
 5423SOL     OW27901   1.889   2.682  15.768 -0.2364  0.5682  0.2186
 5423SOL    HW127902   1.878   2.683  15.864 -0.6965 -2.4724  0.2161
 5423SOL    HW227903   1.888   2.587  15.754  2.1078  0.8471 -1.7766
 5424SOL     OW27904   0.146   3.674   8.370 -0.6922 -0.2149 -0.2413
 5424SOL    HW127905   0.201   3.635   8.437  0.5368  2.4298  0.3120
 5424SOL    HW227906   0.174   3.620   8.296  1.0294  2.1087 -1.3125
 5425SOL     OW27907   2.353   4.599   7.554 -0.2674  0.1363 -0.1691
 5425SOL    HW127908   2.320   4.689   7.556 -0.4334  0.0476  1.0994
 5425SOL    HW227909   2.445   4.610   7.577 -0.4509 -1.5257  1.3530
 5426SOL     OW27910   2.814   1.383   0.931  0.0024 -0.2271 -0.1425
 5426SOL    HW127911   2.862   1.466   0.939 -2.6057  1.3162 -0.6889
 5426SOL    HW227912   2.892   1.329   0.915  0.8871  1.2852 -0.9049
 5427SOL     OW27913   1.782   4.417   4.801 -0.3429  0.2960  0.5396
 5427SOL    HW127914   1.761   4.510   4.809 -0.2770  0.0276  3.9512
 5427SOL    HW227915   1.877   4.407   4.800 -0.3276  1.0624 -3.7386
 5428SOL     OW27916   0.904   1.734   7.213 -0.3134 -0.5660  0.0130
 5428SOL    HW127917   0.822   1.783   7.206 -0.8294 -1.2769  1.1115
 5428SOL    HW227918   0.903   1.716   7.307  1.7081  1.5799  0.4562
 5429SOL     OW27919   4.649   0.778   5.157  0.1001 -0.4365  0.2250
 5429SOL    HW127920   0.003   0.749   5.154 -0.0809 -1.2255  2.5815
 5429SOL    HW227921   4.621   0.746   5.072  1.5497 -0.9553 -0.0676
 5430SOL     OW27922   2.514   1.844   4.315  0.1148  0.3873  0.4284
 5430SOL    HW127923   2.559   1.925   4.290  3.4326 -2.2974 -2.3246
 5430SOL    HW227924   2.580   1.774   4.311 -0.6143 -0.1659 -1.7068
 5431SOL     OW27925   3.014   0.162   7.672 -0.6633  0.1123  0.0128
 5431SOL    HW127926   3.018   0.090   7.610 -1.3288 -0.1162  0.2368
 5431SOL    HW227927   3.071   0.130   7.743 -0.0198  0.7596 -0.2090
 5432SOL     OW27928   1.373   0.689   7.066 -0.3535 -0.4610  0.6315
 5432SOL    HW127929   1.367   0.667   7.159  2.0492 -0.7200  0.7343
 5432SOL    HW227930   1.387   0.605   7.023  5.1377 -0.0858  1.6451
 5433SOL     OW27931   1.087   4.631   7.888 -0.4130 -0.8642  0.0909
 5433SOL    HW127932   1.123   4.617   7.976 -1.3199  1.0918  0.7661
 5433SOL    HW227933   1.165   4.621   7.833 -0.8528  0.8539 -0.8520
 5434SOL     OW27934   0.212   3.711   6.603 -0.0477  0.5057  0.0069
 5434SOL    HW127935   0.133   3.712   6.549  0.6383 -4.4603 -1.0202
 5434SOL    HW227936   0.277   3.745   6.542  1.3189 -0.9072  0.6973
 5435SOL     OW27937   3.958   3.245   2.477  0.0886 -0.1392 -0.6993
 5435SOL    HW127938   4.012   3.262   2.400 -0.5835 -1.1254 -1.3848
 5435SOL    HW227939   3.984   3.154   2.489 -0.0263  0.2420  2.4215
 5436SOL     OW27940   2.805   0.692  17.330 -0.2263 -0.3138 -0.0056
 5436SOL    HW127941   2.836   0.602  17.341  0.9890  0.1065 -0.0730
 5436SOL    HW227942   2.860   0.723  17.259 -2.6773  0.5923 -1.5231
 5437SOL     OW27943   0.826   2.220   6.400  0.1557  0.1364  0.5039
 5437SOL    HW127944   0.831   2.291   6.463  1.1776 -0.5669  1.2181
 5437SOL    HW227945   0.883   2.153   6.439 -0.8272 -0.4953  0.8495
 5438SOL     OW27946   2.292   2.767   4.037  0.7390 -0.3626 -0.4036
 5438SOL    HW127947   2.366   2.808   3.993  1.4462 -0.9043  0.2752
 5438SOL    HW227948   2.242   2.843   4.066 -0.8135 -1.2373 -0.8001
 5439SOL     OW27949   1.829   1.906   9.614 -1.1424  0.6720  0.9453
 5439SOL    HW127950   1.909   1.957   9.603 -0.5272 -1.0160 -2.4262
 5439SOL    HW227951   1.841   1.841   9.545 -0.4427 -0.0084  1.7007
 5440SOL     OW27952   4.573   2.956   8.215 -0.3386 -0.2914 -0.4511
 5440SOL    HW127953   4.529   2.917   8.140  1.3184 -1.9987 -0.5258
 5440SOL    HW227954   4.504   3.016   8.244  0.2679 -0.1254  0.6722
 5441SOL     OW27955   4.578   2.443   2.574  0.0969  0.0565 -0.2549
 5441SOL    HW127956   4.614   2.369   2.525  1.8019 -0.1075  1.2321
 5441SOL    HW227957   4.643   2.507   2.544 -0.2347  0.3987 -0.2475
 5442SOL     OW27958   1.061   4.377   4.895  0.3775  0.5499  0.3129
 5442SOL    HW127959   0.982   4.328   4.916  0.0916  1.1560  0.6841
 5442SOL    HW227960   1.098   4.333   4.819  1.6029 -0.3208  1.4290
 5443SOL     OW27961   2.150   3.791   0.516  0.0153 -1.0070 -0.8233
 5443SOL    HW127962   2.100   3.793   0.435 -1.4221 -0.5505  0.0780
 5443SOL    HW227963   2.241   3.793   0.485  0.6083 -0.4274  0.9308
 5444SOL     OW27964   3.015   1.974   3.711 -0.2782 -0.0860 -0.0512
 5444SOL    HW127965   3.059   1.889   3.706 -0.0608  0.0589 -0.7092
 5444SOL    HW227966   3.062   2.022   3.779  2.0614  0.3797 -1.9610
 5445SOL     OW27967   0.053   2.567   6.766  0.1066  0.6632  0.0952
 5445SOL    HW127968   0.110   2.496   6.796 -1.5276 -0.9157 -0.5296
 5445SOL    HW227969   0.094   2.649   6.792 -0.4487  1.2798 -0.9531
 5446SOL     OW27970   3.760   1.650  12.527  0.3091 -0.2529 -0.3374
 5446SOL    HW127971   3.822   1.613  12.464  2.3783  3.4439 -0.4686
 5446SOL    HW227972   3.721   1.713  12.467  1.9510 -0.0426 -1.2046
 5447SOL     OW27973   0.772   2.263  15.095 -0.1989  0.5366  0.3737
 5447SOL    HW127974   0.785   2.350  15.057 -2.3295 -0.2053 -2.0691
 5447SOL    HW227975   0.718   2.221  15.028 -0.8177  0.9120  0.6366
 5448SOL     OW27976   0.935   0.961  10.545  0.5831 -0.0490 -0.3152
 5448SOL    HW127977   0.867   0.935  10.608  0.7596 -0.3696 -0.2609
 5448SOL    HW227978   1.016   0.928  10.582  1.6212  2.5537 -0.3045
 5449SOL     OW27979   0.855   3.895  14.723  0.2706  0.4675  0.2778
 5449SOL    HW127980   0.802   3.967  14.757 -1.7100 -0.5684 -0.6378
 5449SOL    HW227981   0.791   3.825  14.714 -0.6743  1.1141  1.9154
 5450SOL     OW27982   1.985   2.844   3.043 -0.1185 -0.1473  0.2269
 5450SOL    HW127983   2.072   2.826   3.078  0.6798 -1.4154 -2.4266
 5450SOL    HW227984   2.013   2.914   2.983 -1.5872  0.0325 -0.2514
 5451SOL     OW27985   0.189   2.087  14.967 -0.2474  0.4274 -0.2719
 5451SOL    HW127986   0.259   2.044  14.918 -0.4542  0.4325 -0.5741
 5451SOL    HW227987   0.240   2.114  15.044  1.1450 -2.7753 -0.0641
 5452SOL     OW27988   0.818   2.402   6.614 -0.1887 -0.0855 -0.2239
 5452SOL    HW127989   0.800   2.492   6.640 -1.2720  0.0805 -1.5899
 5452SOL    HW227990   0.784   2.361   6.694  2.7512 -1.4085  0.3631
 5453SOL     OW27991   1.185   4.026   1.895  0.3030 -0.0884 -0.1678
 5453SOL    HW127992   1.195   3.990   1.807 -0.5723  2.2392 -1.2249
 5453SOL    HW227993   1.139   4.110   1.885 -0.3790 -0.3168  1.0650
 5454SOL     OW27994   2.324   2.333   6.757 -0.0735  0.5785  0.0200
 5454SOL    HW127995   2.416   2.335   6.780  0.0516 -0.0923 -0.4000
 5454SOL    HW227996   2.313   2.237   6.755  0.7274  0.4794  0.4974
 5455SOL     OW27997   0.581   1.693  10.501 -0.0080  0.2548 -0.0550
 5455SOL    HW127998   0.547   1.698  10.590  2.5477 -1.4371  1.0133
 5455SOL    HW227999   0.677   1.689  10.504 -0.0737 -2.1052 -1.2646
 5456SOL     OW28000   0.252   1.083  15.577  0.3002 -0.3005  0.5531
 5456SOL    HW128001   0.269   1.046  15.664 -0.1698  0.5411  0.9954
 5456SOL    HW228002   0.336   1.062  15.537  0.0945  0.7898 -0.4437
 5457SOL     OW28003   0.982   0.958   5.336  0.6442 -0.3342  0.6101
 5457SOL    HW128004   1.063   0.994   5.300  1.4835 -0.6216  2.1972
 5457SOL    HW228005   1.014   0.877   5.375 -0.6584 -1.5077 -0.7847
 5458SOL     OW28006   2.278   1.175   2.109  0.2634  0.5134 -0.3447
 5458SOL    HW128007   2.316   1.259   2.084  0.9785  0.7126  1.3772
 5458SOL    HW228008   2.293   1.118   2.033  2.6785  0.9658 -0.1965
 5459SOL     OW28009   2.195   1.452  10.372 -0.0972 -0.0047 -0.1610
 5459SOL    HW128010   2.193   1.407  10.456  0.9670  1.6842  0.7629
 5459SOL    HW228011   2.144   1.393  10.318 -2.3361  2.2725 -0.5498
 5460SOL     OW28012   2.410   3.850   6.165 -0.0211 -0.1730  0.2022
 5460SOL    HW128013   2.423   3.938   6.131 -0.0710  0.5758  2.1194
 5460SOL    HW228014   2.419   3.868   6.259 -2.4313 -0.1664  0.4330
 5461SOL     OW28015   3.743   3.979   6.563 -0.2538 -0.4732  0.3293
 5461SOL    HW128016   3.783   3.960   6.478 -1.2704 -1.2659  0.0276
 5461SOL    HW228017   3.803   3.949   6.632  1.5511  0.6215 -0.7967
 5462SOL     OW28018   2.947   1.518   6.205  0.1106 -0.1208  0.3189
 5462SOL    HW128019   2.867   1.562   6.175 -0.0468 -0.6827 -0.0886
 5462SOL    HW228020   2.901   1.444   6.244 -2.1726  1.7862  1.2550
 5463SOL     OW28021   2.692   0.593  10.930  0.4880 -0.5878 -0.2348
 5463SOL    HW128022   2.698   0.514  10.984 -0.9183 -0.7899 -0.3627
 5463SOL    HW228023   2.746   0.655  10.980  1.0665 -3.2015  2.3428
 5464SOL     OW28024   1.071   3.613   0.442 -0.0966  0.3777 -0.4558
 5464SOL    HW128025   1.006   3.546   0.466 -1.0971  2.0308  1.3985
 5464SOL    HW228026   1.056   3.686   0.502 -1.5052  0.0306 -0.3869
 5465SOL     OW28027   3.105   1.792   5.982  0.5182 -0.9965 -0.1227
 5465SOL    HW128028   3.085   1.829   6.068 -1.6884 -0.7918 -0.7417
 5465SOL    HW228029   3.171   1.852   5.948 -0.9307  0.7518  0.1546
 5466SOL     OW28030   0.628   3.584   3.007  0.1032  0.1568  0.2596
 5466SOL    HW128031   0.692   3.641   2.964 -1.0404  0.3653 -1.1464
 5466SOL    HW228032   0.639   3.619   3.096 -0.4690  0.7324  0.1062
 5467SOL     OW28033   3.603   3.175   2.734  0.4582 -0.1091  0.6482
 5467SOL    HW128034   3.653   3.149   2.811  0.5258  1.4895  1.1350
 5467SOL    HW228035   3.512   3.161   2.760 -0.0778  2.5042  0.2419
 5468SOL     OW28036   0.105   0.309   4.483 -0.2790  0.2142 -0.1589
 5468SOL    HW128037   0.041   0.296   4.413 -0.5771  2.7399 -0.3670
 5468SOL    HW228038   0.049   0.330   4.558 -0.4178  0.4071 -0.3155
 5469SOL     OW28039   3.333   0.187   2.017  0.1115 -0.0934 -0.2209
 5469SOL    HW128040   3.424   0.192   2.047  0.1668 -3.5039  0.1342
 5469SOL    HW228041   3.291   0.197   2.102 -0.9079 -2.0260 -0.5122
 5470SOL     OW28042   3.862   2.175  15.658 -0.3465 -0.1371  0.2959
 5470SOL    HW128043   3.945   2.175  15.706 -1.5752 -1.3308  2.4076
 5470SOL    HW228044   3.823   2.256  15.693 -1.2000 -0.2890 -0.3005
 5471SOL     OW28045   4.414   2.084   3.775 -0.3568  0.3163  0.3325
 5471SOL    HW128046   4.428   2.155   3.837  3.6707  0.2161 -0.4867
 5471SOL    HW228047   4.356   2.032   3.831  1.1444 -0.8059  0.8412
 5472SOL     OW28048   0.644   0.734   3.129  0.0105 -0.0113 -0.0324
 5472SOL    HW128049   0.589   0.738   3.051  0.7616  0.3951 -0.5376
 5472SOL    HW228050   0.597   0.768   3.205 -2.0871 -2.5024 -0.2382
 5473SOL     OW28051   0.005   0.936   7.190 -0.0454  0.3035  0.5865
 5473SOL    HW128052   4.651   0.918   7.209 -0.8829  0.1117 -3.7997
 5473SOL    HW228053   0.050   0.891   7.263  1.3786  0.2596 -0.3118
 5474SOL     OW28054   2.104   4.159  13.178 -0.4143 -0.2039  0.2089
 5474SOL    HW128055   2.166   4.221  13.140  2.2123 -1.4876  2.3976
 5474SOL    HW228056   2.133   4.162  13.269 -2.5069  0.8380  0.8497
 5475SOL     OW28057   0.038   0.158   3.759  0.2926 -0.4552  0.1086
 5475SOL    HW128058   0.100   0.194   3.822  0.9049 -0.2252 -0.6169
 5475SOL    HW228059   0.024   0.076   3.806 -0.1579 -0.5808 -0.2418
 5476SOL     OW28060   2.909   2.478   0.712 -0.5985  0.0514  0.1907
 5476SOL    HW128061   2.871   2.469   0.800  1.2220 -1.9310  0.7846
 5476SOL    HW228062   2.898   2.570   0.688  0.8721 -0.0205 -0.7660
 5477SOL     OW28063   0.815   4.514   5.658  0.2523 -0.6370 -0.1045
 5477SOL    HW128064   0.836   4.525   5.750  2.1623  1.2434 -0.7585
 5477SOL    HW228065   0.882   4.446   5.643 -0.3700 -1.0542 -1.0359
 5478SOL     OW28066   3.686   3.163   7.531  0.6112 -0.1559 -0.2536
 5478SOL    HW128067   3.598   3.167   7.570  1.2791  0.3618  1.2110
 5478SOL    HW228068   3.662   3.142   7.441  1.5545 -0.8741 -0.3322
 5479SOL     OW28069   2.347   2.690   5.347 -0.0041  0.0865  0.2120
 5479SOL    HW128070   2.381   2.684   5.258  0.4818 -1.0645  0.4789
 5479SOL    HW228071   2.417   2.666   5.407  0.1431  1.1037  0.4498
 5480SOL     OW28072   3.613   0.431   3.333  0.2824  0.2890 -0.3902
 5480SOL    HW128073   3.576   0.374   3.401  3.0657  1.6006  2.2622
 5480SOL    HW228074   3.697   0.388   3.318  0.2769  0.5291 -1.0795
 5481SOL     OW28075   1.754   2.899   5.330 -0.0551 -0.5544 -0.1249
 5481SOL    HW128076   1.785   2.822   5.377 -0.5923 -1.1244 -0.7021
 5481SOL    HW228077   1.747   2.964   5.399 -1.6655  0.6544 -1.4301
 5482SOL     OW28078   2.889   2.274   4.204  0.0292  0.2032 -0.1030
 5482SOL    HW128079   2.835   2.349   4.181  0.6064  0.6577  0.0323
 5482SOL    HW228080   2.971   2.304   4.167 -0.0917 -0.5660 -0.9730
 5483SOL     OW28081   2.120   1.389  10.888 -0.5424  0.3961 -1.0211
 5483SOL    HW128082   2.174   1.468  10.885 -1.1995  0.9296  1.8640
 5483SOL    HW228083   2.063   1.405  10.963  0.2412 -2.3691  0.1953
 5484SOL     OW28084   0.450   2.041   7.197 -0.2729  0.0165 -0.3477
 5484SOL    HW128085   0.406   2.044   7.282 -0.4942  0.3336 -0.4737
 5484SOL    HW228086   0.407   1.968   7.152  1.4232 -0.7509 -0.7339
 5485SOL     OW28087   0.428   4.330   3.816  0.3656  0.7043  0.0755
 5485SOL    HW128088   0.503   4.331   3.875  1.7638  2.6754 -1.7755
 5485SOL    HW228089   0.462   4.273   3.748 -4.2581 -1.2533 -0.6453
 5486SOL     OW28090   2.648   1.976   8.008  0.7987 -0.0384 -0.0768
 5486SOL    HW128091   2.642   1.964   8.103 -1.0098 -0.7325 -0.2824
 5486SOL    HW228092   2.643   2.070   7.994  0.0437  0.1187  1.3066
 5487SOL     OW28093   1.117   2.005   0.625 -0.0255  0.2763 -0.1426
 5487SOL    HW128094   1.129   2.076   0.563 -1.4011  1.1765  0.6309
 5487SOL    HW228095   1.106   1.933   0.563  3.2451  0.1680 -0.6085
 5488SOL     OW28096   3.415   0.554   9.757  1.0434  0.2057  0.0741
 5488SOL    HW128097   3.467   0.616   9.705 -0.7967 -0.4540 -2.5915
 5488SOL    HW228098   3.430   0.469   9.716  1.6706 -0.4560  1.6967
 5489SOL     OW28099   4.058   3.293  17.413  0.2209  0.7368  0.4283
 5489SOL    HW128100   4.017   3.330  17.335  0.7670 -2.2538 -1.2725
 5489SOL    HW228101   4.003   3.325  17.485  0.0688  2.1821 -0.3337
 5490SOL     OW28102   3.015   3.470   3.911  0.2384  0.0291  0.3984
 5490SOL    HW128103   3.044   3.443   3.824  0.5004  2.1613 -0.1964
 5490SOL    HW228104   3.039   3.396   3.966  1.4051  0.9272  1.1083
 5491SOL     OW28105   0.418   1.428   5.662 -0.0588  0.4089 -0.3193
 5491SOL    HW128106   0.480   1.446   5.591  0.2827  0.6284  0.0328
 5491SOL    HW228107   0.485   1.379   5.710 -0.2687 -0.1888 -0.6355
 5492SOL     OW28108   0.728   1.117   1.738  0.3280 -0.0324 -0.2811
 5492SOL    HW128109   0.724   1.189   1.675  1.0339  1.5142  1.4855
 5492SOL    HW228110   0.779   1.055   1.685 -0.7029 -1.8031  0.7940
 5493SOL     OW28111   4.361   4.675   6.215 -0.1760  0.0489 -0.2517
 5493SOL    HW128112   4.355   0.003   6.146 -0.9085 -0.5214 -0.7327
 5493SOL    HW228113   4.447   4.634   6.204 -0.9924 -2.2635  1.8803
 5494SOL     OW28114   1.498   3.122   4.230 -0.3052  0.0380 -0.3188
 5494SOL    HW128115   1.542   3.091   4.309 -0.7839 -1.5160 -0.6516
 5494SOL    HW228116   1.407   3.126   4.257  0.6333 -1.0238  3.0410
 5495SOL     OW28117   0.120   0.112   6.076 -0.3139 -0.3779  0.2621
 5495SOL    HW128118   0.029   0.111   6.106 -0.6152  0.1567 -0.6326
 5495SOL    HW228119   0.140   0.203   6.099  3.1726 -1.5273  1.6480
 5496SOL     OW28120   2.711   0.922  13.517  0.9272 -0.2254 -0.0965
 5496SOL    HW128121   2.801   0.946  13.538  1.3506 -1.4025 -0.5254
 5496SOL    HW228122   2.729   0.838  13.474  0.9680  1.0857 -2.6501
 5497SOL     OW28123   1.828   2.214   2.784  0.5002  0.0753  0.0493
 5497SOL    HW128124   1.783   2.240   2.865  2.1525  0.4530  0.8559
 5497SOL    HW228125   1.800   2.123   2.775 -0.0444  0.2410  0.0710
 5498SOL     OW28126   0.130   3.883   4.686 -0.5273 -0.2107 -0.0151
 5498SOL    HW128127   0.104   3.794   4.661  0.8508 -0.5046 -0.3839
 5498SOL    HW228128   0.049   3.931   4.666  0.9554  2.1344 -0.4078
 5499SOL     OW28129   3.711   2.409   3.869  0.1397  0.3481 -0.5724
 5499SOL    HW128130   3.654   2.464   3.815  1.9203  2.0100 -0.8006
 5499SOL    HW228131   3.730   2.462   3.947  1.6084 -0.4051 -0.4131
 5500SOL     OW28132   1.682   3.753   0.966 -0.4761 -0.4218 -0.2912
 5500SOL    HW128133   1.725   3.730   0.883  0.7856  0.8922  0.0002
 5500SOL    HW228134   1.650   3.838   0.936 -0.8497 -0.0230  1.2372
 5501SOL     OW28135   3.244   4.706   8.557 -0.0124  0.0602 -0.1441
 5501SOL    HW128136   3.307   4.655   8.507 -2.5828 -2.6686 -0.6376
 5501SOL    HW228137   3.255   0.056   8.520 -0.5739 -0.1787 -0.8766
 5502SOL     OW28138   0.615   4.498   1.575 -0.0003 -0.1265 -0.2586
 5502SOL    HW128139   0.660   4.542   1.647  0.5467  1.4405 -1.5371
 5502SOL    HW228140   0.670   4.421   1.559 -1.0378 -1.1067  0.9627
 5503SOL     OW28141   2.768   0.586   6.969  0.0131  0.1130  0.8472
 5503SOL    HW128142   2.728   0.524   6.908 -0.7115  2.8507 -1.4730
 5503SOL    HW228143   2.768   0.529   7.046  0.3575  1.0430  1.5426
 5504SOL     OW28144   3.396   2.122   3.245  0.2993 -0.0821  0.5767
 5504SOL    HW128145   3.356   2.183   3.307  0.2127  2.4266 -1.9522
 5504SOL    HW228146   3.486   2.115   3.279 -0.0352  2.6728  2.0445
 5505SOL     OW28147   2.173   1.338   3.856  0.6802 -0.4443  0.2868
 5505SOL    HW128148   2.184   1.430   3.829  1.6797  0.2921  3.2821
 5505SOL    HW228149   2.263   1.315   3.880  0.8903 -0.3470 -0.3852
 5506SOL     OW28150   1.726   2.577  13.083 -0.0004  0.5089 -0.2297
 5506SOL    HW128151   1.808   2.618  13.054 -0.4011  1.3971 -0.1074
 5506SOL    HW228152   1.753   2.487  13.103 -2.2971  0.3191  2.0239
 5507SOL     OW28153   2.843   1.296  16.594  0.2265  0.0208  0.2547
 5507SOL    HW128154   2.824   1.388  16.574  0.1185 -0.0899 -0.1515
 5507SOL    HW228155   2.761   1.252  16.572  0.1867  0.2434 -0.0516
 5508SOL     OW28156   4.404   0.222  17.313  0.5453  0.0821 -0.2434
 5508SOL    HW128157   4.345   0.159  17.354 -0.8202  0.3628 -1.7534
 5508SOL    HW228158   4.423   0.277  17.389  2.5419  0.0613 -0.7418
 5509SOL     OW28159   3.032   0.466   2.456 -0.2061 -0.1036  1.1004
 5509SOL    HW128160   3.017   0.443   2.364 -0.5206  0.9603  0.8780
 5509SOL    HW228161   3.100   0.533   2.447 -0.9909  0.8678  2.3095
 5510SOL     OW28162   3.609   0.154  14.042  0.4706  0.1457  0.9201
 5510SOL    HW128163   3.620   0.063  14.070 -1.7036 -1.0304 -1.9132
 5510SOL    HW228164   3.626   0.156  13.947  1.3962  1.6185  1.1189
 5511SOL     OW28165   0.752   1.570   2.385 -0.0517  0.6853 -0.2937
 5511SOL    HW128166   0.724   1.498   2.329 -1.2488  1.7130 -1.0242
 5511SOL    HW228167   0.803   1.523   2.450 -0.6098 -1.3698 -1.3342
 5512SOL     OW28168   4.240   2.631   2.554  0.0314 -0.4199  0.3897
 5512SOL    HW128169   4.334   2.622   2.538 -0.0422  1.4527 -1.1902
 5512SOL    HW228170   4.228   2.723   2.577  0.3063 -0.9092  2.4919
 5513SOL     OW28171   3.524   1.545   2.998  0.1320  0.1208 -0.1074
 5513SOL    HW128172   3.479   1.626   3.022  0.4470 -0.0830  1.1620
 5513SOL    HW228173   3.464   1.489   3.046  0.9639  0.7070  1.6080
 5514SOL     OW28174   0.186   1.487  12.620 -0.1180 -0.5704 -0.4931
 5514SOL    HW128175   0.153   1.446  12.540 -0.6295  0.9816 -1.0873
 5514SOL    HW228176   0.112   1.527  12.665  1.0768  0.6413  0.4202
 5515SOL     OW28177   2.514   0.497   3.433  0.3162 -0.1675 -0.1617
 5515SOL    HW128178   2.437   0.540   3.469 -0.5348  1.1119 -3.6212
 5515SOL    HW228179   2.479   0.428   3.377 -1.2010  0.9347 -0.5613
 5516SOL     OW28180   4.411   0.831  16.482 -0.6742  0.4888  0.1675
 5516SOL    HW128181   4.353   0.875  16.544 -2.3360 -2.9294  1.0237
 5516SOL    HW228182   4.421   0.744  16.522 -1.3315 -0.6329 -2.1192
 5517SOL     OW28183   1.669   4.565   2.426 -0.4822 -0.2513  0.0307
 5517SOL    HW128184   1.621   4.610   2.496  2.7730 -0.0011  2.1401
 5517SOL    HW228185   1.737   4.519   2.476 -0.9572 -2.2589 -1.1783
 5518SOL     OW28186   3.719   4.613   4.009 -0.3445  0.3751  0.2070
 5518SOL    HW128187   3.629   4.606   4.042 -0.2349 -1.2832  0.1394
 5518SOL    HW228188   3.705   4.663   3.929 -0.7019  0.2416  0.1875
 5519SOL     OW28189   4.365   1.786   6.881  0.1832 -0.4076  0.0620
 5519SOL    HW128190   4.348   1.864   6.827 -0.8853 -0.6634  0.0252
 5519SOL    HW228191   4.427   1.737   6.826 -0.2817 -0.1687 -0.6836
 5520SOL     OW28192   0.223   4.112   4.279 -0.5615  0.0211 -0.3759
 5520SOL    HW128193   0.255   4.109   4.189  0.3755  1.8480 -0.1073
 5520SOL    HW228194   0.260   4.031   4.314 -1.7631 -0.9199 -1.2668
 5521SOL     OW28195   0.944   4.271  12.034  0.2630 -0.2123 -0.0150
 5521SOL    HW128196   1.036   4.294  12.026  0.1818  0.1458  0.1126
 5521SOL    HW228197   0.921   4.283  11.942 -1.0779  0.6094  0.4344
 5522SOL     OW28198   3.564   2.813   6.291 -0.3120 -0.1719  0.0548
 5522SOL    HW128199   3.572   2.717   6.295  1.1852 -0.0355  0.4907
 5522SOL    HW228200   3.469   2.818   6.295 -0.2962 -0.6733  1.1012
 5523SOL     OW28201   2.931   3.780   1.991  0.1007  0.5225  0.0213
 5523SOL    HW128202   2.970   3.717   2.052 -0.6744  0.4016  0.4024
 5523SOL    HW228203   2.914   3.856   2.046 -0.8651  1.5777 -1.7471
 5524SOL     OW28204   3.902   3.763   9.098  0.1128  0.1319 -0.1690
 5524SOL    HW128205   3.837   3.820   9.138 -0.1280  0.6081 -1.2463
 5524SOL    HW228206   3.942   3.740   9.182  1.4695  0.0745 -0.8184
 5525SOL     OW28207   2.873   2.789   7.938  0.4577  0.3584  0.3795
 5525SOL    HW128208   2.799   2.845   7.962  0.1801 -0.1835  0.7718
 5525SOL    HW228209   2.851   2.707   7.981 -0.1970  0.6859  0.6690
 5526SOL     OW28210   4.160   2.488  11.816 -0.8489  0.1921  0.4744
 5526SOL    HW128211   4.154   2.394  11.832 -0.0428 -0.0034 -0.3747
 5526SOL    HW228212   4.202   2.500  11.731 -1.4409  1.7179  0.3915
 5527SOL     OW28213   0.240   2.669  10.907  0.0402 -1.0128 -0.4255
 5527SOL    HW128214   0.286   2.729  10.965  0.6112 -2.9906  1.1599
 5527SOL    HW228215   0.248   2.584  10.950  0.4018 -0.7227  0.0784
 5528SOL     OW28216   0.598   4.473   8.903  0.2180 -0.8138 -0.4694
 5528SOL    HW128217   0.503   4.470   8.914  0.1596  0.5693 -0.5294
 5528SOL    HW228218   0.605   4.540   8.835  0.9320 -1.6693 -1.2404
 5529SOL     OW28219   2.372   2.010   8.325  0.0334  0.0819 -0.5421
 5529SOL    HW128220   2.449   1.957   8.304  0.0331 -0.7359  1.5496
 5529SOL    HW228221   2.307   1.940   8.319  2.2476 -1.8047 -2.2523
 5530SOL     OW28222   4.168   0.126  17.502 -0.0733  0.8067 -0.3618
 5530SOL    HW128223   4.125   0.073  17.435  2.2794 -0.6323 -0.7060
 5530SOL    HW228224   4.133   0.211  17.475  1.0957  1.2994 -0.3373
 5531SOL     OW28225   2.971   1.221   2.065  0.5390 -0.1690  0.3361
 5531SOL    HW128226   2.878   1.206   2.080  0.8061  1.1076  3.1934
 5531SOL    HW228227   2.997   1.130   2.076  0.0670 -0.3400  0.0328
 5532SOL     OW28228   2.607   1.187   8.236 -0.2438 -0.3474 -0.0699
 5532SOL    HW128229   2.526   1.146   8.266 -0.0758 -0.8656 -0.3199
 5532SOL    HW228230   2.662   1.202   8.312  0.7670 -2.6778 -0.3373
 5533SOL     OW28231   2.279   3.033   6.517 -0.6777  0.5791  0.8055
 5533SOL    HW128232   2.264   2.949   6.474  3.8384 -0.4178  1.1470
 5533SOL    HW228233   2.352   3.008   6.574 -0.7510  2.7682  1.8408
 5534SOL     OW28234   3.511   1.613   6.202 -0.1643 -0.9428  0.6028
 5534SOL    HW128235   3.418   1.633   6.216  0.0400 -1.2058  2.3007
 5534SOL    HW228236   3.551   1.675   6.263 -2.5230  0.2001  1.0009
 5535SOL     OW28237   3.770   1.409   3.023 -0.0303  0.2798 -0.6854
 5535SOL    HW128238   3.686   1.456   3.021 -1.7971 -2.8678 -0.3181
 5535SOL    HW228239   3.732   1.323   3.039 -1.3557  1.1341  0.7648
 5536SOL     OW28240   4.210   0.100   3.655  0.0758  0.0022  0.1446
 5536SOL    HW128241   4.250   0.187   3.663 -1.6038  0.5651  2.3356
 5536SOL    HW228242   4.152   0.114   3.579 -0.8095 -2.1655  0.4401
 5537SOL     OW28243   4.594   4.737   6.333 -0.7002  0.0995 -0.4145
 5537SOL    HW128244   4.518   0.040   6.375 -0.5478  0.2431 -0.2786
 5537SOL    HW228245   4.647   4.701   6.403 -0.6196 -0.5132 -0.7936
 5538SOL     OW28246   1.219   4.598  14.713 -0.3042 -0.4074 -0.3226
 5538SOL    HW128247   1.281   4.556  14.653 -1.6309  1.0346 -2.6746
 5538SOL    HW228248   1.275   4.631  14.783 -1.2441  0.9232 -0.1991
 5539SOL     OW28249   1.613   1.508   6.322 -0.2159 -0.3149 -0.3070
 5539SOL    HW128250   1.655   1.441   6.376 -0.5662 -0.2796  0.0057
 5539SOL    HW228251   1.684   1.542   6.267 -0.4221 -1.0275 -1.0073
 5540SOL     OW28252   4.402   3.814   3.486 -0.0256 -0.9425  0.3507
 5540SOL    HW128253   4.463   3.837   3.555 -1.7622  0.7637  1.3423
 5540SOL    HW228254   4.370   3.900   3.457  2.5191 -0.3561 -0.6600
 5541SOL     OW28255   3.967   2.336   7.414 -0.0973  0.1928  0.3628
 5541SOL    HW128256   3.901   2.267   7.409  0.3206 -0.2194  0.5152
 5541SOL    HW228257   3.924   2.415   7.382 -0.2811 -0.3255 -0.6894
 5542SOL     OW28258   4.125   4.092   7.689  0.7981 -0.5614 -0.1102
 5542SOL    HW128259   4.063   4.146   7.639  1.1083 -0.8913 -0.8498
 5542SOL    HW228260   4.060   4.045   7.741  0.3256  0.1452 -0.0545
 5543SOL     OW28261   1.645   1.950   8.011 -0.4117 -0.6530  0.0226
 5543SOL    HW128262   1.574   1.886   8.020 -2.3758  1.4951 -0.2034
 5543SOL    HW228263   1.715   1.908   8.060 -0.8987 -1.0031  0.4167
 5544SOL     OW28264   3.909   3.722   9.707  0.3345 -0.0590  0.2687
 5544SOL    HW128265   3.830   3.755   9.751  0.2672  1.4748 -1.0039
 5544SOL    HW228266   3.905   3.631   9.737  2.0929 -0.9543 -2.2330
 5545SOL     OW28267   3.516   4.345   6.368  0.8065  0.2568  0.3603
 5545SOL    HW128268   3.441   4.402   6.348  0.3259 -1.0598 -1.5981
 5545SOL    HW228269   3.569   4.420   6.393 -0.4192  0.8653  1.1540
 5546SOL     OW28270   0.680   4.129   3.811 -0.1790  0.0041  0.0809
 5546SOL    HW128271   0.634   4.049   3.836 -0.1675  0.2220  0.8193
 5546SOL    HW228272   0.617   4.152   3.743  1.3142  0.9332 -0.9871
 5547SOL     OW28273   3.205   2.787   3.182 -0.6810  0.1195 -0.3738
 5547SOL    HW128274   3.274   2.795   3.248  0.0804 -1.3017 -1.0000
 5547SOL    HW228275   3.248   2.718   3.132  0.2542 -1.2139  2.2735
 5548SOL     OW28276   1.390   0.358   9.062 -0.2921 -0.2865 -0.0456
 5548SOL    HW128277   1.428   0.324   8.981 -0.5902 -0.8163  0.0302
 5548SOL    HW228278   1.401   0.279   9.115  1.1298 -0.9809 -1.3733
 5549SOL     OW28279   2.154   2.859   3.502  0.3663  0.1454  0.0916
 5549SOL    HW128280   2.102   2.822   3.575  1.5824  0.7882  1.2818
 5549SOL    HW228281   2.079   2.912   3.474  0.8123 -0.1472 -1.5916
 5550SOL     OW28282   4.333   1.464   8.730  0.7355  0.7173 -0.1231
 5550SOL    HW128283   4.284   1.449   8.650  0.2315 -0.9840  0.5022
 5550SOL    HW228284   4.395   1.534   8.711  4.0710 -2.2268 -0.2584
 5551SOL     OW28285   3.303   1.677   2.093  0.0383 -0.5154  0.2842
 5551SOL    HW128286   3.310   1.636   2.006  1.4414 -2.4282  1.2865
 5551SOL    HW228287   3.310   1.771   2.075  0.7379 -1.1345 -2.6974
 5552SOL     OW28288   0.670   1.150   3.597  0.4151 -0.1981 -0.3186
 5552SOL    HW128289   0.575   1.161   3.602  0.5674  0.3061  1.3898
 5552SOL    HW228290   0.679   1.181   3.507  0.2116  0.2024 -0.1993
 5553SOL     OW28291   3.090   2.201  16.912  0.7585  0.0076  0.1804
 5553SOL    HW128292   3.099   2.241  16.999  2.7486  1.9044 -0.9026
 5553SOL    HW228293   2.998   2.208  16.885  0.8464  0.2826 -0.0483
 5554SOL     OW28294   3.330   4.238   5.857  0.0119  0.3687 -0.5148
 5554SOL    HW128295   3.308   4.299   5.927  0.8864  0.9543 -0.7609
 5554SOL    HW228296   3.322   4.150   5.895  0.7531  0.9531  0.9991
 5555SOL     OW28297   0.385   4.428  12.660  0.4612  0.1071  0.1102
 5555SOL    HW128298   0.476   4.446  12.685  0.3525  0.3333  0.3453
 5555SOL    HW228299   0.410   4.385  12.578  0.8386 -4.2702  2.4936
 5556SOL     OW28300   1.894   3.132   4.305  0.2814  0.3632 -0.3651
 5556SOL    HW128301   1.816   3.078   4.319  0.5778  0.5291  1.9340
 5556SOL    HW228302   1.968   3.074   4.325 -0.1528 -0.6950 -1.7878
 5557SOL     OW28303   1.420   3.920   6.100 -0.6211 -0.1560 -0.4790
 5557SOL    HW128304   1.437   3.854   6.167  1.5219 -0.2510 -1.1298
 5557SOL    HW228305   1.494   3.977   6.120  1.0899 -2.6583  0.3216
 5558SOL     OW28306   4.378   1.723  16.126  0.0588 -0.7868  0.3319
 5558SOL    HW128307   4.292   1.744  16.162  0.2386 -0.2657  0.4628
 5558SOL    HW228308   4.415   1.707  16.213 -0.4837 -1.7828  0.3767
 5559SOL     OW28309   3.287   1.418   4.347  0.2949 -0.2223 -0.3900
 5559SOL    HW128310   3.193   1.402   4.344 -0.0881  1.9937 -0.7265
 5559SOL    HW228311   3.292   1.390   4.438  0.0303 -1.1520 -0.6595
 5560SOL     OW28312   2.365   2.644  15.279  0.1475  0.5330 -0.1874
 5560SOL    HW128313   2.377   2.571  15.218 -1.8760  0.0370  0.0148
 5560SOL    HW228314   2.290   2.610  15.327  0.1527  0.3964 -0.2755
 5561SOL     OW28315   3.598   3.625   5.239 -0.5564 -0.1106  0.4119
 5561SOL    HW128316   3.635   3.537   5.231 -1.3555 -0.4055 -0.0875
 5561SOL    HW228317   3.682   3.670   5.231 -0.0335 -1.3983 -1.4095
 5562SOL     OW28318   1.263   1.417   1.665 -0.1975  0.1761 -0.2256
 5562SOL    HW128319   1.209   1.452   1.736  1.0977  0.5754  0.5615
 5562SOL    HW228320   1.309   1.345   1.708  0.4422  1.2364  0.8825
 5563SOL     OW28321   1.241   3.534  16.736 -0.3358 -1.0797 -0.1459
 5563SOL    HW128322   1.252   3.611  16.792 -0.2632 -1.3632  0.2289
 5563SOL    HW228323   1.154   3.505  16.764 -1.0340 -0.7339 -1.9474
 5564SOL     OW28324   2.692   2.723  15.119 -0.0671 -0.1730 -0.3181
 5564SOL    HW128325   2.654   2.695  15.203  0.4750 -0.3604 -0.1324
 5564SOL    HW228326   2.718   2.814  15.135 -1.0800  0.6210 -3.2978
 5565SOL     OW28327   4.350   0.133   6.862  0.2356  0.0060  0.0095
 5565SOL    HW128328   4.260   0.101   6.868  0.8764 -1.6034  1.1072
 5565SOL    HW228329   4.335   0.226   6.850 -1.1420 -0.2390 -0.1002
 5566SOL     OW28330   4.094   0.686  12.101 -0.6020  0.0523  0.1325
 5566SOL    HW128331   4.023   0.668  12.162  0.1956  0.6519  1.2368
 5566SOL    HW228332   4.162   0.622  12.125  0.9453  1.1014 -1.4839
 5567SOL     OW28333   0.669   4.464  14.428 -0.1351 -0.1743  0.1273
 5567SOL    HW128334   0.654   4.461  14.334 -0.5845  0.2376  0.1908
 5567SOL    HW228335   0.673   4.370  14.448 -4.0854 -0.4314 -0.3748
 5568SOL     OW28336   4.392   2.275   9.280 -0.1332 -0.5039 -0.1695
 5568SOL    HW128337   4.363   2.264   9.370  0.8987 -0.8671  0.1196
 5568SOL    HW228338   4.381   2.369   9.268  0.2871 -0.4524 -0.1537
 5569SOL     OW28339   4.680   3.045   6.345  0.6934  0.0255  0.1820
 5569SOL    HW128340   4.684   3.112   6.413  0.6001  2.0019 -1.7569
 5569SOL    HW228341   4.644   3.093   6.270  1.5588 -1.6585 -1.2934
 5570SOL     OW28342   3.425   2.727   1.491 -0.0159  0.0999 -0.6523
 5570SOL    HW128343   3.332   2.715   1.513  0.6886 -3.4490  0.4009
 5570SOL    HW228344   3.449   2.637   1.469  0.6914 -0.3193  1.7845
 5571SOL     OW28345   4.652   2.833   2.930 -0.0838  0.2557  0.1058
 5571SOL    HW128346   4.693   2.909   2.971 -1.9407  0.6619  1.1774
 5571SOL    HW228347   4.681   2.833   2.838 -0.2761 -2.0525  0.0322
 5572SOL     OW28348   0.899   2.630   7.389 -0.4803  0.3892 -0.3886
 5572SOL    HW128349   0.933   2.643   7.478 -0.1592  0.1968 -0.4810
 5572SOL    HW228350   0.971   2.679   7.348 -1.1614  0.3352 -1.6297
 5573SOL     OW28351   1.515   0.216   2.270 -0.3939  0.3681 -0.6775
 5573SOL    HW128352   1.536   0.136   2.221 -0.5988  0.8645 -1.5716
 5573SOL    HW228353   1.425   0.198   2.298  0.6881 -0.0074  2.5758
 5574SOL     OW28354   1.736   2.975   5.780 -0.3236  0.0303  0.1365
 5574SOL    HW128355   1.725   3.015   5.693  0.6259  0.4532  0.2132
 5574SOL    HW228356   1.760   3.049   5.836  1.0259 -1.4394  1.4581
 5575SOL     OW28357   3.024   0.228   7.211 -0.1699  0.2714 -0.8867
 5575SOL    HW128358   3.045   0.295   7.146 -1.2940  2.0940  0.6427
 5575SOL    HW228359   3.070   0.258   7.289 -1.8794  0.2861  0.1057
 5576SOL     OW28360   1.837   1.942   5.622  0.8647  0.1185 -0.2026
 5576SOL    HW128361   1.849   1.850   5.645  1.2353  0.2324  0.0607
 5576SOL    HW228362   1.924   1.983   5.616  0.0424  1.8923 -0.0229
 5577SOL     OW28363   0.250   3.945   9.314 -0.1198  0.2424 -0.0384
 5577SOL    HW128364   0.211   4.020   9.270  0.8801  2.3456  2.7253
 5577SOL    HW228365   0.178   3.882   9.315 -0.1261  0.2199 -1.3507
 5578SOL     OW28366   2.038   1.626  12.376 -0.2653 -0.1311 -0.2102
 5578SOL    HW128367   1.958   1.674  12.396  0.1814  0.2623  0.6489
 5578SOL    HW228368   2.110   1.677  12.415  0.7097 -1.2943 -0.4932
 5579SOL     OW28369   0.132   0.854   8.806  0.7453  0.4647  0.0150
 5579SOL    HW128370   0.143   0.794   8.732 -2.0831  2.3850 -1.9316
 5579SOL    HW228371   0.161   0.796   8.877  0.6056  0.4188  0.0342
 5580SOL     OW28372   3.771   0.095  14.472  0.4739  0.0641  0.1463
 5580SOL    HW128373   3.856   0.058  14.494  0.0354 -1.5529 -0.8487
 5580SOL    HW228374   3.721   0.023  14.434  0.7609 -0.2244  0.3224
 5581SOL     OW28375   1.360   4.049   5.278  0.2921  0.3542 -0.2202
 5581SOL    HW128376   1.300   4.103   5.226  2.6612  2.6051 -0.5724
 5581SOL    HW228377   1.352   4.080   5.368  1.6440  1.2520 -0.4041
 5582SOL     OW28378   1.633   2.057   5.751  0.2436 -0.5861  0.0494
 5582SOL    HW128379   1.713   2.016   5.718 -0.3729 -3.2589  1.9240
 5582SOL    HW228380   1.593   1.988   5.803 -1.4696 -1.1129 -1.9509
 5583SOL     OW28381   0.688   2.992   8.143 -0.0458  0.3022 -0.6350
 5583SOL    HW128382   0.599   2.980   8.108 -0.3281  0.5473 -0.0075
 5583SOL    HW228383   0.670   3.056   8.212  1.0825  0.0299 -0.1009
 5584SOL     OW28384   3.265   3.942  11.730  0.0438  0.4491 -0.3484
 5584SOL    HW128385   3.306   3.927  11.645 -1.1657 -1.4816 -0.5941
 5584SOL    HW228386   3.224   4.029  11.722 -0.1456  0.5068  1.2927
 5585SOL     OW28387   4.017   2.010   9.551  0.1587 -0.0441 -0.2750
 5585SOL    HW128388   4.003   2.103   9.535  0.5695  0.3944  1.9101
 5585SOL    HW228389   3.927   1.993   9.581  0.4534  1.3809  1.4069
 5586SOL     OW28390   3.051   2.644  13.147  0.3617  0.0510  0.4567
 5586SOL    HW128391   3.083   2.699  13.076  2.2530 -2.5407 -0.6959
 5586SOL    HW228392   3.018   2.711  13.207 -1.8969 -0.0354 -0.7178
 5587SOL     OW28393   4.715   0.528   1.548  0.3347  0.4233  0.1987
 5587SOL    HW128394   0.007   0.459   1.489 -2.5017 -2.3605  2.0134
 5587SOL    HW228395   4.708   0.607   1.495  1.2297  1.4175  1.5594
 5588SOL     OW28396   1.126   1.323   9.255 -0.3208  0.1688 -0.0896
 5588SOL    HW128397   1.091   1.410   9.233 -1.4735  0.0347  1.1556
 5588SOL    HW228398   1.149   1.342   9.347  1.0944  0.2192 -0.4477
 5589SOL     OW28399   0.314   2.488   3.426  0.7025 -0.2272 -0.1010
 5589SOL    HW128400   0.357   2.559   3.472 -0.4954 -0.2189  1.0186
 5589SOL    HW228401   0.253   2.543   3.377 -0.9628 -1.0124  1.0631
 5590SOL     OW28402   0.687   2.767   5.795  0.3972  0.1799  0.3692
 5590SOL    HW128403   0.783   2.761   5.789  0.2728  0.3625 -1.7973
 5590SOL    HW228404   0.669   2.860   5.781 -1.6278  0.1199  2.7149
 5591SOL     OW28405   0.430   1.258   6.500 -0.4280  0.0079  0.1290
 5591SOL    HW128406   0.401   1.316   6.429  0.7093 -1.4768 -1.5518
 5591SOL    HW228407   0.489   1.203   6.448 -3.6446 -0.6457 -2.8468
 5592SOL     OW28408   3.293   4.158   9.585  0.4512 -0.2991 -0.0917
 5592SOL    HW128409   3.356   4.087   9.587  0.1777 -0.5383  0.0871
 5592SOL    HW228410   3.242   4.135   9.507  2.1905  2.3315 -1.9762
 5593SOL     OW28411   2.887   4.570   5.328 -0.3692 -0.2773 -0.1124
 5593SOL    HW128412   2.905   4.580   5.235  0.8976 -2.2425 -0.0794
 5593SOL    HW228413   2.812   4.513   5.314  0.8593 -1.0333 -3.5447
 5594SOL     OW28414   4.244   1.380   7.543 -0.6383 -0.6076  0.1106
 5594SOL    HW128415   4.288   1.363   7.460  0.0978 -2.5671  0.9131
 5594SOL    HW228416   4.319   1.401   7.599  0.1553 -0.5149 -1.0017
 5595SOL     OW28417   2.933   2.661   3.928 -0.4347  0.3190 -0.5728
 5595SOL    HW128418   2.935   2.638   3.835 -0.1788  0.2984 -0.5616
 5595SOL    HW228419   3.013   2.616   3.953 -1.5657 -0.8463  0.9757
 5596SOL     OW28420   3.240   0.447   5.816 -0.1260 -0.0134 -0.1219
 5596SOL    HW128421   3.287   0.468   5.736  1.0762  1.1233  0.8803
 5596SOL    HW228422   3.179   0.381   5.783  0.7446 -1.1474  0.5154
 5597SOL     OW28423   3.527   1.699  15.518  0.0462  0.1728  0.0179
 5597SOL    HW128424   3.593   1.766  15.498  0.6132  0.2642  2.1583
 5597SOL    HW228425   3.450   1.721  15.466 -0.6479 -2.9352 -0.2474
 5598SOL     OW28426   0.636   4.310   7.051 -0.4209 -0.0740 -0.9070
 5598SOL    HW128427   0.597   4.390   7.015 -1.0157 -0.5135 -1.2394
 5598SOL    HW228428   0.669   4.263   6.974  1.3038 -0.6132  0.1863
 5599SOL     OW28429   4.378   4.059  12.920  0.1598  0.1944 -0.3084
 5599SOL    HW128430   4.366   4.073  12.826  1.4395  0.0439 -0.4989
 5599SOL    HW228431   4.364   4.148  12.952 -2.1080  0.2699 -1.5316
 5600SOL     OW28432   2.469   1.379  16.427 -0.5445  0.1243 -0.3062
 5600SOL    HW128433   2.546   1.432  16.408 -0.2014 -0.5855 -0.8928
 5600SOL    HW228434   2.514   1.297  16.446 -0.6432  0.0429 -0.4206
 5601SOL     OW28435   0.801   3.118  16.894  0.3919  0.1011  0.0420
 5601SOL    HW128436   0.769   3.178  16.960  0.5593  2.1782 -1.7608
 5601SOL    HW228437   0.720   3.084  16.857  1.5217 -0.9343 -1.5348
 5602SOL     OW28438   3.721   1.290  17.270  0.0771  0.3966 -0.2044
 5602SOL    HW128439   3.654   1.239  17.223  0.6339 -0.6750  0.1625
 5602SOL    HW228440   3.707   1.252  17.357 -0.6338  0.9246 -0.0918
 5603SOL     OW28441   1.257   1.962   8.696  0.3012  0.1891  0.3054
 5603SOL    HW128442   1.162   1.958   8.698  0.2977 -0.6740 -1.7381
 5603SOL    HW228443   1.274   1.972   8.790 -1.3360 -0.0015  0.6133
 5604SOL     OW28444   3.614   4.627   3.261 -0.1987 -0.1294 -0.5438
 5604SOL    HW128445   3.631   4.721   3.255  1.1934 -0.3230  0.4191
 5604SOL    HW228446   3.625   4.594   3.172  5.0117 -0.5988  0.3124
 5605SOL     OW28447   3.499   0.378   4.417  0.5682  0.7538 -0.6091
 5605SOL    HW128448   3.412   0.353   4.384 -0.1025  2.4569 -0.1234
 5605SOL    HW228449   3.549   0.301   4.390  2.1361  1.5914 -0.0962
 5606SOL     OW28450   4.642   1.707   8.428  0.4686  0.2275 -0.4532
 5606SOL    HW128451   4.610   1.711   8.518 -4.3590  0.3527 -2.1793
 5606SOL    HW228452   4.578   1.762   8.381 -0.4107  0.6350  1.2175
 5607SOL     OW28453   3.062   2.887   3.752  0.0760 -0.7932  0.6682
 5607SOL    HW128454   3.016   2.970   3.760  1.3569 -0.2927  2.9023
 5607SOL    HW228455   3.024   2.848   3.673 -3.8449  1.3917  1.4859
 5608SOL     OW28456   3.389   3.959   8.987  0.1675 -0.0824  0.3729
 5608SOL    HW128457   3.474   3.957   8.943 -0.1916  0.3743 -0.3435
 5608SOL    HW228458   3.406   4.006   9.069  1.1766  0.8577 -0.3599
 5609SOL     OW28459   0.192   0.446   7.405  0.2521  0.2663  0.2015
 5609SOL    HW128460   0.139   0.388   7.459 -1.0416  1.5327  0.2917
 5609SOL    HW228461   0.234   0.378   7.352  1.2189  0.8543  0.2086
 5610SOL     OW28462   2.550   0.707   4.518  0.0353 -0.2283  0.4132
 5610SOL    HW128463   2.634   0.725   4.475  0.8102 -1.3850  1.4161
 5610SOL    HW228464   2.521   0.628   4.472  2.0821 -0.2879 -0.8142
 5611SOL     OW28465   0.634   0.297   6.187 -0.7083 -0.5577 -0.1494
 5611SOL    HW128466   0.614   0.383   6.150 -1.6472 -1.0670 -0.8500
 5611SOL    HW228467   0.726   0.295   6.210 -0.8207 -1.5432  0.2268
 5612SOL     OW28468   3.111   4.317   3.216  0.0493  0.6203 -0.0089
 5612SOL    HW128469   3.195   4.350   3.186 -0.0236  1.2430  0.4617
 5612SOL    HW228470   3.082   4.402   3.249  2.1981  1.3176  0.0669
 5613SOL     OW28471   2.169   4.232   2.101 -0.1769  0.2278  0.2437
 5613SOL    HW128472   2.080   4.265   2.084 -0.3236  1.2426  2.9841
 5613SOL    HW228473   2.215   4.283   2.035  2.7801 -2.0172  0.5846
 5614SOL     OW28474   2.013   3.198   3.630  0.3294  0.5413 -0.0326
 5614SOL    HW128475   2.064   3.220   3.708  1.4505  1.9763 -1.1723
 5614SOL    HW228476   1.957   3.274   3.617  0.1839  0.1882 -1.5502
 5615SOL     OW28477   0.281   1.382   0.306  0.0487  0.3057 -0.0434
 5615SOL    HW128478   0.356   1.430   0.342 -0.4764  0.8813  0.2890
 5615SOL    HW228479   0.310   1.292   0.318 -0.1894  0.3207  0.6115
 5616SOL     OW28480   1.001   0.568  12.642  0.0099  0.0947 -0.1074
 5616SOL    HW128481   1.019   0.583  12.549 -0.7894  1.0463 -0.1033
 5616SOL    HW228482   1.040   0.486  12.673  0.0612 -0.5904 -1.9817
 5617SOL     OW28483   2.092   3.062   5.862  0.3312  0.6806  0.0544
 5617SOL    HW128484   2.176   3.105   5.844  1.9155 -2.6092 -0.5909
 5617SOL    HW228485   2.122   3.015   5.940 -2.2633  0.8137  1.1166
 5618SOL     OW28486   4.058   2.168   3.549  0.9383 -0.2314 -0.3248
 5618SOL    HW128487   4.005   2.093   3.522  0.8921  0.0374 -0.9675
 5618SOL    HW228488   4.146   2.131   3.537  1.5439  1.1915 -0.2091
 5619SOL     OW28489   3.825   0.397   2.797 -0.0088  0.2693 -0.3154
 5619SOL    HW128490   3.859   0.336   2.862 -1.5061  0.1590  0.3560
 5619SOL    HW228491   3.730   0.382   2.803  0.0532 -0.3249 -0.8254
 5620SOL     OW28492   2.973   1.497   9.300  0.7808 -0.4290 -0.4676
 5620SOL    HW128493   2.903   1.485   9.235  0.6391  0.0817 -0.4042
 5620SOL    HW228494   3.045   1.450   9.258  0.7144 -0.9856  0.0518
 5621SOL     OW28495   2.199   2.867   7.301  0.0178 -0.1816 -0.2770
 5621SOL    HW128496   2.248   2.813   7.362 -0.1562  1.0125  0.9176
 5621SOL    HW228497   2.111   2.864   7.340  0.1233  3.9643  0.3102
 5622SOL     OW28498   2.413   4.041   3.625  0.2109 -0.4980  0.1310
 5622SOL    HW128499   2.328   4.045   3.670  1.0750  0.3470  1.7109
 5622SOL    HW228500   2.454   4.126   3.642 -0.2211 -0.5645  1.5140
 5623SOL     OW28501   3.361   2.290  12.911 -0.0744  0.0797  0.6368
 5623SOL    HW128502   3.394   2.232  12.979 -2.6831  0.1623  1.9843
 5623SOL    HW228503   3.269   2.301  12.934 -0.0694  0.4807  0.4617
 5624SOL     OW28504   0.163   2.934   3.515 -0.0982 -0.2920 -0.1893
 5624SOL    HW128505   0.196   2.883   3.441 -0.5495 -2.9368  1.4252
 5624SOL    HW228506   0.240   2.985   3.541 -1.0492 -0.1934  2.4363
 5625SOL     OW28507   1.295   3.427   3.315  0.0852  0.4051 -0.1423
 5625SOL    HW128508   1.224   3.366   3.333 -0.7922  1.8158  1.2544
 5625SOL    HW228509   1.376   3.376   3.314 -0.8632 -1.0455 -4.0148
 5626SOL     OW28510   1.291   1.716   9.583 -0.1498 -0.4710  0.3504
 5626SOL    HW128511   1.300   1.672   9.668 -2.6421 -0.9558  0.3676
 5626SOL    HW228512   1.198   1.738   9.582 -0.5095 -1.9870 -0.2891
 5627SOL     OW28513   4.688   4.666   3.311 -0.3185  0.3144  0.6963
 5627SOL    HW128514   4.616   4.730   3.310  0.2667  0.9673  0.0292
 5627SOL    HW228515   0.017   4.717   3.356 -0.4556  2.3871 -1.4276
 5628SOL     OW28516   3.303   3.987   5.983  0.3191 -0.4065 -0.5203
 5628SOL    HW128517   3.392   3.957   5.968  0.3210 -0.4901 -0.3362
 5628SOL    HW228518   3.258   3.909   6.016  1.3194 -0.7853 -0.0622
 5629SOL     OW28519   4.730   0.118  12.540 -0.2117 -0.1132  0.3948
 5629SOL    HW128520   4.701   0.027  12.530  0.8485 -0.4480  0.3661
 5629SOL    HW228521   4.694   0.157  12.460  0.6913 -3.0434 -1.4324
 5630SOL     OW28522   1.299   4.222   3.041 -0.3147 -0.5981  0.3351
 5630SOL    HW128523   1.250   4.200   2.962  1.4452  0.1892 -0.9760
 5630SOL    HW228524   1.344   4.305   3.021 -3.0710  0.9578  0.5146
 5631SOL     OW28525   2.046   0.578   7.321  0.7768 -0.1082  0.4237
 5631SOL    HW128526   2.008   0.508   7.268  1.0016  0.3971 -0.4054
 5631SOL    HW228527   2.017   0.551   7.408  1.3826 -0.2425  0.5796
 5632SOL     OW28528   0.678   4.025  14.869 -0.0572  0.2530  0.2075
 5632SOL    HW128529   0.623   4.084  14.921  0.4888  1.4491 -0.5999
 5632SOL    HW228530   0.612   3.967  14.831 -0.6971  0.1353  1.5011
 5633SOL     OW28531   3.806   0.484  15.313  0.5406  0.4081 -0.4882
 5633SOL    HW128532   3.713   0.479  15.292  0.0653  0.3314  1.6890
 5633SOL    HW228533   3.844   0.396  15.302 -0.1728 -0.1468  1.5059
 5634SOL     OW28534   3.034   2.007  17.717  0.6539  0.5588 -0.0961
 5634SOL    HW128535   2.985   2.052  17.648  0.4968  0.8910  0.2351
 5634SOL    HW228536   3.038   2.081   0.028 -0.4029  0.0188  0.6292
 5635SOL     OW28537   3.381   2.299   6.528  0.8085 -0.0096 -0.0372
 5635SOL    HW128538   3.345   2.324   6.443 -0.2397  0.6072  0.5725
 5635SOL    HW228539   3.476   2.296   6.526  0.8051  0.0132 -0.2077
 5636SOL     OW28540   1.302   2.278   4.012  0.0902 -0.1181 -0.5640
 5636SOL    HW128541   1.228   2.314   4.062  0.2416 -1.5546  0.7020
 5636SOL    HW228542   1.325   2.348   3.951  2.0863  1.0872  1.5472
 5637SOL     OW28543   1.141   0.870   7.646  0.4432  0.1034 -0.1140
 5637SOL    HW128544   1.191   0.823   7.713 -0.5173 -0.2396  0.3542
 5637SOL    HW228545   1.054   0.833   7.658  1.1623 -1.9231 -0.9906
 5638SOL     OW28546   0.488   4.004   6.425  0.2702  0.4765  0.2190
 5638SOL    HW128547   0.454   4.075   6.371  1.2141  1.0897  0.4295
 5638SOL    HW228548   0.442   3.995   6.509  1.4151 -4.0200  0.3407
 5639SOL     OW28549   2.038   4.472  13.303 -0.1056  0.2591  0.4292
 5639SOL    HW128550   2.039   4.376  13.309 -1.1721  0.2771  0.9137
 5639SOL    HW228551   2.112   4.490  13.361  0.4226  1.1312 -0.5090
 5640SOL     OW28552   3.688   4.262   7.464 -0.0422 -0.0663 -0.5834
 5640SOL    HW128553   3.664   4.354   7.468  0.4110  0.1484 -2.8089
 5640SOL    HW228554   3.612   4.211   7.493  1.3777 -0.2709  2.6932
 5641SOL     OW28555   2.714   0.816   3.248 -0.4106  0.1971  0.1653
 5641SOL    HW128556   2.695   0.723   3.262 -0.8111 -0.0751 -2.2088
 5641SOL    HW228557   2.703   0.829   3.154 -0.1955 -1.4834 -0.0872
 5642SOL     OW28558   0.319   4.246  11.527 -0.4337  0.0218  0.1119
 5642SOL    HW128559   0.343   4.222  11.617 -0.1975  1.3840  0.4014
 5642SOL    HW228560   0.224   4.245  11.542 -0.2475  2.5270  1.3673
 5643SOL     OW28561   0.669   3.176   9.250 -0.1622  0.0114 -0.3275
 5643SOL    HW128562   0.762   3.156   9.257  0.1153  1.1962 -0.6437
 5643SOL    HW228563   0.662   3.202   9.158  2.0132  0.8157 -0.2492
 5644SOL     OW28564   1.518   2.612   4.926 -0.0160  0.3485  0.0203
 5644SOL    HW128565   1.431   2.643   4.903 -0.4514 -1.2514 -0.5042
 5644SOL    HW228566   1.496   2.558   5.002 -1.7970  2.5126  1.0393
 5645SOL     OW28567   4.533   1.675   6.689  0.1421  0.4905 -0.4208
 5645SOL    HW128568   4.466   1.629   6.639  0.7602 -3.8648  2.7170
 5645SOL    HW228569   4.572   1.712   6.611 -0.6328  0.9335 -0.5943
 5646SOL     OW28570   4.254   2.251  12.289  0.2178  0.0569 -0.1794
 5646SOL    HW128571   4.348   2.261  12.272  0.1204  0.8919 -0.2409
 5646SOL    HW228572   4.212   2.322  12.240 -2.4993 -1.9575 -0.7524
 5647SOL     OW28573   1.931   0.058  15.424 -0.0345  0.6091  0.5075
 5647SOL    HW128574   1.917   4.712  15.469 -1.9507  1.0956  0.8112
 5647SOL    HW228575   2.013   0.079  15.468  0.5731 -0.6036 -0.0446
 5648SOL     OW28576   1.488   3.643  17.391  0.1146  0.7497 -0.6375
 5648SOL    HW128577   1.418   3.708  17.388 -2.5131 -2.1734 -1.8920
 5648SOL    HW228578   1.457   3.593  17.467 -0.1326 -1.1660 -1.9787
 5649SOL     OW28579   1.467   2.901   0.494 -0.5604  0.1320  0.2635
 5649SOL    HW128580   1.398   2.936   0.438  0.1939  0.0957 -0.6917
 5649SOL    HW228581   1.501   2.981   0.535 -0.7847  0.1951  0.3271
 5650SOL     OW28582   3.550   2.014   3.773  0.3190 -0.0788 -0.0240
 5650SOL    HW128583   3.559   1.942   3.711 -1.7469 -0.3447 -0.0043
 5650SOL    HW228584   3.636   2.056   3.772  0.4423 -0.3266  0.4944
 5651SOL     OW28585   0.261   2.401   4.061 -0.8481 -0.2553 -0.4141
 5651SOL    HW128586   0.194   2.344   4.098 -0.6087  0.2080  0.7299
 5651SOL    HW228587   0.320   2.419   4.133  0.0125 -1.3198 -0.8623
 5652SOL     OW28588   0.110   2.907   8.157  0.1930 -0.2635  0.3223
 5652SOL    HW128589   0.026   2.902   8.203 -0.5791  0.0390 -1.0445
 5652SOL    HW228590   0.165   2.960   8.214 -0.1150  0.0658  0.3173
 5653SOL     OW28591   2.044   1.968   1.105 -0.0115  0.1912 -0.1275
 5653SOL    HW128592   2.137   1.954   1.122  0.0674  1.7951  0.6853
 5653SOL    HW228593   2.050   2.060   1.082 -1.8954  0.0494 -1.2023
 5654SOL     OW28594   0.464   1.477   9.641 -0.2988  0.2121  0.7751
 5654SOL    HW128595   0.390   1.480   9.581  1.0808  1.9795 -0.8420
 5654SOL    HW228596   0.436   1.538   9.709  0.0856  2.1733 -0.8123
 5655SOL     OW28597   0.164   2.215   8.120 -0.5842  0.0108  0.3972
 5655SOL    HW128598   0.148   2.159   8.196 -0.4990 -1.2341 -0.5033
 5655SOL    HW228599   0.223   2.274   8.167  0.5587 -1.0374  0.2829
 5656SOL     OW28600   3.398   3.186  11.726 -0.0434 -0.6626  0.2330
 5656SOL    HW128601   3.447   3.237  11.661  0.9232 -0.1955  1.3406
 5656SOL    HW228602   3.460   3.194  11.799 -1.9366  2.5719  1.4667
 5657SOL     OW28603   2.171   0.657   2.095  0.0155  0.2702  0.3735
 5657SOL    HW128604   2.097   0.632   2.041  0.5428  1.3692 -0.8865
 5657SOL    HW228605   2.124   0.713   2.157  0.0800 -0.9525  1.5263
 5658SOL     OW28606   0.102   1.765   8.240 -0.1411  0.2694  0.2347
 5658SOL    HW128607   0.033   1.731   8.298 -0.3391  1.4354  0.6782
 5658SOL    HW228608   0.173   1.779   8.302  0.7838 -0.3787 -0.6786
 5659SOL     OW28609   2.372   2.124   0.151 -0.0346  0.8002 -0.1574
 5659SOL    HW128610   2.339   2.068   0.222  0.0728  3.4762  2.0412
 5659SOL    HW228611   2.465   2.115   0.170 -0.3433 -1.3565  0.3496
 5660SOL     OW28612   4.693   4.619   7.394  0.3737  0.3819  0.3514
 5660SOL    HW128613   4.607   4.585   7.369 -0.0304  0.1603  2.1026
 5660SOL    HW228614   4.704   4.600   7.487 -0.5898 -0.0215  0.3792
 5661SOL     OW28615   3.873   0.383   5.939 -0.7048  0.1332  0.1865
 5661SOL    HW128616   3.889   0.477   5.933 -2.3985  0.3462 -0.8590
 5661SOL    HW228617   3.897   0.362   5.849 -0.9994  2.2051 -0.3605
 5662SOL     OW28618   4.727   4.651   3.922 -0.5311 -0.1351  0.4133
 5662SOL    HW128619   4.661   4.650   3.992 -1.9922 -0.4474 -0.9524
 5662SOL    HW228620   0.049   4.588   3.963 -1.9462 -0.3332  2.1761
 5663SOL     OW28621   1.962   4.379   3.714 -0.2130 -0.2763 -0.2927
 5663SOL    HW128622   1.911   4.452   3.748  3.2527  1.5445  0.9729
 5663SOL    HW228623   1.969   4.312   3.783 -1.9841 -0.2301 -0.0776
 5664SOL     OW28624   2.995   3.092   8.079 -0.2486 -0.3692 -0.0624
 5664SOL    HW128625   2.915   3.044   8.099  1.0583 -2.5321 -0.0952
 5664SOL    HW228626   2.958   3.147   8.009  1.9938  0.7437 -0.3608
 5665SOL     OW28627   3.744   3.519   9.810 -0.6808  0.2349  0.4489
 5665SOL    HW128628   3.760   3.454   9.879 -0.9780 -0.1403  0.1661
 5665SOL    HW228629   3.648   3.515   9.816 -0.4273 -4.5738  1.8909
 5666SOL     OW28630   3.669   2.506  11.099  0.7152 -0.1595 -0.7004
 5666SOL    HW128631   3.700   2.432  11.151 -0.0742 -0.2952 -0.4187
 5666SOL    HW228632   3.605   2.549  11.156 -0.7977 -0.9989 -1.7519
 5667SOL     OW28633   0.840   1.283   4.167 -0.7085  0.0623 -0.8255
 5667SOL    HW128634   0.802   1.207   4.211  0.4113 -0.2210 -0.3569
 5667SOL    HW228635   0.850   1.248   4.079 -0.7802  0.2898 -0.9236
 5668SOL     OW28636   0.732   4.676   9.807  0.1882 -0.3564 -0.1108
 5668SOL    HW128637   0.825   4.651   9.804  0.4719  0.4396  2.1100
 5668SOL    HW228638   0.723   0.002   9.877 -2.5965 -0.4215 -0.4150
 5669SOL     OW28639   0.123   3.447  12.495  0.1111 -0.7787  0.4269
 5669SOL    HW128640   0.114   3.499  12.575 -2.4306  0.8567 -0.9295
 5669SOL    HW228641   0.166   3.367  12.527  0.6495 -0.5436  0.3015
 5670SOL     OW28642   2.071   1.412  12.213  0.1997  0.5852  0.4061
 5670SOL    HW128643   2.045   1.494  12.256 -3.2347 -0.5175  0.4506
 5670SOL    HW228644   2.091   1.451  12.128 -1.4508 -0.5464 -0.5116
 5671SOL     OW28645   3.091   3.370   4.478  1.0624 -0.1317  0.0147
 5671SOL    HW128646   3.134   3.354   4.394 -0.9008  0.6316 -1.1424
 5671SOL    HW228647   3.158   3.353   4.544 -0.7330 -0.6497  1.7184
 5672SOL     OW28648   0.679   0.961  13.781  0.3077  0.2730  0.0673
 5672SOL    HW128649   0.762   0.940  13.823  0.1208 -0.6812 -0.0279
 5672SOL    HW228650   0.665   0.875  13.740 -1.4885  0.1461  0.9124
 5673SOL     OW28651   1.424   3.315   1.263 -0.3510 -0.0314 -0.3536
 5673SOL    HW128652   1.427   3.381   1.332 -0.6868 -2.1205  1.6628
 5673SOL    HW228653   1.366   3.251   1.303 -2.4938  2.2319  0.1605
 5674SOL     OW28654   4.429   4.562   3.180 -0.1828  0.0188 -0.4702
 5674SOL    HW128655   4.430   4.631   3.246  0.4213 -1.7637  1.4156
 5674SOL    HW228656   4.381   4.497   3.232 -2.0066  1.2848 -0.6066
 5675SOL     OW28657   4.325   4.499   9.046  0.4560  0.1254  0.2705
 5675SOL    HW128658   4.289   4.415   9.020  2.0013 -0.3507 -0.3168
 5675SOL    HW228659   4.276   4.551   8.983  1.2602  3.2805  2.2316
 5676SOL     OW28660   3.793   4.109   6.000  0.2198 -0.2353 -0.6165
 5676SOL    HW128661   3.867   4.078   6.053  0.1138 -0.4465 -0.5897
 5676SOL    HW228662   3.841   4.139   5.923  0.1564  0.5595 -0.3407
 5677SOL     OW28663   4.545   0.858   1.475  0.3508  0.5981 -0.2134
 5677SOL    HW128664   4.529   0.792   1.542  0.8250  0.1457 -0.5475
 5677SOL    HW228665   4.614   0.912   1.515 -1.3490  2.0405  0.7311
 5678SOL     OW28666   1.182   1.256   8.186  0.0909 -0.1187  0.1747
 5678SOL    HW128667   1.126   1.179   8.175 -1.3042  1.0951 -1.1694
 5678SOL    HW228668   1.158   1.278   8.276 -0.3871 -0.4248  0.1260
 5679SOL     OW28669   1.173   3.076  17.621 -0.2193  0.4143 -0.0746
 5679SOL    HW128670   1.150   3.023  17.697 -0.5957 -0.1222 -0.5604
 5679SOL    HW228671   1.144   3.015  17.552  0.0863  0.6273 -0.3938
 5680SOL     OW28672   0.565   2.616   8.420  0.0337 -0.5585  0.6940
 5680SOL    HW128673   0.580   2.578   8.334 -0.3415 -1.4879  1.0368
 5680SOL    HW228674   0.603   2.703   8.409  0.3270 -0.7825 -0.0168
 5681SOL     OW28675   2.665   2.050  13.733  0.2398  0.1077 -0.1121
 5681SOL    HW128676   2.745   2.003  13.754  1.0370  1.1748 -0.7105
 5681SOL    HW228677   2.637   2.071  13.822 -2.3218  1.7035 -1.2902
 5682SOL     OW28678   4.485   0.886   7.320  0.3561  0.0082 -0.0431
 5682SOL    HW128679   4.424   0.911   7.251 -1.6878 -1.4136  1.2485
 5682SOL    HW228680   4.433   0.873   7.400 -0.7865 -0.4847 -0.8620
 5683SOL     OW28681   0.853   1.134   3.908 -0.0825  0.0286 -0.1460
 5683SOL    HW128682   0.858   1.048   3.948 -0.0968 -0.9268 -2.1759
 5683SOL    HW228683   0.924   1.139   3.843 -0.7452 -0.1084 -0.8807
 5684SOL     OW28684   2.130   1.127   8.110  0.1756 -0.1992  0.4567
 5684SOL    HW128685   2.073   1.122   8.033 -0.2041 -1.1358  0.7891
 5684SOL    HW228686   2.209   1.083   8.079 -0.9149 -0.5370 -1.8539
 5685SOL     OW28687   3.349   4.652   3.112 -1.4186 -0.0473 -0.3763
 5685SOL    HW128688   3.358   4.681   3.203 -0.5900 -1.8320  0.1154
 5685SOL    HW228689   3.362   4.732   3.061  0.9071 -1.2640 -1.6854
 5686SOL     OW28690   2.115   2.877   8.491 -0.5519  0.5880  0.2148
 5686SOL    HW128691   2.118   2.802   8.432  0.5797 -1.7532  3.2414
 5686SOL    HW228692   2.105   2.825   8.571  1.2631  1.6440  1.1236
 5687SOL     OW28693   0.640   1.760   1.319 -0.1245  0.5347 -0.1323
 5687SOL    HW128694   0.650   1.848   1.284 -2.0253 -0.0793 -2.2420
 5687SOL    HW228695   0.572   1.722   1.263 -0.5613  1.4510 -0.2175
 5688SOL     OW28696   1.092   0.735   8.788  0.3346  0.2456  0.3591
 5688SOL    HW128697   1.156   0.788   8.835  2.8113 -2.1612 -0.2876
 5688SOL    HW228698   1.145   0.660   8.763 -0.2729 -0.3551  0.8657
 5689SOL     OW28699   1.491   3.730   6.325  0.1338 -0.1353 -0.1515
 5689SOL    HW128700   1.407   3.685   6.338 -0.7267  2.1850  2.3727
 5689SOL    HW228701   1.502   3.768   6.412  0.4063 -1.4564  0.3826
 5690SOL     OW28702   0.841   2.977   2.304  0.4295  0.2413 -0.5122
 5690SOL    HW128703   0.934   2.966   2.288 -0.0844  1.1821 -4.0843
 5690SOL    HW228704   0.828   2.932   2.388 -0.0079  3.6665  1.2765
 5691SOL     OW28705   0.399   3.979   3.287 -0.6678  0.0235 -0.2954
 5691SOL    HW128706   0.422   4.056   3.339  2.1706 -0.1234 -1.3135
 5691SOL    HW228707   0.470   3.995   3.224  1.2567 -3.2030  1.0583
 5692SOL     OW28708   2.386   0.919   5.750  0.0264 -0.0443 -0.5977
 5692SOL    HW128709   2.351   0.987   5.692  0.8495  1.4752  0.6807
 5692SOL    HW228710   2.393   0.957   5.838 -1.4401 -0.4834 -0.2820
 5693SOL     OW28711   2.731   1.866   9.341  0.0165  0.4934  0.4863
 5693SOL    HW128712   2.796   1.869   9.411 -0.7232 -0.0477  1.2048
 5693SOL    HW228713   2.771   1.803   9.281 -1.0484 -0.3331  0.6475
 5694SOL     OW28714   2.036   3.832  13.555  0.4225  0.1527 -0.4260
 5694SOL    HW128715   1.970   3.899  13.540  2.2251  1.8428 -0.7242
 5694SOL    HW228716   2.116   3.885  13.552 -0.0868  1.0127  1.3475
 5695SOL     OW28717   2.568   4.184   4.620 -0.1677 -0.0768 -0.2838
 5695SOL    HW128718   2.627   4.258   4.633  0.7586 -1.1805  1.8143
 5695SOL    HW228719   2.542   4.161   4.709 -0.2624  1.2536  0.0304
 5696SOL     OW28720   2.256   3.022   7.076 -0.0891  0.0200  0.6398
 5696SOL    HW128721   2.177   3.077   7.074 -1.3559 -1.7605  1.5232
 5696SOL    HW228722   2.226   2.953   7.136  0.8045 -0.5652  0.4147
 5697SOL     OW28723   1.696   1.252  15.412 -0.1566 -0.2340  0.0790
 5697SOL    HW128724   1.705   1.275  15.319 -0.1065 -0.1762  0.0976
 5697SOL    HW228725   1.664   1.162  15.404  1.3088 -0.7320 -0.1831
 5698SOL     OW28726   2.241   3.022  16.325 -0.8390 -0.2423  0.0511
 5698SOL    HW128727   2.226   3.104  16.278  0.2446 -0.4984 -0.7287
 5698SOL    HW228728   2.269   3.063  16.407  3.7617 -1.2370 -1.0403
 5699SOL     OW28729   0.836   2.326   8.737 -0.0523 -0.3125  0.1962
 5699SOL    HW128730   0.817   2.315   8.643 -1.8442 -0.6865  0.5854
 5699SOL    HW228731   0.826   2.419   8.757 -3.2564 -0.7686  0.7971
 5700SOL     OW28732   2.949   0.790   3.818  0.4599  0.0456  0.0770
 5700SOL    HW128733   2.983   0.701   3.829  0.0541  0.3648  3.8288
 5700SOL    HW228734   2.866   0.792   3.865  0.5352 -1.7658  0.2829
 5701SOL     OW28735   3.042   3.613   4.147 -0.1866 -0.4070  0.7167
 5701SOL    HW128736   3.120   3.572   4.184  0.4443  0.8475  0.7804
 5701SOL    HW228737   3.051   3.575   4.060  1.4704  1.3422  0.1366
 5702SOL     OW28738   2.147   0.239   1.812 -0.0563 -0.0460 -0.5183
 5702SOL    HW128739   2.083   0.174   1.839  0.0428  0.4686  0.9388
 5702SOL    HW228740   2.111   0.315   1.857  1.1558  0.4220 -0.3331
 5703SOL     OW28741   4.365   2.119   8.140  0.3235  0.2462 -0.1865
 5703SOL    HW128742   4.383   2.180   8.069 -0.4091  0.6088 -0.0534
 5703SOL    HW228743   4.274   2.140   8.160  0.1430 -0.6163 -0.0967
 5704SOL     OW28744   3.500   2.864   9.075 -0.2575 -0.7228  0.0929
 5704SOL    HW128745   3.438   2.935   9.092  1.5337  0.2987  2.2693
 5704SOL    HW228746   3.564   2.914   9.024  0.0103  0.7106  1.8539
 5705SOL     OW28747   1.193   2.230   1.138  0.5969 -0.4336 -0.2080
 5705SOL    HW128748   1.113   2.283   1.143  0.1732 -1.2258  1.3204
 5705SOL    HW228749   1.157   2.142   1.126  0.0938 -0.1131 -1.1016
 5706SOL     OW28750   3.740   0.801   9.992  0.1821 -0.3400 -0.4932
 5706SOL    HW128751   3.805   0.780  10.059 -0.8463  1.3223  1.0451
 5706SOL    HW228752   3.676   0.736  10.020 -1.9388  1.2546 -1.6483
 5707SOL     OW28753   0.207   1.997   7.358 -0.1251  0.4570 -0.2172
 5707SOL    HW128754   0.136   1.940   7.328  1.7533 -0.8661 -2.1001
 5707SOL    HW228755   0.168   2.084   7.346 -0.0519  0.3645 -1.1393
 5708SOL     OW28756   0.422   3.166   7.117  0.4693 -0.1290 -0.4042
 5708SOL    HW128757   0.427   3.075   7.148  1.2132 -1.1952 -3.5732
 5708SOL    HW228758   0.365   3.145   7.042 -1.4464 -2.1491  1.6202
 5709SOL     OW28759   1.681   1.527   3.270  0.2454  0.2674  0.4087
 5709SOL    HW128760   1.744   1.538   3.199  0.6810  0.6374  0.8581
 5709SOL    HW228761   1.614   1.496   3.208  0.4564 -0.8668  0.7441
 5710SOL     OW28762   1.771   3.193   6.659  0.0548 -0.1901  0.0233
 5710SOL    HW128763   1.688   3.194   6.708 -1.6972  0.2492 -2.9649
 5710SOL    HW228764   1.824   3.235   6.727  1.3895  0.0050 -1.1393
 5711SOL     OW28765   2.168   0.474   3.269 -0.3612 -0.6163  0.3117
 5711SOL    HW128766   2.099   0.420   3.231  0.1320  0.1308 -1.6732
 5711SOL    HW228767   2.245   0.418   3.253 -1.1544 -1.0022 -2.2218
 5712SOL     OW28768   2.405   0.567   4.316 -0.7216  0.0851  0.5095
 5712SOL    HW128769   2.316   0.600   4.303 -1.3580 -1.1710  1.6818
 5712SOL    HW228770   2.454   0.617   4.250 -4.0539  2.3399 -0.2922
 5713SOL     OW28771   3.328   2.484   7.840  0.4107  0.1184  0.0295
 5713SOL    HW128772   3.409   2.514   7.798 -0.9922  1.9751 -1.3418
 5713SOL    HW228773   3.330   2.393   7.812  1.7449  0.0750  0.2536
 5714SOL     OW28774   2.302   3.199   8.908  0.1273 -0.2456 -0.1798
 5714SOL    HW128775   2.244   3.167   8.838  0.1767  1.9187 -1.1802
 5714SOL    HW228776   2.326   3.118   8.953 -0.7663  0.3017  1.2857
 5715SOL     OW28777   3.232   3.136  12.728  0.0659  0.0871  0.6026
 5715SOL    HW128778   3.279   3.066  12.683 -2.1149 -0.3617 -0.9820
 5715SOL    HW228779   3.287   3.212  12.716  1.7380 -0.8914  2.0470
 5716SOL     OW28780   2.415   0.035  17.681  0.1854 -0.1533  0.1495
 5716SOL    HW128781   2.460   4.695  17.715 -1.8499 -0.2843  2.4836
 5716SOL    HW228782   2.363   0.064   0.007  0.2816 -0.0075  0.1604
 5717SOL     OW28783   2.986   0.277  12.457 -0.0660  0.5620 -0.1842
 5717SOL    HW128784   3.048   0.301  12.526  1.1759 -0.9868 -0.7782
 5717SOL    HW228785   2.978   0.185  12.482  2.7572  0.3951  0.0356
 5718SOL     OW28786   4.405   3.225   7.427 -0.1129 -0.0054 -0.3212
 5718SOL    HW128787   4.342   3.223   7.499 -1.3786 -0.0709 -1.4227
 5718SOL    HW228788   4.416   3.134   7.398 -0.4370 -0.3867  0.7618
 5719SOL     OW28789   4.449   3.018   2.629  0.0141 -0.0424  0.2630
 5719SOL    HW128790   4.362   2.982   2.645  0.1497 -0.8187 -0.6979
 5719SOL    HW228791   4.507   2.942   2.621  0.4575  0.3360 -0.1340
 5720SOL     OW28792   3.392   4.187   3.736  0.2234  0.2439 -0.0835
 5720SOL    HW128793   3.449   4.257   3.704  0.1429  0.5523  0.4634
 5720SOL    HW228794   3.375   4.137   3.656 -1.3639 -1.5304  1.3564
 5721SOL     OW28795   0.512   3.971  17.105 -0.5648  0.1634  0.7106
 5721SOL    HW128796   0.570   3.972  17.030 -1.7073  0.5308 -0.1742
 5721SOL    HW228797   0.428   4.010  17.078 -0.3387  0.3147  0.2307
 5722SOL     OW28798   1.272   3.255   4.900 -0.1225 -0.1824 -0.1407
 5722SOL    HW128799   1.206   3.225   4.963 -0.2375  0.7326  0.1750
 5722SOL    HW228800   1.303   3.343   4.922  0.9642 -0.6837  0.3398
 5723SOL     OW28801   4.173   1.107   3.048  0.4473  0.3254  0.5571
 5723SOL    HW128802   4.136   1.026   3.015  0.8280 -0.2840  1.6321
 5723SOL    HW228803   4.180   1.159   2.968  1.3380 -1.7226 -0.6906
 5724SOL     OW28804   1.756   0.810   1.000  0.0917  0.5909  0.0241
 5724SOL    HW128805   1.718   0.896   1.015 -1.0084 -0.4809  3.4638
 5724SOL    HW228806   1.837   0.847   0.967 -0.5939  1.5492 -0.5660
 5725SOL     OW28807   4.112   2.543   8.668 -0.1806  0.9281  0.1998
 5725SOL    HW128808   4.136   2.580   8.753 -0.2517  0.7046  0.3177
 5725SOL    HW228809   4.179   2.588   8.616 -2.8477  2.3665 -1.9910
 5726SOL     OW28810   0.692   1.914   6.900  0.0971  0.3584  0.3311
 5726SOL    HW128811   0.723   2.002   6.880 -1.1023  0.4957 -0.9761
 5726SOL    HW228812   0.715   1.866   6.820 -0.7584 -1.7248  1.3187
 5727SOL     OW28813   3.177   0.955   2.859 -0.4294 -0.0607  0.0456
 5727SOL    HW128814   3.136   1.008   2.927 -1.0161  0.3143 -0.5893
 5727SOL    HW228815   3.104   0.972   2.799  0.4112  0.4704 -0.8342
 5728SOL     OW28816   0.121   4.379   7.350 -0.0323 -0.4545 -0.0810
 5728SOL    HW128817   0.109   4.469   7.320 -1.2680 -0.5516  0.1474
 5728SOL    HW228818   0.213   4.374   7.376  0.1611  2.1665 -0.2666
 5729SOL     OW28819   3.462   4.099   6.637 -0.5244 -0.0993  0.0817
 5729SOL    HW128820   3.415   4.028   6.592  0.8535  0.2431 -1.8982
 5729SOL    HW228821   3.551   4.089   6.605 -0.5744 -0.8444  0.1729
 5730SOL     OW28822   0.066   0.670   7.372  0.2122  0.0964  0.0321
 5730SOL    HW128823   0.132   0.603   7.391  1.1833  1.2978  0.8430
 5730SOL    HW228824   0.001   0.619   7.323  1.1101 -1.3703  0.3501
 5731SOL     OW28825   1.979   1.705   5.574 -0.4477 -0.3807  0.4312
 5731SOL    HW128826   1.903   1.662   5.614  1.4842 -0.9241  3.5581
 5731SOL    HW228827   2.033   1.626   5.580 -0.9297 -0.6961  0.7107
 5732SOL     OW28828   3.615   3.640   7.668  0.8666 -0.5670  0.1304
 5732SOL    HW128829   3.588   3.659   7.758  2.7270 -2.0195  1.0254
 5732SOL    HW228830   3.530   3.618   7.631  2.3834 -1.4513 -2.8235
 5733SOL     OW28831   3.741   3.872   2.047 -0.1623  0.6039  0.2461
 5733SOL    HW128832   3.752   3.863   2.142 -0.7928 -1.8672  0.0703
 5733SOL    HW228833   3.801   3.805   2.016 -1.8178  0.0194 -1.6349
 5734SOL     OW28834   4.153   3.702  14.863 -0.8817  0.3398 -0.5809
 5734SOL    HW128835   4.240   3.732  14.837 -0.4812 -1.5115 -1.3601
 5734SOL    HW228836   4.172   3.669  14.951 -3.1181  1.6692  0.4220
 5735SOL     OW28837   2.675   1.541   2.093 -0.0903  0.2500 -0.3529
 5735SOL    HW128838   2.661   1.631   2.124 -0.5216  0.4375 -1.0827
 5735SOL    HW228839   2.754   1.550   2.039  0.9652  2.9729  1.6511
 5736SOL     OW28840   1.382   2.204   9.158 -0.0444  0.4774  0.3509
 5736SOL    HW128841   1.384   2.275   9.223  1.8233  0.6937  0.0469
 5736SOL    HW228842   1.388   2.258   9.079 -0.2753 -0.4586 -0.3097
 5737SOL     OW28843   4.586   2.792   7.223  0.2239  0.4681 -0.2236
 5737SOL    HW128844   4.624   2.798   7.311 -1.0872  1.3419  0.2805
 5737SOL    HW228845   4.649   2.735   7.178 -0.2105 -0.3056  0.1483
 5738SOL     OW28846   4.618   3.453   3.129  0.2081 -0.1317  0.1093
 5738SOL    HW128847   4.547   3.459   3.065  1.4526  1.3588 -1.1109
 5738SOL    HW228848   4.679   3.521   3.102  0.7897 -0.4300  0.6458
 5739SOL     OW28849   2.565   3.435   6.793 -0.1348 -0.7669 -0.3985
 5739SOL    HW128850   2.489   3.409   6.741  1.1210 -0.9919 -2.1353
 5739SOL    HW228851   2.632   3.424   6.725  2.0294 -0.1317  1.6428
 5740SOL     OW28852   0.445   4.247   3.336  0.1237 -0.0894  0.3270
 5740SOL    HW128853   0.528   4.269   3.292  0.1073  0.1434  0.4126
 5740SOL    HW228854   0.390   4.322   3.315 -0.6213 -0.9492 -0.7624
 5741SOL     OW28855   3.130   3.754   3.516  0.6725  0.5061  0.3717
 5741SOL    HW128856   3.197   3.730   3.580  0.5050 -0.8296  0.0427
 5741SOL    HW228857   3.116   3.846   3.540  1.0606  0.1492  1.9923
 5742SOL     OW28858   2.915   0.117   0.634  0.0970 -0.1909 -0.9250
 5742SOL    HW128859   2.829   0.115   0.676  0.9719 -2.2439  0.7453
 5742SOL    HW228860   2.972   0.156   0.700 -1.6580 -0.2588  0.6040
 5743SOL     OW28861   0.824   3.683   7.385 -0.1477  0.1431 -0.1498
 5743SOL    HW128862   0.877   3.763   7.384  1.2444 -0.7972 -1.5766
 5743SOL    HW228863   0.884   3.610   7.377 -0.1447  0.0039  1.2243
 5744SOL     OW28864   2.467   3.379  12.965 -0.8514 -0.4721  0.6175
 5744SOL    HW128865   2.384   3.413  12.932  1.3761  1.9934 -2.4677
 5744SOL    HW228866   2.527   3.437  12.918 -0.9037 -1.3572 -0.5557
 5745SOL     OW28867   1.146   4.290  13.139 -0.3665 -0.0925 -0.3430
 5745SOL    HW128868   1.113   4.367  13.184  0.4031 -0.4138  0.7670
 5745SOL    HW228869   1.076   4.225  13.145 -1.3460  1.0533  0.6071
 5746SOL     OW28870   3.019   3.754   0.841 -0.2175  0.2785 -0.3698
 5746SOL    HW128871   3.097   3.736   0.892 -0.6085 -1.9383 -0.5591
 5746SOL    HW228872   2.972   3.819   0.894  1.3349  0.2664  1.0026
 5747SOL     OW28873   1.794   0.896  15.943  0.1734  0.2050 -0.1555
 5747SOL    HW128874   1.814   0.925  16.032 -0.9822  0.6690 -0.0519
 5747SOL    HW228875   1.881   0.888  15.903 -0.1244 -0.5544 -0.6522
 5748SOL     OW28876   2.986   4.042   6.719  0.1122 -0.2251 -0.3467
 5748SOL    HW128877   3.066   4.044   6.771 -0.2731 -0.3977  0.2453
 5748SOL    HW228878   3.014   3.998   6.639  1.6250 -0.1494  0.1436
 5749SOL     OW28879   2.272   4.358  10.340  0.2905  0.6204 -0.3459
 5749SOL    HW128880   2.216   4.294  10.297 -1.4850  0.1423  2.6772
 5749SOL    HW228881   2.237   4.356  10.430  1.5806  2.6061  0.2202
 5750SOL     OW28882   4.440   3.708   6.930  0.0677  0.3974  0.2032
 5750SOL    HW128883   4.387   3.760   6.990  0.2129 -0.2506  0.9043
 5750SOL    HW228884   4.485   3.662   7.001  2.1856  2.4376  0.1611
 5751SOL     OW28885   4.019   2.056  16.625  0.1308  0.4600 -0.0948
 5751SOL    HW128886   4.115   2.061  16.631  0.1482  2.8689 -2.2540
 5751SOL    HW228887   3.974   2.118  16.683 -0.0137 -0.2261  0.5386
 5752SOL     OW28888   3.378   1.623   6.671 -0.4180  0.0054  0.3532
 5752SOL    HW128889   3.345   1.635   6.760 -2.0312 -1.5613 -0.0323
 5752SOL    HW228890   3.468   1.601   6.694 -0.3818  0.3081  0.5074
 5753SOL     OW28891   0.293   1.677  17.361 -0.2932  0.2951  0.1978
 5753SOL    HW128892   0.349   1.685  17.283 -0.0971  0.2459  0.3328
 5753SOL    HW228893   0.238   1.603  17.337  0.8377 -0.1180 -1.1831
 5754SOL     OW28894   2.936   3.114   3.825  0.0570  0.6324 -0.3446
 5754SOL    HW128895   3.001   3.154   3.882 -0.5838  1.3720 -0.1390
 5754SOL    HW228896   2.855   3.162   3.843 -0.8301 -0.9439 -0.1146
 5755SOL     OW28897   0.012   0.968   3.416  0.2713  0.0680 -0.2503
 5755SOL    HW128898   0.027   1.055   3.452 -0.8945 -0.2120  0.8784
 5755SOL    HW228899   0.072   0.975   3.341 -1.2326 -0.5505 -1.4903
 5756SOL     OW28900   2.539   2.955  11.895 -0.1243  0.2827  0.3003
 5756SOL    HW128901   2.616   2.936  11.842  1.0854  0.3112  2.0587
 5756SOL    HW228902   2.501   2.867  11.897  0.2614  0.1445  1.9619
 5757SOL     OW28903   0.167   1.501  17.241  0.2030  0.2388  0.3586
 5757SOL    HW128904   0.186   1.424  17.188  0.2532  0.3588  0.2013
 5757SOL    HW228905   0.075   1.485  17.259  0.3939 -1.0052  0.2066
 5758SOL     OW28906   3.272   3.857   2.966  0.2178 -0.0767  0.2639
 5758SOL    HW128907   3.216   3.894   3.035 -1.7592 -1.0253 -0.8139
 5758SOL    HW228908   3.356   3.901   2.968  0.1710 -0.0893  3.0936
 5759SOL     OW28909   0.953   4.344   8.063  0.1361 -0.3607  0.0653
 5759SOL    HW128910   0.957   4.439   8.078 -0.7720 -0.1622 -0.8941
 5759SOL    HW228911   0.987   4.312   8.146  1.6154  1.4278  0.1542
 5760SOL     OW28912   2.536   1.384   6.804  0.2791  0.3059 -0.4095
 5760SOL    HW128913   2.460   1.402   6.747 -0.3294  1.1346  0.6652
 5760SOL    HW228914   2.554   1.294   6.780 -2.0909 -0.3801  0.3678
 5761SOL     OW28915   1.925   3.935   6.827 -0.2151 -0.0814  0.1363
 5761SOL    HW128916   1.845   3.930   6.879 -0.1726 -2.1372  0.0030
 5761SOL    HW228917   1.879   3.950   6.744  0.9410  1.9113 -0.1567
 5762SOL     OW28918   3.379   3.275   4.937 -0.3791  1.0476 -0.3040
 5762SOL    HW128919   3.329   3.254   5.016  0.0704  0.4864 -0.1703
 5762SOL    HW228920   3.431   3.195   4.930 -0.0407  1.2492 -0.1057
 5763SOL     OW28921   2.488   0.331   1.233 -0.1780  0.3269  0.2326
 5763SOL    HW128922   2.413   0.386   1.211 -0.4084 -0.2088 -0.3163
 5763SOL    HW228923   2.447   0.276   1.299  2.6750  1.3902  2.9091
 5764SOL     OW28924   4.063   3.753   4.987  0.3180  0.5413 -0.2581
 5764SOL    HW128925   4.155   3.734   5.007 -0.3403 -1.6663  0.6746
 5764SOL    HW228926   4.066   3.824   4.923  1.8059  0.6951 -0.0227
 5765SOL     OW28927   1.700   2.026   5.133  0.0179 -0.3290  0.1643
 5765SOL    HW128928   1.746   2.109   5.119 -0.7499 -0.3517 -2.5705
 5765SOL    HW228929   1.611   2.047   5.160 -0.3217  0.8359 -1.8699
 5766SOL     OW28930   2.701   3.344   4.458  0.3322 -0.1760  0.3795
 5766SOL    HW128931   2.738   3.402   4.391  1.2104 -2.2792 -0.9725
 5766SOL    HW228932   2.626   3.401   4.474  2.2402  1.8171  2.2213
 5767SOL     OW28933   2.081   2.629   5.897 -0.1847 -1.2470  0.1773
 5767SOL    HW128934   2.010   2.644   5.835  0.6665 -1.8629 -0.9538
 5767SOL    HW228935   2.082   2.535   5.917  0.7808 -1.1006  0.8054
 5768SOL     OW28936   3.403   1.354   3.151  0.0984 -0.4145  0.6951
 5768SOL    HW128937   3.402   1.261   3.173 -4.1791 -0.4819  0.0672
 5768SOL    HW228938   3.444   1.378   3.234 -0.7616 -3.8036  2.0952
 5769SOL     OW28939   4.199   0.649   1.336  0.0479  0.5524 -0.0876
 5769SOL    HW128940   4.153   0.659   1.420 -1.5909 -1.8554 -0.6897
 5769SOL    HW228941   4.287   0.615   1.351  0.7632  2.0298 -1.0273
 5770SOL     OW28942   3.098   1.730   8.837 -0.0944 -0.0789 -0.4745
 5770SOL    HW128943   3.109   1.771   8.922  0.7504 -1.0545 -0.1147
 5770SOL    HW228944   3.180   1.766   8.802  0.4255 -3.0933 -2.3980
 5771SOL     OW28945   3.405   0.428   2.426 -0.0472  0.1754  0.3478
 5771SOL    HW128946   3.358   0.510   2.440  0.7506  0.3878  1.6622
 5771SOL    HW228947   3.462   0.405   2.498  0.9982  0.1333 -0.4894
 5772SOL     OW28948   4.490   4.041   9.040 -0.3796 -0.1656  0.1224
 5772SOL    HW128949   4.543   4.119   9.026 -1.8187  0.5933 -1.0687
 5772SOL    HW228950   4.429   4.034   8.967 -0.9950 -0.7397  0.6864
 5773SOL     OW28951   1.811   0.922  11.334  0.0846  0.1936  0.0483
 5773SOL    HW128952   1.894   0.934  11.381 -0.1956  1.3867  0.2184
 5773SOL    HW228953   1.830   0.830  11.316  2.9084  0.3343  2.3375
 5774SOL     OW28954   2.441   1.065   4.257  0.2380  0.3042 -0.4446
 5774SOL    HW128955   2.358   1.063   4.305  0.8977 -1.2525  0.6743
 5774SOL    HW228956   2.407   1.101   4.176 -0.2507 -0.4005 -0.5559
 5775SOL     OW28957   4.346   3.936   9.224  0.1957 -0.3357  0.1816
 5775SOL    HW128958   4.410   3.961   9.159 -0.4746  0.7260 -0.0652
 5775SOL    HW228959   4.279   3.890   9.173 -0.1467  2.1885 -1.6235
 5776SOL     OW28960   3.419   3.682  12.193  0.1151 -0.4265 -0.4204
 5776SOL    HW128961   3.507   3.653  12.216  0.0960 -0.8197 -0.8306
 5776SOL    HW228962   3.366   3.682  12.273 -2.3247 -0.2756 -2.0215
 5777SOL     OW28963   3.603   2.679   9.268  0.0912 -0.4967  0.4962
 5777SOL    HW128964   3.525   2.650   9.221 -1.2459  3.0228  0.5590
 5777SOL    HW228965   3.619   2.764   9.226  0.8830 -1.4640 -1.1742
 5778SOL     OW28966   0.084   4.726   1.848 -0.1300  0.3924  0.2191
 5778SOL    HW128967   0.118   4.662   1.785 -0.3915 -0.6785  1.1544
 5778SOL    HW228968   0.155   4.698   1.906 -1.4764 -1.7865  0.8286
 5779SOL     OW28969   3.783   3.059   4.200  0.9437  0.2002 -0.5342
 5779SOL    HW128970   3.711   3.019   4.152  0.0454  1.2228 -0.0483
 5779SOL    HW228971   3.811   2.998   4.268  0.3647 -0.4485 -0.8793
 5780SOL     OW28972   2.293   3.955   5.502 -0.4520  0.3295  0.3214
 5780SOL    HW128973   2.244   4.013   5.559 -0.2835 -0.2573  1.0557
 5780SOL    HW228974   2.236   3.882   5.481 -0.4229 -0.1052  1.7683
 5781SOL     OW28975   0.256   1.679  13.729  0.1147 -0.4980 -0.6595
 5781SOL    HW128976   0.208   1.732  13.793  0.6754  0.4352 -1.0140
 5781SOL    HW228977   0.299   1.631  13.800 -1.8123 -1.3425 -0.0543
 5782SOL     OW28978   3.264   0.295   4.327 -0.6269 -0.3250 -0.1269
 5782SOL    HW128979   3.243   0.357   4.258 -0.2892 -2.1266 -1.8325
 5782SOL    HW228980   3.185   0.243   4.342  0.1340 -0.9220  1.8004
 5783SOL     OW28981   3.702   0.576   1.939 -0.3398 -0.1783 -0.1693
 5783SOL    HW128982   3.698   0.584   2.035 -1.9375 -0.5086 -0.2151
 5783SOL    HW228983   3.706   0.666   1.907  0.4039 -0.1157  0.0961
 5784SOL     OW28984   3.596   1.171  13.140 -0.6403  0.2088 -0.3486
 5784SOL    HW128985   3.548   1.123  13.073  0.7648 -0.6198 -0.7729
 5784SOL    HW228986   3.528   1.215  13.191 -0.8107 -0.5155  0.0461
 5785SOL     OW28987   3.602   1.637   6.828  0.3459  0.5279 -0.5617
 5785SOL    HW128988   3.613   1.579   6.904  1.7678  3.0213  1.1366
 5785SOL    HW228989   3.680   1.692   6.836  0.4837  0.4445 -1.3739
 5786SOL     OW28990   3.209   0.503   4.144 -0.0242  0.0897  0.1355
 5786SOL    HW128991   3.175   0.493   4.055  2.1853 -1.0939 -0.5638
 5786SOL    HW228992   3.219   0.598   4.151  1.0525 -0.1600  1.9695
 5787SOL     OW28993   3.669   4.572   7.096 -0.1681  0.0227  0.4986
 5787SOL    HW128994   3.746   4.559   7.151  0.1977  1.4864  0.3255
 5787SOL    HW228995   3.659   4.488   7.052  1.1286  0.3454 -0.4287
 5788SOL     OW28996   3.793   0.965   2.741 -0.1336  0.9719 -0.4657
 5788SOL    HW128997   3.821   1.045   2.696 -0.6323  0.3662 -1.8641
 5788SOL    HW228998   3.855   0.964   2.813 -0.6571 -1.2481 -0.0691
 5789SOL     OW28999   2.699   1.460   9.177 -0.1765  0.2817 -0.7979
 5789SOL    HW129000   2.606   1.481   9.164 -0.5026 -1.3971 -1.2963
 5789SOL    HW229001   2.693   1.367   9.200 -0.5684  0.4445 -0.2552
 5790SOL     OW29002   1.829   1.434   4.410 -0.0423  0.1293  0.3401
 5790SOL    HW129003   1.899   1.467   4.354 -0.5666 -1.1447 -1.0693
 5790SOL    HW229004   1.755   1.425   4.350  0.3865  3.0685 -0.6210
 5791SOL     OW29005   4.060   0.879   9.299 -0.1812 -0.0089  0.0176
 5791SOL    HW129006   4.097   0.791   9.309  0.5617  0.2133 -0.8588
 5791SOL    HW229007   4.029   0.902   9.387  0.7744  1.5914 -0.0661
 5792SOL     OW29008   4.058   0.590   5.477 -0.4578  0.3152 -0.2869
 5792SOL    HW129009   3.967   0.582   5.508  0.2889 -1.2247  1.5308
 5792SOL    HW229010   4.059   0.521   5.411 -1.4646 -0.5055  0.5483
 5793SOL     OW29011   3.450   3.942   9.616  0.2669 -0.1667 -0.8682
 5793SOL    HW129012   3.518   3.919   9.553  0.3875  0.1604 -0.8567
 5793SOL    HW229013   3.396   3.863   9.618 -0.1629  0.1362 -0.1583
 5794SOL     OW29014   2.570   1.557   3.932  0.4121  0.2546  0.2442
 5794SOL    HW129015   2.656   1.558   3.891  0.5705 -0.0551  0.5761
 5794SOL    HW229016   2.534   1.628   3.878  2.5488  0.6019 -0.7263
 5795SOL     OW29017   1.900   1.738   7.028 -0.3336  1.0665 -0.3334
 5795SOL    HW129018   1.907   1.830   7.053  1.1863  1.7185 -3.1690
 5795SOL    HW229019   1.925   1.700   7.112  1.2441 -1.0225 -1.7216
 5796SOL     OW29020   0.706   3.606   4.976  0.2231 -0.3392  0.3243
 5796SOL    HW129021   0.725   3.697   4.998 -1.1306 -0.0281  0.2591
 5796SOL    HW229022   0.784   3.574   4.932 -0.7035 -1.4672 -0.5284
 5797SOL     OW29023   2.599   1.615   8.599  0.2716 -0.0393 -0.7710
 5797SOL    HW129024   2.626   1.695   8.556 -0.5219  0.5299 -0.2141
 5797SOL    HW229025   2.674   1.556   8.589 -1.2451 -1.9040 -1.1098
 5798SOL     OW29026   2.653   2.845   2.728 -0.6369  0.5864  0.2050
 5798SOL    HW129027   2.722   2.779   2.726 -0.6994  0.4742  2.3241
 5798SOL    HW229028   2.597   2.831   2.804  0.6953 -1.1793  0.8523
 5799SOL     OW29029   3.294   1.301   0.808 -0.1491  0.1252  0.0990
 5799SOL    HW129030   3.366   1.243   0.832 -0.8727 -0.6941  0.2607
 5799SOL    HW229031   3.296   1.360   0.883  1.4220  0.4161 -0.1656
 5800SOL     OW29032   2.118   2.358   0.057  0.0995 -0.4981 -0.1046
 5800SOL    HW129033   2.185   2.406   0.105 -0.5251 -1.0461  1.3025
 5800SOL    HW229034   2.070   2.320   0.130  0.3566  0.6229  0.6547
 5801SOL     OW29035   3.800   0.142  12.535 -0.6265  0.8217 -0.4197
 5801SOL    HW129036   3.771   0.084  12.465  1.2794 -1.3721  0.6103
 5801SOL    HW229037   3.882   0.099  12.557 -1.3508  0.2062  1.0530
 5802SOL     OW29038   1.310   3.886   5.692  0.0425 -0.0219 -0.1942
 5802SOL    HW129039   1.234   3.882   5.635 -1.0093  2.0884  1.0675
 5802SOL    HW229040   1.270   3.921   5.772 -0.1311 -1.5402  0.3729
 5803SOL     OW29041   0.973   2.567  17.190  1.2509 -0.4426 -0.2361
 5803SOL    HW129042   0.986   2.503  17.120 -0.9102 -0.1909 -0.8648
 5803SOL    HW229043   1.012   2.532  17.270 -1.7447 -1.4703  0.7849
 5804SOL     OW29044   3.612   3.326  10.710 -0.0740  0.4042 -0.0740
 5804SOL    HW129045   3.635   3.292  10.796 -1.5625  2.0801  0.9679
 5804SOL    HW229046   3.560   3.250  10.684  0.0000  0.7385 -1.1941
 5805SOL     OW29047   0.628   2.893   3.155  0.0581 -0.5429 -0.0550
 5805SOL    HW129048   0.668   2.895   3.068  1.4149  0.7211  0.6097
 5805SOL    HW229049   0.687   2.948   3.206 -0.4217  0.1877 -0.2833
 5806SOL     OW29050   0.688   2.345   6.836  0.1897  0.4133  0.0579
 5806SOL    HW129051   0.646   2.298   6.907 -0.7231  0.9669 -0.1158
 5806SOL    HW229052   0.614   2.353   6.776 -0.5075 -2.8239  0.4538
 5807SOL     OW29053   1.275   1.653   6.143 -0.1443 -0.4007 -0.2017
 5807SOL    HW129054   1.304   1.710   6.213  1.2736  0.1220 -1.2102
 5807SOL    HW229055   1.195   1.700   6.119  1.2953  1.6864 -0.8827
 5808SOL     OW29056   3.263   0.649   2.508  0.2473  0.0927  0.0807
 5808SOL    HW129057   3.279   0.657   2.602 -0.2634  0.0853  0.1639
 5808SOL    HW229058   3.266   0.740   2.478  2.1197 -0.0417 -0.1910
 5809SOL     OW29059   0.396   2.984   7.379 -0.1410 -0.0541 -0.0099
 5809SOL    HW129060   0.439   2.907   7.416  2.1766  1.1375 -0.2249
 5809SOL    HW229061   0.324   3.002   7.440 -0.3562  0.8865 -0.5363
 5810SOL     OW29062   2.728   1.637   6.102 -0.1807 -0.3455 -0.3947
 5810SOL    HW129063   2.724   1.716   6.048  1.1556  0.4640  0.6862
 5810SOL    HW229064   2.720   1.567   6.037  2.4139 -0.8236 -0.1875
 5811SOL     OW29065   1.336   2.407  14.007 -0.3889  0.5020  0.1127
 5811SOL    HW129066   1.405   2.346  14.035 -0.7291  0.4848  0.9144
 5811SOL    HW229067   1.256   2.365  14.037  1.2413 -2.7573 -0.0543
 5812SOL     OW29068   0.769   1.784   5.600  0.1111  0.0151 -0.2334
 5812SOL    HW129069   0.858   1.759   5.575  0.6234  0.5511  1.0531
 5812SOL    HW229070   0.746   1.707   5.651  0.6442  0.3747  0.5508
 5813SOL     OW29071   0.233   1.140   6.641  0.2810 -0.5457  0.0176
 5813SOL    HW129072   0.162   1.177   6.588 -1.4480 -0.0990  2.6233
 5813SOL    HW229073   0.291   1.204   6.601 -0.2233 -1.8523 -2.8496
 5814SOL     OW29074   0.620   1.830  12.696  0.3885 -0.0640 -0.2160
 5814SOL    HW129075   0.545   1.811  12.640 -0.4244 -1.2339  1.2867
 5814SOL    HW229076   0.603   1.919  12.727 -0.9531 -0.8240  1.2286
 5815SOL     OW29077   2.981   1.328   2.661 -0.4212 -0.0580 -0.1904
 5815SOL    HW129078   3.045   1.398   2.673 -0.1773 -0.4137  0.5642
 5815SOL    HW229079   3.015   1.258   2.717 -0.1488 -0.2851 -0.6423
 5816SOL     OW29080   4.484   2.845   0.547  0.2703 -0.0648 -0.1703
 5816SOL    HW129081   4.518   2.840   0.457 -0.0960  1.1177 -0.3738
 5816SOL    HW229082   4.448   2.758   0.564 -1.2671  0.5284 -0.4378
 5817SOL     OW29083   2.183   4.036   9.278  0.1252 -0.2852  0.0504
 5817SOL    HW129084   2.236   4.039   9.198 -0.0269  0.9819 -0.0097
 5817SOL    HW229085   2.174   3.941   9.285 -0.8754 -0.2338 -0.6400
 5818SOL     OW29086   0.264   0.538   8.352  0.1479 -0.2850 -0.0150
 5818SOL    HW129087   0.212   0.458   8.352 -0.7838  0.3223 -0.8804
 5818SOL    HW229088   0.285   0.557   8.260 -0.4911 -1.1776 -0.3341
 5819SOL     OW29089   3.160   0.901   7.647 -0.7948 -0.8000 -0.3067
 5819SOL    HW129090   3.164   0.942   7.733 -0.2385  2.2485 -1.7951
 5819SOL    HW229091   3.251   0.874   7.640 -0.1041  1.2125  0.9698
 5820SOL     OW29092   4.607   0.008   4.629 -0.5869 -0.3019 -0.0268
 5820SOL    HW129093   4.641   4.730   4.541  0.0105  0.5196  0.0561
 5820SOL    HW229094   4.674   0.064   4.669  0.8070 -1.2531 -1.0406
 5821SOL     OW29095   0.852   0.219   6.990 -0.1054  0.1830  0.1286
 5821SOL    HW129096   0.924   0.207   6.927 -1.3691  0.4186 -1.3495
 5821SOL    HW229097   0.833   0.128   7.012  1.9578 -0.2083  0.3451
 5822SOL     OW29098   1.728   1.414   7.664 -0.3078  0.4059  0.4185
 5822SOL    HW129099   1.639   1.437   7.637 -1.0586 -1.8849  0.9492
 5822SOL    HW229100   1.722   1.320   7.648  2.6967  0.2043  0.5264
 5823SOL     OW29101   2.100   3.724   2.594  0.9200  0.2544 -0.2961
 5823SOL    HW129102   2.104   3.632   2.621 -0.2484  0.4628  0.5479
 5823SOL    HW229103   2.189   3.751   2.617  1.7587 -0.3957 -2.7514
 5824SOL     OW29104   0.203   1.498   3.593 -0.1276 -0.5346  0.4428
 5824SOL    HW129105   0.232   1.588   3.604 -0.6062 -0.3450  0.1545
 5824SOL    HW229106   0.153   1.474   3.671 -0.6852 -0.2416  0.1765
 5825SOL     OW29107   0.984   4.131   0.617  0.3027  0.4587 -0.2186
 5825SOL    HW129108   0.980   4.142   0.712  1.3090 -0.2987 -0.0907
 5825SOL    HW229109   0.900   4.088   0.597  1.8632 -2.6685 -0.0418
 5826SOL     OW29110   0.807   4.254  11.178 -0.4854  0.0601  0.5020
 5826SOL    HW129111   0.797   4.211  11.093  0.4241 -0.0551  0.4554
 5826SOL    HW229112   0.757   4.334  11.159 -0.3277  0.2136  0.7363
 5827SOL     OW29113   2.982   1.006   2.678 -0.3779  0.1341 -0.1104
 5827SOL    HW129114   2.954   0.918   2.651  1.6834 -0.5578 -0.0246
 5827SOL    HW229115   2.921   1.059   2.627  0.2649  0.7676 -0.2157
 5828SOL     OW29116   4.422   2.533   7.636  0.3748  0.1676  0.0047
 5828SOL    HW129117   4.445   2.616   7.679  1.3486 -0.6561  1.0655
 5828SOL    HW229118   4.503   2.484   7.627  0.4057  0.1675  0.2743
 5829SOL     OW29119   4.096   3.261  14.711 -0.1804 -0.2787  0.3238
 5829SOL    HW129120   4.052   3.279  14.795 -5.0720 -1.7078 -1.9542
 5829SOL    HW229121   4.154   3.336  14.722 -0.3401  0.2524 -2.4238
 5830SOL     OW29122   2.076   1.708  10.465 -0.0987  0.2895  0.8014
 5830SOL    HW129123   1.997   1.744  10.426 -0.2460  1.4471  2.1302
 5830SOL    HW229124   2.112   1.660  10.391 -0.0855 -0.7465  1.4862
 5831SOL     OW29125   2.141   2.886   0.958 -0.2150  0.6589 -0.3576
 5831SOL    HW129126   2.157   2.866   0.866  0.1301 -0.6356 -0.0216
 5831SOL    HW229127   2.183   2.971   0.968  0.6154 -0.0500  2.4905
 5832SOL     OW29128   3.152   3.261   8.605  0.3043 -0.2373 -0.6026
 5832SOL    HW129129   3.132   3.239   8.514  0.8490 -0.3522 -0.6977
 5832SOL    HW229130   3.074   3.302   8.643  1.6198 -0.0735  1.8866
 5833SOL     OW29131   3.650   1.004   3.407  0.5119 -0.5915  0.3005
 5833SOL    HW129132   3.578   0.944   3.426  2.6714 -2.0728  3.7561
 5833SOL    HW229133   3.726   0.946   3.401  0.0330 -0.9311 -2.3451
 5834SOL     OW29134   3.474   2.183  10.427  0.1953 -0.0286  0.4532
 5834SOL    HW129135   3.471   2.105  10.371  1.8526  0.6353 -0.5624
 5834SOL    HW229136   3.380   2.198  10.434  0.4259  1.5775  0.0406
 5835SOL     OW29137   0.781   3.658   6.216 -0.0023  0.1491  0.2101
 5835SOL    HW129138   0.725   3.603   6.161 -1.2208  0.6322  0.9724
 5835SOL    HW229139   0.780   3.603   6.294  1.7241  3.1053  2.3056
 5836SOL     OW29140   1.455   0.528   8.260  0.4557 -0.4264 -0.1446
 5836SOL    HW129141   1.537   0.546   8.307 -0.2784 -1.6326  1.5778
 5836SOL    HW229142   1.475   0.511   8.168 -1.9848  4.8081 -1.6407
 5837SOL     OW29143   2.649   4.292  15.093  0.2403  0.4219  0.0563
 5837SOL    HW129144   2.640   4.257  15.004  1.1620 -2.2098  1.0174
 5837SOL    HW229145   2.569   4.343  15.107 -1.0194 -1.7208  0.5931
 5838SOL     OW29146   4.178   0.669   1.788  0.6540  0.2954  0.2355
 5838SOL    HW129147   4.209   0.616   1.861 -0.8809  0.3308  0.9145
 5838SOL    HW229148   4.095   0.703   1.822 -0.9820 -3.3739  0.0513
 5839SOL     OW29149   4.297   0.602   3.773 -0.5089  0.3543  0.5287
 5839SOL    HW129150   4.227   0.593   3.837 -0.7442  1.2694  0.4054
 5839SOL    HW229151   4.377   0.616   3.824 -0.0034  1.1784 -0.4701
 5840SOL     OW29152   4.264   0.822   4.501 -0.3185  0.2863 -0.1567
 5840SOL    HW129153   4.275   0.913   4.529  1.2347  0.1213 -0.2549
 5840SOL    HW229154   4.333   0.809   4.437 -0.1177  0.9885 -0.0879
 5841SOL     OW29155   2.780   0.530   9.114  0.1873 -0.4250  0.3346
 5841SOL    HW129156   2.754   0.562   9.028  0.5192 -0.6580  0.1484
 5841SOL    HW229157   2.752   0.438   9.112 -3.6217  0.6996  1.2625
 5842SOL     OW29158   2.537   0.821   9.735 -0.0925  0.0817  0.0546
 5842SOL    HW129159   2.470   0.817   9.667  0.7423 -1.1805 -0.6832
 5842SOL    HW229160   2.490   0.778   9.808 -0.8200  0.3222 -0.2706
 5843SOL     OW29161   3.262   0.172   4.941  0.4513  0.1137 -0.2835
 5843SOL    HW129162   3.208   0.250   4.931  1.2050  0.8653  1.4222
 5843SOL    HW229163   3.340   0.213   4.905  2.5629 -0.5782  3.4666
 5844SOL     OW29164   4.474   3.420   8.196  0.3112  0.4030  0.3982
 5844SOL    HW129165   4.409   3.442   8.130  0.2675 -2.0570 -0.3596
 5844SOL    HW229166   4.544   3.485   8.189 -0.2539  1.0924  1.0072
 5845SOL     OW29167   2.671   3.195  16.309  0.2210  0.3038 -0.3331
 5845SOL    HW129168   2.754   3.216  16.266  1.1224 -1.2469  0.6375
 5845SOL    HW229169   2.650   3.105  16.284 -0.9741  0.4645  0.0974
 5846SOL     OW29170   1.335   1.595   1.954 -0.8077  0.5197 -0.6907
 5846SOL    HW129171   1.370   1.661   1.894 -0.6562  1.1101  0.0314
 5846SOL    HW229172   1.239   1.595   1.946 -0.8760  0.8043  0.1278
 5847SOL     OW29173   4.711   1.624  15.494  0.5298 -0.3562 -0.5624
 5847SOL    HW129174   0.031   1.619  15.417  0.3399 -2.6257 -0.5732
 5847SOL    HW229175   4.728   1.549  15.552 -1.5070  0.6777  1.3475
 5848SOL     OW29176   3.102   0.359  12.684 -0.2550 -0.0313  0.2767
 5848SOL    HW129177   3.043   0.377  12.757 -0.3010  0.2031  0.1819
 5848SOL    HW229178   3.176   0.414  12.708 -0.4439  1.0074 -1.5258
 5849SOL     OW29179   0.813   0.009   8.402 -0.1057  0.1001  0.3199
 5849SOL    HW129180   0.776   0.071   8.464 -0.3892  0.3748 -0.1234
 5849SOL    HW229181   0.783   0.043   8.317  1.8960 -2.1390 -1.2802
 5850SOL     OW29182   4.466   0.578   2.004  0.0194 -0.0921  0.6950
 5850SOL    HW129183   4.514   0.622   2.074 -0.1041 -1.4456  1.6089
 5850SOL    HW229184   4.391   0.553   2.057  1.3644 -0.0634  2.5911
 5851SOL     OW29185   1.654   2.462   1.876  0.0243 -0.7641  0.5125
 5851SOL    HW129186   1.621   2.397   1.937  0.7239 -2.4789 -0.8971
 5851SOL    HW229187   1.713   2.507   1.936  1.7015 -3.9568  1.2697
 5852SOL     OW29188   3.556   0.802   5.841  0.6039  0.0201  0.7963
 5852SOL    HW129189   3.602   0.750   5.907 -1.3854 -0.5922  1.7264
 5852SOL    HW229190   3.475   0.818   5.890 -0.9288  0.7322 -1.9814
 5853SOL     OW29191   3.502   1.302   2.824 -0.1167  0.2384  0.4601
 5853SOL    HW129192   3.552   1.314   2.743  1.1296  1.6078  1.4352
 5853SOL    HW229193   3.506   1.389   2.864  2.1512  0.9029 -1.2093
 5854SOL     OW29194   0.347   4.707   6.123  0.6040  0.6685 -0.1741
 5854SOL    HW129195   0.357   4.659   6.040 -0.9588 -0.9189  0.5796
 5854SOL    HW229196   0.282   0.036   6.099  0.8400  0.3147 -1.8313
 5855SOL     OW29197   1.382   1.535   9.391  0.6419  0.1124  0.0881
 5855SOL    HW129198   1.473   1.563   9.396  0.7096 -0.0821 -0.0532
 5855SOL    HW229199   1.349   1.607   9.444 -0.2308 -0.8659  0.8762
 5856SOL     OW29200   1.921   1.798   4.675  0.2091  0.4636  0.3644
 5856SOL    HW129201   1.895   1.846   4.596  3.0266  0.3723 -0.6297
 5856SOL    HW229202   1.921   1.866   4.741  0.2199 -1.3239  2.1984
 5857SOL     OW29203   2.515   4.040   5.902  0.3305 -0.2521  0.2757
 5857SOL    HW129204   2.573   4.113   5.881  2.4757 -1.8259  0.7154
 5857SOL    HW229205   2.561   3.959   5.879  0.4063  0.1378 -0.9800
 5858SOL     OW29206   4.062   2.057  14.248 -0.1943 -0.2194 -0.4860
 5858SOL    HW129207   4.140   2.007  14.221 -1.8161 -1.4112 -2.9584
 5858SOL    HW229208   4.095   2.146  14.260  1.2688 -0.7181 -0.7961
 5859SOL     OW29209   2.123   3.526   6.663 -0.2065  0.5233 -0.0478
 5859SOL    HW129210   2.152   3.616   6.681 -0.8202  1.0560 -1.7964
 5859SOL    HW229211   2.028   3.536   6.658 -0.2956 -0.5465 -0.5362
 5860SOL     OW29212   1.418   2.949   4.900  0.7976 -0.4187 -0.0459
 5860SOL    HW129213   1.344   2.950   4.960  1.5005  0.9841  0.8016
 5860SOL    HW229214   1.467   3.025   4.933  1.6060 -1.0205  0.1383
 5861SOL     OW29215   4.607   4.637  12.099 -0.5040  0.5459 -0.1359
 5861SOL    HW129216   4.598   4.728  12.070 -1.9265  1.1724  2.2850
 5861SOL    HW229217   4.670   4.655  12.168  1.8655 -0.1951 -2.0945
 5862SOL     OW29218   4.252   0.923  17.119  0.3560  0.0075  0.4794
 5862SOL    HW129219   4.242   0.844  17.065 -2.6607 -0.2193  1.3856
 5862SOL    HW229220   4.242   0.987  17.049  2.3868 -1.3378 -1.0743
 5863SOL     OW29221   1.268   0.471   3.974  0.8757  0.7646  0.0399
 5863SOL    HW129222   1.243   0.499   3.885 -0.4727 -0.6562 -0.0274
 5863SOL    HW229223   1.359   0.500   3.977  0.5105  2.1318 -1.9675
 5864SOL     OW29224   0.682   2.844   8.406  0.1709  0.3140  0.6470
 5864SOL    HW129225   0.772   2.866   8.384 -0.3018  2.7898  1.1839
 5864SOL    HW229226   0.638   2.929   8.405 -0.5975 -0.0887 -0.0123
 5865SOL     OW29227   0.051   4.290   9.052  0.1970  0.0867  0.5565
 5865SOL    HW129228   0.128   4.266   9.000  1.4052  4.7138  0.2159
 5865SOL    HW229229   4.737   4.346   8.993 -0.4332  0.3522  1.3657
 5866SOL     OW29230   2.345   2.089   6.433  0.3084  0.0019 -0.1545
 5866SOL    HW129231   2.259   2.049   6.425 -0.2241  0.8785  1.2033
 5866SOL    HW229232   2.330   2.184   6.431 -1.2978 -0.2904 -2.1814
 5867SOL     OW29233   0.400   2.707  17.424  0.3035 -0.3668 -0.2390
 5867SOL    HW129234   0.464   2.640  17.400 -0.0027 -0.1913 -1.5496
 5867SOL    HW229235   0.324   2.656  17.451  0.3994 -0.3436  0.0755
 5868SOL     OW29236   1.705   3.650   1.647  0.2799 -0.8167  0.1939
 5868SOL    HW129237   1.686   3.709   1.574 -2.5952  0.1779  1.7576
 5868SOL    HW229238   1.699   3.708   1.723 -0.8567  1.2124 -1.4674
 5869SOL     OW29239   0.427   2.378   9.015  0.3456 -0.3268  0.6744
 5869SOL    HW129240   0.483   2.360   8.939 -1.3747 -0.3409 -0.5834
 5869SOL    HW229241   0.469   2.333   9.088  1.1348 -0.3396  0.2215
 5870SOL     OW29242   4.294   2.514   4.505  0.5223 -0.5245 -0.1454
 5870SOL    HW129243   4.279   2.520   4.410  1.0363  0.9420 -0.1315
 5870SOL    HW229244   4.369   2.572   4.516  0.3007 -0.6907  2.1542
 5871SOL     OW29245   2.408   2.906  15.244 -0.2417 -0.2438  0.2890
 5871SOL    HW129246   2.408   2.911  15.340 -1.0031  1.6377  0.1913
 5871SOL    HW229247   2.397   2.811  15.245 -0.0762 -0.2706 -0.4250
 5872SOL     OW29248   4.543   3.652  11.184  0.1706 -0.2595 -0.0304
 5872SOL    HW129249   4.530   3.571  11.234  0.2326 -0.4930 -0.3975
 5872SOL    HW229250   4.488   3.712  11.234  0.7945 -0.3402  0.7474
 5873SOL     OW29251   3.368   2.800   9.449  0.3073 -0.4355 -0.1912
 5873SOL    HW129252   3.343   2.805   9.356 -3.0134 -1.2881  0.6537
 5873SOL    HW229253   3.317   2.724   9.478  0.5140  0.4313  2.4423
 5874SOL     OW29254   0.487   3.178   1.991  0.3866 -0.3018  0.2044
 5874SOL    HW129255   0.540   3.174   2.071 -0.4717  0.1458  0.7882
 5874SOL    HW229256   0.543   3.125   1.933  1.9664  2.1665 -0.5172
 5875SOL     OW29257   0.235   3.054   9.557  0.8707 -0.2329 -0.0102
 5875SOL    HW129258   0.222   3.007   9.639  1.9317  0.2567  0.4367
 5875SOL    HW229259   0.322   3.021   9.532  0.5056 -1.0168 -0.2236
 5876SOL     OW29260   4.260   1.795   7.723  0.1124 -0.8255  0.2520
 5876SOL    HW129261   4.186   1.735   7.737 -1.3918  0.8240 -0.6245
 5876SOL    HW229262   4.313   1.792   7.802  1.6598  1.1067 -0.7115
 5877SOL     OW29263   3.073   0.543   5.387  0.0075 -0.4483 -0.5153
 5877SOL    HW129264   3.110   0.524   5.301  0.1489 -0.4813 -0.4487
 5877SOL    HW229265   3.098   0.461   5.429  1.1634  0.4033  0.4758
 5878SOL     OW29266   0.766   1.782   6.174  0.1421 -0.1611  0.3480
 5878SOL    HW129267   0.714   1.753   6.099  2.3939 -0.8154 -0.9951
 5878SOL    HW229268   0.734   1.724   6.243 -0.8557  1.0430  0.8818
 5879SOL     OW29269   4.721   3.203   7.979 -0.4838  0.5667  0.3783
 5879SOL    HW129270   4.715   3.292   7.944  1.2530 -0.5150 -2.6247
 5879SOL    HW229271   4.735   3.224   8.071  0.5324  1.7344 -0.0511
 5880SOL     OW29272   1.302   3.857   4.705 -0.2035  0.1458 -0.6083
 5880SOL    HW129273   1.382   3.819   4.669 -0.3427 -0.0484 -0.7119
 5880SOL    HW229274   1.272   3.908   4.630  0.4788 -2.3704 -2.6255
 5881SOL     OW29275   0.810   3.485   9.193  0.1440 -0.2657  0.4394
 5881SOL    HW129276   0.838   3.542   9.265  0.3852  0.1816 -0.0093
 5881SOL    HW229277   0.759   3.430   9.253 -0.1740 -0.6613 -0.1982
 5882SOL     OW29278   2.653   2.543   1.171 -0.3093  0.1450 -0.7440
 5882SOL    HW129279   2.627   2.501   1.253 -2.3831  1.1342 -0.9075
 5882SOL    HW229280   2.667   2.631   1.208 -0.7704 -0.5553  1.1249
 5883SOL     OW29281   2.964   4.042   7.242  0.1268  0.2200 -0.0620
 5883SOL    HW129282   3.012   4.076   7.318 -0.7646 -0.1022  0.6510
 5883SOL    HW229283   3.037   4.014   7.186  0.8481 -1.3288  1.6503
 5884SOL     OW29284   2.141   1.056   3.382  0.5978 -0.3073 -0.1227
 5884SOL    HW129285   2.063   1.001   3.372  0.1563 -0.3077  3.4123
 5884SOL    HW229286   2.195   1.012   3.317  1.7064 -0.6692  1.0507
 5885SOL     OW29287   1.510   1.714  10.655 -0.4616 -0.2400  0.3040
 5885SOL    HW129288   1.593   1.752  10.683 -1.3122  1.5792  0.3883
 5885SOL    HW229289   1.482   1.671  10.736 -0.0507 -0.7337  0.1842
 5886SOL     OW29290   3.045   2.204   3.884 -0.0056  0.7625  0.3296
 5886SOL    HW129291   3.130   2.239   3.858  0.5202 -0.5011  0.3398
 5886SOL    HW229292   2.985   2.228   3.813  0.0937  1.4507  0.4774
 5887SOL     OW29293   1.349   3.647   8.688  0.5064 -0.2082  0.1715
 5887SOL    HW129294   1.273   3.648   8.630 -0.6652  1.0162  1.7310
 5887SOL    HW229295   1.299   3.677   8.764  0.4464 -1.1172  0.4900
 5888SOL     OW29296   0.677   0.579   6.595  0.2736  0.4975 -0.0576
 5888SOL    HW129297   0.609   0.557   6.531  0.6951 -0.9737 -0.0137
 5888SOL    HW229298   0.717   0.495   6.619 -0.9086  0.4474  1.7367
 5889SOL     OW29299   3.955   4.255  17.097  0.7693  0.4230  0.0482
 5889SOL    HW129300   3.861   4.270  17.087  1.1080  2.7788  0.2634
 5889SOL    HW229301   3.977   4.322  17.163 -0.5743  2.0902 -1.2135
 5890SOL     OW29302   3.686   1.177   8.336  0.3534 -0.2154  0.3583
 5890SOL    HW129303   3.721   1.246   8.280 -0.2501  0.3668  0.6968
 5890SOL    HW229304   3.760   1.120   8.358  0.7796 -0.1163 -0.8450
 5891SOL     OW29305   3.383   0.209  15.070  0.0799 -0.1303  0.4678
 5891SOL    HW129306   3.448   0.277  15.088  0.2795 -0.2133  0.0660
 5891SOL    HW229307   3.352   0.197  15.160  0.2568  0.7686  0.6484
 5892SOL     OW29308   3.794   0.042  13.366 -0.1998 -0.1042  0.1078
 5892SOL    HW129309   3.783   0.135  13.387  0.6491  0.7504 -3.2563
 5892SOL    HW229310   3.763   4.735  13.445 -1.7666 -1.7297 -1.4163
 5893SOL     OW29311   1.161   2.366   1.553 -0.6578 -0.0238  0.2035
 5893SOL    HW129312   1.197   2.292   1.602 -2.7950  0.7378  2.8947
 5893SOL    HW229313   1.157   2.434   1.620 -0.7317 -1.3575  1.5382
 5894SOL     OW29314   4.633   2.964   5.728 -0.4423  0.0845 -0.0368
 5894SOL    HW129315   4.574   2.888   5.735 -0.0072 -0.1989  0.6338
 5894SOL    HW229316   4.714   2.914   5.742  0.6466  2.4694  2.1858
 5895SOL     OW29317   0.756   1.489   8.988  0.3546 -0.1321 -0.0612
 5895SOL    HW129318   0.762   1.464   9.080  1.6319 -0.6639 -0.2910
 5895SOL    HW229319   0.693   1.430   8.945  0.5884  0.0645 -0.6761
 5896SOL     OW29320   3.325   3.910   6.516  0.5566  0.9248  0.0798
 5896SOL    HW129321   3.253   3.930   6.456 -0.5717 -1.5146  0.6355
 5896SOL    HW229322   3.304   3.824   6.550  0.3611  0.3055 -1.5974
 5897SOL     OW29323   2.758   2.690   5.250  0.4901  0.9326 -1.0071
 5897SOL    HW129324   2.761   2.622   5.317  2.5277  3.1531  1.1929
 5897SOL    HW229325   2.828   2.754   5.264  0.1378  0.6958  1.7931
 5898SOL     OW29326   4.360   0.828   6.904  0.0226  0.0689 -0.8739
 5898SOL    HW129327   4.444   0.787   6.882  1.2416  1.9189  0.3387
 5898SOL    HW229328   4.352   0.906   6.850 -0.5581  0.4325 -0.2650
 5899SOL     OW29329   1.479   3.425   6.608  0.4001 -0.1512  0.2999
 5899SOL    HW129330   1.511   3.418   6.698  2.3399 -2.7919 -0.6204
 5899SOL    HW229331   1.392   3.453   6.638  0.2525 -0.6335  0.3330
 5900SOL     OW29332   3.858   1.534   7.343 -0.2542 -0.6498 -0.5073
 5900SOL    HW129333   3.829   1.477   7.415  1.2621 -0.4427  0.2614
 5900SOL    HW229334   3.772   1.547   7.303 -0.2769 -2.0347 -0.9329
 5901SOL     OW29335   0.911   2.150   3.648 -0.5667 -0.6933  0.0374
 5901SOL    HW129336   0.869   2.065   3.656 -0.0473 -0.7767  1.8575
 5901SOL    HW229337   0.971   2.153   3.722 -0.7583 -1.7684  0.2298
 5902SOL     OW29338   2.266   1.247   4.948  0.0512 -1.1398 -0.3737
 5902SOL    HW129339   2.292   1.168   4.995  0.1766 -0.4644  0.6861
 5902SOL    HW229340   2.254   1.210   4.861  0.2198 -0.2813 -0.7685
 5903SOL     OW29341   0.468   1.230   5.269 -0.3528  0.0936 -0.2097
 5903SOL    HW129342   0.553   1.255   5.304  0.6413 -1.3852 -1.5239
 5903SOL    HW229343   0.434   1.154   5.317  1.3394 -0.6740 -0.1824
 5904SOL     OW29344   3.299   1.919   8.215 -0.4221 -0.0239  0.0421
 5904SOL    HW129345   3.313   1.973   8.137 -0.6514 -0.2183 -0.1335
 5904SOL    HW229346   3.204   1.913   8.218 -0.3023 -1.4488  0.6644
 5905SOL     OW29347   2.596   2.020   0.560 -0.4352  0.8032 -0.1298
 5905SOL    HW129348   2.657   1.979   0.498 -1.7791  0.4415 -1.2202
 5905SOL    HW229349   2.633   2.104   0.585  0.1535  0.5414 -0.1164
 5906SOL     OW29350   1.378   1.999  16.325 -0.2095 -0.0882 -0.0849
 5906SOL    HW129351   1.427   1.920  16.302 -0.4694 -1.0231  2.5557
 5906SOL    HW229352   1.313   1.949  16.374  0.6252  0.2846  1.4126
 5907SOL     OW29353   3.965   4.354   2.620  0.0695 -0.1414  0.1757
 5907SOL    HW129354   3.979   4.449   2.619 -0.8707 -0.0149 -1.1679
 5907SOL    HW229355   3.924   4.347   2.534  0.9446  3.0890 -0.5149
 5908SOL     OW29356   1.193   2.146  17.485 -0.1002 -0.3120  0.7399
 5908SOL    HW129357   1.191   2.206  17.560 -0.4609 -1.9198  2.0138
 5908SOL    HW229358   1.282   2.114  17.477  0.0398  0.3174 -0.1740
 5909SOL     OW29359   0.808   4.284   8.612  0.0525 -0.4811  0.2103
 5909SOL    HW129360   0.772   4.340   8.543 -1.4704 -2.2147 -0.4108
 5909SOL    HW229361   0.777   4.203   8.573  0.2103  0.2275 -1.4211
 5910SOL     OW29362   2.995   1.986  14.489 -0.8290 -0.2460 -0.2050
 5910SOL    HW129363   2.910   1.950  14.515 -1.1546  1.4010  1.0294
 5910SOL    HW229364   2.984   2.029  14.405 -0.9265  2.0552  0.9681
 5911SOL     OW29365   1.730   1.769   5.870 -0.5213 -0.3229  0.3635
 5911SOL    HW129366   1.777   1.773   5.953 -0.0804  0.8661  0.0571
 5911SOL    HW229367   1.645   1.801   5.901 -0.3207  0.7528 -0.1996
 5912SOL     OW29368   0.112   1.893   9.137 -0.2474  1.0642 -0.3855
 5912SOL    HW129369   0.126   1.800   9.154  1.8035  1.1880 -1.2974
 5912SOL    HW229370   0.031   1.909   9.184 -0.7236 -0.6868 -0.5971
 5913SOL     OW29371   4.056   3.579   4.694 -0.3909  0.2702  0.3941
 5913SOL    HW129372   4.074   3.485   4.696  1.6010  0.6656  1.5943
 5913SOL    HW229373   4.068   3.584   4.789 -0.5992  0.7932  0.3886
 5914SOL     OW29374   2.319   3.870   0.141 -0.5364  0.1077 -1.0148
 5914SOL    HW129375   2.409   3.837   0.146 -0.7472 -0.1812  1.1271
 5914SOL    HW229376   2.324   3.934   0.212 -1.4252 -2.3454  1.2739
 5915SOL     OW29377   0.977   3.924   7.397  0.0904  0.7354  0.0707
 5915SOL    HW129378   1.038   3.995   7.416 -1.3887  1.1778  3.1238
 5915SOL    HW229379   0.949   3.905   7.486 -2.6360  2.1465 -0.4914
 5916SOL     OW29380   1.446   0.764   4.702  0.8674  0.2806 -0.2307
 5916SOL    HW129381   1.351   0.776   4.700  0.5957 -1.4604  2.2372
 5916SOL    HW229382   1.478   0.825   4.636 -1.2590  1.4730 -0.1703
 5917SOL     OW29383   2.548   1.638  17.095 -0.0209  0.2662 -0.1924
 5917SOL    HW129384   2.598   1.563  17.063  2.8814  0.3800  3.9873
 5917SOL    HW229385   2.567   1.633  17.189 -0.5683 -0.3167 -0.1097
 5918SOL     OW29386   4.409   0.403   6.763 -0.1424 -0.9059  0.2458
 5918SOL    HW129387   4.431   0.405   6.670  1.0793  2.1773  0.5905
 5918SOL    HW229388   4.488   0.432   6.808  0.1525  0.9532 -1.4741
 5919SOL     OW29389   0.766   1.847   9.722  0.1672  0.1533  0.1868
 5919SOL    HW129390   0.761   1.752   9.714  0.5637 -0.0220  1.9012
 5919SOL    HW229391   0.813   1.858   9.805  1.3989  1.2656 -0.6646
 5920SOL     OW29392   3.074   1.452   6.780 -0.2938  0.3792 -0.2319
 5920SOL    HW129393   3.019   1.470   6.704 -0.0469  1.8126 -0.0645
 5920SOL    HW229394   3.129   1.529   6.792  0.6555 -0.4978  1.0898
 5921SOL     OW29395   2.497   0.964  15.186  0.3251 -0.2601 -0.2769
 5921SOL    HW129396   2.537   0.886  15.147 -1.5868 -0.3902 -1.9587
 5921SOL    HW229397   2.418   0.930  15.227 -0.7373  0.5268 -1.6577
 5922SOL     OW29398   0.641   4.680  15.553 -0.0682  0.0294 -1.0733
 5922SOL    HW129399   0.731   4.649  15.567 -0.4318 -0.6454 -0.2589
 5922SOL    HW229400   0.590   4.605  15.582  1.0824 -0.1510  0.5069
 5923SOL     OW29401   1.927   1.580   1.181  0.2835 -0.0611 -0.4121
 5923SOL    HW129402   1.997   1.624   1.133  0.8767 -0.8512 -0.2790
 5923SOL    HW229403   1.856   1.573   1.118 -1.4184  0.3150  1.4680
 5924SOL     OW29404   4.214   4.260   3.645  0.2944 -0.6077 -0.4876
 5924SOL    HW129405   4.266   4.297   3.717  2.0196 -0.5709 -1.7375
 5924SOL    HW229406   4.175   4.340   3.609  1.4578  1.4790  2.8780
 5925SOL     OW29407   2.332   3.343   6.659  0.0341  0.7800  0.8070
 5925SOL    HW129408   2.267   3.412   6.660 -1.8924 -1.0162  0.2447
 5925SOL    HW229409   2.277   3.272   6.692 -0.6403  1.4296  1.0679
 5926SOL     OW29410   2.566   4.506   2.140 -0.1588 -0.7094 -0.1283
 5926SOL    HW129411   2.512   4.578   2.173  0.8390 -0.0277  0.0071
 5926SOL    HW229412   2.553   4.442   2.210  0.4976  0.9350  1.4628
 5927SOL     OW29413   3.003   1.062   6.927  0.3116 -0.8653 -0.2335
 5927SOL    HW129414   3.058   1.031   6.999  0.4607 -0.2891 -0.1021
 5927SOL    HW229415   3.029   1.003   6.856  0.6354 -0.4126 -0.4927
 5928SOL     OW29416   2.745   2.777  16.363 -0.0819 -0.2629 -0.4855
 5928SOL    HW129417   2.739   2.866  16.399  0.9679 -0.1210 -0.6514
 5928SOL    HW229418   2.674   2.788  16.300 -0.1038  2.3604 -0.0352
 5929SOL     OW29419   3.790   4.331   9.752  0.0191 -0.3779 -0.5453
 5929SOL    HW129420   3.699   4.360   9.755 -0.0311 -0.5320 -0.5664
 5929SOL    HW229421   3.792   4.291   9.665 -0.0883 -1.8505  0.1222
 5930SOL     OW29422   4.207   3.674   6.347 -0.1851 -0.2783  0.0502
 5930SOL    HW129423   4.136   3.612   6.364  0.6498 -1.2457 -0.0158
 5930SOL    HW229424   4.154   3.738   6.299  0.6947  1.7242  1.7314
 5931SOL     OW29425   1.711   2.898   4.140  0.0673  0.0209 -0.5910
 5931SOL    HW129426   1.644   2.946   4.189  0.4830  1.6326 -1.6252
 5931SOL    HW229427   1.722   2.817   4.191  1.6587  2.4653  2.9747
 5932SOL     OW29428   2.525   1.674   2.460  0.3729  0.1340 -0.1764
 5932SOL    HW129429   2.570   1.589   2.458 -1.2138 -0.7411  2.0377
 5932SOL    HW229430   2.475   1.653   2.538  3.6200 -1.0299  1.5762
 5933SOL     OW29431   0.929   4.432   3.725 -0.0356  0.6824  0.1792
 5933SOL    HW129432   0.998   4.496   3.741  0.2066 -0.1726  2.4929
 5933SOL    HW229433   0.870   4.483   3.669 -0.0882 -0.0219 -0.4103
 5934SOL     OW29434   3.659   2.419   9.571 -0.0291 -0.5093 -0.3746
 5934SOL    HW129435   3.679   2.509   9.547  0.6872 -1.2422 -2.5972
 5934SOL    HW229436   3.677   2.418   9.665  0.2296  2.9807 -0.3925
 5935SOL     OW29437   0.202   3.668   9.564  0.4500 -0.0851  0.5495
 5935SOL    HW129438   0.189   3.749   9.612  1.5679  0.3627  0.0882
 5935SOL    HW229439   0.275   3.622   9.606  0.4948 -0.1689  0.3799
 5936SOL     OW29440   0.657   3.142   9.946 -0.2092 -0.4997  0.2659
 5936SOL    HW129441   0.632   3.117  10.035 -0.6945 -3.4980 -0.6901
 5936SOL    HW229442   0.661   3.061   9.895 -0.2529 -0.6159  0.4465
 5937SOL     OW29443   1.255   1.185   2.370  0.3667  0.6651  0.4260
 5937SOL    HW129444   1.209   1.192   2.286 -0.7527  3.3479  1.2504
 5937SOL    HW229445   1.329   1.245   2.357  1.2748  0.2465  3.5799
 5938SOL     OW29446   0.583   1.965  13.875  0.2670 -0.4866  0.2903
 5938SOL    HW129447   0.658   1.940  13.930 -0.7557 -0.0281  1.9123
 5938SOL    HW229448   0.519   1.978  13.945  0.9548 -1.5520  1.1086
 5939SOL     OW29449   0.368   0.814   3.594  0.0021  0.3761  0.3072
 5939SOL    HW129450   0.349   0.866   3.671  0.2098 -1.2306  1.4505
 5939SOL    HW229451   0.332   0.731   3.624 -0.9733  0.4944 -0.5431
 5940SOL     OW29452   2.985   1.563   3.710 -0.7427 -0.3294  0.1421
 5940SOL    HW129453   2.942   1.569   3.795 -0.0708 -0.6381  0.4997
 5940SOL    HW229454   3.072   1.535   3.737 -1.1728 -1.7620  0.0215
 5941SOL     OW29455   3.552   2.786  13.113  0.4257  0.1284 -0.8049
 5941SOL    HW129456   3.636   2.750  13.085  0.1996  0.7387 -2.2541
 5941SOL    HW229457   3.500   2.706  13.122  2.3215 -1.3102 -2.6000
 5942SOL     OW29458   1.335   2.354   7.010  0.0951 -0.3820  0.1874
 5942SOL    HW129459   1.330   2.346   7.105 -0.0306  1.3170  0.3155
 5942SOL    HW229460   1.242   2.368   6.993  0.4826 -0.2841 -1.8049
 5943SOL     OW29461   2.182   4.694   7.046  0.2567 -0.3609 -0.1291
 5943SOL    HW129462   2.200   4.621   7.106 -0.5257 -1.4974 -1.2703
 5943SOL    HW229463   2.224   0.028   7.093  0.7755 -1.2726  0.7995
 5944SOL     OW29464   2.980   1.329  15.304  0.4373  0.1353  0.0601
 5944SOL    HW129465   3.041   1.290  15.241 -1.1040 -1.1722 -0.6317
 5944SOL    HW229466   2.899   1.282  15.287  0.1119  1.0478 -0.8888
 5945SOL     OW29467   4.439   2.547   4.896  0.2925  0.2832 -0.0310
 5945SOL    HW129468   4.430   2.556   4.991  0.7270 -1.1400  0.1528
 5945SOL    HW229469   4.349   2.545   4.863 -0.7278 -1.2651  2.8942
 5946SOL     OW29470   1.981   1.310   1.201  0.0981  0.6309 -0.3864
 5946SOL    HW129471   1.946   1.398   1.188  0.0873  0.6903  0.0571
 5946SOL    HW229472   2.071   1.308   1.166  0.2307  0.4781 -0.0356
 5947SOL     OW29473   3.991   1.060   5.097 -0.5422 -0.1421 -0.1326
 5947SOL    HW129474   3.973   0.969   5.072  1.5430 -0.5396 -0.1637
 5947SOL    HW229475   4.086   1.069   5.094 -0.7984  1.8443 -2.7120
 5948SOL     OW29476   0.475   3.278   4.425 -0.3375  0.2423 -0.1983
 5948SOL    HW129477   0.415   3.204   4.415  2.0326 -1.7239  0.0891
 5948SOL    HW229478   0.417   3.344   4.465  1.4816  0.5371  1.9265
 5949SOL     OW29479   1.100   4.136  16.040 -0.6557  0.4076 -0.2170
 5949SOL    HW129480   1.114   4.155  16.133  2.7673 -0.3476 -0.5633
 5949SOL    HW229481   1.192   4.149  16.014  0.4875  1.8240  4.4885
 5950SOL     OW29482   1.837   3.438   8.529 -0.4966  0.5345  0.0084
 5950SOL    HW129483   1.875   3.390   8.603  0.2516 -1.0355 -1.3683
 5950SOL    HW229484   1.775   3.374   8.493  0.4909  0.6852 -1.9626
 5951SOL     OW29485   4.264   2.422   6.133 -0.5577 -0.0564 -0.4477
 5951SOL    HW129486   4.211   2.499   6.110 -0.1729  0.7042  1.1929
 5951SOL    HW229487   4.295   2.394   6.047 -0.6553  0.6463 -0.7135
 5952SOL     OW29488   3.858   0.906   6.520 -0.0455  0.0988 -0.6112
 5952SOL    HW129489   3.895   0.988   6.551 -3.4199  1.1895  0.4710
 5952SOL    HW229490   3.789   0.955   6.475  0.7215  2.2671  0.5817
 5953SOL     OW29491   3.190   4.173   5.409  0.3115 -0.1145  0.1031
 5953SOL    HW129492   3.187   4.077   5.410  0.5908 -0.1229 -0.3923
 5953SOL    HW229493   3.262   4.203   5.465  1.0635 -0.3961 -0.7219
 5954SOL     OW29494   2.037   1.279   4.198  0.4601  0.2701 -0.8157
 5954SOL    HW129495   2.100   1.351   4.192 -0.3016  1.0797  0.9034
 5954SOL    HW229496   2.025   1.262   4.104 -0.3885 -0.6462 -0.5392
 5955SOL     OW29497   1.327   0.828  13.962 -0.1085 -0.0347  0.1159
 5955SOL    HW129498   1.310   0.826  14.057 -0.3031 -1.4999  0.0633
 5955SOL    HW229499   1.293   0.740  13.942  0.5392 -0.3023  0.1726
 5956SOL     OW29500   2.015   2.068   3.317 -0.2089  0.0959 -0.2089
 5956SOL    HW129501   2.026   1.975   3.298  2.2915  0.5659 -1.1545
 5956SOL    HW229502   2.103   2.096   3.291  0.5813 -0.2768  2.0598
 5957SOL     OW29503   4.177   0.811   7.095  0.2786  0.1752  0.2039
 5957SOL    HW129504   4.235   0.800   7.019 -1.8522 -2.3120 -1.0421
 5957SOL    HW229505   4.097   0.837   7.049 -0.5530  1.2419  2.2752
 5958SOL     OW29506   0.832   0.945   7.627  0.6554 -0.4206 -0.2051
 5958SOL    HW129507   0.826   1.021   7.569  2.3116  0.7291  1.1440
 5958SOL    HW229508   0.792   0.985   7.704 -2.2589 -1.1308 -1.3358
 5959SOL     OW29509   4.439   2.888  15.516 -0.2833 -0.0977 -0.2808
 5959SOL    HW129510   4.363   2.863  15.463  0.5700 -1.8882 -0.6735
 5959SOL    HW229511   4.508   2.841  15.470 -2.1578 -3.3922  0.2545
 5960SOL     OW29512   2.703   1.611  12.711 -0.0972 -0.2569 -0.8007
 5960SOL    HW129513   2.691   1.522  12.744 -1.4204  0.4697  0.6855
 5960SOL    HW229514   2.767   1.645  12.773 -0.7789 -1.7613  0.7335
 5961SOL     OW29515   3.937   0.192   7.308 -0.1522  0.3637  0.6761
 5961SOL    HW129516   3.891   0.272   7.282  0.9008  1.0919  1.0672
 5961SOL    HW229517   4.006   0.215   7.370  0.7981  0.5416 -0.4475
 5962SOL     OW29518   2.044   2.385   6.341 -0.7467 -0.1238 -0.2878
 5962SOL    HW129519   2.078   2.373   6.252  0.0972  0.4296 -0.0368
 5962SOL    HW229520   2.117   2.352   6.394 -2.2409 -1.7106  0.7812
 5963SOL     OW29521   3.054   0.978  14.669  1.1232 -0.1143  0.0363
 5963SOL    HW129522   2.998   0.900  14.669  2.5601 -1.1452  0.8599
 5963SOL    HW229523   3.078   0.998  14.578  1.8293  0.2700  0.3089
 5964SOL     OW29524   2.951   1.313   6.983  0.0256  0.2715 -0.0915
 5964SOL    HW129525   2.968   1.226   6.946  1.8032  0.3504  0.5496
 5964SOL    HW229526   2.998   1.378   6.930  0.7234  1.2101  1.6899
 5965SOL     OW29527   4.024   3.994   4.627 -0.5151  0.4558  0.3292
 5965SOL    HW129528   3.962   3.937   4.672  0.5957  0.9444  2.4701
 5965SOL    HW229529   4.094   3.928   4.634 -2.8618 -2.0851 -0.2101
 5966SOL     OW29530   4.195   2.721   6.420  0.0982 -0.1728 -0.3445
 5966SOL    HW129531   4.176   2.659   6.349 -0.6538 -0.0531 -0.2416
 5966SOL    HW229532   4.241   2.666   6.484  0.1466  1.9650  1.4509
 5967SOL     OW29533   3.726   1.642   2.787  0.1427  0.3941 -0.5103
 5967SOL    HW129534   3.680   1.637   2.871  1.6864  2.0084  0.4316
 5967SOL    HW229535   3.807   1.686   2.813 -0.3631  2.5225 -2.4937
 5968SOL     OW29536   1.624   0.587   4.779  0.1486 -0.7243  0.7322
 5968SOL    HW129537   1.565   0.659   4.754  3.0934  1.5058  0.2014
 5968SOL    HW229538   1.701   0.631   4.814  1.2804 -1.6069 -0.6618
 5969SOL     OW29539   4.271   1.535   0.039 -0.1715  0.5843  0.3662
 5969SOL    HW129540   4.281   1.447   0.077  2.5991  0.4313 -0.6963
 5969SOL    HW229541   4.286   1.585   0.119  0.0320 -1.9726  1.9463
 5970SOL     OW29542   2.131   1.858   8.178 -0.0874 -0.4309  0.5378
 5970SOL    HW129543   2.182   1.786   8.215  1.1124 -1.1947 -2.6134
 5970SOL    HW229544   2.194   1.877   8.109 -0.0532 -1.5207  0.2691
 5971SOL     OW29545   0.386   1.332   9.043  0.1132 -0.1734  0.1798
 5971SOL    HW129546   0.361   1.278   9.117  0.4072  0.9345  1.0868
 5971SOL    HW229547   0.406   1.416   9.085 -1.1570  0.7695 -1.0873
 5972SOL     OW29548   2.917   0.366   7.542  0.1984  0.2005  0.1536
 5972SOL    HW129549   2.982   0.374   7.472  0.1645  0.5409  0.1615
 5972SOL    HW229550   2.947   0.302   7.606  2.4951 -0.4790 -1.6313
 5973SOL     OW29551   2.834   1.716   1.833 -0.1965  0.5261  0.2096
 5973SOL    HW129552   2.812   1.629   1.799 -0.4667  0.7242 -0.1171
 5973SOL    HW229553   2.901   1.740   1.768  0.5405  0.2551  0.8651
 5974SOL     OW29554   3.018   3.307   5.222  0.4946  0.2236 -0.4035
 5974SOL    HW129555   3.010   3.354   5.305 -1.4066  1.2322 -1.1701
 5974SOL    HW229556   3.112   3.301   5.207  0.6216  0.2310  0.3691
 5975SOL     OW29557   3.069   4.496  13.629  0.4943 -0.0824  0.6766
 5975SOL    HW129558   3.102   4.412  13.661 -1.0251 -0.4063  1.3942
 5975SOL    HW229559   3.145   4.530  13.582  1.7594 -2.3357  1.0968
 5976SOL     OW29560   2.358   2.376  12.391 -0.0983  0.5612  0.1379
 5976SOL    HW129561   2.326   2.321  12.319 -0.0799  0.5486  0.1395
 5976SOL    HW229562   2.418   2.435  12.345 -0.3416 -0.3495 -1.3657
 5977SOL     OW29563   0.240   4.250   8.813 -0.0676  0.4579 -0.6527
 5977SOL    HW129564   0.231   4.199   8.733 -0.8978 -2.2244  1.1403
 5977SOL    HW229565   0.319   4.302   8.799  0.1701  0.4715  0.6747
 5978SOL     OW29566   4.226   0.557  13.748  0.2709 -0.0681 -0.0377
 5978SOL    HW129567   4.147   0.576  13.798 -0.1115  1.3827 -1.1922
 5978SOL    HW229568   4.271   0.642  13.751  0.7841 -0.3135 -0.7348
 5979SOL     OW29569   1.767   0.114   1.724 -0.1361  0.5125 -0.2919
 5979SOL    HW129570   1.696   0.055   1.700  0.2430  0.3868 -1.0841
 5979SOL    HW229571   1.726   0.155   1.800  0.1508  0.1696  0.0472
 5980SOL     OW29572   1.205   3.607   9.895  0.5090  0.1756 -0.3298
 5980SOL    HW129573   1.213   3.606   9.991 -0.1143  1.6695 -0.2709
 5980SOL    HW229574   1.113   3.579   9.891 -0.1711  2.1153  1.6107
 5981SOL     OW29575   1.848   3.289   6.907  0.2508 -0.1831 -0.4013
 5981SOL    HW129576   1.785   3.248   6.966 -2.0684  1.1674 -1.9317
 5981SOL    HW229577   1.927   3.313   6.955  0.8589 -1.6596 -0.6522
 5982SOL     OW29578   0.441   3.190   3.024 -0.2732 -0.0634 -0.4322
 5982SOL    HW129579   0.412   3.113   3.074 -2.2793  0.5009 -0.7362
 5982SOL    HW229580   0.406   3.164   2.939  0.7667  2.0238 -1.4760
 5983SOL     OW29581   1.297   3.669   2.145  0.4343 -0.3750  0.1540
 5983SOL    HW129582   1.244   3.638   2.071 -0.0697  1.2360 -0.1730
 5983SOL    HW229583   1.229   3.679   2.212  1.0416 -0.1874  0.7290
 5984SOL     OW29584   0.776   3.872   5.023  0.1637  0.1989 -0.3292
 5984SOL    HW129585   0.726   3.937   4.973 -0.5000  0.2437  0.3960
 5984SOL    HW229586   0.866   3.889   4.998 -0.8986  1.6243 -3.1884
 5985SOL     OW29587   2.615   2.698  15.401  0.3592 -0.3108 -0.3237
 5985SOL    HW129588   2.587   2.786  15.426  0.7891 -0.3975  0.4490
 5985SOL    HW229589   2.530   2.653  15.398  0.8463 -1.1691 -1.2811
 5986SOL     OW29590   2.102   1.382  14.981  0.0211  0.0131 -0.0698
 5986SOL    HW129591   2.176   1.351  15.034 -0.4882  0.3320  0.8393
 5986SOL    HW229592   2.126   1.349  14.895  2.7303 -1.7224  1.3402
 5987SOL     OW29593   0.849   4.638  10.956  0.0639  0.0302 -0.0285
 5987SOL    HW129594   0.790   4.563  10.948  1.7567 -1.4638  1.6160
 5987SOL    HW229595   0.937   4.605  10.971 -0.2253 -0.7828 -0.1246
 5988SOL     OW29596   0.758   1.764   9.133  0.7765  0.2884  0.8917
 5988SOL    HW129597   0.743   1.681   9.087 -1.3841  1.3944 -0.3597
 5988SOL    HW229598   0.668   1.793   9.150  1.1339  2.0176 -0.2274
 5989SOL     OW29599   0.797   0.059  12.004  0.2307 -0.3173 -0.3355
 5989SOL    HW129600   0.735   0.116  11.958  0.7353 -0.9406 -1.7633
 5989SOL    HW229601   0.809   0.104  12.088 -0.7394  1.7092 -1.2644
 5990SOL     OW29602   3.725   3.919   4.032 -0.2028 -0.5444  0.1157
 5990SOL    HW129603   3.770   3.994   3.993  0.6609 -0.8244  0.5718
 5990SOL    HW229604   3.640   3.921   3.987  0.9346  0.5024 -1.9544
 5991SOL     OW29605   0.459   1.315   4.125  0.8873 -0.0361 -0.2430
 5991SOL    HW129606   0.484   1.241   4.070  0.2066  0.5988 -1.3782
 5991SOL    HW229607   0.366   1.324   4.105  0.6039 -2.8998 -0.2182
 5992SOL     OW29608   3.825   0.755   9.730 -0.3356 -0.3987 -0.1743
 5992SOL    HW129609   3.780   0.793   9.805 -2.6302 -3.6016  0.0984
 5992SOL    HW229610   3.836   0.663   9.754 -0.2798 -0.1266  0.8075
 5993SOL     OW29611   0.618   3.033   5.772  0.1114 -0.3177  0.1238
 5993SOL    HW129612   0.700   3.033   5.723  1.1468 -0.5501  1.8460
 5993SOL    HW229613   0.594   3.125   5.772 -1.6728 -0.7847 -0.2202
 5994SOL     OW29614   2.819   3.742   2.344  0.4805  0.0627  0.8454
 5994SOL    HW129615   2.900   3.701   2.317  0.3741  1.0668 -1.0422
 5994SOL    HW229616   2.827   3.817   2.284  0.4517  0.5670  1.4685
 5995SOL     OW29617   1.040   0.570  12.379 -0.1507  0.1947 -0.4985
 5995SOL    HW129618   1.100   0.563  12.304  0.8369  0.4038  0.2883
 5995SOL    HW229619   0.994   0.648  12.348 -1.9878  0.6031  3.3371
 5996SOL     OW29620   2.949   1.527   7.893  0.1144  0.1460  0.0437
 5996SOL    HW129621   2.901   1.578   7.827  0.0972 -0.3799 -0.3548
 5996SOL    HW229622   2.900   1.446   7.879  0.9224 -0.3478  0.0890
 5997SOL     OW29623   2.009   3.917   3.100  0.0722  0.4995  0.7757
 5997SOL    HW129624   2.017   4.006   3.065 -1.3932  0.0106 -0.8176
 5997SOL    HW229625   2.059   3.918   3.182  1.5523  2.2461 -0.1512
 5998SOL     OW29626   1.688   2.322   6.920 -0.5527 -0.0614  0.3553
 5998SOL    HW129627   1.756   2.299   6.856 -0.2597 -0.8627  0.9424
 5998SOL    HW229628   1.642   2.239   6.935  0.0235 -0.7637 -1.7057
 5999SOL     OW29629   0.815   3.056   5.607 -0.2211  0.2361 -0.0436
 5999SOL    HW129630   0.852   3.139   5.577  0.6811 -1.0166 -2.4599
 5999SOL    HW229631   0.899   3.013   5.619 -0.4265 -0.2838 -0.4426
 6000SOL     OW29632   1.756   3.454  11.777 -0.0339 -0.2048 -0.0126
 6000SOL    HW129633   1.723   3.367  11.755  2.3159 -0.7731 -1.3560
 6000SOL    HW229634   1.767   3.445  11.872 -0.1416  0.0184  0.0214
 6001SOL     OW29635   4.259   4.077   5.708 -0.0276  0.3971 -0.5358
 6001SOL    HW129636   4.256   4.008   5.774 -2.7271  0.8354 -0.1764
 6001SOL    HW229637   4.249   4.156   5.762 -2.0089 -0.1557 -0.0792
 6002SOL     OW29638   2.992   2.972   2.274 -0.1279  0.1099 -0.3093
 6002SOL    HW129639   3.026   2.900   2.220 -4.2323 -2.7270  0.9517
 6002SOL    HW229640   3.061   2.979   2.340 -0.0628  0.3749 -0.4050
 6003SOL     OW29641   4.485   4.510   6.934 -0.4270  0.1605  0.1741
 6003SOL    HW129642   4.391   4.526   6.928 -0.1007  1.1980 -2.2850
 6003SOL    HW229643   4.519   4.502   6.844 -1.0456  1.3867 -0.1666
 6004SOL     OW29644   4.207   2.485  12.140  0.2928  0.1999 -0.3797
 6004SOL    HW129645   4.196   2.476  12.046  0.3168  0.6145 -0.4192
 6004SOL    HW229646   4.118   2.499  12.172  0.2838 -0.3911 -0.1344
 6005SOL     OW29647   3.912   2.345   4.233 -0.0040  0.0179  0.2481
 6005SOL    HW129648   3.878   2.399   4.160 -0.2778 -0.9417 -0.3310
 6005SOL    HW229649   3.930   2.410   4.301 -0.0073  0.1943  0.0833
 6006SOL     OW29650   1.314   3.039   1.114 -0.1801 -0.9222  0.3272
 6006SOL    HW129651   1.375   2.972   1.148 -0.7953 -1.5190  0.2583
 6006SOL    HW229652   1.291   3.077   1.199  1.8018 -1.4157  1.0802
 6007SOL     OW29653   3.704   2.935   1.079  0.5245  0.0405 -0.0805
 6007SOL    HW129654   3.684   2.847   1.047  1.4804 -0.4865  0.7637
 6007SOL    HW229655   3.667   2.985   1.007 -1.8762  0.0622  1.1931
 6008SOL     OW29656   4.234   0.676   9.629 -0.7586 -0.0853 -0.1428
 6008SOL    HW129657   4.202   0.614   9.563  1.9273  0.3925 -1.9164
 6008SOL    HW229658   4.229   0.620   9.706  2.2083 -2.5018 -1.7223
 6009SOL     OW29659   0.896   4.193   8.318  0.0417  0.2091  0.0448
 6009SOL    HW129660   0.858   4.114   8.357  0.2694 -0.4828 -1.1447
 6009SOL    HW229661   0.990   4.181   8.333 -0.5419  0.0442  3.6974
 6010SOL     OW29662   0.520   4.671  11.734 -0.5913  0.1339  0.1676
 6010SOL    HW129663   0.446   4.616  11.708  0.3924 -0.5363 -1.1873
 6010SOL    HW229664   0.516   4.670  11.830 -1.2589 -1.5449  0.1147
 6011SOL     OW29665   2.572   2.954   3.708  0.5608 -0.0983 -0.5102
 6011SOL    HW129666   2.642   3.012   3.736 -0.8848  1.5121 -0.1949
 6011SOL    HW229667   2.495   3.007   3.731  0.4301 -1.1398  1.4167
 6012SOL     OW29668   3.013   1.484   3.301 -0.6826  0.4251  0.3157
 6012SOL    HW129669   3.062   1.404   3.321  0.3941  1.1410  0.4971
 6012SOL    HW229670   3.006   1.473   3.206 -2.0945  2.5776  0.1732
 6013SOL     OW29671   3.907   0.793  10.350 -0.5599 -0.6733  0.5108
 6013SOL    HW129672   3.975   0.819  10.413  0.6445  0.9953 -1.4673
 6013SOL    HW229673   3.945   0.708  10.329 -1.1734 -1.1744  1.4318
 6014SOL     OW29674   4.390   0.650   5.056  0.0519  0.2367 -0.3940
 6014SOL    HW129675   4.388   0.691   5.142 -1.5254 -0.3192 -0.1783
 6014SOL    HW229676   4.302   0.617   5.040 -0.1005  1.0191 -1.1433
 6015SOL     OW29677   1.922   3.595  13.537  0.0922 -0.2225  0.4101
 6015SOL    HW129678   1.836   3.617  13.504 -0.6696 -0.8900  1.9414
 6015SOL    HW229679   1.960   3.683  13.548  0.8137 -0.3606 -0.9786
 6016SOL     OW29680   1.409   0.365   6.501 -0.2249  0.3897 -0.5739
 6016SOL    HW129681   1.365   0.418   6.434  1.2544 -1.0558 -2.6784
 6016SOL    HW229682   1.495   0.404   6.485 -0.4117  0.1069 -2.3138
 6017SOL     OW29683   1.413   1.953   8.468  1.1849  0.5395  0.0736
 6017SOL    HW129684   1.348   1.923   8.532  3.4128 -0.7880  1.7093
 6017SOL    HW229685   1.382   1.909   8.388  0.2934 -0.1991  0.8180
 6018SOL     OW29686   4.279   4.433   7.300 -0.2369  0.4727 -0.0694
 6018SOL    HW129687   4.310   4.393   7.381  0.8020  1.6270  0.1141
 6018SOL    HW229688   4.371   4.441   7.275  0.1660 -2.4144  0.4542
 6019SOL     OW29689   2.917   3.347   3.432 -0.6765  0.1674  0.5795
 6019SOL    HW129690   2.942   3.284   3.365  1.1492  1.1471  0.3282
 6019SOL    HW229691   2.962   3.426   3.403  2.4783 -1.4221  1.0736
 6020SOL     OW29692   2.440   0.971   9.399 -0.3890  0.3890  0.1642
 6020SOL    HW129693   2.404   0.884   9.419 -3.8704  2.3007  2.2889
 6020SOL    HW229694   2.527   0.961   9.438 -0.6397 -2.2218  0.0321
 6021SOL     OW29695   3.069   1.437   8.232 -0.5792  0.1414 -0.2343
 6021SOL    HW129696   3.153   1.475   8.205 -0.7366  1.1952  0.8230
 6021SOL    HW229697   3.069   1.349   8.193  1.0679  0.3529 -0.7140
 6022SOL     OW29698   0.240   4.565  11.699  0.5282 -0.4469 -0.4662
 6022SOL    HW129699   0.221   4.483  11.744  2.7620 -1.1839 -0.8935
 6022SOL    HW229700   0.203   4.628  11.761  1.4027 -1.8265  1.4329
 6023SOL     OW29701   0.532   2.120  11.929  0.3240  0.2464 -0.0575
 6023SOL    HW129702   0.586   2.074  11.865  1.5564  0.7890  0.5921
 6023SOL    HW229703   0.599   2.170  11.976 -0.9976 -0.8791  3.0590
 6024SOL     OW29704   0.659   4.117   7.493  0.0457 -0.2654  0.0483
 6024SOL    HW129705   0.688   4.099   7.404 -1.1077 -0.6487 -0.2428
 6024SOL    HW229706   0.662   4.213   7.501 -0.1667 -0.3631  1.2824
 6025SOL     OW29707   4.095   2.926   8.171  0.4180  0.3485  0.2585
 6025SOL    HW129708   4.115   2.970   8.088  0.1688  0.5093  0.2834
 6025SOL    HW229709   4.011   2.966   8.193  0.2901 -0.6906  1.6594
 6026SOL     OW29710   0.862   2.348   8.164  0.3021 -0.1197  0.5628
 6026SOL    HW129711   0.936   2.324   8.108  1.0055  0.2843  1.3284
 6026SOL    HW229712   0.799   2.282   8.133  0.3414 -0.5454  1.3979
 6027SOL     OW29713   3.951   2.898   2.537 -0.4588  0.2823 -0.0004
 6027SOL    HW129714   3.886   2.904   2.606 -0.9372 -1.9778 -0.2634
 6027SOL    HW229715   3.897   2.874   2.462 -0.2074  1.5121 -0.5807
 6028SOL     OW29716   0.432   2.702  15.966  0.6297 -0.0263  0.5858
 6028SOL    HW129717   0.422   2.789  15.929  0.0467  0.1024  1.0580
 6028SOL    HW229718   0.355   2.696  16.022 -0.6656  1.6518 -1.0202
 6029SOL     OW29719   1.990   2.492   8.773 -1.0251 -0.3899  0.4350
 6029SOL    HW129720   1.971   2.477   8.865 -1.6793  0.5721  0.4524
 6029SOL    HW229721   2.014   2.404   8.745  1.4034 -0.7546  3.6107
 6030SOL     OW29722   4.099   1.242   8.263  0.3929 -0.2259  0.1258
 6030SOL    HW129723   4.074   1.327   8.228 -1.2499  0.1191  2.1779
 6030SOL    HW229724   4.103   1.195   8.179  1.9677  0.7336 -0.3387
 6031SOL     OW29725   1.167   2.085   9.257  0.2214  0.1312  0.6918
 6031SOL    HW129726   1.216   2.018   9.305 -0.9691 -1.3062 -0.0806
 6031SOL    HW229727   1.241   2.130   9.217 -1.1376  0.2443 -1.7054
 6032SOL     OW29728   4.110   2.513  17.304 -0.3882 -0.0420 -0.4760
 6032SOL    HW129729   4.175   2.479  17.365 -1.5122 -0.5846  0.4117
 6032SOL    HW229730   4.115   2.441  17.241  2.7372 -0.6198  0.4262
 6033SOL     OW29731   2.540   0.146  15.269  0.1640 -0.0316 -0.6230
 6033SOL    HW129732   2.545   0.217  15.206 -0.0029  1.2517  0.8156
 6033SOL    HW229733   2.446   0.137  15.280  0.3185 -0.1555  0.5663
 6034SOL     OW29734   2.446   1.779  10.470 -0.0365 -0.0190  0.0526
 6034SOL    HW129735   2.422   1.870  10.450  1.8189  0.1704 -1.3475
 6034SOL    HW229736   2.541   1.787  10.461  0.0940 -0.3429  1.1982
 6035SOL     OW29737   0.342   3.738   5.514  0.1884 -0.5196 -0.1412
 6035SOL    HW129738   0.331   3.744   5.419  0.4561 -2.3239 -0.2817
 6035SOL    HW229739   0.362   3.831   5.530 -3.4132  0.2172  0.1048
 6036SOL     OW29740   3.424   3.222   7.545 -0.2540 -0.0580  0.6153
 6036SOL    HW129741   3.337   3.198   7.578  0.4078 -1.9710  0.9613
 6036SOL    HW229742   3.405   3.255   7.457  0.0446 -0.9014  0.2360
 6037SOL     OW29743   1.257   0.171   1.965 -0.7993  0.0566 -0.7177
 6037SOL    HW129744   1.218   0.128   1.889  0.4173 -0.1189 -1.2408
 6037SOL    HW229745   1.338   0.122   1.981 -0.2043  1.4777  0.5839
 6038SOL     OW29746   0.864   0.971  11.490 -1.0058 -0.3399  0.5917
 6038SOL    HW129747   0.848   0.983  11.584 -1.4106  0.0770  0.4709
 6038SOL    HW229748   0.956   0.945  11.484 -0.9971 -0.8807  3.2821
 6039SOL     OW29749   2.385   4.180   7.600 -0.8902  0.4456 -0.3006
 6039SOL    HW129750   2.409   4.089   7.581 -2.5888 -0.0082 -0.2551
 6039SOL    HW229751   2.446   4.196   7.671 -0.5914  1.9080 -0.8784
 6040SOL     OW29752   0.844   1.592   8.232  0.3149  0.3664  0.3271
 6040SOL    HW129753   0.906   1.539   8.283  1.4086  0.1280 -1.2556
 6040SOL    HW229754   0.836   1.670   8.287  2.1672  0.1978  0.8508
 6041SOL     OW29755   1.686   0.190   9.227 -0.0506  0.3403 -0.0712
 6041SOL    HW129756   1.757   0.148   9.178 -0.2521  0.2537 -0.2877
 6041SOL    HW229757   1.706   0.193   9.321  2.7348  1.3697 -0.6909
 6042SOL     OW29758   1.985   0.270   1.484  0.6700 -0.5843  0.5693
 6042SOL    HW129759   2.027   0.334   1.541 -1.3732  0.4486  0.9234
 6042SOL    HW229760   1.974   0.304   1.395 -3.6963 -1.4548  0.7650
 6043SOL     OW29761   4.487   3.553  17.520  0.0452 -0.3374 -0.4008
 6043SOL    HW129762   4.410   3.500  17.538 -0.2689  0.4073  0.5047
 6043SOL    HW229763   4.453   3.643  17.515  0.8137 -0.0546 -0.4567
 6044SOL     OW29764   4.720   3.608   3.558  0.2688  0.4192  0.8121
 6044SOL    HW129765   4.642   3.598   3.504  0.9652  1.3439 -0.3647
 6044SOL    HW229766   0.036   3.639   3.486 -1.1507  1.9030  0.3923
 6045SOL     OW29767   2.966   3.234   7.832 -0.1434  0.1037 -0.7357
 6045SOL    HW129768   2.980   3.206   7.742  3.3116  1.0058 -0.4726
 6045SOL    HW229769   2.892   3.295   7.831 -1.0209 -0.9381 -0.2006
 6046SOL     OW29770   2.630   2.650   0.536  0.1776  0.7784 -0.3077
 6046SOL    HW129771   2.670   2.733   0.561 -0.0629  0.4357  1.2055
 6046SOL    HW229772   2.643   2.648   0.441 -0.9554  1.4115 -0.4832
 6047SOL     OW29773   2.756   4.596   2.555 -0.2795  0.4946 -0.5812
 6047SOL    HW129774   2.841   4.634   2.533  0.7175 -1.5156 -0.1584
 6047SOL    HW229775   2.708   4.609   2.473 -2.1482 -0.8155  0.2988
 6048SOL     OW29776   3.154   1.814   2.321  0.4120 -0.4697  0.2212
 6048SOL    HW129777   3.188   1.728   2.346  0.7524 -1.1551 -2.6480
 6048SOL    HW229778   3.195   1.840   2.239  2.4247 -2.2679  0.6730
 6049SOL     OW29779   1.256   2.021   5.343 -0.1899 -0.3208 -0.2116
 6049SOL    HW129780   1.214   2.060   5.419 -0.4182  1.9661 -1.5329
 6049SOL    HW229781   1.206   2.051   5.267 -0.4898 -1.0984 -0.3263
 6050SOL     OW29782   2.099   1.858   7.672 -0.3548 -0.5651  0.4799
 6050SOL    HW129783   2.174   1.806   7.700  0.8417  1.9709  2.0362
 6050SOL    HW229784   2.030   1.810   7.718  0.5058  0.7358  3.1355
 6051SOL     OW29785   2.751   2.994   4.276 -0.4528  0.0021 -0.2632
 6051SOL    HW129786   2.806   2.963   4.205  0.2984  0.0549  0.2857
 6051SOL    HW229787   2.737   2.910   4.319 -1.2107  0.6098  0.6935
 6052SOL     OW29788   1.567   1.725   6.092 -0.3312 -0.4289 -0.2721
 6052SOL    HW129789   1.517   1.680   6.160 -0.5061 -1.0082 -0.7853
 6052SOL    HW229790   1.647   1.673   6.083 -1.3824 -1.4561 -3.4638
 6053SOL     OW29791   2.242   3.684  16.165  0.1872  0.3009 -0.0402
 6053SOL    HW129792   2.240   3.764  16.112  0.4716 -1.2237 -2.3911
 6053SOL    HW229793   2.307   3.704  16.232  0.7460  1.2120 -0.8666
 6054SOL     OW29794   4.396   0.135  11.928  0.4037 -0.2383  0.3286
 6054SOL    HW129795   4.430   0.071  11.865 -1.0969 -0.5256 -0.1850
 6054SOL    HW229796   4.473   0.189  11.944 -0.3029  1.1409 -0.9881
 6055SOL     OW29797   4.038   3.324   8.926  0.1751 -0.3315 -0.3642
 6055SOL    HW129798   4.006   3.251   8.873 -1.4504  0.9954 -1.1975
 6055SOL    HW229799   4.015   3.405   8.880  0.6184  0.1873  0.3280
 6056SOL     OW29800   0.938   4.034   5.831  0.1866 -0.3825  0.2510
 6056SOL    HW129801   1.021   4.004   5.868  0.7738  0.0519 -0.7169
 6056SOL    HW229802   0.899   3.946   5.824  0.8895 -0.8229  1.8678
 6057SOL     OW29803   0.838   2.775   8.085  0.3559  0.2332 -0.0434
 6057SOL    HW129804   0.783   2.831   8.141 -0.3863 -1.4532  0.8928
 6057SOL    HW229805   0.778   2.715   8.042  0.3161  1.1721 -1.3114
 6058SOL     OW29806   0.670   0.025   9.025 -0.5069  0.4536 -0.0573
 6058SOL    HW129807   0.686   0.049   9.116 -1.3859 -0.5580  0.3629
 6058SOL    HW229808   0.681   4.668   9.031  0.9002  0.5813 -0.7662
 6059SOL     OW29809   4.023   2.342   7.956  0.4589 -0.0499  0.1970
 6059SOL    HW129810   4.116   2.325   7.941  0.4709 -0.4235  0.7145
 6059SOL    HW229811   4.029   2.376   8.045  0.7531 -0.4749  0.3389
 6060SOL     OW29812   3.368   1.717   3.669  0.0934  0.2356  0.1545
 6060SOL    HW129813   3.326   1.671   3.596  0.0708  0.4717  0.0209
 6060SOL    HW229814   3.354   1.659   3.744  1.0912  1.4931  1.3139
 6061SOL     OW29815   2.632   0.257   1.749  0.1417 -0.1916 -0.3989
 6061SOL    HW129816   2.548   0.251   1.703 -0.0953 -1.5138  0.1911
 6061SOL    HW229817   2.674   0.175   1.723  0.7365 -1.2177  3.7266
 6062SOL     OW29818   4.176   3.617   3.770  0.3237 -0.1091  0.0919
 6062SOL    HW129819   4.129   3.563   3.834 -0.1175 -0.4972 -0.5599
 6062SOL    HW229820   4.245   3.658   3.821  0.5644 -0.0519 -0.2822
 6063SOL     OW29821   1.491   3.232  12.782 -0.5125 -0.0116 -0.4518
 6063SOL    HW129822   1.426   3.302  12.776 -0.2410  0.0278 -2.8908
 6063SOL    HW229823   1.438   3.153  12.773 -1.0196  0.1209  1.2814
 6064SOL     OW29824   3.140   0.874   1.056 -0.3582  0.0582  0.0711
 6064SOL    HW129825   3.135   0.798   1.114  1.8001  0.0966  0.2942
 6064SOL    HW229826   3.054   0.861   1.015  1.5666 -1.1577 -3.5890
 6065SOL     OW29827   2.876   2.089   5.632  0.0972 -0.1038 -0.3938
 6065SOL    HW129828   2.895   2.135   5.714 -0.2746  1.7892 -1.3891
 6065SOL    HW229829   2.868   2.001   5.669 -0.7814  0.1489  0.0151
 6066SOL     OW29830   3.426   2.554   8.362  0.5917 -0.4000 -0.1767
 6066SOL    HW129831   3.505   2.500   8.364  0.7787 -0.1241 -0.2229
 6066SOL    HW229832   3.425   2.568   8.267  3.4241  1.6302  0.0963
 6067SOL     OW29833   2.515   4.589   7.893 -0.1863  0.3651  0.4691
 6067SOL    HW129834   2.597   4.553   7.927 -1.2051 -3.3599 -1.0583
 6067SOL    HW229835   2.445   4.529   7.921 -0.6680  0.8939  0.4119
 6068SOL     OW29836   4.393   4.013   7.561  0.7017  0.0607 -0.1093
 6068SOL    HW129837   4.310   4.062   7.570  0.7202  0.1672 -0.5153
 6068SOL    HW229838   4.446   4.055   7.494 -0.2797 -0.6272 -1.3289
 6069SOL     OW29839   3.289   1.602   3.404  0.2843  0.1711  0.0055
 6069SOL    HW129840   3.344   1.527   3.377 -1.1031 -0.2306 -1.6961
 6069SOL    HW229841   3.203   1.588   3.365 -0.4730  1.5963  1.1744
 6070SOL     OW29842   4.522   3.925  17.686  0.1842  1.0179 -0.2367
 6070SOL    HW129843   4.556   3.910   0.025  0.3069  1.3830 -0.2212
 6070SOL    HW229844   4.575   3.860  17.642  2.7061  2.3296  0.8769
 6071SOL     OW29845   0.371   3.320   5.036 -0.4413  0.3007 -0.5100
 6071SOL    HW129846   0.373   3.238   5.086  0.0372 -0.3784 -1.6245
 6071SOL    HW229847   0.389   3.284   4.949 -2.5410  1.5271 -1.4473
 6072SOL     OW29848   3.869   2.535  15.880  0.3600 -0.5932 -0.1045
 6072SOL    HW129849   3.795   2.483  15.848 -0.5586 -0.5529  2.0163
 6072SOL    HW229850   3.940   2.478  15.848 -0.2010 -2.2818  1.6356
 6073SOL     OW29851   2.046   0.096   4.252  0.5109  0.6168 -0.4808
 6073SOL    HW129852   2.128   0.091   4.202  0.9367 -2.4741  0.4833
 6073SOL    HW229853   2.083   0.159   4.313 -0.4260 -0.4961  1.2271
 6074SOL     OW29854   2.589   3.748   5.866 -0.0269 -0.5327  0.6088
 6074SOL    HW129855   2.610   3.654   5.869  1.7551 -0.0522  3.2397
 6074SOL    HW229856   2.501   3.739   5.829  0.9092 -1.0753 -1.4362
 6075SOL     OW29857   1.148   2.953   2.879  0.5760  0.1469 -0.0656
 6075SOL    HW129858   1.243   2.951   2.876  0.5743  0.7996 -0.4281
 6075SOL    HW229859   1.138   3.005   2.959  2.1958  0.5531 -0.1300
 6076SOL     OW29860   1.824   0.053  13.812  0.9078 -0.2558 -0.2287
 6076SOL    HW129861   1.866   0.135  13.787 -1.2552  1.0287  0.3933
 6076SOL    HW229862   1.875   0.037  13.891  0.9827  0.0985 -0.2063
 6077SOL     OW29863   1.732   3.314  14.156 -0.6735 -0.2582  0.3221
 6077SOL    HW129864   1.727   3.298  14.250 -1.3912  0.3535  0.3904
 6077SOL    HW229865   1.684   3.240  14.119 -1.0058 -0.1549  0.5468
 6078SOL     OW29866   2.147   4.563   2.663 -0.1307 -0.2640 -0.4095
 6078SOL    HW129867   2.081   4.494   2.669  0.2747 -0.7479 -1.3282
 6078SOL    HW229868   2.156   4.584   2.570  0.9445  2.7716  0.3664
 6079SOL     OW29869   1.213   0.378   8.122  0.1141  0.0450 -0.0869
 6079SOL    HW129870   1.201   0.290   8.158  0.7572  0.3083  0.7475
 6079SOL    HW229871   1.194   0.434   8.197 -1.4071  0.5450 -0.8466
 6080SOL     OW29872   0.057   4.179  10.114 -0.5279 -0.0390 -0.0993
 6080SOL    HW129873   0.090   4.120  10.182 -0.0330  1.2340  0.7523
 6080SOL    HW229874   0.035   4.259  10.162 -1.2552 -0.9913  1.1620
 6081SOL     OW29875   3.923   1.165   6.593  0.2827  0.4948 -0.1905
 6081SOL    HW129876   3.966   1.195   6.514  2.1012 -0.7008  0.3492
 6081SOL    HW229877   3.860   1.234   6.615 -0.5910 -0.3162 -0.1469
 6082SOL     OW29878   0.889   4.294   1.371  0.0104 -0.3983 -0.5585
 6082SOL    HW129879   0.916   4.323   1.284  0.2159  0.7605 -0.1082
 6082SOL    HW229880   0.930   4.208   1.369 -0.6247 -0.7088 -0.2525
 6083SOL     OW29881   3.144   2.845   8.052 -0.3664 -0.0969 -0.6391
 6083SOL    HW129882   3.095   2.775   8.009 -0.9633 -0.1886  0.2033
 6083SOL    HW229883   3.087   2.921   8.042 -0.4080 -0.1272 -0.6335
 6084SOL     OW29884   0.326   2.888  10.013  0.3712  0.5862  0.0264
 6084SOL    HW129885   0.369   2.946  10.076  0.8770  1.5825 -1.2488
 6084SOL    HW229886   0.288   2.827  10.076  0.2064 -0.3698 -1.0100
 6085SOL     OW29887   2.495   3.119   1.171  0.1439 -0.1998  0.0945
 6085SOL    HW129888   2.535   3.112   1.257 -1.5568 -1.4264  0.8072
 6085SOL    HW229889   2.411   3.154   1.202 -0.1927 -0.9464  0.0385
 6086SOL     OW29890   1.704   0.275   2.994 -0.1218 -0.3736 -0.3705
 6086SOL    HW129891   1.758   0.340   3.040 -0.7727 -0.2672  0.2398
 6086SOL    HW229892   1.612   0.299   3.003 -0.4784 -1.4991 -0.9892
 6087SOL     OW29893   3.563   3.049   8.668  0.0156 -0.2233  0.6714
 6087SOL    HW129894   3.601   3.099   8.596  0.9706 -1.2958  0.4295
 6087SOL    HW229895   3.551   2.962   8.630 -0.5498 -0.7395  2.0128
 6088SOL     OW29896   1.601   2.400  16.187  0.3589 -0.1341 -0.3053
 6088SOL    HW129897   1.572   2.484  16.223 -0.7009 -1.1446  1.1889
 6088SOL    HW229898   1.616   2.344  16.263  0.2583  0.1298 -0.0905
 6089SOL     OW29899   4.470   3.231   0.520  0.1809  0.3321  0.0049
 6089SOL    HW129900   4.393   3.251   0.572 -1.5654  1.8968 -3.2284
 6089SOL    HW229901   4.523   3.175   0.577 -0.8831  1.1139  1.7404
 6090SOL     OW29902   2.557   2.555   4.666 -0.6283 -0.3721 -0.1685
 6090SOL    HW129903   2.653   2.555   4.659 -0.3945 -0.6004  2.7261
 6090SOL    HW229904   2.525   2.623   4.607 -1.3002 -0.0522  0.5590
 6091SOL     OW29905   0.222   4.014   2.136 -0.1559 -0.3110  0.5112
 6091SOL    HW129906   0.262   3.928   2.123 -0.3213  0.1158 -3.0077
 6091SOL    HW229907   0.290   4.043   2.196 -0.8644  2.2794  0.0546
 6092SOL     OW29908   2.683   1.656   8.329  0.5160 -0.3619  0.5243
 6092SOL    HW129909   2.723   1.594   8.390  1.2750  0.3629  0.7680
 6092SOL    HW229910   2.733   1.642   8.248  2.2778 -1.3224  1.7856
 6093SOL     OW29911   1.252   1.285   8.845 -0.0027 -0.6839 -0.2252
 6093SOL    HW129912   1.171   1.334   8.833  0.5342  0.4313  0.7480
 6093SOL    HW229913   1.238   1.253   8.934  2.4885  1.9903  1.1068
 6094SOL     OW29914   3.366   3.567   5.674  0.4925  0.4133  0.3560
 6094SOL    HW129915   3.379   3.475   5.649  1.2203  0.6129  0.0000
 6094SOL    HW229916   3.386   3.601   5.587 -0.1687  1.1343  0.4804
 6095SOL     OW29917   0.005   4.676  13.879 -0.1079 -0.1784 -0.2502
 6095SOL    HW129918   4.726   4.587  13.910  2.0732 -0.2835  0.6186
 6095SOL    HW229919   0.003   4.722  13.963  2.7662  0.4377 -0.5380
 6096SOL     OW29920   2.396   3.877   7.237  0.2811  0.6684  0.3032
 6096SOL    HW129921   2.483   3.845   7.212  0.0942  1.1911 -1.0165
 6096SOL    HW229922   2.409   3.970   7.256 -0.6406  0.5517  1.5015
 6097SOL     OW29923   0.724   0.596   1.453  0.1026 -0.2193  0.3956
 6097SOL    HW129924   0.788   0.526   1.440  1.0455  0.6615  0.2405
 6097SOL    HW229925   0.663   0.539   1.500 -0.0311 -0.5402 -0.1687
 6098SOL     OW29926   0.254   4.036   5.163  0.5236 -0.1254 -0.3780
 6098SOL    HW129927   0.239   4.071   5.075  3.8681  1.1237 -0.4630
 6098SOL    HW229928   0.254   4.115   5.216 -0.9408 -0.3611 -0.0538
 6099SOL     OW29929   2.092   4.551  10.282  0.6151 -0.0042  0.4606
 6099SOL    HW129930   2.048   4.524  10.362  1.8132 -0.4589  0.9621
 6099SOL    HW229931   2.171   4.496  10.283  1.0678  0.6503  0.8336
 6100SOL     OW29932   1.652   1.603   1.834 -0.0417  0.6932  0.3954
 6100SOL    HW129933   1.698   1.654   1.901  3.2907 -2.9828  0.8495
 6100SOL    HW229934   1.616   1.530   1.883  0.1372  1.7265  2.0568
 6101SOL     OW29935   3.497   0.538  10.412  0.1875  0.0431 -0.1620
 6101SOL    HW129936   3.516   0.551  10.505 -0.5028  1.4095 -0.2097
 6101SOL    HW229937   3.423   0.476  10.415  1.1055 -1.1198 -1.3335
 6102SOL     OW29938   0.267   2.071   0.582 -0.1530  0.1040  0.3160
 6102SOL    HW129939   0.306   2.146   0.537  2.8746 -0.9560  1.2179
 6102SOL    HW229940   0.340   2.010   0.583  0.3431  0.6884 -1.6077
 6103SOL     OW29941   1.568   4.445   3.930  0.3925  0.1583  0.5409
 6103SOL    HW129942   1.499   4.510   3.946 -0.9109 -1.3376  0.9940
 6103SOL    HW229943   1.539   4.392   3.856  2.3236 -0.9316  0.5680
 6104SOL     OW29944   3.285   4.595  15.737 -0.4102  0.0336 -0.1567
 6104SOL    HW129945   3.310   4.526  15.676  2.3563  1.1468 -0.3030
 6104SOL    HW229946   3.196   4.566  15.754 -0.3998  1.4837  2.3884
 6105SOL     OW29947   1.129   2.764  14.858  0.0992  0.0958  0.0616
 6105SOL    HW129948   1.196   2.829  14.880 -0.8130  1.0561  0.0011
 6105SOL    HW229949   1.184   2.688  14.842 -0.8267  0.2535 -3.7989
 6106SOL     OW29950   0.902   3.965  11.613  0.4239 -0.3999 -0.1825
 6106SOL    HW129951   0.900   3.923  11.527  0.3657  0.4528 -0.5963
 6106SOL    HW229952   0.973   3.909  11.645 -0.2461 -0.7835  0.6260
 6107SOL     OW29953   3.430   1.312   5.065  0.1808 -0.7849 -0.5456
 6107SOL    HW129954   3.449   1.237   5.122 -0.0613 -1.7394 -1.7321
 6107SOL    HW229955   3.387   1.370   5.128 -2.4913 -1.7514 -1.4848
 6108SOL     OW29956   1.154   3.911   5.945  0.4670  0.2298  0.3619
 6108SOL    HW129957   1.128   3.819   5.955 -0.7968  0.6844  1.3015
 6108SOL    HW229958   1.203   3.917   6.027 -0.0756  0.6977  0.6515
 6109SOL     OW29959   2.625   3.488  16.327 -0.4303  0.2841 -0.0012
 6109SOL    HW129960   2.607   3.543  16.251  0.8389  0.0278 -0.4788
 6109SOL    HW229961   2.674   3.428  16.272 -1.8101  0.7578 -1.7817
 6110SOL     OW29962   4.131   0.865   0.522  0.5543  0.0922 -0.4229
 6110SOL    HW129963   4.114   0.793   0.462 -2.1937  1.3676 -1.1670
 6110SOL    HW229964   4.173   0.815   0.592  0.7503 -1.1409 -1.4238
 6111SOL     OW29965   3.270   3.019   2.106  0.5300 -0.2664 -0.1625
 6111SOL    HW129966   3.329   3.087   2.075 -0.0134 -0.7689 -2.3235
 6111SOL    HW229967   3.211   3.076   2.156  0.1506 -1.6085  0.9245
 6112SOL     OW29968   1.856   4.379  14.795  0.0024 -0.4387 -0.4496
 6112SOL    HW129969   1.836   4.409  14.884  0.3567 -1.8173  0.1040
 6112SOL    HW229970   1.946   4.408  14.779 -0.6865  1.1625 -1.4485
 6113SOL     OW29971   2.400   0.818   6.213  0.4130  0.0458 -0.1794
 6113SOL    HW129972   2.365   0.878   6.146 -0.1767 -0.6543 -0.5014
 6113SOL    HW229973   2.343   0.744   6.194 -1.3564  1.4808 -0.5195
 6114SOL     OW29974   0.550   0.111   6.383  0.1724  0.5892 -0.1231
 6114SOL    HW129975   0.574   0.174   6.315  1.6970 -0.6717 -0.7421
 6114SOL    HW229976   0.582   0.139   6.469 -0.3453  0.1687  0.2096
 6115SOL     OW29977   4.165   3.457  16.381  0.1869 -0.5652 -0.8588
 6115SOL    HW129978   4.162   3.552  16.369 -0.2857 -0.2545  1.6623
 6115SOL    HW229979   4.140   3.431  16.292  0.1498  1.1809 -1.3714
 6116SOL     OW29980   4.143   3.886   1.609  0.2499 -0.4483  0.0903
 6116SOL    HW129981   4.146   3.911   1.517 -0.6146 -0.0439  0.1666
 6116SOL    HW229982   4.079   3.948   1.645  0.0352 -0.7299  0.1972
 6117SOL     OW29983   2.596   4.737  10.494  0.8195 -0.5629 -0.2154
 6117SOL    HW129984   2.540   4.675  10.446  0.1295  0.4564 -0.7169
 6117SOL    HW229985   2.571   0.081  10.450 -1.0133 -0.9379  0.1206
 6118SOL     OW29986   1.012   3.825   6.291 -0.2154  0.5620 -0.6572
 6118SOL    HW129987   0.961   3.889   6.242 -0.4996  0.9798  0.1940
 6118SOL    HW229988   0.984   3.745   6.247 -1.9045  1.9751 -2.1522
 6119SOL     OW29989   1.568   1.351   2.935 -0.1503  0.4389  0.3157
 6119SOL    HW129990   1.540   1.384   3.021 -2.2499  1.8838 -0.9054
 6119SOL    HW229991   1.488   1.349   2.883  1.4579  2.8519 -2.2668
 6120SOL     OW29992   0.385   3.454   2.994 -0.0144 -0.1575 -0.0034
 6120SOL    HW129993   0.397   3.372   3.041 -0.2454 -0.7042 -0.8915
 6120SOL    HW229994   0.474   3.487   2.988  0.3108 -1.2917 -1.7509
 6121SOL     OW29995   3.298   0.721   8.800  0.6984 -0.6333 -0.2533
 6121SOL    HW129996   3.295   0.817   8.794 -1.0941 -0.8347 -2.5604
 6121SOL    HW229997   3.346   0.708   8.718 -0.8256  1.1305 -1.4518
 6122SOL     OW29998   3.235   4.558   5.258 -0.1964 -0.0409 -0.7960
 6122SOL    HW129999   3.323   4.575   5.224 -0.7475  1.8221 -1.3077
 6122SOL    HW230000   3.198   4.515   5.182  2.0003  0.5737 -2.2052
 6123SOL     OW30001   0.973   4.554  13.547 -0.0504 -0.0468  0.0317
 6123SOL    HW130002   0.974   4.459  13.560  0.5305 -0.2008 -1.1736
 6123SOL    HW230003   0.879   4.572  13.541  0.3678  1.9467 -0.4812
 6124SOL     OW30004   4.658   0.080   7.707  0.0028  0.0606  0.1529
 6124SOL    HW130005   4.660   4.723   7.715  1.7362  0.3298  2.8504
 6124SOL    HW230006   4.623   0.093   7.795  2.1052 -0.7820  1.0944
 6125SOL     OW30007   3.650   2.735   3.563  0.1842  0.5874 -0.4163
 6125SOL    HW130008   3.654   2.802   3.495  1.4838  1.4989  0.5856
 6125SOL    HW230009   3.649   2.655   3.510 -1.2249  3.2914 -4.5026
 6126SOL     OW30010   1.949   3.511  14.447 -0.3216  0.1757 -0.0387
 6126SOL    HW130011   1.989   3.591  14.482  1.1379 -0.5715  0.0085
 6126SOL    HW230012   1.873   3.542  14.399  0.6939  1.0780 -1.0454
 6127SOL     OW30013   2.171   0.843   0.284 -0.4490  0.2503 -0.1843
 6127SOL    HW130014   2.218   0.893   0.218 -1.4316 -1.2257 -1.9967
 6127SOL    HW230015   2.243   0.829   0.345  0.9707 -1.2696 -2.2138
 6128SOL     OW30016   0.873   1.226   6.566  0.7897 -0.0847  0.1224
 6128SOL    HW130017   0.794   1.206   6.517  0.9837  1.4774 -0.8245
 6128SOL    HW230018   0.851   1.269   6.648  2.5975  2.4997 -0.7385
 6129SOL     OW30019   2.370   0.883   6.728 -0.0896 -0.4044 -0.0477
 6129SOL    HW130020   2.363   0.804   6.781 -0.6317  0.4951  1.2430
 6129SOL    HW230021   2.318   0.863   6.651 -0.0070 -0.7518 -0.0145
 6130SOL     OW30022   4.538   4.445  14.946  0.0936  0.3910  0.1622
 6130SOL    HW130023   4.530   4.537  14.923  0.5724  0.6372  0.9769
 6130SOL    HW230024   4.599   4.406  14.883  0.1457 -1.3728  1.2963
 6131SOL     OW30025   2.545   1.759   5.490 -0.1482 -0.1192 -0.2031
 6131SOL    HW130026   2.528   1.814   5.566 -1.3895 -0.9767  0.1420
 6131SOL    HW230027   2.609   1.700   5.528  1.9321  1.3339 -1.4383
 6132SOL     OW30028   1.369   0.692   2.813  0.0189 -0.2307  0.6343
 6132SOL    HW130029   1.455   0.652   2.818  0.5851  0.8149 -0.6694
 6132SOL    HW230030   1.401   0.780   2.831  0.8333 -0.3273 -0.3243
 6133SOL     OW30031   2.410   2.268   8.246  0.1868  0.2841 -0.0829
 6133SOL    HW130032   2.476   2.261   8.177  0.5597 -0.4639  0.3511
 6133SOL    HW230033   2.404   2.178   8.277 -1.1988  0.5468  0.3936
 6134SOL     OW30034   1.033   4.093   4.415 -0.2194 -0.0556 -0.0087
 6134SOL    HW130035   1.031   4.149   4.337  0.0646  1.0890  0.8013
 6134SOL    HW230036   1.024   4.002   4.388 -4.3677  1.2556 -3.1193
 6135SOL     OW30037   2.664   0.603   8.617  0.2172 -0.5422  0.2201
 6135SOL    HW130038   2.740   0.631   8.566  0.5626 -0.0184  1.0188
 6135SOL    HW230039   2.656   0.516   8.578  0.8261 -1.3859  1.9847
 6136SOL     OW30040   3.814   1.864  15.678  0.4893  0.4144 -0.0589
 6136SOL    HW130041   3.885   1.856  15.742  1.2684  0.2827 -0.9425
 6136SOL    HW230042   3.744   1.810  15.717  1.2747 -1.3355 -1.0700
 6137SOL     OW30043   1.583   2.024  10.681  0.7271 -0.2255 -0.4061
 6137SOL    HW130044   1.671   1.986  10.685  1.0611  0.4298 -1.4861
 6137SOL    HW230045   1.546   2.009  10.768  1.2118  1.6185  0.1268
 6138SOL     OW30046   1.070   1.929   7.604  0.2001  0.1299  0.4800
 6138SOL    HW130047   1.078   1.974   7.688 -1.7914  2.1524 -0.4243
 6138SOL    HW230048   1.159   1.894   7.599 -0.2666 -1.0156  0.0959
 6139SOL     OW30049   3.698   3.985   2.346  0.3107  0.1026  0.0802
 6139SOL    HW130050   3.611   3.952   2.370 -0.2714  0.3726 -1.6723
 6139SOL    HW230051   3.757   3.946   2.411  1.2469  1.5728  0.0979
 6140SOL     OW30052   2.513   1.803   6.026  0.0496 -0.0324  0.3581
 6140SOL    HW130053   2.479   1.760   6.105  1.8165 -0.7841  0.7039
 6140SOL    HW230054   2.434   1.854   6.008 -0.7004 -1.6997 -1.0967
 6141SOL     OW30055   4.474   1.286   9.211 -0.0772  0.1075  0.6507
 6141SOL    HW130056   4.440   1.301   9.123  0.0621  0.9768  0.7432
 6141SOL    HW230057   4.418   1.215   9.241 -1.2654 -0.2041 -2.2629
 6142SOL     OW30058   1.522   0.137   4.072  0.0767  0.2537 -0.5610
 6142SOL    HW130059   1.494   0.218   4.029  4.2277  0.7685 -2.2422
 6142SOL    HW230060   1.617   0.139   4.072  0.1219 -1.1443  2.1186
 6143SOL     OW30061   1.236   1.782  14.876 -0.3356  0.2927  0.1800
 6143SOL    HW130062   1.230   1.788  14.971  0.7643 -1.0288  0.3334
 6143SOL    HW230063   1.153   1.820  14.848  1.2124  3.5953 -0.0187
 6144SOL     OW30064   0.129   1.177   8.121  0.1573 -0.2408  0.9793
 6144SOL    HW130065   0.218   1.183   8.155  1.0837  0.8886 -1.5996
 6144SOL    HW230066   0.088   1.122   8.187  1.1147  0.4787  2.1652
 6145SOL     OW30067   0.835   2.330   5.088 -0.1738 -0.3492  0.1981
 6145SOL    HW130068   0.910   2.387   5.107 -0.1700  0.1564 -1.3578
 6145SOL    HW230069   0.834   2.321   4.993 -0.8027  0.0187  0.1673
 6146SOL     OW30070   2.748   4.660   4.528  0.1059 -0.4765 -0.0711
 6146SOL    HW130071   2.810   4.590   4.505 -0.4920 -1.1443  0.3581
 6146SOL    HW230072   2.684   4.655   4.457 -0.0980 -2.2240  0.2359
 6147SOL     OW30073   4.158   4.312  16.926  0.3701  0.3634  0.2857
 6147SOL    HW130074   4.078   4.284  16.969  1.1715 -0.4887  1.2194
 6147SOL    HW230075   4.184   4.232  16.880  0.4908  0.1990  0.6435
 6148SOL     OW30076   1.302   0.610   0.866 -0.0419  0.1283  0.4491
 6148SOL    HW130077   1.370   0.566   0.815 -2.2653 -0.8430 -1.6607
 6148SOL    HW230078   1.242   0.648   0.801  0.7026  0.6527  0.0608
 6149SOL     OW30079   2.883   4.089   5.117  0.2355 -0.0012 -0.5558
 6149SOL    HW130080   2.791   4.067   5.134  0.6631 -1.6398 -0.3702
 6149SOL    HW230081   2.868   4.151   5.045  0.0276 -2.2493 -2.4377
 6150SOL     OW30082   4.106   1.662   6.904 -0.5821  1.2004  0.3843
 6150SOL    HW130083   4.187   1.712   6.909 -0.2057  0.7729 -1.3316
 6150SOL    HW230084   4.141   1.575   6.923 -2.0584  0.3621 -0.7803
 6151SOL     OW30085   0.798   2.239   6.117 -0.2777  0.1861 -0.1491
 6151SOL    HW130086   0.716   2.210   6.078 -0.9968  1.4431  0.4581
 6151SOL    HW230087   0.785   2.203   6.205 -0.2749 -0.8248 -0.5588
 6152SOL     OW30088   2.948   3.714  11.985  0.1232  0.6701 -0.2511
 6152SOL    HW130089   2.990   3.686  11.904  1.5302 -0.9650  1.0541
 6152SOL    HW230090   2.855   3.709  11.962  0.2501 -0.6429 -0.4693
 6153SOL     OW30091   0.904   2.320   7.559 -1.0000 -0.3335  0.4273
 6153SOL    HW130092   0.825   2.306   7.505 -0.7003 -3.2737  0.7206
 6153SOL    HW230093   0.962   2.260   7.512  0.9877  2.4711 -0.7005
 6154SOL     OW30094   4.618   2.839   5.389 -0.1172  0.5942  0.1916
 6154SOL    HW130095   4.703   2.870   5.421  0.0243  0.5177 -0.1160
 6154SOL    HW230096   4.627   2.830   5.295 -0.5920  0.9075  0.1129
 6155SOL     OW30097   3.632   1.464  16.382  0.0886  0.4323  0.0328
 6155SOL    HW130098   3.626   1.558  16.397  0.6183  0.4129  0.3899
 6155SOL    HW230099   3.623   1.457  16.287 -2.0730 -2.5604  0.4625
 6156SOL     OW30100   0.493   4.254   9.672 -0.4490  0.1579 -0.0006
 6156SOL    HW130101   0.398   4.249   9.678 -0.3975 -0.2827  0.4627
 6156SOL    HW230102   0.501   4.347   9.693  2.2164  0.9096 -4.2563
 6157SOL     OW30103   1.553   2.748   2.133 -0.0051 -0.2526 -0.2347
 6157SOL    HW130104   1.580   2.835   2.103 -0.0591 -0.6733 -1.4816
 6157SOL    HW230105   1.527   2.761   2.225  0.5858  0.8944 -0.2205
 6158SOL     OW30106   1.780   2.574   0.854 -0.4972  0.5472 -0.2587
 6158SOL    HW130107   1.774   2.645   0.790 -0.6079  1.1647  0.4445
 6158SOL    HW230108   1.835   2.614   0.922 -1.0361 -1.0479  1.1060
 6159SOL     OW30109   0.903   2.739   3.334  0.0625 -0.5123  0.5443
 6159SOL    HW130110   0.849   2.818   3.349 -0.8519 -1.0520  0.0964
 6159SOL    HW230111   0.976   2.775   3.284 -1.4111 -0.2289 -1.3822
 6160SOL     OW30112   4.398   3.427  12.563 -0.0379 -0.1448  0.2728
 6160SOL    HW130113   4.335   3.496  12.581  0.9512  1.6223 -2.9775
 6160SOL    HW230114   4.435   3.461  12.482  1.0864  0.0328  0.8616
 6161SOL     OW30115   2.572   0.554  12.003  0.7477  0.3350 -0.9206
 6161SOL    HW130116   2.551   0.583  12.092 -0.1397  2.0326 -1.6829
 6161SOL    HW230117   2.505   0.609  11.961 -0.2945 -0.3390 -0.1524
 6162SOL     OW30118   1.270   4.594  13.267  0.3618 -0.3281 -0.1125
 6162SOL    HW130119   1.293   4.531  13.336  1.1933  1.0680  0.8750
 6162SOL    HW230120   1.209   4.648  13.317  0.5939 -1.9935  1.9782
 6163SOL     OW30121   4.505   2.795  15.806 -0.2161  0.3272  0.0286
 6163SOL    HW130122   4.435   2.827  15.749  1.4872 -0.3630 -2.4947
 6163SOL    HW230123   4.462   2.729  15.860 -2.7689 -0.4962 -3.0138
 6164SOL     OW30124   1.879   3.968   0.344  0.0402 -0.5177  0.3167
 6164SOL    HW130125   1.943   3.924   0.287  1.1573  3.8570 -1.7496
 6164SOL    HW230126   1.797   3.932   0.310 -0.1312  1.7090 -1.6161
 6165SOL     OW30127   0.620   3.068   1.667 -0.0388  0.5645  0.0444
 6165SOL    HW130128   0.666   3.017   1.601  1.3186  0.7852  0.8234
 6165SOL    HW230129   0.632   3.004   1.737  0.2236 -0.5977 -1.0753
 6166SOL     OW30130   3.402   0.430  13.632  0.0159 -0.3132  0.1872
 6166SOL    HW130131   3.414   0.460  13.722  0.2269  0.8407 -0.2257
 6166SOL    HW230132   3.486   0.456  13.593  0.1375 -0.9642  0.0189
 6167SOL     OW30133   0.278   4.623   2.001  0.5046  0.3338  0.5619
 6167SOL    HW130134   0.291   4.642   2.094  1.5907 -0.5539  0.5955
 6167SOL    HW230135   0.234   4.538   2.011  0.7311  0.2535  0.8697
 6168SOL     OW30136   3.192   0.495   7.737  0.2568  0.2862 -0.1463
 6168SOL    HW130137   3.239   0.411   7.742  0.5669  0.5562  1.4969
 6168SOL    HW230138   3.261   0.545   7.781 -0.6855  3.0008 -1.7779
 6169SOL     OW30139   1.449   0.104  13.232  0.2812  0.1656  0.0903
 6169SOL    HW130140   1.391   0.163  13.280  1.0163  0.7956  0.2064
 6169SOL    HW230141   1.445   0.024  13.284  2.9417  0.8943  1.3943
 6170SOL     OW30142   2.601   0.555  17.143 -0.2804 -0.1530  0.1147
 6170SOL    HW130143   2.645   0.638  17.125 -0.8597 -0.0526 -0.8101
 6170SOL    HW230144   2.670   0.498  17.177 -0.0524  0.7466  1.1945
 6171SOL     OW30145   4.521   1.969  16.025  0.3133  0.4524  0.0177
 6171SOL    HW130146   4.477   1.887  16.004 -1.9521  1.4666  0.8996
 6171SOL    HW230147   4.568   1.984  15.943  0.9481  2.4975  0.7669
 6172SOL     OW30148   4.180   1.262   2.790 -0.6061  0.0401  0.3361
 6172SOL    HW130149   4.104   1.318   2.803  0.4167  1.5156  0.0764
 6172SOL    HW230150   4.157   1.221   2.706  0.5513  0.7505 -0.3323
 6173SOL     OW30151   0.698   0.263  11.374  0.0130  0.5398 -0.5554
 6173SOL    HW130152   0.675   0.195  11.437 -1.3290  1.9125  0.4334
 6173SOL    HW230153   0.620   0.318  11.384 -0.9832 -0.4767 -2.6717
 6174SOL     OW30154   0.143   4.470  17.216  0.2494 -0.2835 -0.0727
 6174SOL    HW130155   0.223   4.420  17.234 -0.5108 -1.7727 -0.8025
 6174SOL    HW230156   0.072   4.440  17.272 -0.8007 -1.8977 -2.2606
 6175SOL     OW30157   2.866   4.254  10.252 -0.5462 -0.3670 -0.1756
 6175SOL    HW130158   2.860   4.347  10.229  0.2684  0.2641  2.0969
 6175SOL    HW230159   2.801   4.212  10.197 -0.4812  0.1138 -0.6221
 6176SOL     OW30160   3.092   2.164  17.212  0.1964 -0.0407  0.6118
 6176SOL    HW130161   3.186   2.176  17.196  0.0520 -1.1941 -1.0276
 6176SOL    HW230162   3.098   2.122  17.298  1.0078  0.3124  0.7348
 6177SOL     OW30163   3.892   2.887   7.230  0.1728  0.4542 -0.3398
 6177SOL    HW130164   3.815   2.942   7.220 -0.0184  0.2240 -0.1106
 6177SOL    HW230165   3.955   2.954   7.255 -0.2091  0.5851  0.2642
 6178SOL     OW30166   0.994   2.674   7.668  0.6757 -0.2688  0.2107
 6178SOL    HW130167   1.059   2.606   7.648 -0.1129 -1.1065  0.4802
 6178SOL    HW230168   0.939   2.632   7.735  0.9102  0.2411  0.7192
 6179SOL     OW30169   4.166   3.236   5.034  0.2397 -0.1249 -0.4331
 6179SOL    HW130170   4.150   3.246   5.128 -0.1574  1.2706 -0.6393
 6179SOL    HW230171   4.102   3.294   4.993 -1.6299 -1.7529  0.2082
 6180SOL     OW30172   0.867   1.337   2.809 -0.0308 -0.1401 -0.7404
 6180SOL    HW130173   0.942   1.340   2.869 -0.0397 -2.8779 -0.6232
 6180SOL    HW230174   0.843   1.246   2.791 -3.1482  0.0683  2.4410
 6181SOL     OW30175   4.571   0.452   8.238  0.0760  0.2017  0.1370
 6181SOL    HW130176   4.477   0.443   8.226  0.2722 -1.4711 -0.1801
 6181SOL    HW230177   4.602   0.484   8.153  1.6092 -0.5108  0.4178
 6182SOL     OW30178   0.664   0.731  15.760 -0.0961  0.2981 -0.1636
 6182SOL    HW130179   0.645   0.638  15.748 -1.8327  0.7511 -0.9192
 6182SOL    HW230180   0.713   0.732  15.842 -0.5501 -0.3471  0.1175
 6183SOL     OW30181   2.474   1.773   7.003  0.3807 -0.2981  0.5724
 6183SOL    HW130182   2.441   1.735   7.085 -0.8210 -0.2292  0.1315
 6183SOL    HW230183   2.483   1.867   7.017  1.3421 -0.2121 -0.6454
 6184SOL     OW30184   1.484   4.367   2.824 -0.1237 -0.0576 -0.4458
 6184SOL    HW130185   1.491   4.461   2.841 -0.3582 -0.3892  1.4985
 6184SOL    HW230186   1.389   4.367   2.813 -0.3240  0.5388  1.2725
 6185SOL     OW30187   0.209   2.783  11.335  0.0142 -0.1840 -0.1938
 6185SOL    HW130188   0.196   2.878  11.333  1.7916  0.0588 -0.9179
 6185SOL    HW230189   0.260   2.764  11.256  0.2985 -2.6517  0.5843
 6186SOL     OW30190   2.028   2.248   4.155 -0.5576  0.7900  0.4509
 6186SOL    HW130191   2.040   2.243   4.250  2.6189 -0.8550 -0.0297
 6186SOL    HW230192   2.112   2.288   4.132 -0.0102 -0.0561  0.9677
 6187SOL     OW30193   3.423   1.851  16.904  0.1156 -0.0208 -0.1624
 6187SOL    HW130194   3.501   1.803  16.933  2.6448  3.1638 -1.7035
 6187SOL    HW230195   3.356   1.819  16.964  0.1323  0.2585  0.0056
 6188SOL     OW30196   2.407   0.759  13.187  0.2931  0.7215 -0.2089
 6188SOL    HW130197   2.331   0.700  13.182  1.9464 -1.3557 -1.0036
 6188SOL    HW230198   2.392   0.840  13.138 -1.9576 -0.2927 -1.2193
 6189SOL     OW30199   1.633   1.854   2.552 -0.0234  0.0591  0.1008
 6189SOL    HW130200   1.658   1.809   2.471 -2.6144  0.7130 -1.0799
 6189SOL    HW230201   1.612   1.939   2.514 -1.2462 -0.4025 -0.2773
 6190SOL     OW30202   3.160   0.046   2.494 -0.1101 -0.2750 -0.0690
 6190SOL    HW130203   3.160   4.708   2.552  0.8891 -0.1005  0.1440
 6190SOL    HW230204   3.095   0.008   2.435 -0.8966  0.5803  0.2474
 6191SOL     OW30205   2.444   3.109   2.920 -0.2719 -0.6379 -0.4015
 6191SOL    HW130206   2.512   3.126   2.854 -0.0089  3.4255  0.9314
 6191SOL    HW230207   2.438   3.201   2.947  1.7186 -0.6685  0.1706
 6192SOL     OW30208   2.516   2.357   1.332 -0.0287 -0.1025 -0.2688
 6192SOL    HW130209   2.422   2.355   1.313 -0.1930 -0.3427  0.5623
 6192SOL    HW230210   2.540   2.294   1.264 -3.5286 -1.6820 -0.0699
 6193SOL     OW30211   2.180   0.144  14.522  0.4240  0.4246  0.2067
 6193SOL    HW130212   2.161   0.228  14.481  1.4823 -0.2012 -1.5960
 6193SOL    HW230213   2.273   0.153  14.501  1.2260 -1.9077  2.6786
 6194SOL     OW30214   3.208   1.641  11.533 -0.3008  0.4416 -0.3563
 6194SOL    HW130215   3.225   1.549  11.551  1.2005  1.0196  1.1350
 6194SOL    HW230216   3.271   1.677  11.595  0.7471 -0.1244 -1.0917
 6195SOL     OW30217   2.710   0.436   5.867 -0.2466  0.1354 -0.0839
 6195SOL    HW130218   2.711   0.344   5.840  1.0498 -0.4783  2.0246
 6195SOL    HW230219   2.766   0.444   5.944 -0.9231 -0.5042  0.4720
 6196SOL     OW30220   2.690   4.404   2.792  0.0515  0.1509  0.7015
 6196SOL    HW130221   2.761   4.440   2.739  1.1965 -1.1861  1.3261
 6196SOL    HW230222   2.620   4.400   2.727  0.8211  2.1364 -0.2618
 6197SOL     OW30223   0.024   3.115   2.085 -0.2243 -0.0355 -0.0882
 6197SOL    HW130224   4.724   3.029   2.100  2.2156 -1.2327 -0.8173
 6197SOL    HW230225   0.103   3.097   2.035  1.2783  1.4631  1.7432
 6198SOL     OW30226   2.842   3.858   3.219  0.2938  0.3962  0.1301
 6198SOL    HW130227   2.801   3.882   3.301 -1.8065 -2.1822 -0.1526
 6198SOL    HW230228   2.777   3.817   3.162  0.7298  0.3942 -0.3706
 6199SOL     OW30229   1.390   1.429   2.300 -0.1458  0.2077  0.0057
 6199SOL    HW130230   1.472   1.428   2.349 -1.3667 -0.2171  2.0433
 6199SOL    HW230231   1.384   1.518   2.266 -2.1067  0.5366  1.2720
 6200SOL     OW30232   0.761   0.212   5.144  0.5432  0.0346 -0.6036
 6200SOL    HW130233   0.672   0.226   5.113  0.6831  0.2536 -0.9099
 6200SOL    HW230234   0.753   0.119   5.163  1.0557  0.2234  0.5561
 6201SOL     OW30235   1.865   2.628   4.135 -0.2153  0.5886  0.1335
 6201SOL    HW130236   1.883   2.677   4.055  1.3250  1.8964  1.2637
 6201SOL    HW230237   1.851   2.541   4.099  0.2633  0.7059 -0.3334
 6202SOL     OW30238   1.735   1.308   0.969 -0.1671  0.2148  0.6731
 6202SOL    HW130239   1.695   1.228   1.002  2.9104 -1.3141  0.7195
 6202SOL    HW230240   1.817   1.261   0.953  0.1048  1.9694 -2.9258
 6203SOL     OW30241   3.852   1.864   2.609  0.3589 -0.4231 -0.1087
 6203SOL    HW130242   3.885   1.843   2.696  0.7563  3.5807  0.6925
 6203SOL    HW230243   3.784   1.797   2.602  0.3101 -0.4619  0.7592
 6204SOL     OW30244   2.824   2.358  13.280 -0.7794  0.2570  0.1462
 6204SOL    HW130245   2.892   2.293  13.299  1.3408  2.6675  0.7276
 6204SOL    HW230246   2.852   2.412  13.207  1.1709  0.3902  0.9916
 6205SOL     OW30247   0.224   3.366   2.775 -0.3237 -0.4982 -0.2065
 6205SOL    HW130248   0.276   3.386   2.853 -0.0637 -1.4804 -0.1157
 6205SOL    HW230249   0.235   3.271   2.786 -2.0413 -0.7101 -0.4743
 6206SOL     OW30250   2.758   2.114   9.199 -0.0628 -0.0113  0.2578
 6206SOL    HW130251   2.710   2.035   9.224  0.3969 -0.4773 -0.3112
 6206SOL    HW230252   2.801   2.092   9.117  0.4830  0.9547  0.2854
 6207SOL     OW30253   2.574   2.225   8.000 -0.3000 -0.3333  0.1529
 6207SOL    HW130254   2.491   2.274   8.005 -1.6142 -2.5340 -0.0008
 6207SOL    HW230255   2.629   2.292   7.959 -1.6124  0.6747  0.0328
 6208SOL     OW30256   1.199   2.165   8.212  0.1582  0.1135 -0.1655
 6208SOL    HW130257   1.281   2.211   8.235 -0.6942  0.4592  2.2559
 6208SOL    HW230258   1.167   2.219   8.140  0.7759 -1.7680 -1.8453
 6209SOL     OW30259   2.733   1.093   4.312 -0.3647  0.4223 -0.1104
 6209SOL    HW130260   2.724   1.177   4.358 -3.8328  0.6162 -1.1664
 6209SOL    HW230261   2.641   1.069   4.307 -0.5269  0.7391  1.4046
 6210SOL     OW30262   1.467   0.528   4.996  0.6574 -0.0408  0.5822
 6210SOL    HW130263   1.411   0.606   4.996 -0.1446 -0.6135  2.4310
 6210SOL    HW230264   1.541   0.558   4.942  0.0399 -2.1827 -1.4263
 6211SOL     OW30265   4.295   2.726  13.991  0.1367  0.2176  0.1133
 6211SOL    HW130266   4.344   2.748  13.911 -2.5839  2.8061 -0.8361
 6211SOL    HW230267   4.247   2.808  13.997  0.2282  0.3570 -0.9986
 6212SOL     OW30268   2.200   3.708   7.249 -0.4382 -0.3505 -0.5721
 6212SOL    HW130269   2.258   3.634   7.265 -0.9544 -0.4189  0.9525
 6212SOL    HW230270   2.252   3.778   7.289 -1.4947  0.2530 -0.2392
 6213SOL     OW30271   0.439   1.877   5.043  0.0847 -0.5335 -0.3945
 6213SOL    HW130272   0.426   1.783   5.032  2.1267 -0.6989 -1.5046
 6213SOL    HW230273   0.525   1.876   5.087 -0.1238 -1.2382 -0.0032
 6214SOL     OW30274   3.817   1.475  12.693  0.0586 -0.2355  0.5023
 6214SOL    HW130275   3.813   1.409  12.624 -1.7542  1.2259 -0.8233
 6214SOL    HW230276   3.791   1.547  12.635 -0.7237  0.3290  1.5477
 6215SOL     OW30277   1.414   2.469   5.836  0.0525  0.2776 -0.2061
 6215SOL    HW130278   1.398   2.545   5.779 -1.5852  1.3010  1.6049
 6215SOL    HW230279   1.508   2.484   5.850 -0.1355 -0.5048  1.9000
 6216SOL     OW30280   2.775   0.583  13.693  0.1355  0.1597  0.6477
 6216SOL    HW130281   2.777   0.599  13.787 -1.5558 -1.0535  0.8982
 6216SOL    HW230282   2.686   0.600  13.661  0.6050  0.6155 -0.3863
 6217SOL     OW30283   0.822   3.737   1.082  0.1593 -0.2625  0.4991
 6217SOL    HW130284   0.845   3.806   1.144 -1.5245  0.6844  0.0733
 6217SOL    HW230285   0.844   3.775   0.997 -0.2183 -0.9327  0.1065
 6218SOL     OW30286   3.651   0.807   8.553  0.1025 -0.2571 -0.4518
 6218SOL    HW130287   3.673   0.815   8.646 -0.5375  2.2613 -0.5305
 6218SOL    HW230288   3.721   0.746   8.532  0.1533 -1.1061  2.1211
 6219SOL     OW30289   3.117   3.654   5.351  0.2799  0.2204 -0.3563
 6219SOL    HW130290   3.088   3.734   5.395  0.0864  0.3466 -0.7178
 6219SOL    HW230291   3.077   3.588   5.408  2.2719  0.5775  1.4508
 6220SOL     OW30292   2.189   4.328  10.687  0.3821  0.8358  0.1191
 6220SOL    HW130293   2.219   4.374  10.766 -1.4048  1.1331  0.6156
 6220SOL    HW230294   2.142   4.250  10.717 -0.0853  1.4609  0.9946
 6221SOL     OW30295   0.519   4.176   4.097 -0.7136  0.1278  0.8948
 6221SOL    HW130296   0.550   4.099   4.146  2.1700  0.1498 -0.8755
 6221SOL    HW230297   0.458   4.122   4.048  0.4187 -0.1436 -0.2266
 6222SOL     OW30298   0.906   0.267  13.591  0.1447 -0.4561 -0.0030
 6222SOL    HW130299   0.905   0.176  13.561  3.8204 -1.0295  1.5750
 6222SOL    HW230300   0.988   0.260  13.641  1.0705 -0.2480 -1.5128
 6223SOL     OW30301   0.830   3.338  14.946 -0.1607 -0.0880  0.4051
 6223SOL    HW130302   0.921   3.333  14.916  0.0820  0.4204  1.0651
 6223SOL    HW230303   0.817   3.432  14.934  2.0447  0.4968  2.7216
 6224SOL     OW30304   0.059   1.270   9.618  0.3438 -0.2960 -0.0978
 6224SOL    HW130305   0.101   1.355   9.602  1.9510 -1.3993 -1.6917
 6224SOL    HW230306   4.724   1.312   9.664  2.3685  3.1190  0.0055
 6225SOL     OW30307   3.097   1.127   9.477 -0.3314  0.3907  0.1903
 6225SOL    HW130308   3.060   1.212   9.501 -0.0613  0.6916 -0.4732
 6225SOL    HW230309   3.186   1.128   9.512  1.1284  1.1684 -3.5713
 6226SOL     OW30310   1.071   0.361   8.953 -0.7544  0.4401 -0.3592
 6226SOL    HW130311   1.111   0.278   8.978  0.1690  0.2721 -2.4171
 6226SOL    HW230312   1.142   0.422   8.969  0.6996 -0.8998 -1.7565
 6227SOL     OW30313   1.226   0.953   3.025  0.2450 -0.0037 -0.2284
 6227SOL    HW130314   1.263   0.963   2.937  0.5559 -1.1108 -0.2273
 6227SOL    HW230315   1.228   0.857   3.032  2.0460 -0.0197 -1.1248
 6228SOL     OW30316   2.414   2.828   0.812 -0.1298 -0.1276 -0.0428
 6228SOL    HW130317   2.376   2.886   0.878 -0.5439  0.6166 -0.9315
 6228SOL    HW230318   2.337   2.804   0.760 -0.0957  1.2116 -0.7331
 6229SOL     OW30319   3.704   3.516  11.501 -0.1018  0.0908  0.1423
 6229SOL    HW130320   3.775   3.490  11.559  0.5280  3.1051  0.7325
 6229SOL    HW230321   3.628   3.468  11.533  0.3755 -0.1093  0.9597
 6230SOL     OW30322   4.491   0.973   5.276 -0.1191 -0.3122  0.2845
 6230SOL    HW130323   4.528   0.950   5.361 -0.5927  0.1331  0.6088
 6230SOL    HW230324   4.550   0.920   5.221  0.0048 -0.2126  0.3221
 6231SOL     OW30325   3.233   1.747  14.671  0.1351  0.0946 -0.0667
 6231SOL    HW130326   3.256   1.791  14.589  2.3525  1.4949  1.2988
 6231SOL    HW230327   3.183   1.813  14.719 -0.1191  1.8276 -2.7201
 6232SOL     OW30328   4.216   3.868  13.216  0.7001 -0.6040 -0.0617
 6232SOL    HW130329   4.156   3.920  13.162  1.2062  0.0111 -0.0281
 6232SOL    HW230330   4.190   3.914  13.296  0.8851 -0.7098  0.0583
 6233SOL     OW30331   1.375   2.390   9.673  0.7069  0.3740 -0.2101
 6233SOL    HW130332   1.303   2.344   9.631  0.0860 -1.0265  2.4111
 6233SOL    HW230333   1.328   2.459   9.720  2.0459  0.6689  0.6971
 6234SOL     OW30334   1.525   2.786   2.434  0.9331 -0.0318  0.6501
 6234SOL    HW130335   1.584   2.804   2.507  0.2094 -0.3111  1.3028
 6234SOL    HW230336   1.448   2.841   2.450  0.3683 -0.0223 -2.0396
 6235SOL     OW30337   4.356   4.685   6.647  0.1446  0.4555 -0.2310
 6235SOL    HW130338   4.372   0.022   6.704 -3.3647  0.0731  1.2800
 6235SOL    HW230339   4.307   4.631   6.709  0.1063  2.5250  1.5578
 6236SOL     OW30340   3.214   2.258   8.419  0.8990  0.2321  0.0514
 6236SOL    HW130341   3.264   2.271   8.500  1.6373  0.8632 -0.5061
 6236SOL    HW230342   3.285   2.238   8.358  1.8239  0.8482  0.9203
 6237SOL     OW30343   1.910   2.070  17.542 -0.2226  0.1160 -0.0355
 6237SOL    HW130344   1.884   2.107  17.627 -0.5753 -0.6440  0.1895
 6237SOL    HW230345   2.003   2.054  17.551 -0.1266  1.0206  0.7009
 6238SOL     OW30346   3.318   3.049   9.127 -0.4656  0.0826 -0.2967
 6238SOL    HW130347   3.256   3.038   9.200 -1.5723  0.6346 -1.1464
 6238SOL    HW230348   3.320   3.144   9.115  0.0078  0.3822  2.2096
 6239SOL     OW30349   2.254   2.933   4.949 -0.1417 -0.2032  0.1370
 6239SOL    HW130350   2.187   2.994   4.919 -1.7482 -1.4823  1.0973
 6239SOL    HW230351   2.225   2.863   4.890  2.3416 -0.5332 -0.6717
 6240SOL     OW30352   2.501   4.561   4.703 -0.9141  0.3797 -0.4661
 6240SOL    HW130353   2.558   4.542   4.628 -0.1520  1.7739 -0.2351
 6240SOL    HW230354   2.414   4.558   4.665 -1.2106  0.5240  0.2000
 6241SOL     OW30355   3.710   1.490   4.388 -0.5820  0.4606 -0.4734
 6241SOL    HW130356   3.799   1.510   4.359 -0.3659 -0.9214 -0.7238
 6241SOL    HW230357   3.715   1.519   4.479 -1.8339  0.4424 -0.4032
 6242SOL     OW30358   2.015   4.354   7.295 -0.1072  0.1607  0.1948
 6242SOL    HW130359   1.982   4.267   7.317 -1.3913  0.8830  1.1761
 6242SOL    HW230360   2.075   4.359   7.369  2.5096  2.4918 -2.1173
 6243SOL     OW30361   3.323   0.350   8.716  0.5823  0.2676 -0.4659
 6243SOL    HW130362   3.387   0.375   8.782  2.8300 -3.1833 -1.3375
 6243SOL    HW230363   3.248   0.397   8.753  0.0366 -1.8396  1.0966
 6244SOL     OW30364   3.023   1.875   8.218  0.3754 -0.1663 -0.4250
 6244SOL    HW130365   2.948   1.889   8.276 -0.5651  0.7116 -1.8419
 6244SOL    HW230366   3.007   1.787   8.186  0.7731  0.4615 -2.3260
 6245SOL     OW30367   2.127   0.215  12.389  0.0033  0.5436  0.2691
 6245SOL    HW130368   2.112   0.247  12.300 -0.6557  0.8834  0.5039
 6245SOL    HW230369   2.045   0.165  12.398 -1.2400  2.5967  0.3437
 6246SOL     OW30370   2.333   3.841   2.691  0.2113  0.1123  0.3416
 6246SOL    HW130371   2.396   3.847   2.763  0.9005 -0.3720 -0.2139
 6246SOL    HW230372   2.325   3.931   2.660  0.0270  0.1543  0.5127
 6247SOL     OW30373   1.146   1.140  17.221  0.1413  0.1854  0.0308
 6247SOL    HW130374   1.146   1.045  17.213  0.1188  0.2689 -0.9257
 6247SOL    HW230375   1.215   1.154  17.286  0.2829  2.3260 -0.5894
 6248SOL     OW30376   1.506   1.981  17.136  0.2532  0.3051  0.0751
 6248SOL    HW130377   1.600   1.986  17.151 -0.0843  2.0271  1.5871
 6248SOL    HW230378   1.515   2.024  17.051 -1.0748 -0.0067 -0.2170
 6249SOL     OW30379   1.759   3.593   4.645 -0.1460  0.3817 -0.0187
 6249SOL    HW130380   1.757   3.504   4.610  1.2171 -0.4792  2.0649
 6249SOL    HW230381   1.837   3.589   4.700  1.0112  0.9649 -1.6330
 6250SOL     OW30382   0.140   0.989   0.314  0.4917 -0.2837 -0.2013
 6250SOL    HW130383   0.054   0.955   0.291 -0.1650  3.0298 -2.5043
 6250SOL    HW230384   0.127   1.001   0.408 -0.2345 -0.4332 -0.2864
 6251SOL     OW30385   0.870   3.926   8.158 -0.3398 -0.0398 -0.1858
 6251SOL    HW130386   0.902   3.949   8.245  1.6449  0.0363 -0.9312
 6251SOL    HW230387   0.903   3.992   8.098 -0.9954  0.7252  0.2961
 6252SOL     OW30388   3.959   0.124  10.393  0.1839 -0.4634 -0.1241
 6252SOL    HW130389   3.911   0.078  10.462  1.9178  0.5399  1.7472
 6252SOL    HW230390   4.043   0.080  10.404  1.1055  2.0848  2.9397
 6253SOL     OW30391   0.007   4.662   8.355  0.0303  0.1348  0.2518
 6253SOL    HW130392   0.011   4.641   8.262 -0.3804  0.5443  0.1404
 6253SOL    HW230393   4.690   0.003   8.356  0.0408  0.1560 -0.4544
 6254SOL     OW30394   3.731   0.751   2.176  0.2073  0.0617 -0.4875
 6254SOL    HW130395   3.821   0.724   2.193  1.3497  4.4123  0.2131
 6254SOL    HW230396   3.690   0.766   2.261 -3.2907  0.6117 -2.2619
 6255SOL     OW30397   2.011   3.701   3.939  0.7091 -0.3336 -0.2720
 6255SOL    HW130398   2.007   3.742   4.026 -0.5899  3.0408 -1.9129
 6255SOL    HW230399   1.957   3.760   3.886  0.7454 -1.4201 -1.5030
 6256SOL     OW30400   3.305   1.516   2.319  0.7203  0.2773 -0.3712
 6256SOL    HW130401   3.228   1.473   2.281  2.0783 -1.9441 -0.6137
 6256SOL    HW230402   3.311   1.590   2.258 -1.3468  1.2258  0.5769
 6257SOL     OW30403   1.580   0.731  16.005 -0.0114  0.1098 -0.2436
 6257SOL    HW130404   1.513   0.800  16.004 -2.5033 -2.2988  0.3545
 6257SOL    HW230405   1.659   0.779  15.980  0.0015  0.3855  0.3125
 6258SOL     OW30406   1.523   0.384  15.646 -0.7034 -0.1990 -0.6927
 6258SOL    HW130407   1.556   0.347  15.564  1.0445 -0.0007 -0.0774
 6258SOL    HW230408   1.506   0.296  15.680  1.7849 -0.3547  0.1353
 6259SOL     OW30409   0.423   2.638   1.113 -0.4652  0.6412 -0.2246
 6259SOL    HW130410   0.442   2.609   1.202 -2.6672 -0.0558  0.0189
 6259SOL    HW230411   0.331   2.614   1.123 -0.0060 -0.2658  1.9062
 6260SOL     OW30412   2.110   1.471   9.809  0.2617  0.2940 -0.7074
 6260SOL    HW130413   2.176   1.405   9.790 -1.3725 -1.1787 -1.2196
 6260SOL    HW230414   2.139   1.506   9.894 -0.9212  0.7851 -0.5012
 6261SOL     OW30415   2.645   1.118   5.330  0.2463 -0.6968 -0.5010
 6261SOL    HW130416   2.678   1.041   5.377  2.0585 -1.8697 -3.7333
 6261SOL    HW230417   2.719   1.165   5.293  0.6613  2.3865  4.2107
 6262SOL     OW30418   1.444   3.577  12.742  0.0130  0.0858 -0.3301
 6262SOL    HW130419   1.539   3.582  12.727  0.1517  0.9117  0.8472
 6262SOL    HW230420   1.426   3.645  12.806  0.7014  1.4350 -1.5633
 6263SOL     OW30421   2.852   1.587  10.030  0.0921  0.0595  0.5928
 6263SOL    HW130422   2.933   1.537  10.044 -0.0768 -0.0838  1.0678
 6263SOL    HW230423   2.881   1.654   9.969  0.4795 -0.6861 -0.0520
 6264SOL     OW30424   1.214   1.325   2.103 -0.3883 -0.7230  0.6310
 6264SOL    HW130425   1.283   1.377   2.143  0.5187 -1.1063 -0.4361
 6264SOL    HW230426   1.262   1.264   2.046  0.6284  0.6192  0.0439
 6265SOL     OW30427   2.083   2.615   5.345  0.2994  0.3876 -0.1262
 6265SOL    HW130428   2.072   2.521   5.329 -2.4207  0.6837  0.1158
 6265SOL    HW230429   2.178   2.622   5.354  0.6340 -2.7304 -0.9149
 6266SOL     OW30430   4.388   3.835   3.016  0.2585 -0.1738  0.1828
 6266SOL    HW130431   4.396   3.752   2.968 -3.6173 -0.6813  0.3981
 6266SOL    HW230432   4.336   3.879   2.948 -0.1936  1.7410  1.8039
 6267SOL     OW30433   2.894   1.241   0.562  0.0128 -0.1924  0.2808
 6267SOL    HW130434   2.809   1.239   0.607  0.3458 -1.0575  0.8793
 6267SOL    HW230435   2.875   1.303   0.492  2.4178  1.2129  0.8828
 6268SOL     OW30436   2.282   2.069   3.232  0.2901  0.0495  0.4699
 6268SOL    HW130437   2.294   1.990   3.179  1.4403  0.6365 -0.1511
 6268SOL    HW230438   2.357   2.124   3.207  0.7896 -0.7072  0.3050
 6269SOL     OW30439   1.176   1.991   1.937 -0.0181 -0.3852  0.4606
 6269SOL    HW130440   1.258   1.945   1.952  2.2590  2.6414 -2.7282
 6269SOL    HW230441   1.139   1.995   2.026 -0.2513  0.6290  0.3236
 6270SOL     OW30442   4.491   3.628   0.926 -0.0639  0.3877  0.5731
 6270SOL    HW130443   4.461   3.557   0.983 -2.5104 -0.7750 -2.2167
 6270SOL    HW230444   4.495   3.580   0.843 -0.7425  0.7523  0.3350
 6271SOL     OW30445   3.787   4.224  12.874  0.2158  0.2068  0.0218
 6271SOL    HW130446   3.869   4.177  12.858  0.1042 -0.5797  1.7389
 6271SOL    HW230447   3.812   4.277  12.949 -0.4150  1.0238 -0.3527
 6272SOL     OW30448   4.053   3.839  11.875  0.5963  0.0105  0.3969
 6272SOL    HW130449   4.135   3.835  11.825 -0.1210  1.6561 -0.9073
 6272SOL    HW230450   3.991   3.876  11.813 -1.1349 -1.5926  1.1904
 6273SOL     OW30451   4.516   3.433   4.396 -0.1988 -0.3508 -0.4762
 6273SOL    HW130452   4.426   3.399   4.400  0.0635 -1.0711 -0.7259
 6273SOL    HW230453   4.573   3.368   4.439 -1.0224  0.7188  2.2320
 6274SOL     OW30454   2.809   2.586   4.998  0.0026  0.0566  0.0490
 6274SOL    HW130455   2.802   2.615   5.089 -0.9525 -2.2779  0.7262
 6274SOL    HW230456   2.723   2.547   4.980 -0.3174  0.0002  1.7194
 6275SOL     OW30457   4.349   0.937  16.742 -0.1513 -0.6272  0.2569
 6275SOL    HW130458   4.434   0.965  16.707 -0.3648  0.6686  0.7724
 6275SOL    HW230459   4.298   1.017  16.752  1.4575  0.0338  3.0057
 6276SOL     OW30460   0.478   2.615  11.445 -0.4895 -0.4074  0.5320
 6276SOL    HW130461   0.510   2.616  11.535  0.3719 -2.4109  0.2509
 6276SOL    HW230462   0.446   2.703  11.425 -0.0657 -1.2222 -3.6389
 6277SOL     OW30463   2.375   0.976   8.059 -0.3130  0.1818  0.1699
 6277SOL    HW130464   2.355   0.907   7.996  2.1228 -0.2103 -0.1925
 6277SOL    HW230465   2.470   0.982   8.045 -0.3449 -2.5562 -1.1437
 6278SOL     OW30466   3.267   2.201   1.673  0.2237 -0.7325  0.3820
 6278SOL    HW130467   3.317   2.129   1.711  1.1660  0.6901  1.8324
 6278SOL    HW230468   3.182   2.158   1.675 -1.8893  3.3127 -2.0915
 6279SOL     OW30469   0.284   2.671   9.771 -0.5554  0.1727 -0.0307
 6279SOL    HW130470   0.275   2.766   9.784  0.8500 -0.0422  2.4146
 6279SOL    HW230471   0.236   2.635   9.845  0.7939  1.1644  1.3074
 6280SOL     OW30472   1.485   1.113   0.800 -0.6734  0.0785 -0.0582
 6280SOL    HW130473   1.488   1.074   0.712  0.3747 -0.2419  0.1214
 6280SOL    HW230474   1.441   1.195   0.779 -2.6484 -1.0391 -0.2966
 6281SOL     OW30475   4.109   2.179   5.363  0.2679  0.2817 -0.0786
 6281SOL    HW130476   4.132   2.086   5.353 -2.3610 -0.5637  1.7926
 6281SOL    HW230477   4.188   2.215   5.405 -0.0776 -0.2792  1.0604
 6282SOL     OW30478   3.331   0.683   5.942  0.3557  0.4233  0.7497
 6282SOL    HW130479   3.254   0.737   5.921  0.8884  0.5310 -0.8617
 6282SOL    HW230480   3.305   0.598   5.907 -0.2161  1.3416 -1.0621
 6283SOL     OW30481   0.284   2.071   1.316 -0.0886  0.3859  0.6423
 6283SOL    HW130482   0.343   2.121   1.259 -1.5114  0.1192 -1.0705
 6283SOL    HW230483   0.267   2.137   1.383 -1.0591 -0.4078  1.1834
 6284SOL     OW30484   2.357   3.559   7.399 -0.1728  0.2384 -0.4061
 6284SOL    HW130485   2.426   3.549   7.334  2.6547  0.5313  2.5241
 6284SOL    HW230486   2.363   3.482   7.456 -2.1590 -1.5206 -2.5925
 6285SOL     OW30487   0.800   2.953   8.709  0.8431 -0.0830 -1.0941
 6285SOL    HW130488   0.775   2.986   8.623  2.1431 -1.8577 -2.1420
 6285SOL    HW230489   0.877   3.005   8.731  0.3665  0.7105 -1.3227
 6286SOL     OW30490   3.414   4.395   7.697 -0.0678  0.2904  0.3299
 6286SOL    HW130491   3.436   4.303   7.687  1.9608  0.7479  0.6894
 6286SOL    HW230492   3.319   4.392   7.710 -0.2859  0.4741 -1.3381
 6287SOL     OW30493   3.120   4.579   0.768  0.0959  0.4963  0.3941
 6287SOL    HW130494   3.058   4.648   0.789 -1.4328 -0.6632 -0.3330
 6287SOL    HW230495   3.171   4.580   0.849 -1.0149 -0.0836  1.1056
 6288SOL     OW30496   1.784   2.416   6.388 -0.6768  0.8437 -0.1525
 6288SOL    HW130497   1.763   2.322   6.383  0.1596  0.6242  0.3813
 6288SOL    HW230498   1.879   2.420   6.378 -0.5624  0.6148  0.8867
 6289SOL     OW30499   4.037   0.303  16.876  0.0311 -0.6302 -0.2904
 6289SOL    HW130500   4.091   0.261  16.943 -0.9921 -0.2425  0.7891
 6289SOL    HW230501   3.952   0.304  16.921  0.4496 -1.2842  0.5158
 6290SOL     OW30502   1.056   1.985  14.905  0.2098 -0.5456 -0.4992
 6290SOL    HW130503   1.043   2.003  14.999  2.2404  2.7676 -0.8599
 6290SOL    HW230504   1.007   2.059  14.869 -0.2184 -0.6073 -0.0487
 6291SOL     OW30505   3.380   2.520   3.375  0.2685  0.0053 -0.7886
 6291SOL    HW130506   3.474   2.518   3.392  0.3300 -1.4216 -1.2936
 6291SOL    HW230507   3.380   2.546   3.283  1.0899 -0.3741 -0.8932
 6292SOL     OW30508   3.163   0.137   8.871  0.2323  0.1428  0.2943
 6292SOL    HW130509   3.238   0.190   8.842  0.0129 -1.0766 -2.4616
 6292SOL    HW230510   3.108   0.165   8.798  1.4405  1.0169 -0.2875
 6293SOL     OW30511   0.650   2.006  10.074  0.3395  0.2011 -0.1449
 6293SOL    HW130512   0.642   1.988  10.167  1.0681  1.9021  0.2607
 6293SOL    HW230513   0.654   1.923  10.026 -0.4565 -1.5481  2.8493
 6294SOL     OW30514   2.872   3.516   7.853 -0.0034 -0.4210 -0.1286
 6294SOL    HW130515   2.906   3.602   7.879 -0.0702 -0.6460  0.6944
 6294SOL    HW230516   2.787   3.498   7.892  0.0918  0.2787  0.4045
 6295SOL     OW30517   2.014   1.183  15.252 -0.5695  0.2699 -0.1607
 6295SOL    HW130518   1.947   1.157  15.189  1.1956 -1.6259 -1.2347
 6295SOL    HW230519   2.062   1.255  15.211 -1.3518 -0.2226 -1.9445
 6296SOL     OW30520   0.150   1.707  12.354  0.2800 -0.0197 -0.4623
 6296SOL    HW130521   0.105   1.624  12.369  0.2743  0.2565  1.0066
 6296SOL    HW230522   0.084   1.769  12.385  1.7881  1.1707  0.3803
 6297SOL     OW30523   1.894   4.526   2.912 -0.0857  0.6464 -0.5989
 6297SOL    HW130524   1.947   4.507   2.989 -1.3172 -1.1773 -0.1872
 6297SOL    HW230525   1.838   4.596   2.948  0.8503  2.2833 -2.3587
 6298SOL     OW30526   2.257   3.554   0.824 -0.2207  0.1099  0.1637
 6298SOL    HW130527   2.295   3.509   0.748 -0.3293 -2.4295  1.6163
 6298SOL    HW230528   2.192   3.488   0.850  1.1744 -1.8273 -1.2438
 6299SOL     OW30529   0.964   3.585  12.662 -0.4718 -0.2031 -0.7807
 6299SOL    HW130530   0.934   3.565  12.574 -2.4733 -3.6109  0.7079
 6299SOL    HW230531   0.885   3.576  12.715 -0.2574  0.4650 -0.3471
 6300SOL     OW30532   1.025   0.336   6.342 -0.7905 -0.6433 -0.0220
 6300SOL    HW130533   1.042   0.430   6.335  0.8319 -0.9653 -0.4232
 6300SOL    HW230534   1.062   0.306   6.259  1.4285  0.4693  0.5768
 6301SOL     OW30535   3.351   2.609   4.335 -0.3767 -0.2077  0.2915
 6301SOL    HW130536   3.379   2.528   4.377 -0.0510 -0.7042 -0.8816
 6301SOL    HW230537   3.388   2.678   4.390  1.2449 -1.5854  0.9414
 6302SOL     OW30538   3.519   4.088   4.616  0.2106 -0.2869  0.1368
 6302SOL    HW130539   3.520   4.109   4.522 -1.3223 -0.2218  0.1254
 6302SOL    HW230540   3.425   4.069   4.623 -0.2598  1.2399 -1.9274
 6303SOL     OW30541   2.170   3.929   6.371 -0.2111  0.7009 -0.8017
 6303SOL    HW130542   2.097   3.872   6.393 -0.2994  1.7991  1.7825
 6303SOL    HW230543   2.161   3.930   6.276  0.1835  1.7499 -0.8311
 6304SOL     OW30544   0.312   2.984   7.673 -0.4614 -0.0049  0.1583
 6304SOL    HW130545   0.389   2.928   7.679 -1.3746 -1.2738 -0.0685
 6304SOL    HW230546   0.283   2.982   7.764  0.3118  0.1827  0.4140
 6305SOL     OW30547   1.802   1.463  17.544  0.1034 -0.5661  0.1666
 6305SOL    HW130548   1.821   1.432  17.455 -0.0683 -0.3669  0.0604
 6305SOL    HW230549   1.797   1.558  17.531 -0.2773 -0.5961  0.0890
 6306SOL     OW30550   2.498   4.048   8.835  0.5090 -0.0953 -0.7504
 6306SOL    HW130551   2.525   4.128   8.879  0.0758 -1.0989  1.3286
 6306SOL    HW230552   2.485   3.982   8.903  0.6495 -0.8432 -1.4399
 6307SOL     OW30553   0.996   2.159   6.851  0.2572 -0.1487 -0.2073
 6307SOL    HW130554   1.023   2.068   6.845 -0.1088 -0.2189 -0.7584
 6307SOL    HW230555   0.911   2.152   6.807 -0.4960 -1.0968  1.4083
 6308SOL     OW30556   2.374   1.681   6.606 -0.1027  0.3900 -0.5526
 6308SOL    HW130557   2.292   1.725   6.586 -0.8258  0.4385  2.5559
 6308SOL    HW230558   2.355   1.591   6.634 -0.4721  1.6076  3.0838
 6309SOL     OW30559   0.278   0.336   5.182  0.0532  0.6887  0.1622
 6309SOL    HW130560   0.256   0.311   5.272  2.1660  1.3552  0.8638
 6309SOL    HW230561   0.193   0.358   5.144 -1.3533 -0.0957  2.8308
 6310SOL     OW30562   1.501   4.725   6.058 -0.3093  0.1267 -0.3169
 6310SOL    HW130563   1.434   4.668   6.020 -0.3118  1.6070 -2.5553
 6310SOL    HW230564   1.475   4.719   6.150  0.0857 -1.9375 -0.3376
 6311SOL     OW30565   3.127   4.494   9.138  0.0532  0.2863 -0.0925
 6311SOL    HW130566   3.179   4.486   9.058 -1.3154  1.3230 -1.0880
 6311SOL    HW230567   3.102   4.402   9.146 -0.6710  0.3371 -1.8130
 6312SOL     OW30568   2.191   2.061   4.893  0.2911 -0.1406 -0.0526
 6312SOL    HW130569   2.207   2.056   4.798  1.1239 -1.2319  0.1379
 6312SOL    HW230570   2.119   1.999   4.898 -0.0104  0.2902  0.8062
 6313SOL     OW30571   1.070   4.336   2.558 -0.0355 -1.1766 -0.2614
 6313SOL    HW130572   1.058   4.393   2.481  0.2250 -2.4875 -1.2665
 6313SOL    HW230573   1.120   4.264   2.520  0.9711  1.0200 -3.1823
 6314SOL     OW30574   1.451   2.293   1.247  0.1043  0.6181  0.8837
 6314SOL    HW130575   1.386   2.264   1.311  0.3535 -0.9121  0.4390
 6314SOL    HW230576   1.402   2.265   1.169  1.5516  1.1054 -0.1939
 6315SOL     OW30577   1.171   2.987   1.821  0.3881 -0.4723 -0.0001
 6315SOL    HW130578   1.156   2.916   1.884 -0.1892 -1.8515 -1.7129
 6315SOL    HW230579   1.254   2.960   1.782 -0.8927 -2.2426 -1.5239
 6316SOL     OW30580   2.951   2.537   2.988 -0.1563 -0.3651 -0.7614
 6316SOL    HW130581   2.864   2.572   3.003  1.0021  1.9148  0.6326
 6316SOL    HW230582   2.979   2.525   3.079 -0.9724  1.7683 -0.2406
 6317SOL     OW30583   4.263   0.913   3.845  0.6030 -0.4768 -0.2156
 6317SOL    HW130584   4.329   0.964   3.798  1.5539 -0.0089  1.6371
 6317SOL    HW230585   4.274   0.826   3.807  2.4907  0.2458 -1.3114
 6318SOL     OW30586   2.748   1.041   3.380  0.2633  0.0033 -0.0911
 6318SOL    HW130587   2.827   1.018   3.429  1.2965  1.9907 -0.8262
 6318SOL    HW230588   2.734   0.957   3.336  2.3577 -0.5340  0.2856
 6319SOL     OW30589   3.222   2.191   5.060  0.4729  0.2295  0.4821
 6319SOL    HW130590   3.140   2.237   5.082 -0.5806 -0.2569 -2.4879
 6319SOL    HW230591   3.200   2.107   5.101 -4.0573  1.0970 -0.1267
 6320SOL     OW30592   1.219   1.043   7.396  0.4725 -0.1258 -0.0299
 6320SOL    HW130593   1.225   1.013   7.486 -0.3863 -0.1110  0.0344
 6320SOL    HW230594   1.269   1.124   7.390  1.1793 -0.8445 -3.9269
 6321SOL     OW30595   1.274   3.500   7.122 -0.0757  0.1976 -0.6101
 6321SOL    HW130596   1.272   3.487   7.217  0.1246  1.5134 -0.4231
 6321SOL    HW230597   1.229   3.583   7.108 -0.8010 -0.3256 -1.3727
 6322SOL     OW30598   0.876   1.820   8.394 -0.4086 -0.3230  0.6409
 6322SOL    HW130599   0.966   1.804   8.368 -0.3875 -0.9646  1.1040
 6322SOL    HW230600   0.876   1.911   8.422 -0.1749  0.4568 -1.9356
 6323SOL     OW30601   2.987   4.570   2.390  0.6551 -0.1108  0.4638
 6323SOL    HW130602   2.925   4.545   2.322  0.1851 -1.5222  1.4203
 6323SOL    HW230603   3.008   4.485   2.428 -1.7905 -0.8455  0.1570
 6324SOL     OW30604   0.891   4.348   2.192  0.3866  0.2619 -0.6087
 6324SOL    HW130605   0.974   4.330   2.150  0.2807 -1.4250 -0.0929
 6324SOL    HW230606   0.860   4.425   2.145 -2.0745 -0.4432 -0.1826
 6325SOL     OW30607   4.708   3.553   5.677 -0.3760  0.5892 -0.2843
 6325SOL    HW130608   4.645   3.525   5.743 -1.4194  1.6173 -0.8488
 6325SOL    HW230609   4.674   3.643   5.674  0.2041  0.8368  0.5947
 6326SOL     OW30610   3.746   4.334   9.357  0.5696  0.1425  0.1591
 6326SOL    HW130611   3.828   4.319   9.405  0.6622  1.9035  0.5408
 6326SOL    HW230612   3.723   4.424   9.379  2.5364  0.8390 -0.6536
 6327SOL     OW30613   3.466   3.101  10.676  0.2634  0.0950  0.6409
 6327SOL    HW130614   3.380   3.073  10.647 -0.8939  1.7903  2.3724
 6327SOL    HW230615   3.481   3.040  10.748  3.1662 -0.2716 -0.2731
 6328SOL     OW30616   2.032   0.613  12.742  0.0580  0.0915  0.2328
 6328SOL    HW130617   1.989   0.661  12.813 -1.5617 -0.8342 -0.1327
 6328SOL    HW230618   2.123   0.615  12.773 -0.4266  1.0859  1.5755
 6329SOL     OW30619   0.627   2.553   7.382 -0.3644  0.0557 -0.1541
 6329SOL    HW130620   0.619   2.481   7.445 -3.2361 -1.4312 -2.2149
 6329SOL    HW230621   0.722   2.557   7.373 -0.3883  1.1794  0.0736
 6330SOL     OW30622   1.128   3.914   8.677  0.3168  0.4264  0.1970
 6330SOL    HW130623   1.217   3.901   8.711  0.8196 -0.5281 -1.4681
 6330SOL    HW230624   1.079   3.975   8.732  1.6499  0.8494  0.9196
 6331SOL     OW30625   1.358   1.942   2.966 -0.1631 -0.1287  0.2492
 6331SOL    HW130626   1.320   1.956   3.053 -1.2809 -1.1961 -0.0550
 6331SOL    HW230627   1.445   1.982   2.966  0.4074 -1.3621 -2.5116
 6332SOL     OW30628   4.400   0.881   8.774  0.3024 -0.0344 -0.3126
 6332SOL    HW130629   4.321   0.909   8.821  0.4765 -0.0237 -0.0263
 6332SOL    HW230630   4.462   0.943   8.812 -1.8502  1.4534  0.7933
 6333SOL     OW30631   2.734   1.316  17.749  0.3490 -0.0697 -0.1344
 6333SOL    HW130632   2.764   1.256  17.680  0.1456 -1.1804  0.7539
 6333SOL    HW230633   2.652   1.348  17.712  0.3847 -1.5542 -1.4798
 6334SOL     OW30634   3.630   0.703   3.344  0.1285  0.3937  0.0202
 6334SOL    HW130635   3.591   0.681   3.429 -1.4758 -0.6155 -0.9920
 6334SOL    HW230636   3.641   0.615   3.310 -1.7607 -0.2557  1.0918
 6335SOL     OW30637   0.446   3.545   3.927 -0.0286  0.2275 -0.2183
 6335SOL    HW130638   0.485   3.458   3.919 -0.8876 -0.3834  2.3557
 6335SOL    HW230639   0.450   3.575   3.837 -0.5770 -0.4560 -0.4693
 6336SOL     OW30640   3.410   3.275  17.319 -0.3703  0.1645  0.6341
 6336SOL    HW130641   3.323   3.246  17.344 -0.5621 -0.0749 -0.3222
 6336SOL    HW230642   3.458   3.307  17.395  0.9643  0.8901 -0.5007
 6337SOL     OW30643   1.046   1.392   7.322 -0.1339 -0.1409  0.3036
 6337SOL    HW130644   0.965   1.436   7.293  0.6181  1.0210 -0.0188
 6337SOL    HW230645   1.026   1.306   7.284  0.8117 -0.7131  1.1321
 6338SOL     OW30646   1.038   0.706   2.501 -0.3118  0.0450 -0.1776
 6338SOL    HW130647   1.112   0.650   2.523  0.8206  1.6227  0.0786
 6338SOL    HW230648   0.965   0.647   2.483 -1.5497  0.6901  2.7802
 6339SOL     OW30649   0.707   0.507  15.108  0.0345 -0.3163 -0.1869
 6339SOL    HW130650   0.776   0.455  15.149 -1.2107 -1.7908  0.0394
 6339SOL    HW230651   0.629   0.455  15.125 -1.7202  2.1464 -0.6593
 6340SOL     OW30652   3.645   4.091   8.612 -0.7908 -0.1895 -0.3871
 6340SOL    HW130653   3.606   4.093   8.700  1.2636 -1.3444  0.5494
 6340SOL    HW230654   3.706   4.165   8.612 -0.8813 -0.1192 -1.0180
 6341SOL     OW30655   3.451   2.177  13.145  0.1871 -0.0742 -0.1542
 6341SOL    HW130656   3.525   2.165  13.205  0.7279  1.5759 -0.5052
 6341SOL    HW230657   3.379   2.172  13.208 -1.7392  2.1546 -2.2386
 6342SOL     OW30658   2.060   2.930   5.611  0.2015  0.1108 -0.1710
 6342SOL    HW130659   2.151   2.902   5.626 -0.3209 -0.8585  1.2370
 6342SOL    HW230660   2.027   2.952   5.698 -0.6516 -1.4495 -0.0851
 6343SOL     OW30661   0.778   1.365   8.664  0.2178 -0.0381  0.0592
 6343SOL    HW130662   0.723   1.329   8.734 -0.1811  0.1261 -0.1719
 6343SOL    HW230663   0.783   1.458   8.685  1.0680  0.4184 -2.1035
 6344SOL     OW30664   2.241   0.563   4.850  0.3967  0.6559 -0.3414
 6344SOL    HW130665   2.290   0.539   4.772  0.6821 -1.2792  0.4292
 6344SOL    HW230666   2.302   0.630   4.880  0.0906 -0.6001  3.0279
 6345SOL     OW30667   2.025   0.444   1.954 -0.1316 -0.0687 -0.2634
 6345SOL    HW130668   1.974   0.411   2.028 -0.0905 -2.3221 -1.2341
 6345SOL    HW230669   1.982   0.526   1.931  2.1728  1.1413 -0.2735
 6346SOL     OW30670   1.009   3.148   4.494 -0.4574 -0.2874 -0.7239
 6346SOL    HW130671   0.975   3.157   4.405 -0.3699 -1.5770 -0.8928
 6346SOL    HW230672   0.960   3.215   4.540 -1.1263 -0.1192 -1.6810
 6347SOL     OW30673   3.905   3.297  14.231  1.0698 -0.5569  0.2583
 6347SOL    HW130674   3.951   3.255  14.303 -0.5583 -0.9232  1.0714
 6347SOL    HW230675   3.965   3.282  14.158  1.3663 -0.7900  0.5539
 6348SOL     OW30676   4.064   4.141  12.902  0.8073 -0.4976 -0.2427
 6348SOL    HW130677   4.131   4.074  12.909 -1.3230 -2.5743  0.2069
 6348SOL    HW230678   4.113   4.214  12.939  1.0459 -0.8172  0.0652
 6349SOL     OW30679   2.021   1.968   1.386  0.3095  0.8380  0.1431
 6349SOL    HW130680   1.943   1.913   1.391  1.0704 -0.1877  0.8094
 6349SOL    HW230681   2.028   1.977   1.291 -3.9618 -0.4425 -0.2977
 6350SOL     OW30682   3.187   1.305  16.644  0.3405  0.5220  0.8286
 6350SOL    HW130683   3.156   1.355  16.719  1.3301  1.5027  0.5780
 6350SOL    HW230684   3.139   1.355  16.578 -0.3905  3.1373  3.3505
 6351SOL     OW30685   4.113   0.991   8.830 -0.3325 -0.7469  0.3978
 6351SOL    HW130686   4.188   1.024   8.878 -0.6192  0.8662 -0.2855
 6351SOL    HW230687   4.049   1.020   8.894 -0.6715  1.2838 -0.8677
 6352SOL     OW30688   4.440   1.403   7.732 -0.1778  0.1276 -0.2295
 6352SOL    HW130689   4.399   1.426   7.816 -1.6321 -0.3633 -0.8135
 6352SOL    HW230690   4.515   1.463   7.732  0.3310 -0.5169 -0.3399
 6353SOL     OW30691   1.436   3.880   1.723  0.5171 -0.5917 -0.3833
 6353SOL    HW130692   1.391   3.796   1.713  3.8539 -2.4871  0.5245
 6353SOL    HW230693   1.496   3.857   1.794  0.0241 -1.8292 -0.3603
 6354SOL     OW30694   4.554   2.383   7.173  0.1953 -0.6932 -0.7589
 6354SOL    HW130695   4.488   2.394   7.241  1.6337  1.5931  0.2440
 6354SOL    HW230696   4.556   2.288   7.181  3.4886 -0.4081  1.7706
 6355SOL     OW30697   1.172   1.550   6.493 -0.0187 -1.1404 -0.3075
 6355SOL    HW130698   1.139   1.487   6.429  0.6022 -0.3303 -1.4445
 6355SOL    HW230699   1.177   1.503   6.576 -1.5550 -2.2343 -0.8459
 6356SOL     OW30700   2.366   1.619   1.576  0.5028 -0.0817 -0.6906
 6356SOL    HW130701   2.458   1.646   1.583 -0.0554  1.7588 -0.5549
 6356SOL    HW230702   2.338   1.707   1.553 -1.3969 -0.2419  1.0125
 6357SOL     OW30703   0.546   2.766  16.580  0.5913  0.1628 -0.3875
 6357SOL    HW130704   0.453   2.774  16.556  1.0469  2.3513 -1.4443
 6357SOL    HW230705   0.569   2.701  16.514  2.6623 -2.1837  2.6525
 6358SOL     OW30706   1.717   0.480   9.576  0.0772 -0.3426  0.0728
 6358SOL    HW130707   1.763   0.468   9.659 -0.4813  1.3344  0.6252
 6358SOL    HW230708   1.749   0.403   9.530 -2.8866 -2.6504  1.8501
 6359SOL     OW30709   2.962   0.381   4.338 -0.1390  0.0721  0.0835
 6359SOL    HW130710   3.017   0.383   4.417  0.4845  0.9428 -0.3803
 6359SOL    HW230711   2.971   0.291   4.305 -1.4098  0.1329 -0.4137
 6360SOL     OW30712   0.390   4.418   4.414  0.3649 -0.2548  0.1801
 6360SOL    HW130713   0.461   4.481   4.403 -0.2301  0.2991 -0.5535
 6360SOL    HW230714   0.400   4.408   4.509  0.2472 -1.8856  0.0308
 6361SOL     OW30715   4.435   1.207  12.335 -0.2932 -0.3411  0.3520
 6361SOL    HW130716   4.452   1.301  12.334 -0.1379 -0.3265  4.6539
 6361SOL    HW230717   4.350   1.208  12.291 -0.9661 -1.3312  1.6495
 6362SOL     OW30718   0.600   1.632   1.806  0.3080 -0.5312 -0.0884
 6362SOL    HW130719   0.618   1.672   1.720 -0.3600 -1.2430 -0.5572
 6362SOL    HW230720   0.505   1.624   1.797  0.3234 -0.2842 -0.4761
 6363SOL     OW30721   0.632   1.690  13.120  0.0537  0.5029  0.7088
 6363SOL    HW130722   0.676   1.608  13.143 -0.4701 -0.0834 -0.4046
 6363SOL    HW230723   0.555   1.673  13.174 -0.6258  0.8725 -0.1412
 6364SOL     OW30724   0.713   1.845  17.682 -0.4524 -0.4898 -0.2488
 6364SOL    HW130725   0.712   1.816   0.024 -0.0342 -3.2524 -1.1011
 6364SOL    HW230726   0.654   1.782  17.639  0.1124 -0.9317 -0.3764
 6365SOL     OW30727   4.390   0.904   9.885 -0.4399 -0.3733 -0.5172
 6365SOL    HW130728   4.313   0.919   9.940 -1.0284 -0.6509 -1.2664
 6365SOL    HW230729   4.458   0.925   9.949  0.4525 -0.6025 -1.3963
 6366SOL     OW30730   2.247   2.911   0.418 -0.1799 -0.2904 -0.9037
 6366SOL    HW130731   2.308   2.838   0.415 -0.7635 -0.8225  0.1734
 6366SOL    HW230732   2.235   2.934   0.326  0.8029  0.5748 -0.8150
 6367SOL     OW30733   3.788   0.481   8.174  0.1596  0.0553  0.2022
 6367SOL    HW130734   3.880   0.506   8.170  0.7997 -1.9741  2.4396
 6367SOL    HW230735   3.794   0.426   8.251  0.0734  1.6131  1.3199
 6368SOL     OW30736   4.451   3.864   4.344  0.2060  0.1364 -0.2304
 6368SOL    HW130737   4.502   3.804   4.398  0.6711  0.2935 -0.4923
 6368SOL    HW230738   4.473   3.945   4.390  1.3738  1.3814 -2.9574
 6369SOL     OW30739   2.217   3.086  17.339 -0.8457  0.4473  0.8621
 6369SOL    HW130740   2.177   3.112  17.422 -0.3382  0.6184  1.0530
 6369SOL    HW230741   2.153   3.127  17.281  0.2188  2.8515  1.3696
 6370SOL     OW30742   2.379   0.156   2.754 -0.1823 -0.4067  0.2675
 6370SOL    HW130743   2.339   0.084   2.705  1.5730  0.5669 -2.6344
 6370SOL    HW230744   2.433   0.102   2.812  2.5899 -1.0296 -2.9031
 6371SOL     OW30745   2.545   1.945   4.016 -0.8461  0.9847 -0.5614
 6371SOL    HW130746   2.609   1.946   3.944  0.1020  1.8631  0.2903
 6371SOL    HW230747   2.469   1.907   3.973  0.0387  1.2320 -2.3961
 6372SOL     OW30748   0.502   2.689   3.301  0.4472 -0.0390  0.4052
 6372SOL    HW130749   0.510   2.600   3.267  0.5266  0.9649 -2.1895
 6372SOL    HW230750   0.545   2.736   3.230 -1.5801 -0.2539 -0.9500
 6373SOL     OW30751   2.538   2.923  16.230  0.5063  0.7883  0.0157
 6373SOL    HW130752   2.456   2.919  16.278  0.0867 -2.0096 -0.9254
 6373SOL    HW230753   2.504   2.910  16.142  1.5973 -0.3401 -0.2411
 6374SOL     OW30754   3.835   1.646   6.288 -0.2322 -0.8788  0.0080
 6374SOL    HW130755   3.767   1.707   6.315 -1.4005 -2.5882  0.9323
 6374SOL    HW230756   3.870   1.607   6.368 -0.6053 -1.5984 -0.1822
 6375SOL     OW30757   4.003   3.974  17.123  0.4906 -0.2569 -0.1707
 6375SOL    HW130758   4.096   3.969  17.140  0.5719  0.4759 -0.3951
 6375SOL    HW230759   3.991   4.066  17.143  1.4824  0.2768 -2.0060
 6376SOL     OW30760   4.134   0.961   9.762  0.2596 -0.4318 -0.2685
 6376SOL    HW130761   4.111   1.026   9.829  0.6116  0.3706 -0.9166
 6376SOL    HW230762   4.095   1.009   9.689 -0.7139 -0.2884  0.3469
 6377SOL     OW30763   2.285   3.788   7.868  0.5447 -0.4727  0.2133
 6377SOL    HW130764   2.266   3.878   7.892  1.1669  0.6436 -3.5086
 6377SOL    HW230765   2.277   3.777   7.773  1.6038  0.1019  0.0670
 6378SOL     OW30766   3.739   0.885   3.790 -0.6951 -0.4755 -0.2139
 6378SOL    HW130767   3.813   0.861   3.734 -0.4073  0.0811 -0.0770
 6378SOL    HW230768   3.758   0.977   3.809 -0.6401 -0.8273  1.3941
 6379SOL     OW30769   1.625   2.347   1.624 -0.4487  0.8995 -0.0544
 6379SOL    HW130770   1.646   2.421   1.567 -0.3567  0.6915 -0.2875
 6379SOL    HW230771   1.638   2.381   1.713 -0.9040  2.2335 -0.4877
 6380SOL     OW30772   3.063   4.592   7.823 -0.0728 -0.3703 -0.1176
 6380SOL    HW130773   3.099   4.558   7.904 -3.3497 -1.8236  0.7375
 6380SOL    HW230774   3.113   4.674   7.818  1.2387 -1.3668 -3.1112
 6381SOL     OW30775   1.766   1.154   6.942 -0.2521  0.6491 -0.0584
 6381SOL    HW130776   1.717   1.099   7.004  0.7968  1.1583  1.2379
 6381SOL    HW230777   1.778   1.233   6.995 -1.5038  1.3820 -0.8952
 6382SOL     OW30778   0.657   2.176  14.745 -0.1180 -0.6097 -0.3444
 6382SOL    HW130779   0.656   2.223  14.661 -2.1767  0.2741  0.1715
 6382SOL    HW230780   0.583   2.217  14.791  0.0368 -1.9733  1.1138
 6383SOL     OW30781   3.153   0.377   9.096  0.0962 -0.7854 -0.0231
 6383SOL    HW130782   3.133   0.383   9.002  0.2548 -3.1401 -0.2050
 6383SOL    HW230783   3.134   0.467   9.121  0.5583 -0.3158 -1.3288
 6384SOL     OW30784   1.391   0.333   2.825 -0.5044  0.2228  0.2168
 6384SOL    HW130785   1.394   0.427   2.812  1.6195 -0.0748 -1.4904
 6384SOL    HW230786   1.296   0.323   2.817 -0.4563 -0.9916  1.0272
 6385SOL     OW30787   4.018   1.922   4.713  0.0024  0.0667 -0.0541
 6385SOL    HW130788   4.113   1.915   4.723 -0.0820 -2.3481 -0.8652
 6385SOL    HW230789   3.998   1.847   4.657 -0.9441 -0.3981  0.9080
 6386SOL     OW30790   1.801   4.415  15.795 -0.2553  0.5397  0.0503
 6386SOL    HW130791   1.882   4.367  15.810  0.2176  1.5215  0.6148
 6386SOL    HW230792   1.811   4.439  15.703  0.3999 -0.4476 -0.1311
 6387SOL     OW30793   0.041   1.984   3.348 -0.4439 -0.3809 -0.6726
 6387SOL    HW130794   0.015   2.034   3.426  2.0440  0.5146 -0.4261
 6387SOL    HW230795   4.707   1.921   3.346 -1.2955  0.5961 -1.1966
 6388SOL     OW30796   2.914   3.972   8.668  0.2728  0.4117  0.2997
 6388SOL    HW130797   2.948   3.884   8.652  0.1413 -0.1367  3.1801
 6388SOL    HW230798   2.852   3.946   8.736 -2.1848 -0.9292 -2.4701
 6389SOL     OW30799   1.476   3.927   1.175  0.1489 -0.0773  0.2873
 6389SOL    HW130800   1.543   3.860   1.168  0.9298  0.8344 -1.1238
 6389SOL    HW230801   1.475   3.963   1.263  0.6467 -0.5259  0.4717
 6390SOL     OW30802   2.056   1.900   5.854 -0.0650 -0.1686  0.2030
 6390SOL    HW130803   2.075   1.848   5.776 -0.7942 -0.8636  0.4799
 6390SOL    HW230804   2.112   1.977   5.844 -0.8254  0.3429 -0.1933
 6391SOL     OW30805   1.712   3.911   4.250  0.2799  0.1219  0.4223
 6391SOL    HW130806   1.739   3.936   4.338 -1.9282 -1.7755  1.6279
 6391SOL    HW230807   1.763   3.831   4.241  2.3470  1.3878  0.7633
 6392SOL     OW30808   2.268   2.143   1.353 -0.0830  0.0709  0.4942
 6392SOL    HW130809   2.194   2.152   1.413 -1.5174 -0.2634 -1.2625
 6392SOL    HW230810   2.255   2.218   1.294  0.9458 -1.3739 -1.5617
 6393SOL     OW30811   2.410   3.899   6.588  0.0614 -0.4793  0.0570
 6393SOL    HW130812   2.321   3.933   6.600 -0.8761 -2.1195 -2.1697
 6393SOL    HW230813   2.433   3.881   6.679  0.9524  0.4793  0.0252
 6394SOL     OW30814   4.736   3.736   5.356  0.2898  0.3141  0.0067
 6394SOL    HW130815   0.044   3.802   5.306  0.5560 -0.2761 -0.5280
 6394SOL    HW230816   0.056   3.660   5.352  2.5985  2.0554  0.4436
 6395SOL     OW30817   1.461   3.516   1.814  0.0048 -0.3171 -0.6613
 6395SOL    HW130818   1.439   3.580   1.747  1.5981  0.0184 -0.8696
 6395SOL    HW230819   1.375   3.497   1.849 -0.8191  4.3729 -0.0332
 6396SOL     OW30820   3.460   2.345  14.079 -0.3906 -0.1960 -0.3170
 6396SOL    HW130821   3.502   2.273  14.126 -0.8461  1.3080  2.3715
 6396SOL    HW230822   3.524   2.352  14.008  0.1728  2.4890  0.4612
 6397SOL     OW30823   4.214   4.247   2.636 -0.0127  0.0345 -0.2901
 6397SOL    HW130824   4.160   4.177   2.671  0.0824  0.3556  0.4832
 6397SOL    HW230825   4.142   4.300   2.600  0.6136  0.3834 -1.0500
 6398SOL     OW30826   2.739   2.427   8.250  0.5022  0.4136 -0.3364
 6398SOL    HW130827   2.801   2.369   8.295  0.7319 -0.1987 -1.4430
 6398SOL    HW230828   2.665   2.436   8.310  1.3861 -0.8978  0.9457
 6399SOL     OW30829   4.504   4.092   1.967  0.0031 -0.2253 -0.1352
 6399SOL    HW130830   4.542   4.016   1.922 -1.4893  0.2402 -2.2009
 6399SOL    HW230831   4.473   4.054   2.048  0.2372  0.3714  0.2341
 6400SOL     OW30832   3.815   0.351  17.066 -0.3565  0.0471 -0.4984
 6400SOL    HW130833   3.854   0.430  17.103 -1.9653  0.4675  0.2756
 6400SOL    HW230834   3.741   0.381  17.014  0.3074  0.4731 -1.1916
 6401SOL     OW30835   2.715   1.954   2.840 -0.4232  0.5644  0.0808
 6401SOL    HW130836   2.759   1.924   2.919 -1.7351  0.5874  0.8260
 6401SOL    HW230837   2.789   1.973   2.783 -0.8313 -0.3797 -0.7610
 6402SOL     OW30838   1.692   2.402   3.913 -0.3196  0.1938  0.7793
 6402SOL    HW130839   1.658   2.391   4.001 -0.1277 -0.0482  0.8213
 6402SOL    HW230840   1.758   2.332   3.910 -1.5340 -0.9463  0.6408
 6403SOL     OW30841   3.933   2.829   2.024 -0.5522 -0.4425 -0.3896
 6403SOL    HW130842   3.976   2.901   1.978  0.2157 -1.0642 -0.6456
 6403SOL    HW230843   3.848   2.823   1.981 -0.8267  0.0792  0.0850
 6404SOL     OW30844   3.178   0.675   5.629 -0.4686 -0.4946 -0.0526
 6404SOL    HW130845   3.130   0.642   5.553 -0.1847  0.7796 -0.7787
 6404SOL    HW230846   3.121   0.671   5.706 -1.5207  1.0047 -0.7491
 6405SOL     OW30847   0.320   0.218  11.670 -0.8511  0.2988  0.2495
 6405SOL    HW130848   0.271   0.248  11.593 -2.4632 -3.0504  0.0189
 6405SOL    HW230849   0.358   0.135  11.643 -0.7116  0.5549 -0.3395
 6406SOL     OW30850   1.974   2.733   6.137 -0.6631 -0.6614 -0.1810
 6406SOL    HW130851   2.014   2.719   6.051 -1.1874  2.8081 -0.9848
 6406SOL    HW230852   2.056   2.771   6.168  0.0506 -1.0764 -1.5279
 6407SOL     OW30853   3.654   4.213   1.751 -0.5116  0.7588  0.0573
 6407SOL    HW130854   3.731   4.270   1.749  0.0445 -0.0121 -0.9038
 6407SOL    HW230855   3.629   4.227   1.659  0.2327  1.8004  0.0120
 6408SOL     OW30856   1.533   2.411  15.401 -1.1985  0.0975 -0.2717
 6408SOL    HW130857   1.539   2.368  15.486 -0.0076 -0.7564 -0.7901
 6408SOL    HW230858   1.599   2.480  15.411 -0.5268 -0.4714 -0.7183
 6409SOL     OW30859   3.452   0.700  12.205  0.5431  0.8616 -0.2236
 6409SOL    HW130860   3.537   0.729  12.239  0.2101  2.9193 -1.1496
 6409SOL    HW230861   3.398   0.769  12.243 -0.3456  0.5356 -0.8999
 6410SOL     OW30862   1.355   2.231   5.732 -0.2123  0.0153  0.1422
 6410SOL    HW130863   1.430   2.172   5.742  0.6739  1.2368  0.6650
 6410SOL    HW230864   1.368   2.309   5.786 -0.3979  1.2648 -1.6268
 6411SOL     OW30865   0.198   1.188   3.826  0.1981 -0.2479  0.4073
 6411SOL    HW130866   0.250   1.107   3.823  0.2572 -0.1953  0.0174
 6411SOL    HW230867   0.158   1.201   3.740  1.7027 -1.6042 -0.4992
 6412SOL     OW30868   4.130   1.815   4.341 -0.8160 -0.0439 -0.0098
 6412SOL    HW130869   4.077   1.753   4.389  0.0457  0.8668  2.1365
 6412SOL    HW230870   4.223   1.799   4.361 -1.2841 -0.5542  1.6984
 6413SOL     OW30871   0.130   0.672   6.857  0.4577  0.2986  0.0227
 6413SOL    HW130872   0.211   0.678   6.806  0.9378  1.6328  0.9451
 6413SOL    HW230873   0.165   0.635   6.937  0.5702  2.1790  0.8340
 6414SOL     OW30874   4.673   2.117   9.427 -0.2864  0.0026 -0.2641
 6414SOL    HW130875   4.596   2.073   9.389 -0.4539  0.2373 -0.1990
 6414SOL    HW230876   4.686   2.171   9.349  0.2333  0.7928  0.3750
 6415SOL     OW30877   0.236   2.230   9.402 -0.6830 -0.2806  0.0984
 6415SOL    HW130878   0.161   2.196   9.353 -1.3174  0.5770  0.4778
 6415SOL    HW230879   0.241   2.318   9.364  0.4761 -0.0179  0.8716
 6416SOL     OW30880   1.750   1.902  14.467  0.3501 -0.5483 -0.1132
 6416SOL    HW130881   1.714   1.815  14.482  0.4977 -0.8073 -1.2724
 6416SOL    HW230882   1.719   1.949  14.545 -0.7528 -2.4824  0.6292
 6417SOL     OW30883   2.201   4.309   3.403 -0.2409 -0.0854  0.2838
 6417SOL    HW130884   2.134   4.258   3.448  0.8527  0.1499  2.1817
 6417SOL    HW230885   2.276   4.289   3.459  0.9069  0.2637 -1.1223
 6418SOL     OW30886   1.003   4.433   2.923  0.2186  0.0318  0.2617
 6418SOL    HW130887   1.030   4.501   2.984  1.1852 -0.7171  0.6627
 6418SOL    HW230888   0.909   4.450   2.927  0.4012  1.1076 -0.1551
 6419SOL     OW30889   0.688   0.515   2.963 -0.0693 -0.5137 -0.3167
 6419SOL    HW130890   0.694   0.579   3.034 -1.0921  0.1412 -0.8406
 6419SOL    HW230891   0.776   0.507   2.927  0.6723  2.7342  0.8036
 6420SOL     OW30892   2.561   1.989   7.125 -0.4345 -0.2554  0.1103
 6420SOL    HW130893   2.649   2.023   7.108 -0.9920  0.3247 -1.6259
 6420SOL    HW230894   2.526   2.075   7.149  1.6387  0.3576  0.9715
 6421SOL     OW30895   4.396   1.951  16.508 -0.1875  0.1305 -0.2262
 6421SOL    HW130896   4.318   1.980  16.461  0.3486  1.0270 -0.5836
 6421SOL    HW230897   4.467   2.006  16.474  0.6577 -1.6157 -1.2280
 6422SOL     OW30898   3.318   3.499   0.090 -0.4284 -0.2575 -0.1509
 6422SOL    HW130899   3.395   3.445   0.076  1.0466  1.9443 -0.4157
 6422SOL    HW230900   3.351   3.532   0.174 -1.3701 -2.3111  1.0530
 6423SOL     OW30901   4.037   1.760   3.164  0.3377  0.0836  0.3180
 6423SOL    HW130902   4.118   1.735   3.209  0.4822 -1.8973 -1.0580
 6423SOL    HW230903   4.052   1.853   3.182 -0.5965  0.6942 -2.1494
 6424SOL     OW30904   0.058   3.672  16.221  0.1387 -0.0577  0.4188
 6424SOL    HW130905   0.057   3.736  16.149 -1.2748 -0.5576  0.0056
 6424SOL    HW230906   0.033   3.732  16.291 -0.3002  1.4253 -1.0017
 6425SOL     OW30907   1.328   4.415   1.908 -0.2096  0.4519  0.0417
 6425SOL    HW130908   1.351   4.345   1.847  2.1809  1.6685 -0.4768
 6425SOL    HW230909   1.348   4.486   1.847 -0.7274  2.8007  2.6207
 6426SOL     OW30910   1.394   2.792   9.153 -0.6322 -0.1359 -0.2030
 6426SOL    HW130911   1.331   2.859   9.127  0.3467  1.1421  0.7677
 6426SOL    HW230912   1.351   2.716   9.113 -1.7845  0.9840 -1.0787
 6427SOL     OW30913   4.439   3.890   5.803  0.2380 -0.6848  0.3242
 6427SOL    HW130914   4.463   3.970   5.757  0.7290 -0.1370  1.5347
 6427SOL    HW230915   4.514   3.845   5.765  1.6827  2.8820 -1.0727
 6428SOL     OW30916   0.399   3.743   6.382  0.2686  0.6833 -0.4835
 6428SOL    HW130917   0.354   3.734   6.298 -1.5516  0.1775  0.5415
 6428SOL    HW230918   0.423   3.836   6.378  2.3413  0.2054  0.9675
 6429SOL     OW30919   1.224   0.250   5.450  0.1087  0.0795 -0.5138
 6429SOL    HW130920   1.224   0.224   5.542 -1.1225 -1.7156 -1.0096
 6429SOL    HW230921   1.138   0.220   5.422 -0.5623 -0.3658  2.0664
 6430SOL     OW30922   1.408   1.475  12.173  0.4664 -0.7696 -0.5740
 6430SOL    HW130923   1.429   1.385  12.196 -0.6193 -1.1434 -0.9993
 6430SOL    HW230924   1.351   1.497  12.247 -1.0605 -3.0047 -1.0623
 6431SOL     OW30925   2.204   2.732   6.524  0.3029  0.3094  0.1433
 6431SOL    HW130926   2.249   2.715   6.607 -0.0758 -0.0637  0.2720
 6431SOL    HW230927   2.112   2.722   6.549  0.7460  0.3122  1.7817
 6432SOL     OW30928   4.365   1.179   6.374  0.2838  0.2158  0.3201
 6432SOL    HW130929   4.380   1.180   6.280 -0.9112 -1.9402  0.1034
 6432SOL    HW230930   4.451   1.141   6.394 -0.0793 -1.8156 -1.9556
 6433SOL     OW30931   1.447   1.372  16.194  0.4512  0.0611  0.3846
 6433SOL    HW130932   1.404   1.323  16.125 -0.1920  0.7436  0.2999
 6433SOL    HW230933   1.415   1.329  16.273 -0.2661  0.1180  0.1239
 6434SOL     OW30934   4.729   4.663  17.100 -0.0507  0.2641 -0.1599
 6434SOL    HW130935   4.726   4.618  17.016 -1.4373  1.0232 -0.5208
 6434SOL    HW230936   0.049   4.601  17.145  0.2354  2.9427  3.1854
 6435SOL     OW30937   1.103   0.667   3.025  0.1128  0.5581 -0.1852
 6435SOL    HW130938   1.029   0.606   3.032 -1.2290  2.3071  0.8693
 6435SOL    HW230939   1.138   0.636   2.942  3.4688 -0.8790  1.7521
 6436SOL     OW30940   0.941   1.169   3.044 -0.6021  0.6013  0.0577
 6436SOL    HW130941   1.020   1.218   3.070 -0.8484  1.8395 -1.5290
 6436SOL    HW230942   0.871   1.234   3.057 -0.1833  0.6903  1.9368
 6437SOL     OW30943   0.718   0.972   6.558  0.4341 -0.1080 -0.1873
 6437SOL    HW130944   0.787   0.911   6.533 -0.9778 -1.9488  0.3188
 6437SOL    HW230945   0.725   1.027   6.480  1.0602  2.4140  1.6482
 6438SOL     OW30946   3.585   1.517   9.277 -0.1935 -0.1580  0.1984
 6438SOL    HW130947   3.612   1.518   9.186  0.7507  2.1121  0.4968
 6438SOL    HW230948   3.491   1.534   9.271 -0.6151 -1.8494  1.8770
 6439SOL     OW30949   0.788   1.758   1.017 -0.0343 -0.1866  0.1825
 6439SOL    HW130950   0.795   1.807   1.099 -0.3527  0.7330 -0.3366
 6439SOL    HW230951   0.802   1.830   0.955 -0.7981  0.6709  1.0175
 6440SOL     OW30952   0.260   2.799   8.403 -0.0854  0.1844 -0.0634
 6440SOL    HW130953   0.355   2.798   8.417 -0.5359 -0.6755  2.8448
 6440SOL    HW230954   0.244   2.705   8.402  0.8071  0.0586 -1.8076
 6441SOL     OW30955   1.239   1.312   3.664 -0.4671  0.2944  0.1274
 6441SOL    HW130956   1.249   1.255   3.588  1.2006 -1.8659  1.9712
 6441SOL    HW230957   1.287   1.393   3.643  1.7863 -1.0364  0.1070
 6442SOL     OW30958   4.619   0.955   9.440  0.1841  0.1509  0.1029
 6442SOL    HW130959   4.582   1.043   9.441  0.7311  0.3650  0.9978
 6442SOL    HW230960   4.705   0.954   9.398  0.6386 -1.6489  1.0787
 6443SOL     OW30961   4.557   4.287  17.625 -0.1134  0.0160  0.0788
 6443SOL    HW130962   4.523   4.369  17.659 -0.6235 -0.3083  0.3481
 6443SOL    HW230963   4.596   4.248  17.703  0.3421 -0.2418 -0.2739
 6444SOL     OW30964   1.933   0.615   2.891 -0.3945  0.2726  0.2013
 6444SOL    HW130965   1.905   0.540   2.838  0.0440 -1.0094  1.7710
 6444SOL    HW230966   1.996   0.573   2.949 -0.4489 -1.8569 -1.2894
 6445SOL     OW30967   4.019   4.333   8.764 -0.3234 -0.2135 -0.4693
 6445SOL    HW130968   4.059   4.300   8.845  1.4581  2.6815 -0.1580
 6445SOL    HW230969   4.021   4.424   8.795  0.1801 -0.8084  1.2091
 6446SOL     OW30970   4.144   1.973   5.599 -0.3027 -0.6650 -0.0699
 6446SOL    HW130971   4.205   2.043   5.622 -0.4528 -0.3763 -0.5423
 6446SOL    HW230972   4.100   1.972   5.684 -1.6825 -0.1128 -0.7733
 6447SOL     OW30973   2.375   4.559  11.372  0.5209 -0.3498 -0.1063
 6447SOL    HW130974   2.365   4.648  11.339 -2.4763 -0.4642  0.4955
 6447SOL    HW230975   2.470   4.554  11.368  0.5479  2.1086 -2.4177
 6448SOL     OW30976   2.195   3.802   8.252  0.0053 -0.2914 -0.0481
 6448SOL    HW130977   2.201   3.897   8.239 -1.0207 -0.1575  0.4042
 6448SOL    HW230978   2.114   3.786   8.302 -1.3069  0.0534 -2.0756
 6449SOL     OW30979   4.394   3.778   1.607 -0.6131 -0.1570 -0.0562
 6449SOL    HW130980   4.306   3.811   1.591 -0.8692 -0.7369  0.1280
 6449SOL    HW230981   4.375   3.687   1.632  2.6962 -0.9453 -0.4749
 6450SOL     OW30982   2.988   3.683   2.728 -0.2867 -0.3852  0.1492
 6450SOL    HW130983   2.990   3.759   2.786 -1.2852 -0.2380 -0.0066
 6450SOL    HW230984   2.899   3.681   2.692 -0.2852  3.0432 -0.0879
 6451SOL     OW30985   2.351   1.409   5.209  0.0417  0.0419 -0.5537
 6451SOL    HW130986   2.442   1.436   5.198  0.4017 -1.4993 -1.4166
 6451SOL    HW230987   2.363   1.315   5.194 -2.9392 -0.0967 -2.1375
 6452SOL     OW30988   4.582   4.319  11.796 -0.0524  0.2187  0.7113
 6452SOL    HW130989   4.516   4.319  11.726  0.2391  0.0369  0.4339
 6452SOL    HW230990   4.527   4.318  11.874 -1.1602  0.5772 -0.0636
 6453SOL     OW30991   4.648   2.046   7.698  0.4066  0.2349 -0.5516
 6453SOL    HW130992   4.718   2.001   7.745 -1.2662 -2.7407 -0.9554
 6453SOL    HW230993   4.610   1.972   7.652 -1.7387  1.0264 -0.0610
 6454SOL     OW30994   1.675   3.280   6.419  0.0206  0.6051  0.2910
 6454SOL    HW130995   1.728   3.222   6.475 -0.7797  0.8405  1.2879
 6454SOL    HW230996   1.632   3.330   6.488  2.3434  1.5769  1.0576
 6455SOL     OW30997   3.396   3.142   0.625  0.2102 -0.3651 -0.0147
 6455SOL    HW130998   3.364   3.196   0.552 -3.1308 -1.3391  0.7357
 6455SOL    HW230999   3.335   3.069   0.609 -0.4821  0.2108  0.0177
 6456SOL     OW31000   2.211   1.064   3.640  0.1718  0.1267 -0.2560
 6456SOL    HW131001   2.123   1.088   3.666 -0.1010  0.6640 -1.6821
 6456SOL    HW231002   2.190   1.054   3.547 -0.1037  0.4956 -0.2316
 6457SOL     OW31003   1.160   2.988   9.409  0.5709  0.1951  0.9803
 6457SOL    HW131004   1.198   2.917   9.460  1.3542 -2.0015 -2.6227
 6457SOL    HW231005   1.188   3.061   9.464 -1.4826  1.2635  0.6051
 6458SOL     OW31006   1.783   4.736   3.677 -0.2183 -0.0318  0.0375
 6458SOL    HW131007   1.708   0.058   3.672 -0.8889 -0.8163  0.6988
 6458SOL    HW231008   1.799   4.735   3.771  2.6090  0.2814 -0.4250
 6459SOL     OW31009   0.964   3.672  16.613 -0.7509  0.2211  0.5815
 6459SOL    HW131010   0.977   3.618  16.691  0.6008 -0.1316  0.1104
 6459SOL    HW231011   0.887   3.619  16.590 -0.4696 -0.2549  0.7407
 6460SOL     OW31012   3.989   0.951   7.780 -0.0468  0.1197 -0.0390
 6460SOL    HW131013   4.031   0.866   7.769  1.3013  0.9650 -1.3958
 6460SOL    HW231014   4.013   0.994   7.698 -1.6974  1.4473  0.1620
 6461SOL     OW31015   3.670   0.661   8.940  0.0260 -0.1879  0.1448
 6461SOL    HW131016   3.697   0.669   9.031  1.2266 -0.4740 -0.1951
 6461SOL    HW231017   3.662   0.754   8.919  2.5474  0.0390  0.2367
 6462SOL     OW31018   2.335   4.007  12.093 -0.3024 -0.0582 -0.0007
 6462SOL    HW131019   2.260   3.948  12.084  0.1557 -0.6674  0.1746
 6462SOL    HW231020   2.287   4.088  12.108  0.3229  0.0750  1.3248
 6463SOL     OW31021   1.761   3.558   5.185  0.0925 -0.0774  0.4963
 6463SOL    HW131022   1.854   3.535   5.180  0.1509  0.0317  1.1383
 6463SOL    HW231023   1.754   3.653   5.179  3.6855  0.2178  0.9969
 6464SOL     OW31024   4.440   2.279   3.981 -0.5761  1.0730  0.2125
 6464SOL    HW131025   4.451   2.275   4.076 -0.9350  1.0983  0.2548
 6464SOL    HW231026   4.426   2.372   3.960 -2.6644  0.7023  0.0075
 6465SOL     OW31027   2.950   2.325   2.809 -0.8107  0.1718  0.1365
 6465SOL    HW131028   2.935   2.409   2.853  1.6701  0.5912  0.2062
 6465SOL    HW231029   3.003   2.280   2.875  0.6113 -2.6363 -2.9027
 6466SOL     OW31030   3.720   4.535   3.548  0.1047  0.0699  0.2179
 6466SOL    HW131031   3.668   4.600   3.597  1.8013  2.9782 -1.8497
 6466SOL    HW231032   3.708   4.569   3.460 -2.3026 -2.1306 -0.2969
 6467SOL     OW31033   2.329   3.150  13.039  0.1348  0.1019  0.4003
 6467SOL    HW131034   2.325   3.112  12.951  1.4178  1.9832 -0.4720
 6467SOL    HW231035   2.390   3.222  13.024  0.2769  0.0347  0.6428
 6468SOL     OW31036   1.603   0.633  14.460  0.0340  0.7320 -0.0691
 6468SOL    HW131037   1.527   0.586  14.494  2.7062 -3.4202  0.1955
 6468SOL    HW231038   1.569   0.676  14.381  0.9111  2.1734  0.3427
 6469SOL     OW31039   1.661   2.645   6.491  0.8753  0.2533  0.5282
 6469SOL    HW131040   1.691   2.703   6.421  0.0179  0.9399  0.7272
 6469SOL    HW231041   1.681   2.556   6.462 -1.1055 -0.1479  0.3866
 6470SOL     OW31042   2.518   1.859   5.741  0.1954  0.0285  0.1830
 6470SOL    HW131043   2.576   1.933   5.722 -0.8906  0.4862 -1.3149
 6470SOL    HW231044   2.544   1.840   5.832  1.0680  1.6297  0.2682
 6471SOL     OW31045   1.265   3.138   4.379  0.1139  0.0290  0.4683
 6471SOL    HW131046   1.302   3.140   4.467  0.8099 -1.5189  0.2054
 6471SOL    HW231047   1.174   3.149   4.407  0.4999  1.5231  1.1480
 6472SOL     OW31048   4.232   4.573   6.935 -0.2401 -0.0535 -0.0233
 6472SOL    HW131049   4.157   4.623   6.903 -0.0099  0.7674  0.7366
 6472SOL    HW231050   4.241   4.613   7.021  1.0592  2.2532 -1.2427
 6473SOL     OW31051   0.492   4.005   8.270 -0.0762 -0.3560  0.6915
 6473SOL    HW131052   0.401   4.034   8.273 -0.1847 -0.7786  1.8038
 6473SOL    HW231053   0.513   4.013   8.177  2.0367  2.0022  1.3535
 6474SOL     OW31054   1.276   2.248  15.395 -0.1986 -0.2453  0.0851
 6474SOL    HW131055   1.278   2.292  15.310  0.7671 -0.1008  0.1777
 6474SOL    HW231056   1.255   2.160  15.364  1.5404  0.4201 -2.9530
 6475SOL     OW31057   3.569   3.107   5.141  0.0881  0.0484 -0.5990
 6475SOL    HW131058   3.545   3.076   5.229  2.5425  0.7350  0.3242
 6475SOL    HW231059   3.617   3.035   5.099  0.1626  0.5731 -1.4076
 6476SOL     OW31060   0.850   3.928   1.296 -0.0796  0.3926  0.3585
 6476SOL    HW131061   0.770   3.981   1.294 -1.7024 -2.0269  0.4598
 6476SOL    HW231062   0.831   3.898   1.385 -0.4275 -0.0545  0.1307
 6477SOL     OW31063   1.194   3.739   4.470  0.1943 -0.2407  0.0140
 6477SOL    HW131064   1.225   3.816   4.423  0.3868 -0.0081  0.5144
 6477SOL    HW231065   1.123   3.716   4.410  1.1003  0.6212 -1.3872
 6478SOL     OW31066   3.488   1.431   7.947 -0.5251  0.4376  0.0807
 6478SOL    HW131067   3.508   1.516   7.907 -1.6969 -0.0856 -1.6420
 6478SOL    HW231068   3.393   1.426   7.960 -0.4493  0.4486  0.6251
 6479SOL     OW31069   0.202   3.190   7.522  0.1833  0.0964 -0.1178
 6479SOL    HW131070   0.135   3.240   7.568  1.1686  2.4962 -1.2867
 6479SOL    HW231071   0.221   3.121   7.586  0.4463  1.6789  1.5251
 6480SOL     OW31072   0.102   1.393   2.789 -0.3178  0.2158 -0.5366
 6480SOL    HW131073   0.166   1.426   2.852  1.5959 -1.6587 -1.5120
 6480SOL    HW231074   0.142   1.420   2.707  3.5165  1.2115  1.6522
 6481SOL     OW31075   0.279   2.507  14.080 -0.3181 -0.4515  0.2221
 6481SOL    HW131076   0.186   2.502  14.057  0.4424 -0.1258 -2.9990
 6481SOL    HW231077   0.276   2.590  14.127  0.7379  0.7696 -1.8646
 6482SOL     OW31078   2.588   3.924   5.538  0.7276 -0.0463 -0.3552
 6482SOL    HW131079   2.627   4.011   5.539  1.5193 -0.4127  0.6290
 6482SOL    HW231080   2.500   3.961   5.547  1.0152  0.7188 -0.7462
 6483SOL     OW31081   3.603   3.049   9.468  0.0459  0.0171 -0.1876
 6483SOL    HW131082   3.658   3.059   9.391  1.0737  0.7327  0.6400
 6483SOL    HW231083   3.570   2.963   9.442 -1.6881 -0.3016  3.0595
 6484SOL     OW31084   1.036   3.615   2.964 -0.4348  0.3266 -0.1121
 6484SOL    HW131085   1.071   3.665   3.037  0.0345  2.1235 -1.5627
 6484SOL    HW231086   1.006   3.688   2.909 -0.0850  0.7798  0.3043
 6485SOL     OW31087   3.838   0.171   6.963 -0.1388  0.2049 -0.3590
 6485SOL    HW131088   3.853   0.257   6.925 -0.0339 -0.2325 -1.3188
 6485SOL    HW231089   3.815   0.212   7.046 -1.5058  1.1978 -1.2341
 6486SOL     OW31090   1.113   4.010   9.173 -0.3436 -0.9949  0.3334
 6486SOL    HW131091   1.044   3.947   9.195  0.2687 -1.3418  1.2299
 6486SOL    HW231092   1.193   3.974   9.211  0.7664  0.7009 -0.4158
 6487SOL     OW31093   3.792   2.218   7.851  0.4646  0.3209  0.2440
 6487SOL    HW131094   3.789   2.250   7.761 -0.2690 -2.3142 -0.6563
 6487SOL    HW231095   3.853   2.281   7.891  1.9366  1.4820 -3.7884
 6488SOL     OW31096   1.075   1.688   1.961 -0.0455 -0.1150  0.2770
 6488SOL    HW131097   0.981   1.675   1.968 -0.4511  2.2301 -0.9803
 6488SOL    HW231098   1.072   1.780   1.936  0.9165 -0.3119 -0.5501
 6489SOL     OW31099   0.877   4.491   8.780  0.6138 -0.4049 -0.0237
 6489SOL    HW131100   0.855   4.440   8.703 -0.7282 -1.5905  1.1526
 6489SOL    HW231101   0.821   4.446   8.843  0.8637 -0.8565 -0.1202
 6490SOL     OW31102   4.367   0.907  17.378  0.1580 -0.4427  0.0901
 6490SOL    HW131103   4.318   0.911  17.297 -0.2714 -2.2585  0.2480
 6490SOL    HW231104   4.374   1.002  17.385  2.7001 -0.5903 -0.3113
 6491SOL     OW31105   3.521   4.042   1.167 -0.3190  0.4984  0.3786
 6491SOL    HW131106   3.563   4.025   1.082 -0.4472  0.5036  0.3140
 6491SOL    HW231107   3.488   3.956   1.192 -0.1703 -0.1789 -1.7399
 6492SOL     OW31108   3.074   3.861  17.349  0.5209 -0.3132 -0.0622
 6492SOL    HW131109   3.022   3.868  17.269  1.5223  2.8214 -0.4375
 6492SOL    HW231110   3.099   3.951  17.368  1.7448 -0.5389 -0.6096
 6493SOL     OW31111   0.960   3.466   5.116  0.1738  0.2281  0.4443
 6493SOL    HW131112   0.874   3.459   5.074  0.6819  1.5925 -0.7932
 6493SOL    HW231113   0.931   3.475   5.207  3.5573 -0.4700  1.5830
 6494SOL     OW31114   0.201   4.461   7.824 -0.8478 -0.2231  0.6026
 6494SOL    HW131115   0.252   4.398   7.772 -2.9047 -0.5584 -0.9830
 6494SOL    HW231116   0.256   4.538   7.837 -1.3313  0.3869 -0.9813
 6495SOL     OW31117   1.633   3.390   7.315 -0.3725  0.6101 -0.4235
 6495SOL    HW131118   1.622   3.336   7.236 -0.0416  2.9731 -2.0700
 6495SOL    HW231119   1.681   3.469   7.291  2.0369 -0.8079 -0.3521
 6496SOL     OW31120   3.185   1.412   7.972  0.0190  0.9849  1.0146
 6496SOL    HW131121   3.114   1.471   7.945  0.0089 -0.0065 -1.0719
 6496SOL    HW231122   3.159   1.327   7.937  0.7467  1.4813 -0.7346
 6497SOL     OW31123   3.852   3.164   9.555 -0.2167  0.5796 -0.6242
 6497SOL    HW131124   3.859   3.257   9.574  0.5481  0.4754 -0.4027
 6497SOL    HW231125   3.757   3.153   9.542  0.0722 -1.7992 -0.8212
 6498SOL     OW31126   4.583   1.771   5.528  0.0750  0.1038  0.2647
 6498SOL    HW131127   4.616   1.698   5.475 -0.0410  0.1243  0.1632
 6498SOL    HW231128   4.498   1.735   5.552 -0.1440 -0.1799 -0.9002
 6499SOL     OW31129   2.032   4.396   7.956  0.6777 -0.3693 -0.6230
 6499SOL    HW131130   2.068   4.443   8.031 -0.2173  0.0983 -0.4860
 6499SOL    HW231131   2.063   4.450   7.883  0.6213  1.8337  0.9988
 6500SOL     OW31132   0.417   1.141   3.281 -0.1068 -0.1233 -0.0232
 6500SOL    HW131133   0.411   1.235   3.269  1.7062 -0.0828 -0.6082
 6500SOL    HW231134   0.509   1.149   3.304 -0.0427 -0.8129 -0.0208
 6501SOL     OW31135   4.087   1.302   9.000 -0.0653 -0.3336 -0.3522
 6501SOL    HW131136   4.095   1.362   9.074 -1.6154 -0.2689 -0.2296
 6501SOL    HW231137   4.065   1.216   9.034  1.1597 -0.7920 -0.7286
 6502SOL     OW31138   3.760   3.030  12.858 -0.3706 -0.1957  0.4000
 6502SOL    HW131139   3.772   3.080  12.939  0.5052  0.5876 -0.2064
 6502SOL    HW231140   3.679   2.983  12.879 -0.5749  0.0532  0.1787
 6503SOL     OW31141   4.597   0.223  12.131 -0.1566 -0.2450 -0.0500
 6503SOL    HW131142   4.659   0.287  12.097 -0.0196  0.8859  2.3236
 6503SOL    HW231143   4.578   0.265  12.215 -0.3319 -0.5970  0.0867
 6504SOL     OW31144   0.292   0.640  11.215  0.1113  0.1546  0.1630
 6504SOL    HW131145   0.296   0.555  11.171  0.7720  0.0383  0.4509
 6504SOL    HW231146   0.273   0.690  11.135  0.6267  0.0340 -0.0410
 6505SOL     OW31147   4.302   2.715   3.205  0.0631 -0.1868  0.1505
 6505SOL    HW131148   4.385   2.680   3.174  0.4516  1.1328 -0.2815
 6505SOL    HW231149   4.271   2.722   3.115 -0.4988 -2.1551  0.2015
 6506SOL     OW31150   2.387   2.067   6.733  0.1559 -0.5562 -0.1828
 6506SOL    HW131151   2.381   2.072   6.638 -1.4403 -1.1510 -0.0952
 6506SOL    HW231152   2.459   2.006   6.751 -1.4947 -1.9054  1.8905
 6507SOL     OW31153   4.675   4.259   3.922  0.1929  0.2895  0.3337
 6507SOL    HW131154   4.661   4.220   4.009 -0.2606 -0.6651 -0.1691
 6507SOL    HW231155   4.586   4.286   3.899 -0.8431 -1.3518  2.3506
 6508SOL     OW31156   1.612   2.069   8.282 -0.1274  0.1885 -0.2828
 6508SOL    HW131157   1.546   2.115   8.230  0.1313 -0.2585 -1.0025
 6508SOL    HW231158   1.561   2.033   8.355  0.1445  1.7114  0.6517
 6509SOL     OW31159   3.837   2.873   4.639  0.3718 -0.3601  0.0206
 6509SOL    HW131160   3.762   2.853   4.695  0.8465  1.5618  1.3697
 6509SOL    HW231161   3.883   2.925   4.705  0.5868 -2.4811  1.5423
 6510SOL     OW31162   0.786   4.702   5.456  0.1853  0.3749 -0.3998
 6510SOL    HW131163   0.765   0.037   5.515  0.6817 -0.5394  0.9197
 6510SOL    HW231164   0.779   4.624   5.510  0.7412 -0.3188 -1.3355
 6511SOL     OW31165   3.390   3.285   9.000  0.2557  0.5411 -1.0314
 6511SOL    HW131166   3.371   3.256   8.912  0.2476 -2.6782  0.0507
 6511SOL    HW231167   3.485   3.272   9.011  0.3539 -0.0423 -2.6821
 6512SOL     OW31168   0.840   0.188   2.263 -0.5959 -0.6664 -0.0640
 6512SOL    HW131169   0.911   0.156   2.318 -2.1592 -2.7786  0.7105
 6512SOL    HW231170   0.881   0.194   2.176 -1.7432 -2.1090 -0.6882
 6513SOL     OW31171   0.596   2.725   4.973  0.1479  0.1730  0.7657
 6513SOL    HW131172   0.624   2.655   4.913  1.2527  1.5078 -0.2910
 6513SOL    HW231173   0.503   2.712   4.957  0.1866 -1.2403  1.7216
 6514SOL     OW31174   2.368   2.317   6.025  0.1621  0.2004  0.1666
 6514SOL    HW131175   2.424   2.256   6.072  1.9535  2.5796  1.1083
 6514SOL    HW231176   2.381   2.397   6.074  1.1766 -0.4015  0.8687
 6515SOL     OW31177   3.627   2.650  16.444  0.6001  0.2673  0.2957
 6515SOL    HW131178   3.590   2.734  16.470 -1.4754  0.2299 -2.5675
 6515SOL    HW231179   3.716   2.668  16.415  0.7432  0.0838  0.6134
 6516SOL     OW31180   2.754   1.681   7.151  0.3246  0.0963 -0.1207
 6516SOL    HW131181   2.681   1.729   7.111  1.2327  0.6002 -1.1804
 6516SOL    HW231182   2.751   1.594   7.112  1.4010  0.2222 -0.4842
 6517SOL     OW31183   3.041   2.464   4.839  0.5379  0.0570  0.3310
 6517SOL    HW131184   2.974   2.490   4.903  0.4461  1.2839 -0.2672
 6517SOL    HW231185   2.986   2.430   4.768  1.2838 -1.8329  0.6495
 6518SOL     OW31186   3.479   3.550   9.454 -0.1894 -0.4560 -0.1274
 6518SOL    HW131187   3.423   3.534   9.530  0.3782  1.1085  0.6000
 6518SOL    HW231188   3.443   3.502   9.379  1.7788  2.3453 -2.8345
 6519SOL     OW31189   4.063   2.062   9.027  0.3036  0.3586 -0.1603
 6519SOL    HW131190   3.971   2.040   9.044  0.6085 -0.2890  0.6797
 6519SOL    HW231191   4.052   2.154   9.003 -2.4531  0.7221  2.5848
 6520SOL     OW31192   1.422   2.354   2.980  0.2261  0.5459 -0.3045
 6520SOL    HW131193   1.384   2.382   2.897  1.0230  0.3519 -0.7311
 6520SOL    HW231194   1.486   2.425   2.978  0.0275  0.7417  0.1116
 6521SOL     OW31195   0.094   0.917   9.188 -0.6681 -0.2125  0.3729
 6521SOL    HW131196   0.138   0.931   9.272  2.8810 -0.3816 -1.4507
 6521SOL    HW231197   0.119   0.829   9.159 -1.2529 -0.9141  1.9573
 6522SOL     OW31198   0.424   4.435   2.623 -0.5287  0.1489  0.6007
 6522SOL    HW131199   0.340   4.463   2.585  0.3204  1.9266  0.0469
 6522SOL    HW231200   0.428   4.345   2.591  2.3172  0.6224 -0.3767
 6523SOL     OW31201   3.320   2.759   3.695 -0.1910 -0.1281  0.2399
 6523SOL    HW131202   3.367   2.839   3.716  0.7563 -1.5356  3.3491
 6523SOL    HW231203   3.237   2.788   3.732 -1.5238 -1.1161 -1.9456
 6524SOL     OW31204   2.835   2.503   4.638  0.4913 -0.1586 -0.3933
 6524SOL    HW131205   2.898   2.574   4.627 -0.1872  0.5329  0.1468
 6524SOL    HW231206   2.859   2.444   4.567 -1.2677 -1.6774  0.2868
 6525SOL     OW31207   2.568   0.039   9.629 -0.0061  0.4517 -0.3515
 6525SOL    HW131208   2.573   0.134   9.630  0.5750  0.4069  1.8684
 6525SOL    HW231209   2.652   0.008   9.665 -0.0131  0.5001 -0.2937
 6526SOL     OW31210   0.808   2.839  10.499 -0.2621  0.2811  0.1495
 6526SOL    HW131211   0.789   2.865  10.589 -2.3041 -0.5787 -0.0141
 6526SOL    HW231212   0.887   2.890  10.480  0.5536 -1.5373 -1.3304
 6527SOL     OW31213   0.951   3.724  10.060  0.2621  0.3636  0.2481
 6527SOL    HW131214   1.040   3.738  10.093  0.6431 -0.8494 -0.2727
 6527SOL    HW231215   0.917   3.814  10.066  0.3218  0.4394 -0.4946
 6528SOL     OW31216   0.471   3.866   9.485 -0.4878  0.0541  0.1730
 6528SOL    HW131217   0.402   3.864   9.418  0.7653  2.5189 -1.1774
 6528SOL    HW231218   0.418   3.901   9.556 -1.8663  0.4953 -1.0625
 6529SOL     OW31219   1.085   2.949   0.093 -0.4503  0.9277  1.0252
 6529SOL    HW131220   0.992   2.928   0.087 -0.3596  1.0476 -0.9747
 6529SOL    HW231221   1.088   2.963   0.188 -2.5217  2.4808  0.8583
 6530SOL     OW31222   2.748   4.346   3.529  0.4908  0.4232  0.0707
 6530SOL    HW131223   2.755   4.431   3.484  0.7840  0.3671  0.0080
 6530SOL    HW231224   2.659   4.322   3.506  0.5637  0.1508  0.0699
 6531SOL     OW31225   2.360   4.643   4.126  0.2937  0.0621 -0.5052
 6531SOL    HW131226   2.395   4.579   4.064  1.4212 -1.5418  1.8125
 6531SOL    HW231227   2.275   4.668   4.089 -0.1709 -2.3742 -1.0501
 6532SOL     OW31228   1.176   0.299   2.205  0.0458  0.7598 -0.3626
 6532SOL    HW131229   1.164   0.214   2.248 -2.0137 -0.3929 -3.2452
 6532SOL    HW231230   1.167   0.279   2.112  2.6221  1.7668 -0.8308
 6533SOL     OW31231   2.686   0.168  13.216 -0.4662  0.7181 -0.2088
 6533SOL    HW131232   2.686   0.084  13.262  0.7274 -0.0217 -1.5651
 6533SOL    HW231233   2.759   0.217  13.254  0.2297 -0.2706 -0.2676
 6534SOL     OW31234   1.572   2.743   4.358 -0.0049  0.1955  0.5235
 6534SOL    HW131235   1.522   2.695   4.424  1.6494  0.7973  2.2191
 6534SOL    HW231236   1.577   2.671   4.296 -2.8907 -0.2712  0.8173
 6535SOL     OW31237   1.112   4.503   2.342  0.0167 -0.8685 -0.2890
 6535SOL    HW131238   1.060   4.493   2.262  0.2858  0.4818 -0.6376
 6535SOL    HW231239   1.194   4.464   2.312 -0.1843 -1.0966 -0.5500
 6536SOL     OW31240   3.256   0.344   3.198 -0.1735 -0.4299 -0.3350
 6536SOL    HW131241   3.298   0.425   3.227 -0.4184 -0.8322  1.1433
 6536SOL    HW231242   3.170   0.375   3.169 -0.6224  0.5167  1.9704
 6537SOL     OW31243   0.113   2.267   7.284  0.5719 -0.4223 -0.5659
 6537SOL    HW131244   0.120   2.304   7.372 -3.6737 -1.6024  0.2242
 6537SOL    HW231245   0.159   2.341   7.244  2.5984 -0.8639  0.9431
 6538SOL     OW31246   2.092   2.263   9.166  0.2599 -0.3445  0.5484
 6538SOL    HW131247   2.169   2.211   9.188 -0.1856 -0.8791  0.8223
 6538SOL    HW231248   2.046   2.259   9.250  0.2013 -0.0630  0.5294
 6539SOL     OW31249   4.625   4.417   4.416 -0.8300  0.7000  0.1254
 6539SOL    HW131250   4.713   4.385   4.434 -0.3711  1.3733 -0.9090
 6539SOL    HW231251   4.637   4.439   4.323  1.7969  0.3412  0.3861
 6540SOL     OW31252   1.491   3.293   6.057 -0.3698  0.0118 -0.2443
 6540SOL    HW131253   1.461   3.377   6.022 -1.3414  0.3891  1.4840
 6540SOL    HW231254   1.487   3.314   6.151 -2.6129 -0.9071 -0.1422
 6541SOL     OW31255   2.760   2.188  16.054  0.1920 -0.0917  0.3197
 6541SOL    HW131256   2.703   2.114  16.029  1.2416 -1.1918  1.1765
 6541SOL    HW231257   2.737   2.184  16.147 -0.6197 -2.2510  0.0332
 6542SOL     OW31258   2.882   3.420   5.698  0.3858 -0.4325  0.1486
 6542SOL    HW131259   2.801   3.455   5.662  0.8691  1.2637  0.7028
 6542SOL    HW231260   2.840   3.356   5.756 -0.4927  3.1849  3.4689
 6543SOL     OW31261   1.411   2.825   1.772 -0.0117 -0.2856 -0.2794
 6543SOL    HW131262   1.497   2.854   1.801 -1.4672  0.7690  3.0440
 6543SOL    HW231263   1.385   2.767   1.843  0.6889 -1.7154 -1.2073
 6544SOL     OW31264   2.864   3.993   6.952  0.3860  0.2748 -0.0815
 6544SOL    HW131265   2.884   4.030   6.867  2.7203 -2.4480 -0.7156
 6544SOL    HW231266   2.942   3.938   6.954 -0.5238 -0.9501  2.5056
 6545SOL     OW31267   2.930   4.693   8.969 -0.1805 -0.1059  0.0718
 6545SOL    HW131268   2.990   0.011   9.019 -0.5051 -0.4341  0.8212
 6545SOL    HW231269   2.941   4.716   8.877 -1.5253  1.9400  0.4263
 6546SOL     OW31270   0.754   0.877  10.955  0.2949 -0.2856  0.1481
 6546SOL    HW131271   0.841   0.911  10.976 -0.2566  0.6451  0.9088
 6546SOL    HW231272   0.706   0.899  11.035  1.9759 -0.9624  1.3524
 6547SOL     OW31273   0.944   0.287  11.671  0.4601 -0.0403 -0.0197
 6547SOL    HW131274   1.018   0.314  11.725  0.6475  0.6424 -0.6129
 6547SOL    HW231275   0.971   0.297  11.579  2.7184  2.2719  0.8880
 6548SOL     OW31276   0.438   0.779   7.597  0.3172 -0.3072  0.3270
 6548SOL    HW131277   0.407   0.699   7.639  0.2902 -1.4537 -1.9012
 6548SOL    HW231278   0.514   0.751   7.547 -0.6550 -1.3895 -0.5430
 6549SOL     OW31279   0.902   1.659  15.479 -0.0098 -0.5752  0.1868
 6549SOL    HW131280   0.901   1.651  15.574  0.6951 -0.6895  0.1832
 6549SOL    HW231281   0.995   1.641  15.461  0.1924  1.1065 -0.4074
 6550SOL     OW31282   2.295   2.301   0.816  0.1495 -0.5346  0.3091
 6550SOL    HW131283   2.317   2.379   0.867  0.9469 -0.8272  0.4140
 6550SOL    HW231284   2.378   2.302   0.769 -1.1004 -1.9668 -1.9147
 6551SOL     OW31285   1.634   4.606   7.727 -0.2912 -0.0002  0.5061
 6551SOL    HW131286   1.679   4.647   7.653 -1.1446 -0.6192 -0.3508
 6551SOL    HW231287   1.676   4.669   7.786  0.8133 -1.5592  1.3856
 6552SOL     OW31288   1.172   0.427   4.786  0.3564  0.0922  0.0747
 6552SOL    HW131289   1.189   0.394   4.874  0.0175  0.2414  0.1980
 6552SOL    HW231290   1.253   0.411   4.738  1.1447  2.5545  0.5614
 6553SOL     OW31291   2.293   1.436   6.672  0.1582  0.7781  0.3172
 6553SOL    HW131292   2.258   1.360   6.625 -1.1080  0.7690  1.2745
 6553SOL    HW231293   2.228   1.453   6.741  2.2327 -3.1604  3.2393
 6554SOL     OW31294   2.150   2.824   1.223 -0.0391 -0.7863 -0.9869
 6554SOL    HW131295   2.230   2.874   1.238 -0.1956 -0.4728 -1.1859
 6554SOL    HW231296   2.134   2.836   1.129 -1.4749  1.3051 -0.4743
 6555SOL     OW31297   2.067   1.798   3.623  0.6494 -0.5717 -0.2597
 6555SOL    HW131298   2.063   1.816   3.529  1.1553 -1.7944 -0.5104
 6555SOL    HW231299   2.013   1.860   3.672 -0.6165 -0.0066 -2.4044
 6556SOL     OW31300   3.938   1.429  16.050  0.6034  0.0782 -0.0628
 6556SOL    HW131301   4.020   1.383  16.033  0.7646  0.1414  0.5473
 6556SOL    HW231302   3.958   1.519  16.025 -1.1810  1.0548  2.0093
 6557SOL     OW31303   0.844   2.005   8.124  0.2628 -0.2907  0.7067
 6557SOL    HW131304   0.782   1.940   8.154 -0.6932  0.3281  0.0722
 6557SOL    HW231305   0.921   1.952   8.142 -0.4748 -1.1058  1.4148
 6558SOL     OW31306   0.181   1.473   2.520  0.9654  0.5902  0.0795
 6558SOL    HW131307   0.112   1.406   2.520  1.8231 -0.2951  0.4167
 6558SOL    HW231308   0.251   1.440   2.464  0.0247 -0.4178 -0.5027
 6559SOL     OW31309   3.530   3.296   7.847  0.2373  0.1866  0.4503
 6559SOL    HW131310   3.561   3.348   7.773  3.0142 -0.9465  0.8122
 6559SOL    HW231311   3.487   3.364   7.898 -3.1667 -2.1683  0.7095
 6560SOL     OW31312   3.351   4.430  15.535 -0.4105 -0.2749  0.0360
 6560SOL    HW131313   3.360   4.504  15.476 -1.5232 -0.0626  0.1243
 6560SOL    HW231314   3.417   4.371  15.499 -0.0942 -0.0317  0.2228
 6561SOL     OW31315   2.312   1.160   0.315  0.0547  0.4274  0.1676
 6561SOL    HW131316   2.394   1.202   0.289  0.3829  0.9545  2.0441
 6561SOL    HW231317   2.298   1.093   0.248 -1.5296 -0.5404  1.4582
 6562SOL     OW31318   4.257   4.416   9.404 -0.0308  0.1610  0.0432
 6562SOL    HW131319   4.299   4.349   9.349  2.6859  1.8335  0.0764
 6562SOL    HW231320   4.327   4.456   9.456  1.1158  2.7497 -3.5052
 6563SOL     OW31321   1.334   0.976  14.203  0.1414 -0.2164 -0.0720
 6563SOL    HW131322   1.403   0.912  14.219  0.9501  0.7936  0.4336
 6563SOL    HW231323   1.368   1.029  14.130  0.7959 -0.7583 -0.1578
 6564SOL     OW31324   0.270   2.704   3.084 -0.4738  0.1922 -0.1693
 6564SOL    HW131325   0.321   2.738   3.010  0.0558  0.3120  0.2489
 6564SOL    HW231326   0.250   2.615   3.057  0.6429 -0.3455  0.7834
 6565SOL     OW31327   1.003   1.211   1.263  0.0230 -0.1385  0.3105
 6565SOL    HW131328   1.087   1.201   1.218  0.2557  0.5793  0.5744
 6565SOL    HW231329   1.028   1.198   1.354  3.6771  3.2658 -0.2018
 6566SOL     OW31330   4.075   2.581   1.971 -0.5116 -0.5788 -0.0344
 6566SOL    HW131331   4.026   2.658   1.999  0.1894 -0.2115  0.1882
 6566SOL    HW231332   4.057   2.523   2.045 -0.0446 -0.9635 -0.2173
 6567SOL     OW31333   4.685   1.856   2.265 -0.0349  0.2170 -0.1963
 6567SOL    HW131334   0.000   1.797   2.318 -1.1393 -0.5544  0.0584
 6567SOL    HW231335   4.603   1.842   2.312 -0.6406 -1.1189 -1.6392
 6568SOL     OW31336   4.665   4.187   0.867  0.3758 -0.0373 -0.3064
 6568SOL    HW131337   4.684   4.133   0.790 -1.8691 -1.4738  0.1555
 6568SOL    HW231338   4.716   4.131   0.925 -0.6963 -0.3198  0.3569
 6569SOL     OW31339   4.387   4.095  14.466  0.4009  0.0104  0.2848
 6569SOL    HW131340   4.337   4.160  14.515  0.1914  1.2037 -1.5052
 6569SOL    HW231341   4.394   4.023  14.528 -0.1428 -1.6074 -1.5179
 6570SOL     OW31342   1.476   1.065   7.884 -0.0331 -0.4617  0.5189
 6570SOL    HW131343   1.393   1.076   7.837 -0.1153 -0.8569  0.5720
 6570SOL    HW231344   1.470   1.134   7.950  2.9337  1.2494 -1.0263
 6571SOL     OW31345   0.341   4.250  10.392 -0.0535  0.0587 -0.2605
 6571SOL    HW131346   0.266   4.231  10.335 -1.2499  0.8378  1.0616
 6571SOL    HW231347   0.388   4.168  10.375 -0.8112 -0.7329  1.5579
 6572SOL     OW31348   3.107   2.514   8.127  0.0266  0.1537  0.1864
 6572SOL    HW131349   3.199   2.498   8.148  0.6745  4.3794  0.6257
 6572SOL    HW231350   3.090   2.578   8.197 -1.4039 -0.2520  0.2019
 6573SOL     OW31351   3.122   2.068   3.299  0.3842  0.0488  0.6681
 6573SOL    HW131352   3.186   2.049   3.231  1.6019  0.5042  1.6767
 6573SOL    HW231353   3.171   2.141   3.337  1.3310 -0.9111  1.2765
 6574SOL     OW31354   2.126   1.315  17.488  0.2430  0.0610 -0.3882
 6574SOL    HW131355   2.171   1.307  17.572  0.3234  1.1737 -0.3225
 6574SOL    HW231356   2.081   1.231  17.480  0.8285 -0.1917 -0.9633
 6575SOL     OW31357   1.167   2.228   5.524 -0.3038  0.0518  0.4833
 6575SOL    HW131358   1.100   2.215   5.591  0.6817  1.6798  1.7748
 6575SOL    HW231359   1.248   2.242   5.573 -0.4761 -1.2907  1.1469
 6576SOL     OW31360   4.732   1.008   6.799 -0.1257  0.2297 -0.2375
 6576SOL    HW131361   0.014   1.040   6.887 -2.0956 -0.1438  0.3654
 6576SOL    HW231362   0.059   1.056   6.748  0.1619 -1.8816 -1.8504
 6577SOL     OW31363   3.808   1.139   0.093  0.4757 -0.3065 -0.0617
 6577SOL    HW131364   3.864   1.158   0.168  3.0405  1.7725 -2.5314
 6577SOL    HW231365   3.802   1.228   0.058 -1.2104 -0.4247 -0.0902
 6578SOL     OW31366   3.361   3.987   5.010 -0.4725  0.0902 -0.0715
 6578SOL    HW131367   3.295   4.049   4.981  1.1454  0.9592 -1.8843
 6578SOL    HW231368   3.318   3.936   5.079  1.0833 -0.9557  0.1421
 6579SOL     OW31369   4.325   1.193   3.527  0.1337 -0.5581 -0.1933
 6579SOL    HW131370   4.370   1.109   3.538  0.4667 -0.1735  1.3698
 6579SOL    HW231371   4.325   1.202   3.432 -1.8737  0.1486 -0.1266
 6580SOL     OW31372   3.816   2.344   2.559 -0.1180 -0.3642  0.6697
 6580SOL    HW131373   3.894   2.390   2.525 -0.4644  1.2973  2.1114
 6580SOL    HW231374   3.844   2.254   2.544 -1.6426  0.1059 -4.9738
 6581SOL     OW31375   3.381   1.984   1.773  0.4232  0.4141  0.5673
 6581SOL    HW131376   3.388   1.895   1.738  0.8693  0.8700 -0.5021
 6581SOL    HW231377   3.395   1.984   1.868 -1.3450 -0.3202  0.8405
 6582SOL     OW31378   2.966   0.409   3.557 -0.2989 -0.0934  0.5851
 6582SOL    HW131379   2.894   0.473   3.558 -0.7533 -0.6109  0.8872
 6582SOL    HW231380   2.915   0.328   3.558  1.5902 -1.3123 -1.5540
 6583SOL     OW31381   2.256   0.116   8.078 -0.1152  0.1883  0.4599
 6583SOL    HW131382   2.221   0.205   8.075 -1.0903 -0.2309 -0.3409
 6583SOL    HW231383   2.329   0.130   8.018 -0.8410 -0.2815 -0.5298
 6584SOL     OW31384   2.436   0.934   4.662 -0.0575  0.3022  0.1271
 6584SOL    HW131385   2.459   0.860   4.606 -0.4388  1.6265 -1.7992
 6584SOL    HW231386   2.523   0.973   4.667  0.8515 -1.6992 -0.1484
 6585SOL     OW31387   0.129   0.309   8.417  0.3808  0.2447 -0.0077
 6585SOL    HW131388   0.159   0.222   8.444  2.8742  0.8026 -0.9757
 6585SOL    HW231389   0.068   0.318   8.490  1.5266  0.7285  0.8900
 6586SOL     OW31390   0.624   1.431   5.492  0.0116  0.8288  0.0205
 6586SOL    HW131391   0.671   1.511   5.470  2.4248 -0.5659  0.0993
 6586SOL    HW231392   0.696   1.369   5.502 -2.1990 -1.9788 -1.4020
 6587SOL     OW31393   1.266   1.339   0.317 -0.5522 -0.1867  0.5617
 6587SOL    HW131394   1.273   1.434   0.323 -1.1010 -0.2631  2.4090
 6587SOL    HW231395   1.223   1.313   0.399  2.7167 -0.0880  2.3092
 6588SOL     OW31396   0.359   4.621  11.159 -0.0967 -0.3403  0.2664
 6588SOL    HW131397   0.346   4.561  11.232  1.1106  2.2672  2.6077
 6588SOL    HW231398   0.404   4.699  11.191  2.5476 -2.1943  1.0409
 6589SOL     OW31399   4.073   3.263   5.567 -0.2326  0.0332  0.6588
 6589SOL    HW131400   4.114   3.216   5.640  1.1565  0.5232  0.1981
 6589SOL    HW231401   4.055   3.352   5.597  0.0948  0.2870  0.1163
 6590SOL     OW31402   4.532   1.252   3.904  0.2891 -0.3304  0.0626
 6590SOL    HW131403   4.535   1.184   3.837 -0.4144  0.4205 -0.7268
 6590SOL    HW231404   4.523   1.191   3.978 -0.2733  0.7192  0.8527
 6591SOL     OW31405   4.086   2.415   3.140 -0.1110 -0.5564 -0.2247
 6591SOL    HW131406   4.150   2.471   3.097  3.1634 -2.0093  2.7463
 6591SOL    HW231407   4.104   2.435   3.232  2.6661 -1.0229 -0.6872
 6592SOL     OW31408   0.049   0.800   3.615  0.2411 -0.1895 -0.1268
 6592SOL    HW131409   0.047   0.869   3.550  0.5537 -0.3469 -0.3034
 6592SOL    HW231410   4.698   0.770   3.595 -0.8202  1.5056  2.0752
 6593SOL     OW31411   2.533   3.651  12.866 -0.1665  1.0172 -0.2466
 6593SOL    HW131412   2.465   3.717  12.857 -0.6302  0.5296 -0.3485
 6593SOL    HW231413   2.590   3.663  12.791  2.2013 -2.5073  0.9713
 6594SOL     OW31414   4.466   1.899   8.301  0.2085  0.0752 -0.2863
 6594SOL    HW131415   4.381   1.868   8.331 -0.9375  0.5674 -3.0276
 6594SOL    HW231416   4.441   1.960   8.232  4.4209  0.6801 -1.2842
 6595SOL     OW31417   3.616   1.996  10.556  0.1712 -0.5794 -0.4031
 6595SOL    HW131418   3.566   1.921  10.524 -1.0205 -0.4596  1.2132
 6595SOL    HW231419   3.559   2.065  10.523  1.9115  1.0363 -0.0578
 6596SOL     OW31420   4.015   0.786   3.914  0.4216 -0.1905  0.1147
 6596SOL    HW131421   3.994   0.822   3.828  0.4860  4.1864  1.9285
 6596SOL    HW231422   4.086   0.848   3.934  1.9521 -1.1059 -2.5400
 6597SOL     OW31423   3.012   2.445   6.324 -0.1377  0.1095 -0.6921
 6597SOL    HW131424   2.963   2.439   6.241 -0.3779 -2.9517 -0.3528
 6597SOL    HW231425   2.935   2.443   6.381  0.8229  2.5841  0.6623
 6598SOL     OW31426   0.717   3.930  17.277  0.2688 -0.3042 -0.0534
 6598SOL    HW131427   0.637   3.926  17.224  0.3021  2.3592 -0.3147
 6598SOL    HW231428   0.778   3.913  17.205  1.5009 -1.8763  1.3684
 6599SOL     OW31429   3.999   1.384  12.471 -0.1096  0.2167 -0.3681
 6599SOL    HW131430   4.026   1.420  12.386 -0.0102 -0.3000 -0.5522
 6599SOL    HW231431   4.084   1.345  12.494 -0.3299  0.5013  0.9532
 6600SOL     OW31432   4.632   0.551   8.480 -0.2932 -0.1560  0.3471
 6600SOL    HW131433   4.652   0.478   8.538  1.2978  1.5118  1.9141
 6600SOL    HW231434   4.626   0.519   8.391  0.4373  1.8977 -0.4438
 6601SOL     OW31435   0.458   2.438   7.050  0.1287  0.3273 -0.4986
 6601SOL    HW131436   0.508   2.357   7.060 -1.1790 -0.5080 -0.6878
 6601SOL    HW231437   0.427   2.462   7.138  3.0268 -1.1188  0.9168
 6602SOL     OW31438   2.354   2.398  13.488 -0.4228 -0.5446 -1.0153
 6602SOL    HW131439   2.371   2.491  13.501  0.8704 -0.7724 -1.0787
 6602SOL    HW231440   2.438   2.360  13.462  1.1204  2.6981 -0.8218
 6603SOL     OW31441   3.044   4.342   2.514  0.0654  0.1695 -0.2681
 6603SOL    HW131442   3.112   4.377   2.571  0.4708  0.2659 -0.8032
 6603SOL    HW231443   2.999   4.270   2.557 -2.1538  0.8894 -1.3513
 6604SOL     OW31444   4.292   0.288   1.942  0.2929  0.5034 -0.1556
 6604SOL    HW131445   4.366   0.301   1.883  0.2639 -0.1711 -0.3342
 6604SOL    HW231446   4.237   0.232   1.888  1.6097 -0.1475 -0.8031
 6605SOL     OW31447   1.692   3.359   1.704 -0.3129 -0.6739  0.0267
 6605SOL    HW131448   1.612   3.405   1.731 -0.5141 -2.0561  1.8292
 6605SOL    HW231449   1.751   3.434   1.705  0.9795 -1.7146  2.1721
 6606SOL     OW31450   0.765   2.938   3.502 -0.0393  0.5424  0.4601
 6606SOL    HW131451   0.750   3.003   3.571  0.7979  0.7532  0.4422
 6606SOL    HW231452   0.673   2.923   3.481  0.0104  1.5211 -0.4349
 6607SOL     OW31453   2.995   4.292  11.308 -0.5040  0.1081 -0.3064
 6607SOL    HW131454   3.016   4.268  11.217  0.4692 -1.2216  0.2763
 6607SOL    HW231455   2.900   4.276  11.312 -0.1638 -2.1332 -1.2850
 6608SOL     OW31456   1.107   0.806   7.340 -0.0255  0.6235 -0.5584
 6608SOL    HW131457   1.102   0.792   7.435 -2.6093  2.0284 -0.4833
 6608SOL    HW231458   1.163   0.884   7.340  0.7805  0.0445 -0.3822
 6609SOL     OW31459   0.089   3.310  13.969  0.0814 -0.0732  0.1301
 6609SOL    HW131460   0.039   3.342  13.893  1.2668 -0.2056 -0.6976
 6609SOL    HW231461   0.168   3.364  13.961 -1.1228  1.4906 -1.4364
 6610SOL     OW31462   1.068   2.609   8.080  0.2492 -0.2488  0.4062
 6610SOL    HW131463   0.984   2.654   8.079  0.8902  0.9538  0.9630
 6610SOL    HW231464   1.124   2.657   8.142  0.6445  0.6286 -0.6400
 6611SOL     OW31465   0.675   3.526   7.013  0.3433  0.4771  0.0368
 6611SOL    HW131466   0.756   3.519   7.064 -0.6292  2.4496  1.8726
 6611SOL    HW231467   0.661   3.436   6.985 -1.2152  0.5928  0.4578
 6612SOL     OW31468   3.585   1.906  11.983  0.7683 -0.5501 -0.1842
 6612SOL    HW131469   3.680   1.903  11.971  0.8246 -0.0783  0.1456
 6612SOL    HW231470   3.556   1.881  11.895 -1.3035  2.3876 -0.3449
 6613SOL     OW31471   0.317   1.020   2.334 -0.3292  0.0851  0.1446
 6613SOL    HW131472   0.343   1.080   2.265 -0.6668 -0.5877 -0.5753
 6613SOL    HW231473   0.401   0.995   2.373  0.2430  1.5669 -0.1542
 6614SOL     OW31474   2.801   4.701   9.737 -0.5425  0.3602  0.5415
 6614SOL    HW131475   2.818   4.608   9.754 -0.3973  0.7985  2.8700
 6614SOL    HW231476   2.846   4.717   9.654 -0.6729 -0.3568  0.3277
 6615SOL     OW31477   3.699   1.013   5.725 -0.7320  0.8147  0.3415
 6615SOL    HW131478   3.647   0.937   5.750 -1.2102  1.7444  2.1221
 6615SOL    HW231479   3.638   1.084   5.745 -2.0364 -0.3508  0.4949
 6616SOL     OW31480   4.529   4.492   5.286 -0.5114  0.4992 -0.1016
 6616SOL    HW131481   4.552   4.464   5.375 -1.0564 -1.1151 -0.4556
 6616SOL    HW231482   4.511   4.584   5.302  0.2255  0.7092 -0.4576
 6617SOL     OW31483   4.315   0.864   5.970 -0.2525  0.1784 -0.4436
 6617SOL    HW131484   4.390   0.844   6.025  1.1736  0.9439 -2.1193
 6617SOL    HW231485   4.285   0.954   5.981  1.8660  0.8804 -0.5592
 6618SOL     OW31486   4.231   4.360   0.948 -0.0519 -0.0829 -0.1455
 6618SOL    HW131487   4.316   4.394   0.922 -0.4671 -0.1140 -1.5061
 6618SOL    HW231488   4.261   4.284   0.999  0.9558 -0.5993 -1.5248
 6619SOL     OW31489   2.630   2.335   9.280 -0.3674 -0.5965  0.3488
 6619SOL    HW131490   2.677   2.252   9.268 -1.7481 -1.3935  0.5586
 6619SOL    HW231491   2.691   2.398   9.241  1.4506 -2.2728  0.4776
 6620SOL     OW31492   3.699   1.088   6.385  0.0890  0.1228 -1.0970
 6620SOL    HW131493   3.617   1.135   6.372 -0.9930 -2.1708 -2.6459
 6620SOL    HW231494   3.755   1.156   6.346  0.4469 -0.8808 -2.3651
 6621SOL     OW31495   3.329   1.451   6.064  0.1546 -0.2259 -0.4185
 6621SOL    HW131496   3.266   1.481   6.130  2.0178  2.6155  0.0650
 6621SOL    HW231497   3.350   1.537   6.028  2.1460 -1.5991 -2.5086
 6622SOL     OW31498   1.806   2.280   2.389 -0.3510 -0.5146  0.0835
 6622SOL    HW131499   1.871   2.300   2.457 -0.1093  2.1702 -0.9540
 6622SOL    HW231500   1.833   2.332   2.313 -0.5603 -0.2965  0.1596
 6623SOL     OW31501   4.653   4.435  11.323  0.3103 -0.4125 -0.0133
 6623SOL    HW131502   4.685   4.391  11.401 -2.5456 -0.1012  1.3074
 6623SOL    HW231503   4.711   4.512  11.324 -1.4987  0.9639 -1.2309
 6624SOL     OW31504   3.683   1.470   9.526 -0.7217 -0.3333  0.0501
 6624SOL    HW131505   3.608   1.514   9.565 -1.2423 -0.2753 -1.0083
 6624SOL    HW231506   3.649   1.494   9.439  1.1865  1.9283 -0.0618
 6625SOL     OW31507   3.116   4.692   2.160 -0.2151 -0.4428  0.1192
 6625SOL    HW131508   3.209   4.670   2.169 -0.4655 -0.7376  1.8662
 6625SOL    HW231509   3.080   4.637   2.229 -0.5718 -0.0697  0.2219
 6626SOL     OW31510   4.204   0.524   6.956 -0.0680 -0.2969 -0.1262
 6626SOL    HW131511   4.281   0.574   6.982 -0.2235 -1.0708  1.8471
 6626SOL    HW231512   4.248   0.494   6.876 -0.9020 -1.5591 -0.1211
 6627SOL     OW31513   3.268   3.847   4.196  0.8249  0.1481 -0.4071
 6627SOL    HW131514   3.217   3.829   4.275 -1.2781 -1.3143 -2.0836
 6627SOL    HW231515   3.358   3.825   4.221  0.4925 -0.3376  0.3697
 6628SOL     OW31516   0.896   0.752  12.219  0.5990 -0.2665 -0.0163
 6628SOL    HW131517   0.890   0.710  12.133  0.6473 -0.4688  0.0790
 6628SOL    HW231518   0.901   0.843  12.190 -0.3121 -0.4604 -0.7782
 6629SOL     OW31519   0.723   0.688   7.517  0.1866 -0.3612  0.0867
 6629SOL    HW131520   0.738   0.774   7.556 -0.8281 -0.4541  0.6783
 6629SOL    HW231521   0.810   0.650   7.509  0.4080 -0.0760  1.1563
 6630SOL     OW31522   1.020   3.081   8.754 -0.2644 -0.1338 -0.7911
 6630SOL    HW131523   1.104   3.064   8.797 -1.7018  0.2891  2.2325
 6630SOL    HW231524   1.023   3.176   8.744 -0.7679  0.0456  0.6912
 6631SOL     OW31525   3.246   0.327   6.086 -0.2191  0.3971  0.1519
 6631SOL    HW131526   3.214   0.385   6.017 -1.2418  1.9088  1.8736
 6631SOL    HW231527   3.250   0.393   6.155  0.0290  0.1148  0.4043
 6632SOL     OW31528   0.714   1.394   6.325 -0.5770  0.1229 -0.3858
 6632SOL    HW131529   0.795   1.437   6.354 -0.6808 -0.4169  0.6870
 6632SOL    HW231530   0.717   1.414   6.232  0.9013  0.5305 -0.2536
 6633SOL     OW31531   0.682   0.427   2.590 -0.1512 -0.1524  0.0380
 6633SOL    HW131532   0.588   0.415   2.599 -0.1366 -0.6049 -0.3895
 6633SOL    HW231533   0.695   0.432   2.495 -0.2289  1.9452  0.1268
 6634SOL     OW31534   2.594   3.186  14.157 -0.2935  0.2303 -0.2296
 6634SOL    HW131535   2.516   3.230  14.190 -0.5091  0.8713 -1.5942
 6634SOL    HW231536   2.599   3.231  14.073  1.9657  1.6855  0.6585
 6635SOL     OW31537   1.950   3.772  17.032 -0.0247 -0.8232  0.7881
 6635SOL    HW131538   2.001   3.852  17.042 -3.2560  1.3665 -0.2682
 6635SOL    HW231539   2.017   3.703  17.030 -1.7728 -2.5373  0.5978
 6636SOL     OW31540   3.184   2.897   9.820  0.3544 -0.3191 -0.0002
 6636SOL    HW131541   3.131   2.939   9.752  1.7255  1.0019 -0.2524
 6636SOL    HW231542   3.228   2.968   9.865 -0.1571 -0.0477  0.0761
 6637SOL     OW31543   1.564   4.563   5.285 -0.0265 -0.0089  0.3963
 6637SOL    HW131544   1.585   4.654   5.304  1.2393 -0.5245  1.5084
 6637SOL    HW231545   1.651   4.525   5.300  1.2985  3.4466  1.3312
 6638SOL     OW31546   1.902   1.323   4.780  0.1634  0.3059  0.0749
 6638SOL    HW131547   1.981   1.301   4.731 -0.6362 -1.7891 -0.2372
 6638SOL    HW231548   1.857   1.243   4.753 -2.6077  1.2833  1.8020
 6639SOL     OW31549   4.158   1.802   5.184  0.1026 -1.3270 -0.1113
 6639SOL    HW131550   4.224   1.747   5.227 -0.3796 -1.5635  0.3358
 6639SOL    HW231551   4.211   1.819   5.107 -0.4195  0.9968  0.0486
 6640SOL     OW31552   3.018   4.610  13.868 -0.2368  0.0187  0.0897
 6640SOL    HW131553   3.026   4.572  13.780  1.6359  0.7735 -0.0647
 6640SOL    HW231554   3.032   4.702  13.846  0.6797 -0.1040  0.1591
 6641SOL     OW31555   1.643   4.003   0.834 -0.2709  0.0166 -0.1281
 6641SOL    HW131556   1.715   4.024   0.775 -1.3025  3.1474 -0.2572
 6641SOL    HW231557   1.576   4.068   0.815  0.3928  0.4045 -1.1426
 6642SOL     OW31558   4.093   4.520  10.692 -1.3718 -0.3030 -0.3233
 6642SOL    HW131559   4.028   4.575  10.648  0.8763  2.6363 -0.0279
 6642SOL    HW231560   4.046   4.439  10.674 -1.5340 -0.1814 -0.4489
 6643SOL     OW31561   1.502   2.518   8.552  0.0231 -0.4686 -0.0551
 6643SOL    HW131562   1.477   2.431   8.520  0.6472 -0.3050 -1.0253
 6643SOL    HW231563   1.569   2.486   8.613  0.8569  0.0853 -0.6664
 6644SOL     OW31564   2.309   0.632  16.650  1.0112 -0.5422 -0.1247
 6644SOL    HW131565   2.276   0.633  16.740  1.5756 -1.4281  0.0992
 6644SOL    HW231566   2.321   0.538  16.637  4.2494 -0.2576  0.6476
 6645SOL     OW31567   3.834   0.253   3.417  0.3550  0.5757  0.4967
 6645SOL    HW131568   3.876   0.314   3.478  1.3018  0.5198 -0.1011
 6645SOL    HW231569   3.760   0.227   3.471 -1.0943 -2.4563 -2.9856
 6646SOL     OW31570   2.752   4.200   4.202  0.0085 -0.0636 -0.1242
 6646SOL    HW131571   2.816   4.174   4.267  0.7531 -0.2338 -0.9304
 6646SOL    HW231572   2.773   4.149   4.124 -1.2354 -0.1937 -0.3855
 6647SOL     OW31573   2.484   2.768   9.274 -0.3082 -0.1466  0.0484
 6647SOL    HW131574   2.512   2.693   9.326 -1.5515 -1.3923 -1.0897
 6647SOL    HW231575   2.508   2.727   9.190 -3.6906 -1.5901 -0.2309
 6648SOL     OW31576   3.223   2.286   6.046  0.1885  0.2457  0.8528
 6648SOL    HW131577   3.228   2.364   6.101  0.5243  0.7062  0.1730
 6648SOL    HW231578   3.140   2.250   6.075  0.1350  0.8864  1.4883
 6649SOL     OW31579   0.660   2.619   7.935  0.7252  0.4853  0.3004
 6649SOL    HW131580   0.682   2.545   7.878  0.6731  1.0689 -0.4773
 6649SOL    HW231581   0.565   2.626   7.932  0.7666  0.5849 -0.7729
 6650SOL     OW31582   4.677   2.466   9.812  0.0862 -0.2371 -0.3662
 6650SOL    HW131583   4.725   2.409   9.751 -0.1591  0.9414 -1.6521
 6650SOL    HW231584   4.736   2.469   9.887 -1.9813 -1.9415  1.3346
 6651SOL     OW31585   2.966   2.326   8.659  0.2265 -0.2913 -0.4730
 6651SOL    HW131586   3.037   2.278   8.701  1.2461  2.3333  0.8147
 6651SOL    HW231587   2.930   2.366   8.738  0.5603 -2.0408  0.5629
 6652SOL     OW31588   1.623   2.532   2.858  0.0802  0.2083  0.3464
 6652SOL    HW131589   1.703   2.554   2.905  0.9216  0.2893 -1.0986
 6652SOL    HW231590   1.657   2.476   2.787 -1.1412 -0.2295  0.1081
 6653SOL     OW31591   2.929   1.972   6.548  0.6614  0.2334  0.2007
 6653SOL    HW131592   3.021   1.984   6.528  0.4058 -0.6575 -1.4657
 6653SOL    HW231593   2.895   1.920   6.476  0.7365 -1.7652  1.6095
 6654SOL     OW31594   0.834   0.549  11.345  0.7554 -0.3718 -0.1655
 6654SOL    HW131595   0.813   0.459  11.320 -0.1347 -0.1504 -0.2403
 6654SOL    HW231596   0.855   0.597  11.266 -0.5668 -0.3162 -0.4818
 6655SOL     OW31597   0.989   2.642   2.213 -0.2587 -0.0798  0.3700
 6655SOL    HW131598   1.041   2.591   2.276 -1.1050 -0.8410  0.4452
 6655SOL    HW231599   0.902   2.630   2.250 -0.5603 -1.5247 -0.7913
 6656SOL     OW31600   1.203   2.768   8.274 -0.5188 -0.1440 -0.5928
 6656SOL    HW131601   1.264   2.841   8.264 -0.9915  0.3628  0.2788
 6656SOL    HW231602   1.179   2.776   8.366 -1.6378 -0.1011 -0.8944
 6657SOL     OW31603   3.962   1.570   3.613  0.2147  0.3330  0.4625
 6657SOL    HW131604   3.999   1.578   3.701 -1.1647  0.2608  1.0478
 6657SOL    HW231605   4.033   1.603   3.559  1.2034 -1.0132  0.9296
 6658SOL     OW31606   2.900   1.636   8.152 -0.2375  0.2051 -0.3110
 6658SOL    HW131607   2.906   1.623   8.057  1.2823 -0.0844 -0.1783
 6658SOL    HW231608   2.941   1.559   8.192  0.4938  1.8818  2.1618
 6659SOL     OW31609   2.146   1.438  15.306  0.2096 -0.3551  0.0736
 6659SOL    HW131610   2.230   1.442  15.260  0.5079 -3.7865  0.2913
 6659SOL    HW231611   2.169   1.493  15.381 -2.4552 -0.5641  1.0257
 6660SOL     OW31612   3.146   2.661   5.399 -0.9915 -1.0725  0.1012
 6660SOL    HW131613   3.095   2.742   5.389 -0.0790 -0.7615 -1.9910
 6660SOL    HW231614   3.127   2.618   5.483  0.7207 -0.1195  0.9732
 6661SOL     OW31615   3.701   1.091   9.898  0.0511  0.2204 -0.2369
 6661SOL    HW131616   3.638   1.052   9.837 -1.9761  0.4009  1.7600
 6661SOL    HW231617   3.716   1.010   9.946 -0.7403  0.7600  0.9229
 6662SOL     OW31618   1.818   4.289   5.641 -0.7059 -0.2444 -0.1062
 6662SOL    HW131619   1.800   4.195   5.649 -2.7550  0.2082  0.5939
 6662SOL    HW231620   1.808   4.304   5.547  0.7446 -0.7212 -0.3318
 6663SOL     OW31621   4.715   3.028  17.301 -0.5135 -0.0369  0.0670
 6663SOL    HW131622   4.728   3.116  17.336  0.0480 -1.1355  2.6218
 6663SOL    HW231623   4.663   3.043  17.222  0.4320  0.3190 -0.4928
 6664SOL     OW31624   1.743   1.272   6.510  0.2849  0.3283  0.0245
 6664SOL    HW131625   1.702   1.239   6.590 -0.1021  0.1566 -0.2443
 6664SOL    HW231626   1.800   1.198   6.488  0.2885  1.1805 -2.8196
 6665SOL     OW31627   2.201   3.452  15.608 -0.2834 -0.2943  0.1625
 6665SOL    HW131628   2.165   3.525  15.558 -4.5715 -1.5554  1.3638
 6665SOL    HW231629   2.230   3.399  15.534  1.0189  2.7359 -1.5198
 6666SOL     OW31630   4.588   3.430   5.470 -0.5419  0.0596 -0.1766
 6666SOL    HW131631   4.581   3.344   5.513  1.9526 -0.2686 -0.4443
 6666SOL    HW231632   4.615   3.484   5.544  0.4490 -1.1665  0.3513
 6667SOL     OW31633   3.666   0.861  15.203  0.0639  0.7744 -0.1705
 6667SOL    HW131634   3.733   0.928  15.187 -1.6364  2.2229 -1.2734
 6667SOL    HW231635   3.707   0.822  15.280  0.0270 -1.5384 -1.3292
 6668SOL     OW31636   4.224   2.603   4.759  0.1747 -0.5599  0.2592
 6668SOL    HW131637   4.132   2.630   4.754  0.7167  0.9649 -1.5992
 6668SOL    HW231638   4.235   2.563   4.673  0.8444 -0.0364  0.1015
 6669SOL     OW31639   3.149   3.012   0.338  0.2646 -0.3677 -0.4573
 6669SOL    HW131640   3.235   2.994   0.375  0.5119 -1.2275 -1.4384
 6669SOL    HW231641   3.102   2.930   0.353 -0.4220  0.2380  0.6894
 6670SOL     OW31642   4.444   2.845  17.124  0.2228 -0.5348 -0.3979
 6670SOL    HW131643   4.501   2.922  17.124  1.0211 -1.1155 -0.0775
 6670SOL    HW231644   4.401   2.853  17.039 -2.6061  0.2643  1.1095
 6671SOL     OW31645   3.882   2.866   4.381  0.8256 -0.2408  0.2477
 6671SOL    HW131646   3.859   2.854   4.473  1.1146  0.8379  0.4624
 6671SOL    HW231647   3.832   2.794   4.343  3.0349 -0.0586 -2.9446
 6672SOL     OW31648   1.678   0.650   8.372 -0.4977 -0.5023 -0.1967
 6672SOL    HW131649   1.767   0.668   8.342 -1.1109 -0.4246 -1.9646
 6672SOL    HW231650   1.688   0.610   8.459 -1.1618 -0.2974 -0.0261
 6673SOL     OW31651   2.698   2.665   6.415 -0.2080  0.3329 -0.5213
 6673SOL    HW131652   2.711   2.752   6.452  0.3800 -1.0722  2.5247
 6673SOL    HW231653   2.639   2.628   6.481 -0.4909  1.4222 -0.1736
 6674SOL     OW31654   0.832   3.134  10.348  0.0263  0.1677 -0.4614
 6674SOL    HW131655   0.911   3.108  10.394 -0.0725  0.2323 -0.2525
 6674SOL    HW231656   0.825   3.222  10.385  1.1757  0.6164 -1.3254
 6675SOL     OW31657   0.841   0.493   6.108  0.9992  0.2966 -0.5455
 6675SOL    HW131658   0.839   0.509   6.013  0.8553  2.3607 -0.2033
 6675SOL    HW231659   0.811   0.579   6.139 -1.3246 -0.3396 -1.0010
 6676SOL     OW31660   0.504   4.321   8.681  0.0280 -0.3130  0.2175
 6676SOL    HW131661   0.493   4.412   8.655 -0.0279 -0.2907  0.3193
 6676SOL    HW231662   0.595   4.319   8.711 -0.1162 -0.4716  0.6538
 6677SOL     OW31663   2.211   1.150   4.693  0.0691  0.3021  0.3304
 6677SOL    HW131664   2.273   1.087   4.656 -0.5954 -1.8901  2.9302
 6677SOL    HW231665   2.181   1.205   4.621 -3.8767 -2.1486  0.0799
 6678SOL     OW31666   0.540   2.058   2.064  0.2848 -0.3715  0.3210
 6678SOL    HW131667   0.501   2.106   2.137 -3.1786 -0.6214 -1.3983
 6678SOL    HW231668   0.479   1.986   2.047 -0.9804  0.2302  2.2794
 6679SOL     OW31669   2.135   1.525   6.193 -0.3904 -0.2715  0.0763
 6679SOL    HW131670   2.121   1.436   6.223 -1.6821  0.1037  0.5998
 6679SOL    HW231671   2.114   1.586   6.264 -0.5501 -0.7776  0.4605
 6680SOL     OW31672   1.749   4.636   3.294  0.2991 -0.3572 -0.4794
 6680SOL    HW131673   1.681   4.694   3.327  2.3486  1.4920  0.5336
 6680SOL    HW231674   1.753   4.670   3.205 -0.3815 -0.2504 -0.4676
 6681SOL     OW31675   2.315   3.519   7.985  0.1129 -0.9085 -0.1342
 6681SOL    HW131676   2.335   3.477   7.901  1.4909  0.5142 -0.5142
 6681SOL    HW231677   2.302   3.610   7.956 -1.0568 -1.3236 -0.9078
 6682SOL     OW31678   4.148   1.303   2.295  0.2622  0.2908 -0.7820
 6682SOL    HW131679   4.147   1.290   2.200 -0.5458 -0.2856 -0.6897
 6682SOL    HW231680   4.168   1.216   2.327  2.3617  0.4151 -1.7939
 6683SOL     OW31681   3.650   0.165  12.049 -0.5284 -0.1458 -0.6858
 6683SOL    HW131682   3.651   0.075  12.081 -1.7299 -0.6789 -2.1713
 6683SOL    HW231683   3.562   0.170  12.011 -0.6770 -1.4575 -0.5146
 6684SOL     OW31684   0.652   4.580   2.703 -0.0658  0.2562  0.3468
 6684SOL    HW131685   0.691   4.602   2.618  1.1347  0.0037  0.8377
 6684SOL    HW231686   0.570   4.551   2.662  0.1701  2.2908 -1.5792
 6685SOL     OW31687   3.524   2.775   2.926 -0.5883 -0.1123 -0.6425
 6685SOL    HW131688   3.484   2.747   2.844 -1.4705 -0.4062 -0.1045
 6685SOL    HW231689   3.576   2.696   2.945  1.4067  1.2551 -0.3929
 6686SOL     OW31690   4.673   0.453   5.412  0.5334  0.1385 -0.1194
 6686SOL    HW131691   4.653   0.530   5.465  0.0349  0.3668 -0.6341
 6686SOL    HW231692   4.587   0.410   5.404  0.1446  1.1742 -1.5943
 6687SOL     OW31693   1.926   0.147   7.697  0.4392 -0.2115  0.5369
 6687SOL    HW131694   1.903   0.181   7.783 -0.4859  0.3171  0.0906
 6687SOL    HW231695   1.966   0.227   7.664 -1.1476 -0.3078 -1.6566
 6688SOL     OW31696   2.223   0.277  17.114  0.0355  0.1222 -0.2669
 6688SOL    HW131697   2.312   0.251  17.135  1.1745  3.2828 -1.0905
 6688SOL    HW231698   2.238   0.351  17.054 -0.2444 -0.1517 -0.6742
 6689SOL     OW31699   1.104   0.835  11.426 -0.1573  0.1075 -0.2264
 6689SOL    HW131700   1.145   0.859  11.343 -0.2095  1.4320  0.1242
 6689SOL    HW231701   1.188   0.822  11.470 -0.6564  0.2273  0.7595
 6690SOL     OW31702   1.387   3.796   5.371 -0.1432 -0.3706 -0.4497
 6690SOL    HW131703   1.405   3.873   5.317  2.4858 -0.5872  0.0930
 6690SOL    HW231704   1.311   3.825   5.421 -0.4939  1.7957 -2.2291
 6691SOL     OW31705   4.697   0.311   8.646 -0.1930 -0.1639  0.1929
 6691SOL    HW131706   4.636   0.250   8.687 -0.6966  1.1456  1.4308
 6691SOL    HW231707   0.028   0.320   8.712  0.9151  0.3903 -1.0412
 6692SOL     OW31708   2.072   3.244  17.546 -0.2095  0.4037 -0.5159
 6692SOL    HW131709   2.031   3.162  17.575  0.2621 -0.0936 -1.2442
 6692SOL    HW231710   2.004   3.270  17.484 -0.9203 -2.6733 -1.0583
 6693SOL     OW31711   4.300   0.254   4.315  0.1849  0.3452 -0.1968
 6693SOL    HW131712   4.236   0.325   4.311 -1.1909 -0.8469  0.8995
 6693SOL    HW231713   4.275   0.185   4.254  2.1265 -1.1353  0.6772
 6694SOL     OW31714   3.851   3.025   4.861  0.8120  0.7819  0.3150
 6694SOL    HW131715   3.807   2.992   4.939 -0.8132  0.4332 -0.7360
 6694SOL    HW231716   3.807   3.108   4.843 -0.0492  0.2008 -0.3000
 6695SOL     OW31717   0.498   4.294  12.420 -0.0175  0.2340  0.3045
 6695SOL    HW131718   0.535   4.215  12.459 -0.0395 -0.0332 -0.2083
 6695SOL    HW231719   0.566   4.301  12.353 -1.5837  1.9453 -1.0917
 6696SOL     OW31720   3.601   1.556   7.195  0.1295 -0.0841 -0.0071
 6696SOL    HW131721   3.566   1.495   7.130  0.2122  1.4388 -1.4536
 6696SOL    HW231722   3.523   1.588   7.240  2.3475  3.5437  1.2225
 6697SOL     OW31723   2.840   4.250   5.931  0.4371 -0.1177 -0.2524
 6697SOL    HW131724   2.853   4.163   5.970 -2.2526  0.6475  2.3254
 6697SOL    HW231725   2.881   4.243   5.845  1.2368  0.3223  0.0917
 6698SOL     OW31726   2.232   1.024   1.575  0.3158  0.6825 -0.3052
 6698SOL    HW131727   2.272   1.103   1.541  2.1435 -0.8272 -1.6794
 6698SOL    HW231728   2.150   1.057   1.612 -0.2013 -0.4463 -0.4325
 6699SOL     OW31729   2.241   2.211  17.379  0.3764  0.4587  0.1015
 6699SOL    HW131730   2.152   2.247  17.385  0.5664  0.9249  0.1057
 6699SOL    HW231731   2.259   2.167  17.462  0.6283 -0.8492 -0.6391
 6700SOL     OW31732   2.427   0.026   2.178  0.1757  0.3491 -0.3584
 6700SOL    HW131733   2.455   0.117   2.182  1.7781 -0.0883 -1.5749
 6700SOL    HW231734   2.387   0.009   2.093 -0.5775  0.9761 -0.1233
 6701SOL     OW31735   3.448   1.815   5.141  0.2352 -0.1895  0.5499
 6701SOL    HW131736   3.503   1.737   5.143  0.5496 -0.0416 -2.1868
 6701SOL    HW231737   3.508   1.879   5.178 -1.8077  0.5662  2.5562
 6702SOL     OW31738   3.666   2.557   2.984 -0.2545  0.4543  0.0502
 6702SOL    HW131739   3.656   2.501   2.907  0.7603  1.1768 -0.6077
 6702SOL    HW231740   3.711   2.495   3.041 -1.0594  1.2208  1.5268
 6703SOL     OW31741   1.613   1.502  16.896  0.3213  0.0296 -0.4788
 6703SOL    HW131742   1.686   1.496  16.959 -0.7886 -1.3633  0.6758
 6703SOL    HW231743   1.540   1.507  16.957  0.1317 -2.2679 -0.5371
 6704SOL     OW31744   3.804   2.708  17.201 -0.2692 -0.4831  0.5799
 6704SOL    HW131745   3.831   2.631  17.152  0.8165 -0.3271  0.9453
 6704SOL    HW231746   3.841   2.681  17.285 -2.2536 -1.5854  1.1254
 6705SOL     OW31747   4.460   2.462   8.331  0.4430  0.5250  0.2225
 6705SOL    HW131748   4.376   2.496   8.363  0.3710  2.1226 -1.6871
 6705SOL    HW231749   4.450   2.455   8.236 -0.5363 -0.9737  0.4259
 6706SOL     OW31750   2.540   3.471   7.220  0.4407 -0.0557 -0.3614
 6706SOL    HW131751   2.524   3.385   7.180  1.1294 -0.3871  0.0910
 6706SOL    HW231752   2.618   3.498   7.173  1.1048 -2.9871 -0.8884
 6707SOL     OW31753   4.107   2.689  16.583  1.1412  0.3765  0.4058
 6707SOL    HW131754   4.169   2.725  16.646  0.3794  1.1237  0.7347
 6707SOL    HW231755   4.032   2.679  16.642  0.0928 -0.5540 -1.1090
 6708SOL     OW31756   3.337   1.862   8.771 -0.8815 -0.4961 -0.5965
 6708SOL    HW131757   3.370   1.941   8.813 -0.0839 -1.5863  0.8279
 6708SOL    HW231758   3.291   1.889   8.692 -1.3619 -0.9971 -0.4889
 6709SOL     OW31759   1.305   2.370   2.739 -0.1470  0.3136  0.2658
 6709SOL    HW131760   1.275   2.281   2.755  2.9615 -0.4955  1.7120
 6709SOL    HW231761   1.351   2.349   2.657  0.5187  0.6880  0.5409
 6710SOL     OW31762   1.306   0.844   5.614  0.0804 -0.1024  0.1095
 6710SOL    HW131763   1.255   0.801   5.545 -1.5393 -0.6957  1.6796
 6710SOL    HW231764   1.392   0.805   5.596 -0.2292 -0.5148 -0.4640
 6711SOL     OW31765   2.129   1.483   1.735  0.5800 -0.5509  0.2599
 6711SOL    HW131766   2.119   1.504   1.642 -0.2553  0.7320  0.6541
 6711SOL    HW231767   2.195   1.546   1.764 -0.4279  0.9126 -0.6472
 6712SOL     OW31768   0.790   3.514   6.449 -0.5034  0.3683 -0.7115
 6712SOL    HW131769   0.869   3.501   6.501 -1.6330  1.1125  1.1965
 6712SOL    HW231770   0.751   3.438   6.493  0.4408  0.7779  0.8513
 6713SOL     OW31771   3.493   1.472   8.298 -0.1649 -0.2248 -0.1744
 6713SOL    HW131772   3.427   1.525   8.255 -0.0874 -1.0047 -1.2492
 6713SOL    HW231773   3.446   1.391   8.316  2.6937 -1.9822 -0.6217
 6714SOL     OW31774   4.463   2.540   6.238 -0.0608 -0.2795  0.8508
 6714SOL    HW131775   4.390   2.490   6.202  0.8245 -1.1204  0.2214
 6714SOL    HW231776   4.478   2.467   6.298  3.0196 -0.7562 -0.4789
 6715SOL     OW31777   2.553   1.839   1.253 -0.6285  0.0449 -0.0214
 6715SOL    HW131778   2.614   1.890   1.305 -0.0211  2.7529 -3.3564
 6715SOL    HW231779   2.597   1.754   1.263 -0.9231 -0.0965  0.0888
 6716SOL     OW31780   0.499   2.730   2.576  0.2487 -0.4279 -1.2009
 6716SOL    HW131781   0.544   2.645   2.578  0.5532 -0.3305 -3.2309
 6716SOL    HW231782   0.556   2.780   2.635 -0.3072  0.6408 -1.5663
 6717SOL     OW31783   2.021   3.132  10.719  0.2165  0.3971  0.0129
 6717SOL    HW131784   1.954   3.091  10.775 -0.4506  0.7511 -0.5291
 6717SOL    HW231785   1.973   3.170  10.646  1.7795  3.8153  0.7996
 6718SOL     OW31786   1.859   2.847  12.061  0.2465  0.3133  0.2417
 6718SOL    HW131787   1.925   2.915  12.071  0.6423 -0.2195  1.3110
 6718SOL    HW231788   1.788   2.879  12.117 -0.3122 -0.4555 -0.0245
 6719SOL     OW31789   4.448   0.565   1.316  0.9523 -0.3701 -0.3354
 6719SOL    HW131790   4.525   0.575   1.259  0.5184  0.1839 -0.8203
 6719SOL    HW231791   4.440   0.469   1.314  1.8375 -0.4592  0.2639
 6720SOL     OW31792   3.251   0.237   8.491  0.8598 -1.0765 -0.2875
 6720SOL    HW131793   3.216   0.317   8.451  0.4219 -0.4990  1.2166
 6720SOL    HW231794   3.281   0.274   8.574 -1.4146 -3.1718  1.4810
 6721SOL     OW31795   0.379   0.689   4.576 -0.1580  0.3015  0.1977
 6721SOL    HW131796   0.455   0.682   4.634 -0.4198 -1.1848  0.3479
 6721SOL    HW231797   0.414   0.646   4.499  0.0082  0.1338  0.3672
 6722SOL     OW31798   1.935   3.972  10.111  0.1540  0.7069 -0.5561
 6722SOL    HW131799   1.926   3.923  10.193 -1.3577  0.8574 -0.6345
 6722SOL    HW231800   1.992   3.913  10.063 -0.2748 -0.4977  0.4039
 6723SOL     OW31801   2.215   0.704   5.349  0.3043  0.0920 -0.2033
 6723SOL    HW131802   2.296   0.753   5.356  1.1848 -1.3925 -0.1486
 6723SOL    HW231803   2.197   0.682   5.440 -0.7566  0.6044 -0.2859
 6724SOL     OW31804   0.771   3.920  10.545  0.1600 -0.3016 -0.2169
 6724SOL    HW131805   0.778   4.008  10.508  1.4741 -0.8618 -1.3008
 6724SOL    HW231806   0.859   3.885  10.533 -0.1456 -1.5899  1.2976
 6725SOL     OW31807   2.058   3.448   0.237  0.2163  0.4199  0.1432
 6725SOL    HW131808   2.105   3.486   0.163  0.0420  0.0884 -0.1350
 6725SOL    HW231809   1.969   3.448   0.201  0.6543 -1.0888 -0.8976
 6726SOL     OW31810   2.700   2.394   7.022  0.5120 -0.4967  1.0811
 6726SOL    HW131811   2.653   2.427   7.099 -0.2446 -0.4770  0.6104
 6726SOL    HW231812   2.794   2.409   7.033  0.1100 -0.7263  4.6399
 6727SOL     OW31813   3.934   2.156  15.979  0.2171 -0.3206 -0.3537
 6727SOL    HW131814   3.979   2.239  15.960  1.9159 -0.7202  1.8525
 6727SOL    HW231815   3.860   2.198  16.022  2.7821  1.6354  2.1908
 6728SOL     OW31816   1.809   3.943   1.168 -0.0859 -0.1467 -0.2158
 6728SOL    HW131817   1.777   3.879   1.104  0.7111 -2.6515  1.8914
 6728SOL    HW231818   1.902   3.939   1.144  0.4470  2.0170  1.4797
 6729SOL     OW31819   2.462   1.302   3.886 -0.0062  0.5860 -0.3273
 6729SOL    HW131820   2.533   1.266   3.832 -0.0062  0.8374 -0.4940
 6729SOL    HW231821   2.489   1.392   3.902  2.8242 -0.6913  2.0370
 6730SOL     OW31822   3.263   2.886   0.538  0.4246  0.5296 -0.4788
 6730SOL    HW131823   3.269   2.790   0.535  2.3229  0.6099  0.9028
 6730SOL    HW231824   3.218   2.897   0.622  1.2024 -0.0483  0.0080
 6731SOL     OW31825   2.633   0.680   8.239  0.1784  0.4195  0.0130
 6731SOL    HW131826   2.690   0.753   8.263  2.3259 -0.7484 -1.5128
 6731SOL    HW231827   2.655   0.673   8.147 -0.0242  2.7310 -0.2060
 6732SOL     OW31828   2.648   3.865   7.061  0.2335 -0.2742  0.3338
 6732SOL    HW131829   2.634   3.780   7.020  2.1294 -1.4408  2.1317
 6732SOL    HW231830   2.735   3.896   7.032 -1.1474  2.5573 -0.8152
 6733SOL     OW31831   2.077   2.541  11.775  0.4744  0.1079 -0.1201
 6733SOL    HW131832   2.083   2.446  11.765  2.6035  0.0131  2.0999
 6733SOL    HW231833   2.042   2.550  11.863 -0.7639 -0.3133 -0.5678
 6734SOL     OW31834   2.108   2.245   9.704  0.3159  0.3363 -0.0815
 6734SOL    HW131835   2.147   2.295   9.775  0.2799 -0.1415  0.2738
 6734SOL    HW231836   2.022   2.288   9.698  0.5804  0.8568 -0.1276
 6735SOL     OW31837   4.311   1.668  10.555  0.1405  0.6391 -0.2073
 6735SOL    HW131838   4.236   1.716  10.590 -1.4188 -0.7422 -1.6523
 6735SOL    HW231839   4.280   1.594  10.503  0.2687  1.6159 -1.7111
 6736SOL     OW31840   4.118   4.291   4.377  0.1366 -0.0640  0.3088
 6736SOL    HW131841   4.155   4.266   4.293 -0.6493  2.9133 -0.9195
 6736SOL    HW231842   4.041   4.236   4.362 -0.7683  0.9125  1.4026
 6737SOL     OW31843   3.873   1.994   6.113  0.1719 -0.4686  0.0958
 6737SOL    HW131844   3.834   2.060   6.055 -1.2622  1.1418  2.8458
 6737SOL    HW231845   3.877   2.048   6.192  0.1480 -0.7650  0.2988
 6738SOL     OW31846   3.536   0.985   2.642 -0.5872 -0.1772  0.0134
 6738SOL    HW131847   3.615   0.987   2.695 -0.1688  1.9331 -0.7098
 6738SOL    HW231848   3.474   1.015   2.708 -2.1932  1.6542 -2.3254
 6739SOL     OW31849   2.015   1.688   7.284 -0.1403 -0.7127  0.2830
 6739SOL    HW131850   2.102   1.656   7.261 -0.3101  0.2843 -1.7838
 6739SOL    HW231851   1.985   1.646   7.364  1.1905 -0.8143  0.7187
 6740SOL     OW31852   1.025   1.673   5.527 -0.0878  0.1418 -0.2805
 6740SOL    HW131853   1.084   1.607   5.565  0.7326  0.5312 -0.8908
 6740SOL    HW231854   1.066   1.747   5.571  0.2297 -0.7207  0.9001
 6741SOL     OW31855   4.468   3.976   8.335 -0.0737  0.0752 -0.2068
 6741SOL    HW131856   4.416   3.908   8.292 -2.7368  1.8900  0.1653
 6741SOL    HW231857   4.522   3.936   8.403  1.0389  1.5502 -0.2199
 6742SOL     OW31858   0.115   2.084   3.723 -0.2859  0.9273  0.0975
 6742SOL    HW131859   0.187   2.091   3.785 -0.6059  2.8415  0.2363
 6742SOL    HW231860   0.131   2.156   3.662  3.2169  1.1536  1.3167
 6743SOL     OW31861   0.564   3.217   3.796  0.6242  0.0542  0.7326
 6743SOL    HW131862   0.562   3.122   3.805  0.0028 -0.1483 -1.4559
 6743SOL    HW231863   0.469   3.225   3.784  0.6368 -0.0044  0.5870
 6744SOL     OW31864   0.358   3.339   9.032  0.0913 -0.1169 -0.2496
 6744SOL    HW131865   0.383   3.336   9.125 -0.0821  3.4145 -0.1067
 6744SOL    HW231866   0.273   3.382   9.044 -0.3129 -1.7036  2.7524
 6745SOL     OW31867   2.947   4.214  13.221  0.2090  0.1244  0.5418
 6745SOL    HW131868   2.963   4.223  13.127 -2.0419  0.7828  0.2194
 6745SOL    HW231869   3.016   4.273  13.251  0.8289 -0.2359 -0.1776
 6746SOL     OW31870   0.125   2.749   4.382 -0.2639  0.6112  0.5647
 6746SOL    HW131871   0.115   2.752   4.287  0.3264 -0.4605  0.4695
 6746SOL    HW231872   0.042   2.786   4.411 -0.6664  1.1297 -1.2028
 6747SOL     OW31873   2.247   4.618  10.826 -0.4432  0.0443 -0.6484
 6747SOL    HW131874   2.239   4.589  10.917  2.9710  2.1936  0.2930
 6747SOL    HW231875   2.206   4.704  10.838  0.2945  0.1038  1.5123
 6748SOL     OW31876   0.962   1.185   9.081  0.0644  0.2824 -0.6254
 6748SOL    HW131877   0.999   1.241   9.013 -2.4215  0.7342 -1.6129
 6748SOL    HW231878   1.000   1.225   9.160 -1.5136  1.8372 -0.6532
 6749SOL     OW31879   3.056   2.239   0.087 -0.0574 -0.3433  0.3091
 6749SOL    HW131880   3.076   2.272  17.749 -1.4011  1.5345  0.7021
 6749SOL    HW231881   3.013   2.311   0.133 -0.4490  1.2886 -2.6150
 6750SOL     OW31882   3.704   2.978   6.058 -0.6839  0.4968 -0.1414
 6750SOL    HW131883   3.748   2.908   6.010  1.0133 -0.6429  3.0688
 6750SOL    HW231884   3.635   2.932   6.106  0.6079 -0.0790  1.1759
 6751SOL     OW31885   2.205   2.327  13.285 -0.2763 -0.7714 -0.0805
 6751SOL    HW131886   2.282   2.323  13.228 -0.1005  1.3615  0.0143
 6751SOL    HW231887   2.237   2.376  13.361  0.8795 -0.9320 -0.4711
 6752SOL     OW31888   1.143   4.306   2.070 -0.4163  0.1440 -0.0297
 6752SOL    HW131889   1.210   4.353   2.020 -0.8274 -1.3589 -1.9801
 6752SOL    HW231890   1.196   4.227   2.081 -0.6182 -0.0150 -0.2022
 6753SOL     OW31891   0.501   0.552   6.148  0.2284  0.3007  0.6606
 6753SOL    HW131892   0.561   0.626   6.157  1.0604 -0.3430  0.5009
 6753SOL    HW231893   0.413   0.585   6.165  0.7450  0.0570  3.8800
 6754SOL     OW31894   0.281   4.054   7.931 -0.2224 -0.2562 -0.2733
 6754SOL    HW131895   0.255   4.102   8.010  1.3520  2.9195 -1.7014
 6754SOL    HW231896   0.208   3.995   7.914  0.0472 -1.2363  2.0020
 6755SOL     OW31897   3.042   2.205  13.212 -0.0769 -0.3992 -0.1388
 6755SOL    HW131898   3.105   2.156  13.265  1.2572 -1.5558 -2.7844
 6755SOL    HW231899   3.109   2.261  13.174  0.1429  0.5023  1.6278
 6756SOL     OW31900   1.439   2.176  11.377  0.2286  0.0565 -0.0088
 6756SOL    HW131901   1.421   2.263  11.412 -0.7226 -0.6335  1.1891
 6756SOL    HW231902   1.533   2.166  11.392  0.4327 -0.3830 -1.5435
 6757SOL     OW31903   1.394   4.583   5.850  0.7000 -0.2183 -0.2760
 6757SOL    HW131904   1.393   4.604   5.757  1.6801 -0.1734 -0.2739
 6757SOL    HW231905   1.461   4.515   5.849  0.1815 -0.7597  0.9306
 6758SOL     OW31906   3.906   2.783   6.344  0.4627  0.1006 -0.3320
 6758SOL    HW131907   3.981   2.770   6.403  0.7973 -1.2029 -1.0333
 6758SOL    HW231908   3.921   2.873   6.316  2.8237 -1.0522 -2.8523
 6759SOL     OW31909   2.523   4.247   7.088  0.5918 -0.7796  0.7331
 6759SOL    HW131910   2.617   4.259   7.101  0.8957 -1.9628 -0.2675
 6759SOL    HW231911   2.480   4.202   7.160  1.6730  0.8638  2.3876
 6760SOL     OW31912   1.677   4.274  11.324 -0.2574  0.3940  0.0958
 6760SOL    HW131913   1.646   4.185  11.311  0.1577  0.3668 -0.6861
 6760SOL    HW231914   1.603   4.305  11.377 -0.0638  0.7536  0.1585
 6761SOL     OW31915   0.646   3.263   0.447 -0.2556  0.1503 -0.2157
 6761SOL    HW131916   0.580   3.246   0.379  0.2715 -0.0634 -0.6771
 6761SOL    HW231917   0.719   3.213   0.409 -0.1249 -0.5822  1.0250
 6762SOL     OW31918   1.519   2.768  17.572 -0.2724  0.0349 -0.0086
 6762SOL    HW131919   1.469   2.796  17.649 -0.3600 -1.0423  0.3324
 6762SOL    HW231920   1.482   2.833  17.513 -1.7526 -1.6001 -0.8804
 6763SOL     OW31921   1.614   2.991  12.928  0.1165  0.0964 -0.2626
 6763SOL    HW131922   1.547   3.055  12.905  1.0386  1.2131  0.1849
 6763SOL    HW231923   1.666   2.996  12.848 -1.5377  0.1686 -1.3428
 6764SOL     OW31924   3.560   2.236   5.493 -0.5328  0.1538 -0.4177
 6764SOL    HW131925   3.614   2.168   5.452  0.8289  2.5983 -2.6352
 6764SOL    HW231926   3.569   2.304   5.427  1.0179  1.2896  0.9678
 6765SOL     OW31927   1.665   0.739  14.823  0.2410  0.1377  0.3267
 6765SOL    HW131928   1.741   0.788  14.853  0.5383  1.1034 -1.9550
 6765SOL    HW231929   1.589   0.787  14.856  0.3649 -0.1718  1.0534
 6766SOL     OW31930   0.595   3.271  11.284  0.1798 -0.0140  0.3347
 6766SOL    HW131931   0.564   3.355  11.318  1.6315 -0.7258  3.4288
 6766SOL    HW231932   0.677   3.270  11.332 -0.0352  0.0187  0.7053
 6767SOL     OW31933   2.906   3.427   1.863 -0.0808  0.1683  0.0712
 6767SOL    HW131934   2.826   3.478   1.859  1.7449  2.9894 -0.5612
 6767SOL    HW231935   2.896   3.389   1.950 -2.1542 -0.8593 -0.6007
 6768SOL     OW31936   3.237   3.099   7.093  0.6584  0.3200 -0.0384
 6768SOL    HW131937   3.311   3.073   7.039  0.3401  0.2568 -0.4478
 6768SOL    HW231938   3.193   3.153   7.027 -0.3112 -1.4800 -0.8555
 6769SOL     OW31939   0.126   0.882   2.217  0.4242 -0.0627  0.3422
 6769SOL    HW131940   0.077   0.962   2.199 -0.8714 -0.7912  0.6336
 6769SOL    HW231941   0.185   0.930   2.275 -0.8788  1.1691  0.6307
 6770SOL     OW31942   0.178   4.266   6.898  0.1727 -0.5313 -0.6638
 6770SOL    HW131943   0.236   4.196   6.926  0.4690  0.7718  1.9844
 6770SOL    HW231944   0.118   4.270   6.972  1.0002  0.6126 -0.0663
 6771SOL     OW31945   0.636   2.653   1.575 -0.2926  0.0259  0.1671
 6771SOL    HW131946   0.702   2.719   1.553 -1.1677  0.8632  0.0507
 6771SOL    HW231947   0.589   2.707   1.638  0.2150  0.5218  0.1256
 6772SOL     OW31948   2.079   4.404   4.133  0.4428  0.0776  0.0462
 6772SOL    HW131949   2.069   4.495   4.160 -0.2305  0.6404 -2.1145
 6772SOL    HW231950   2.002   4.382   4.080  2.4445 -1.6809 -2.1595
 6773SOL     OW31951   3.538   1.982   6.015 -0.2580  0.2005  0.0546
 6773SOL    HW131952   3.566   1.994   6.106 -0.1147 -1.7356  0.2741
 6773SOL    HW231953   3.572   2.055   5.964 -0.8872 -0.5095 -1.3935
 6774SOL     OW31954   2.821   3.226  17.144 -0.1619 -0.6928 -0.7636
 6774SOL    HW131955   2.887   3.156  17.147 -0.8938 -1.3035  1.4287
 6774SOL    HW231956   2.869   3.309  17.143 -2.1647  0.4360 -1.1076
 6775SOL     OW31957   0.728   1.568   9.703 -0.2429 -0.4898  0.0149
 6775SOL    HW131958   0.723   1.496   9.766 -3.0680 -2.0191 -1.9653
 6775SOL    HW231959   0.646   1.555   9.655 -0.1092 -0.0269 -0.3403
 6776SOL     OW31960   4.322   4.313   4.595 -0.0696  0.4448  0.0088
 6776SOL    HW131961   4.253   4.285   4.534 -0.7334  1.5850  0.2265
 6776SOL    HW231962   4.354   4.233   4.636 -0.5945  0.8056  1.1140
 6777SOL     OW31963   3.866   3.452   3.451 -0.2056  0.4006  0.1264
 6777SOL    HW131964   3.927   3.503   3.398 -0.3272  0.6267  0.2052
 6777SOL    HW231965   3.916   3.370   3.461 -1.6829 -0.7415 -1.9298
 6778SOL     OW31966   0.156   2.797   6.919  0.2068  0.2085  0.5292
 6778SOL    HW131967   0.235   2.816   6.868 -0.0177 -0.1906  0.0342
 6778SOL    HW231968   0.192   2.815   7.006  0.8257  0.0079  0.3183
 6779SOL     OW31969   1.534   1.229   8.580  0.0749  0.3977  0.8744
 6779SOL    HW131970   1.481   1.296   8.538  1.0891  1.5430  1.3936
 6779SOL    HW231971   1.557   1.268   8.665  0.9064 -3.4976  2.3989
 6780SOL     OW31972   2.093   3.095   8.305  0.0258 -0.2186 -0.0674
 6780SOL    HW131973   2.108   3.011   8.349  0.6957  0.9545  1.9394
 6780SOL    HW231974   2.048   3.144   8.374 -1.0900  1.3692 -1.9540
 6781SOL     OW31975   4.194   3.070   5.706  0.1291 -0.5383  0.1733
 6781SOL    HW131976   4.268   3.042   5.652 -1.1708 -0.8271 -1.4336
 6781SOL    HW231977   4.125   3.010   5.679  1.3813 -1.7671 -0.2793
 6782SOL     OW31978   4.100   1.829   2.126  0.1419  0.1606  0.7205
 6782SOL    HW131979   4.074   1.798   2.039  0.9780 -0.0807  0.5554
 6782SOL    HW231980   4.183   1.782   2.135  0.4617  1.2508  3.3172
 6783SOL     OW31981   3.129   1.687   4.553 -0.0902 -0.0620 -0.0195
 6783SOL    HW131982   3.084   1.762   4.593 -0.9827 -1.0069  0.7383
 6783SOL    HW231983   3.071   1.612   4.563 -1.5463  0.9499 -0.9038
 6784SOL     OW31984   4.242   1.970   9.432 -0.0628  0.2864 -0.3440
 6784SOL    HW131985   4.280   2.041   9.482  1.9553 -1.8487  1.1603
 6784SOL    HW231986   4.150   1.974   9.460  0.5647  3.8325  1.1038
 6785SOL     OW31987   1.331   3.618  15.861  0.5702  0.0728 -0.2880
 6785SOL    HW131988   1.282   3.679  15.915  3.4548  1.7333  0.4614
 6785SOL    HW231989   1.255   3.575  15.822 -0.1220  0.1405  0.9985
 6786SOL     OW31990   0.233   3.626   7.980 -0.2904  0.1060  0.0025
 6786SOL    HW131991   0.190   3.575   8.050  0.0177 -1.5044 -0.9743
 6786SOL    HW231992   0.199   3.715   7.986 -1.8290 -0.5474  1.0963
 6787SOL     OW31993   0.259   3.471  12.263 -0.0092 -0.3301 -0.1993
 6787SOL    HW131994   0.221   3.470  12.351 -0.7727 -1.3889 -0.5498
 6787SOL    HW231995   0.309   3.390  12.256 -0.6719 -0.7761  0.2258
 6788SOL     OW31996   2.673   1.870   1.692  0.2959  0.5620 -0.2640
 6788SOL    HW131997   2.669   1.962   1.717  0.8585  1.2651 -2.7141
 6788SOL    HW231998   2.692   1.834   1.779 -1.3645  3.2728  1.2293
 6789SOL     OW31999   2.682   2.990   9.038  0.4280  0.0868  0.0082
 6789SOL    HW132000   2.703   2.996   8.945  1.2689 -0.3189  0.1735
 6789SOL    HW232001   2.595   2.949   9.039  1.7743 -2.8482 -0.3557
 6790SOL     OW32002   3.279   0.194   2.731  0.0114  0.4310  0.0924
 6790SOL    HW132003   3.234   0.138   2.667  1.0814 -1.2363  0.8221
 6790SOL    HW232004   3.371   0.197   2.707 -0.2411  5.0592 -0.3772
 6791SOL     OW32005   0.100   2.540   9.470  0.0945 -0.2475 -0.2843
 6791SOL    HW132006   0.050   2.539   9.389  1.6581  0.0067 -1.2570
 6791SOL    HW232007   0.048   2.490   9.533  0.0601 -1.2640 -1.1230
 6792SOL     OW32008   2.342   0.367   9.394 -0.2215 -0.3268  0.0210
 6792SOL    HW132009   2.318   0.362   9.301 -0.0277  0.2821 -0.0621
 6792SOL    HW232010   2.296   0.445   9.425  0.5896  0.2708 -0.2737
 6793SOL     OW32011   1.052   1.399   1.874  0.0412 -0.1796 -0.0898
 6793SOL    HW132012   0.975   1.388   1.929  0.6798 -1.6085  0.5026
 6793SOL    HW232013   1.119   1.382   1.940 -2.4309 -2.3992  1.8678
 6794SOL     OW32014   3.945   1.880   6.512 -0.1472  0.5391 -0.2780
 6794SOL    HW132015   3.862   1.838   6.534  0.9171 -1.8549 -0.7997
 6794SOL    HW232016   4.004   1.828   6.567 -0.5877 -0.4870 -0.7987
 6795SOL     OW32017   3.604   1.274  11.747  0.1933  0.0758  0.9341
 6795SOL    HW132018   3.551   1.248  11.671  1.2747 -0.7822  0.4712
 6795SOL    HW232019   3.532   1.305  11.803  1.5281  3.4257  0.7829
 6796SOL     OW32020   0.240   0.515  12.768  0.2982  0.0864  0.2117
 6796SOL    HW132021   0.271   0.467  12.691  1.2598 -0.4051  0.8968
 6796SOL    HW232022   0.212   0.602  12.738  0.4537 -0.1140 -0.5242
 6797SOL     OW32023   1.192   3.721   4.010 -0.2386 -0.4167  0.0884
 6797SOL    HW132024   1.283   3.747   4.023 -0.1023 -0.2989 -1.0541
 6797SOL    HW232025   1.155   3.798   3.967  0.3034 -0.1769  0.0623
 6798SOL     OW32026   3.181   1.789   7.321  0.3838 -0.5192  0.2838
 6798SOL    HW132027   3.112   1.807   7.257  0.5533 -0.7387  0.0394
 6798SOL    HW232028   3.183   1.873   7.366  2.7404 -1.6989  2.3409
 6799SOL     OW32029   2.497   4.169   6.352 -0.0485 -0.7097 -0.0186
 6799SOL    HW132030   2.561   4.098   6.365  1.3697  0.6973  0.6500
 6799SOL    HW232031   2.461   4.190   6.439 -0.8538 -0.0684 -0.5105
 6800SOL     OW32032   2.816   0.318   2.519  0.0563 -0.3752 -0.5349
 6800SOL    HW132033   2.752   0.389   2.519 -2.5430 -2.7291 -1.6739
 6800SOL    HW232034   2.895   0.364   2.493 -0.0326 -0.3720 -0.7967
 6801SOL     OW32035   1.283   4.279   3.554  0.3260  0.1648  0.4211
 6801SOL    HW132036   1.271   4.219   3.480 -1.6123  0.2583  0.6476
 6801SOL    HW232037   1.193   4.298   3.581  0.8147  0.3613  1.8672
 6802SOL     OW32038   1.073   1.058   3.763 -0.0098  0.4265 -0.1265
 6802SOL    HW132039   1.132   1.121   3.721 -0.9920  1.5591  0.2231
 6802SOL    HW232040   1.135   0.985   3.773 -1.4176 -0.9912 -1.7598
 6803SOL     OW32041   1.364   1.800   6.364  0.1246 -0.6025  0.7064
 6803SOL    HW132042   1.289   1.789   6.422 -1.0244 -0.3463 -0.7120
 6803SOL    HW232043   1.420   1.865   6.406  1.3354 -0.5231 -0.9804
 6804SOL     OW32044   3.404   0.371   8.291 -0.7804 -0.2000 -0.2701
 6804SOL    HW132045   3.331   0.408   8.241  0.9538 -0.0863 -2.6600
 6804SOL    HW232046   3.464   0.362   8.217  1.5437  1.0167  1.4588
 6805SOL     OW32047   4.554   0.540  12.627  0.8642  0.4120 -0.3796
 6805SOL    HW132048   4.529   0.461  12.675 -0.7803  1.9341  1.2488
 6805SOL    HW232049   4.641   0.551  12.665  0.7876 -0.0511 -0.0716
 6806SOL     OW32050   1.657   0.180  10.634 -0.2445 -0.2769 -0.1367
 6806SOL    HW132051   1.717   0.181  10.559  2.0959  0.2340  1.7572
 6806SOL    HW232052   1.646   0.086  10.646  1.3888 -0.5741 -0.9662
 6807SOL     OW32053   2.984   0.790   6.159 -0.0965 -0.3983 -1.0228
 6807SOL    HW132054   3.060   0.802   6.216 -0.1641 -2.8549 -0.4130
 6807SOL    HW232055   3.019   0.804   6.071  0.9895  1.8836 -0.2558
 6808SOL     OW32056   1.547   1.384   6.811  0.5909 -0.5098 -0.1014
 6808SOL    HW132057   1.518   1.412   6.724 -0.5400  1.0501  0.7764
 6808SOL    HW232058   1.506   1.300   6.829 -0.2642  0.1578  1.0936
 6809SOL     OW32059   2.092   1.709  15.200 -0.0160 -0.4059 -0.0575
 6809SOL    HW132060   2.167   1.669  15.154  0.3943  0.3906 -0.0815
 6809SOL    HW232061   2.131   1.796  15.214  0.8229 -0.5347 -1.6287
 6810SOL     OW32062   2.130   3.788   0.791  0.5171  0.1786 -0.3789
 6810SOL    HW132063   2.134   3.786   0.696  3.0761 -0.4192 -0.2534
 6810SOL    HW232064   2.195   3.722   0.814  0.1440  0.2983  1.0561
 6811SOL     OW32065   1.726   2.946   6.930  0.5011  0.0165  0.3123
 6811SOL    HW132066   1.683   2.928   6.847 -0.6338 -0.3123  0.9749
 6811SOL    HW232067   1.647   2.981   6.970  0.0749 -0.7649  0.1456
 6812SOL     OW32068   3.354   3.494  14.581 -0.2173  0.0224 -1.0261
 6812SOL    HW132069   3.290   3.427  14.558  1.4031 -2.6041  2.1547
 6812SOL    HW232070   3.430   3.441  14.558  0.5058  0.9707 -0.8033
 6813SOL     OW32071   0.717   1.286   4.908 -0.2474  0.1313  0.1854
 6813SOL    HW132072   0.743   1.201   4.943  0.5864  1.3843  2.6201
 6813SOL    HW232073   0.748   1.342   4.979  2.4011 -1.4683  0.2973
 6814SOL     OW32074   3.015   4.305   4.250  0.3353 -0.5661 -0.8591
 6814SOL    HW132075   3.021   4.236   4.184 -0.5742 -0.8326 -0.6604
 6814SOL    HW232076   3.051   4.379   4.201 -0.7604  0.3213 -0.3296
 6815SOL     OW32077   2.572   3.008   8.762  0.1463  0.1303  0.4298
 6815SOL    HW132078   2.503   3.038   8.703 -0.2897 -0.4674  0.6372
 6815SOL    HW232079   2.627   2.963   8.697 -0.5238 -0.1786  0.0734
 6816SOL     OW32080   1.273   1.511  14.491  0.5371 -0.4141  0.0016
 6816SOL    HW132081   1.303   1.596  14.521  0.2535 -0.0145 -0.8171
 6816SOL    HW232082   1.178   1.524  14.483  0.2245 -1.9364  1.3624
 6817SOL     OW32083   0.762   4.596   6.605 -0.2848 -0.5356 -0.0635
 6817SOL    HW132084   0.783   4.640   6.522  1.6989 -1.9380 -0.2987
 6817SOL    HW232085   0.769   4.505   6.577  2.4531 -0.1559 -0.6100
 6818SOL     OW32086   2.432   0.248  13.336  0.3560 -0.0747  0.7819
 6818SOL    HW132087   2.375   0.279  13.266 -2.9032 -0.6109  3.1799
 6818SOL    HW232088   2.521   0.268  13.305 -0.0089  0.0439 -0.1660
 6819SOL     OW32089   0.974   0.999   6.419  0.1607 -0.1184  0.1685
 6819SOL    HW132090   0.934   1.076   6.459 -1.4498 -0.7344 -0.2406
 6819SOL    HW232091   0.979   1.011   6.324 -3.3436 -0.1984 -0.0130
 6820SOL     OW32092   4.578   3.454   8.572  0.0983  0.2273  0.4482
 6820SOL    HW132093   4.525   3.477   8.495 -0.5091 -0.6610  0.5935
 6820SOL    HW232094   4.648   3.399   8.538 -1.3750 -0.4441 -1.5621
 6821SOL     OW32095   4.613   2.119   7.176 -0.0421  0.1328 -0.5843
 6821SOL    HW132096   4.610   2.023   7.168  0.5355  0.1935 -1.6666
 6821SOL    HW232097   4.705   2.136   7.199 -0.6519  1.8715  0.5222
 6822SOL     OW32098   3.539   3.044   2.979 -0.7203  0.6006  0.4297
 6822SOL    HW132099   3.550   2.949   2.971 -0.1802  0.5868  1.4052
 6822SOL    HW232100   3.444   3.053   2.984 -0.7007  1.5480 -1.0502
 6823SOL     OW32101   0.095   1.392   5.008  0.5612  0.4283  0.3613
 6823SOL    HW132102   0.044   1.344   5.072  0.7639 -2.0265 -1.2974
 6823SOL    HW232103   0.177   1.342   5.017  1.2675  1.7554  1.2193
 6824SOL     OW32104   0.641   2.520   4.770  0.2630  0.1359  0.4349
 6824SOL    HW132105   0.641   2.462   4.694 -0.4020 -0.9952  1.2988
 6824SOL    HW232106   0.727   2.559   4.758  1.4096 -2.9359 -1.1168
 6825SOL     OW32107   1.276   2.778   9.566  0.4703  0.1649 -0.4295
 6825SOL    HW132108   1.292   2.721   9.641  1.6074  1.6199  0.4344
 6825SOL    HW232109   1.352   2.773   9.508  1.3101 -2.7023  0.9091
 6826SOL     OW32110   3.786   2.889   9.090  0.0063 -0.9726  0.5057
 6826SOL    HW132111   3.769   2.947   9.164  2.0300 -0.8878  0.9091
 6826SOL    HW232112   3.738   2.940   9.025  0.2301 -0.6407  0.6013
 6827SOL     OW32113   2.662   3.569   3.369  0.3262 -0.3713 -0.2432
 6827SOL    HW132114   2.622   3.550   3.454  0.3964 -1.6258 -0.4830
 6827SOL    HW232115   2.749   3.604   3.385 -0.2375  0.3410  1.2408
 6828SOL     OW32116   0.822   2.263   4.068  0.3874 -0.3875  0.9445
 6828SOL    HW132117   0.887   2.284   4.001 -0.1955  0.2183  0.5754
 6828SOL    HW232118   0.762   2.237   3.998  3.1335 -3.0132 -0.4309
 6829SOL     OW32119   1.418   3.472  17.622 -0.3456 -0.4237 -0.1874
 6829SOL    HW132120   1.468   3.397  17.589 -0.9106 -1.1730  0.6305
 6829SOL    HW232121   1.335   3.426  17.631 -0.1750 -0.5663  0.6648
 6830SOL     OW32122   0.783   4.177   6.836 -0.2982 -0.0320 -0.6566
 6830SOL    HW132123   0.705   4.122   6.828 -0.4014 -0.0078  0.1258
 6830SOL    HW232124   0.787   4.211   6.747  0.6225  2.0193  0.1714
 6831SOL     OW32125   4.318   2.683   8.544 -0.3127  0.1720 -0.2206
 6831SOL    HW132126   4.269   2.765   8.552 -0.4353 -0.1227  2.1343
 6831SOL    HW232127   4.361   2.706   8.462  0.2459  1.3810  0.4065
 6832SOL     OW32128   0.138   1.715   5.713  0.2275 -0.5036  0.5886
 6832SOL    HW132129   0.149   1.759   5.628  1.4721 -0.9663  0.5069
 6832SOL    HW232130   0.061   1.662   5.695 -0.7796  0.7948  1.0981
 6833SOL     OW32131   1.474   2.552   6.140  0.5444 -0.2236  0.1820
 6833SOL    HW132132   1.485   2.487   6.210  1.6410  1.3757  1.5177
 6833SOL    HW232133   1.567   2.561   6.117  0.2616 -0.6868 -1.1226
 6834SOL     OW32134   0.105   0.814   8.063  0.3206  0.2425  0.0199
 6834SOL    HW132135   0.022   0.789   8.023  0.2407 -0.6710  0.7422
 6834SOL    HW232136   0.131   0.864   7.986  1.1252 -0.9728 -0.5029
 6835SOL     OW32137   2.135   2.622  17.709 -0.4686 -0.3174 -0.2967
 6835SOL    HW132138   2.093   2.548   0.004  1.0882  0.2158  2.0460
 6835SOL    HW232139   2.136   2.672   0.041  1.2335 -0.5650 -0.1820
 6836SOL     OW32140   3.001   1.627   7.503  0.1564 -0.1917  0.4452
 6836SOL    HW132141   3.030   1.639   7.593 -0.3537 -0.3376  0.6290
 6836SOL    HW232142   3.041   1.700   7.455  0.7938 -2.2372 -2.1371
 6837SOL     OW32143   4.064   4.609   8.284  0.1044  0.1293 -0.5915
 6837SOL    HW132144   3.995   4.610   8.218 -0.5473 -0.2809  0.0757
 6837SOL    HW232145   4.040   4.685   8.337 -1.2239 -1.9438  1.8198
 6838SOL     OW32146   2.579   0.116   3.459  0.0300 -0.3189 -0.3399
 6838SOL    HW132147   2.539   0.030   3.468  1.1141 -0.7991 -0.1524
 6838SOL    HW232148   2.507   0.179   3.452  1.4223  1.4639  1.4157
 6839SOL     OW32149   3.956   3.307   8.104 -0.4359 -0.3027  0.3104
 6839SOL    HW132150   3.861   3.318   8.115 -0.6199 -2.8078  1.2651
 6839SOL    HW232151   3.969   3.233   8.044  0.4703  0.1937 -0.1004
 6840SOL     OW32152   2.859   3.653   8.241 -0.1542 -0.2107  0.0649
 6840SOL    HW132153   2.828   3.743   8.231  0.2466 -0.2921 -1.9601
 6840SOL    HW232154   2.787   3.613   8.289  1.3342 -1.6888  1.0499
 6841SOL     OW32155   2.151   3.647  10.191 -0.5054  0.5542 -0.2037
 6841SOL    HW132156   2.101   3.580  10.237  0.1011  1.2069  1.4258
 6841SOL    HW232157   2.236   3.612  10.217 -0.3948  1.7917  1.1157
 6842SOL     OW32158   0.302   3.097   2.809 -0.0100 -0.1125 -0.3609
 6842SOL    HW132159   0.365   3.039   2.765 -0.0029  0.4135 -1.0390
 6842SOL    HW232160   0.227   3.038   2.806 -0.1288  0.1124 -1.6768
 6843SOL     OW32161   0.134   4.151   2.369  0.0687  0.4093 -0.0463
 6843SOL    HW132162   0.127   4.121   2.279  0.0401 -1.2962  0.5187
 6843SOL    HW232163   0.210   4.207   2.354 -0.5362  1.8691  2.1842
 6844SOL     OW32164   0.981   0.602   5.214 -0.4238 -0.1018 -0.3010
 6844SOL    HW132165   0.936   0.531   5.169 -0.2916 -0.2949 -0.1223
 6844SOL    HW232166   1.024   0.649   5.142 -1.9720 -0.1527 -1.2542
 6845SOL     OW32167   3.243   4.443   6.001 -0.1908 -0.6691 -0.3559
 6845SOL    HW132168   3.276   4.521   6.046 -0.3928  0.5520 -2.3323
 6845SOL    HW232169   3.169   4.439   6.062 -0.6659  0.4908 -0.8628
 6846SOL     OW32170   4.362   4.317  15.243  0.2561  0.3573 -0.0282
 6846SOL    HW132171   4.353   4.249  15.177 -0.6898  1.3755 -0.9368
 6846SOL    HW232172   4.456   4.333  15.238 -0.1252  2.8042  0.5209
 6847SOL     OW32173   2.544   0.160   3.009  0.2248  0.2081  0.2559
 6847SOL    HW132174   2.638   0.181   3.006  0.1227  0.2753 -2.4785
 6847SOL    HW232175   2.507   0.244   2.981 -0.9881 -0.8973 -1.3915
 6848SOL     OW32176   0.891   0.533   3.431  0.0197  0.6373 -0.0183
 6848SOL    HW132177   0.965   0.569   3.481  0.9841 -0.1333 -0.8849
 6848SOL    HW232178   0.822   0.594   3.455 -1.7675 -0.9321 -1.1973
 6849SOL     OW32179   1.049   4.184   3.775 -0.5182 -0.2393  0.8511
 6849SOL    HW132180   1.020   4.275   3.767  2.0959  0.6517  1.5180
 6849SOL    HW232181   1.041   4.151   3.685 -3.9041 -0.9546  1.3977
 6850SOL     OW32182   1.236   1.057   8.664  0.2969 -0.1505 -0.0664
 6850SOL    HW132183   1.274   1.140   8.692  3.2071 -1.0710 -1.2789
 6850SOL    HW232184   1.226   1.006   8.744  1.1316 -1.2673 -0.6614
 6851SOL     OW32185   2.458   2.513   0.962  0.3518  0.1599  0.5290
 6851SOL    HW132186   2.452   2.608   0.947 -0.4425  0.3509  1.9841
 6851SOL    HW232187   2.533   2.505   1.021 -0.5661 -0.2346  1.6533
 6852SOL     OW32188   2.660   0.725  15.860  0.2708  0.3060 -0.2143
 6852SOL    HW132189   2.659   0.630  15.848  0.2825  0.1125  1.2866
 6852SOL    HW232190   2.609   0.757  15.785 -0.7344  0.3323  0.4864
 6853SOL     OW32191   3.436   4.653   8.767 -0.2054 -0.3485  0.0211
 6853SOL    HW132192   3.511   4.682   8.715 -0.9161  3.5372  1.1380
 6853SOL    HW232193   3.366   4.659   8.702  0.6005 -0.6629 -0.8820
 6854SOL     OW32194   4.702   1.179   2.760 -0.5790 -0.4681 -0.8072
 6854SOL    HW132195   0.003   1.266   2.757 -0.9490 -0.2344  1.2659
 6854SOL    HW232196   4.631   1.192   2.697  0.3178 -1.3004 -1.9857
 6855SOL     OW32197   3.344   0.556   3.329  0.0876 -0.4589  0.1520
 6855SOL    HW132198   3.273   0.582   3.387 -0.0861 -1.2294  0.2918
 6855SOL    HW232199   3.419   0.559   3.388 -0.1780 -1.4009  0.5346
 6856SOL     OW32200   1.391   3.710  15.280  0.6001 -0.0165 -0.0748
 6856SOL    HW132201   1.452   3.695  15.207  2.0504  3.0392  0.5062
 6856SOL    HW232202   1.342   3.785  15.246 -0.1274 -0.4718 -0.0390
 6857SOL     OW32203   0.668   2.156  13.541  0.3368  0.4490 -0.0033
 6857SOL    HW132204   0.682   2.062  13.528  1.6105  0.6857 -0.3120
 6857SOL    HW232205   0.573   2.150  13.529  0.2977  0.7691  0.1405
 6858SOL     OW32206   4.330   2.789   7.539  0.3985  0.6539  0.5760
 6858SOL    HW132207   4.240   2.786   7.509  0.2994  0.0066  0.9570
 6858SOL    HW232208   4.315   2.780   7.633  1.2752 -0.5366  0.6000
 6859SOL     OW32209   0.679   3.703   7.624  0.4584  0.0703 -0.2949
 6859SOL    HW132210   0.714   3.708   7.535 -1.0986 -0.9575 -0.9814
 6859SOL    HW232211   0.611   3.770   7.634  1.7379  1.7121 -2.6780
 6860SOL     OW32212   3.486   0.922  13.563  0.0170 -0.1073 -0.1669
 6860SOL    HW132213   3.550   0.868  13.610 -0.5973 -0.9898 -0.3328
 6860SOL    HW232214   3.528   0.990  13.510  0.6469 -1.1140 -0.9580
 6861SOL     OW32215   1.488   1.046  16.092  0.6533 -0.6285 -0.1968
 6861SOL    HW132216   1.410   1.013  16.138 -0.3157  0.7442 -0.8650
 6861SOL    HW232217   1.447   1.108  16.033  1.2943 -1.0447 -1.0735
 6862SOL     OW32218   1.944   4.104   7.383 -0.1900 -0.7295 -0.4912
 6862SOL    HW132219   1.897   4.031   7.341 -0.6781 -1.4524  1.3364
 6862SOL    HW232220   1.926   4.098   7.476  1.2258  0.9775 -0.1183
 6863SOL     OW32221   0.616   0.550  14.425 -1.0518 -0.5140  0.3041
 6863SOL    HW132222   0.671   0.625  14.401  2.5299 -3.2614 -0.0830
 6863SOL    HW232223   0.548   0.590  14.480 -0.2097  0.5043  0.6170
 6864SOL     OW32224   1.489   1.257   7.576 -0.4558  0.6143  0.4367
 6864SOL    HW132225   1.458   1.283   7.663  1.8136  3.6019  0.3638
 6864SOL    HW232226   1.420   1.292   7.520 -0.2649  0.3177  0.0184
 6865SOL     OW32227   3.170   0.778   6.363 -0.2328 -1.2697  0.2979
 6865SOL    HW132228   3.106   0.743   6.425 -0.6575 -2.1866 -0.6591
 6865SOL    HW232229   3.249   0.775   6.418 -0.8999 -1.0394  1.2622
 6866SOL     OW32230   0.615   2.012  15.017 -0.6850  0.2033  0.0059
 6866SOL    HW132231   0.534   2.027  14.969  0.0923 -0.1500 -1.4183
 6866SOL    HW232232   0.667   1.950  14.966  1.8483  1.5948  0.8937
 6867SOL     OW32233   2.918   0.306   8.243 -0.3519 -0.2832 -0.1097
 6867SOL    HW132234   2.839   0.258   8.267  1.0716 -0.9166  3.2979
 6867SOL    HW232235   2.886   0.396   8.236  0.2223 -0.1617 -1.0890
 6868SOL     OW32236   2.070   1.374   4.532 -0.3223  0.6894  0.1523
 6868SOL    HW132237   1.979   1.377   4.503 -0.1046 -0.0810 -0.6327
 6868SOL    HW232238   2.107   1.452   4.491 -0.2424  0.2825 -0.5702
 6869SOL     OW32239   0.014   1.792   7.301 -0.1505  0.4750  0.0671
 6869SOL    HW132240   4.698   1.763   7.375  0.2364  0.4679  0.3497
 6869SOL    HW232241   4.682   1.776   7.239 -0.1952 -0.3381  0.3260
 6870SOL     OW32242   2.646   0.964   7.977  0.1075 -0.1546  0.2507
 6870SOL    HW132243   2.663   0.890   7.918  0.5702  0.5113 -0.4576
 6870SOL    HW232244   2.708   0.942   8.046 -0.2876  0.5169  0.8142
 6871SOL     OW32245   4.366   0.445   5.514 -0.3994 -0.8049 -0.1669
 6871SOL    HW132246   4.400   0.532   5.533 -2.4686 -0.1543  0.5962
 6871SOL    HW232247   4.307   0.430   5.588  0.9533 -0.9717  0.8675
 6872SOL     OW32248   2.550   1.249   8.962 -0.3965  0.0004 -0.0084
 6872SOL    HW132249   2.564   1.342   8.979  0.6545  0.1817 -1.8702
 6872SOL    HW232250   2.637   1.211   8.962 -0.7755 -0.8740 -0.2080
 6873SOL     OW32251   3.245   0.526   6.271  0.3312 -0.3704 -0.0023
 6873SOL    HW132252   3.199   0.607   6.292 -1.8278 -1.4293 -0.5664
 6873SOL    HW232253   3.252   0.481   6.355 -1.5228 -0.7874 -0.0772
 6874SOL     OW32254   3.006   3.712   8.601  0.0964  0.3785 -0.6518
 6874SOL    HW132255   3.049   3.687   8.519 -1.5134 -1.6934 -0.8750
 6874SOL    HW232256   2.988   3.625   8.636  0.0063  1.9881  3.3708
 6875SOL     OW32257   0.922   1.527   7.600 -0.3693 -0.0203 -0.8378
 6875SOL    HW132258   0.939   1.515   7.694  2.4173  0.6822 -1.2529
 6875SOL    HW232259   0.909   1.621   7.593 -1.1744  0.0099  1.0089
 6876SOL     OW32260   2.703   2.819   0.296  0.1641  0.0937 -0.3678
 6876SOL    HW132261   2.794   2.823   0.324 -0.3625  1.1145  1.2025
 6876SOL    HW232262   2.710   2.773   0.213 -1.5089  0.5474 -0.7754
 6877SOL     OW32263   0.083   0.680   9.064  0.2637 -0.1532  0.9946
 6877SOL    HW132264   0.119   0.637   8.986  0.3135  0.5224  0.6424
 6877SOL    HW232265   0.057   0.602   9.113 -0.7972 -0.8831 -0.7238
 6878SOL     OW32266   3.313   4.054   1.932  0.2722  0.2624 -0.3221
 6878SOL    HW132267   3.371   4.005   1.989  3.5977  2.3010 -1.9140
 6878SOL    HW232268   3.250   4.091   1.994 -0.4136  1.6286 -1.8184
 6879SOL     OW32269   1.798   1.957   4.474  0.4875  0.5797 -0.1600
 6879SOL    HW132270   1.823   1.952   4.381 -0.7071 -0.0427 -0.4406
 6879SOL    HW232271   1.859   2.027   4.499 -0.6303  1.5132 -0.0777
 6880SOL     OW32272   0.362   0.572   5.032 -0.3202  0.3245  0.0508
 6880SOL    HW132273   0.443   0.620   5.052 -0.2542  0.3948 -0.3641
 6880SOL    HW232274   0.387   0.496   5.083  0.5513  0.6452  0.1080
 6881SOL     OW32275   3.846   4.145   5.207 -0.0380  0.1523 -0.5831
 6881SOL    HW132276   3.804   4.099   5.134 -1.8799  0.1772  0.4790
 6881SOL    HW232277   3.775   4.163   5.269 -1.0375  0.2266 -1.7619
 6882SOL     OW32278   0.405   0.372   8.714 -0.1171 -0.2958 -0.2131
 6882SOL    HW132279   0.488   0.421   8.721  0.2785 -1.2339  1.5944
 6882SOL    HW232280   0.405   0.355   8.620 -1.0496  0.1020 -0.2815
 6883SOL     OW32281   2.886   1.301  16.878  0.3851 -0.2344  0.4773
 6883SOL    HW132282   2.878   1.319  16.785  0.8967 -0.0813  0.4577
 6883SOL    HW232283   2.972   1.343  16.892  0.2226  0.1885  0.2020
 6884SOL     OW32284   1.488   4.689  17.244 -0.1610 -0.4291  0.1252
 6884SOL    HW132285   1.567   4.644  17.274  1.0334 -0.4050 -3.0174
 6884SOL    HW232286   1.417   4.628  17.266 -2.6156  2.9225  1.4592
 6885SOL     OW32287   4.414   2.824   5.104  0.3413 -0.1852 -0.2460
 6885SOL    HW132288   4.406   2.851   5.013 -3.6567  0.3678  0.2869
 6885SOL    HW232289   4.502   2.859   5.117  0.0531  0.3077  0.3559
 6886SOL     OW32290   0.794   1.385   1.214  0.0437  0.3283 -0.0865
 6886SOL    HW132291   0.739   1.317   1.176  1.8633 -1.1175 -0.1556
 6886SOL    HW232292   0.882   1.347   1.214  0.1420  0.5466  0.6597
 6887SOL     OW32293   1.526   3.739   6.673  0.3117 -0.3528 -0.0717
 6887SOL    HW132294   1.610   3.756   6.716 -0.1485  1.8261 -0.0413
 6887SOL    HW232295   1.499   3.652   6.701  1.3260 -0.1233  1.6820
 6888SOL     OW32296   4.545   3.238   4.928  0.2316 -0.2432 -0.0559
 6888SOL    HW132297   4.535   3.242   5.023 -1.8726 -2.1722 -0.1827
 6888SOL    HW232298   4.495   3.316   4.905 -1.4268 -1.0906  0.6692
 6889SOL     OW32299   2.077   0.147   4.662  0.1069  1.0523 -0.5794
 6889SOL    HW132300   2.043   0.190   4.740  0.1166  1.8050 -0.9835
 6889SOL    HW232301   2.136   0.081   4.699 -0.7458 -0.8701 -2.6217
 6890SOL     OW32302   4.450   3.320   6.684  0.2285 -0.2894  0.1914
 6890SOL    HW132303   4.468   3.226   6.680 -0.6637 -0.5467  2.1762
 6890SOL    HW232304   4.377   3.327   6.746  0.0693 -2.3569  0.2296
 6891SOL     OW32305   1.064   3.220   5.065 -0.1078  0.5022  0.3381
 6891SOL    HW132306   0.989   3.275   5.046 -1.2275 -0.3020  2.4426
 6891SOL    HW232307   1.061   3.225   5.161  2.1019 -0.2237  0.4562
 6892SOL     OW32308   3.421   0.807  11.322  0.4369  0.4669  0.5513
 6892SOL    HW132309   3.423   0.728  11.376 -1.8251 -0.8491 -1.3199
 6892SOL    HW232310   3.501   0.791  11.271  1.1086  1.1624  1.3648
 6893SOL     OW32311   1.669   3.388  13.565 -0.6880 -0.4021 -0.3055
 6893SOL    HW132312   1.758   3.375  13.532 -1.4516 -0.6380 -2.2830
 6893SOL    HW232313   1.698   3.388  13.657  2.2368  1.3178 -1.2215
 6894SOL     OW32314   2.201   3.426   0.467 -0.2126 -0.3870  0.1796
 6894SOL    HW132315   2.156   3.406   0.385  1.1724  2.1367 -1.2039
 6894SOL    HW232316   2.170   3.517   0.472  0.1180 -0.3523  1.3913
 6895SOL     OW32317   0.592   4.054   5.495  0.2212 -0.0268 -0.5070
 6895SOL    HW132318   0.626   4.066   5.407  0.7079  2.2664 -0.0269
 6895SOL    HW232319   0.661   4.103   5.542  0.5127  0.0641 -1.0296
 6896SOL     OW32320   1.812   0.283   5.030 -0.2590  0.0841  0.1771
 6896SOL    HW132321   1.889   0.340   5.026  0.0426 -0.3643 -0.3987
 6896SOL    HW232322   1.839   0.203   5.075 -0.4581 -0.6380 -0.9924
 6897SOL     OW32323   1.514   1.999  12.112 -0.4325 -0.0315 -0.1365
 6897SOL    HW132324   1.535   1.983  12.019 -0.4314  0.4811 -0.2248
 6897SOL    HW232325   1.479   2.088  12.107  0.8059  0.3356 -2.4983
 6898SOL     OW32326   4.568   2.281   5.954  0.2466  0.4201 -0.1392
 6898SOL    HW132327   4.610   2.274   5.868 -0.4119  0.2649 -0.4500
 6898SOL    HW232328   4.482   2.313   5.928  0.3590  0.6858 -0.1944
 6899SOL     OW32329   1.843   2.543   3.635 -0.0568 -0.7584  0.0985
 6899SOL    HW132330   1.748   2.544   3.648  0.0892  0.9958  0.9713
 6899SOL    HW232331   1.847   2.562   3.541 -1.2519 -1.4503 -0.0887
 6900SOL     OW32332   0.343   3.196   6.859  0.4076 -0.3046  0.1595
 6900SOL    HW132333   0.368   3.288   6.861  0.1035 -0.2492  1.3950
 6900SOL    HW232334   0.305   3.180   6.772 -0.2016  1.1522  0.1578
 6901SOL     OW32335   0.294   2.566  10.529  0.2303  0.3050  0.1564
 6901SOL    HW132336   0.279   2.650  10.573  1.5493  0.3580  0.4878
 6901SOL    HW232337   0.262   2.500  10.590  0.9177  0.1950  0.3932
 6902SOL     OW32338   1.184   2.667   0.315  0.3986  0.1580 -0.1342
 6902SOL    HW132339   1.101   2.707   0.340 -0.0524 -0.0953 -1.2048
 6902SOL    HW232340   1.152   2.611   0.245 -1.5970 -0.6616  1.4427
 6903SOL     OW32341   3.849   3.895   1.277  0.3900  0.2835 -0.0236
 6903SOL    HW132342   3.824   3.902   1.185  0.9605  0.4904 -0.1639
 6903SOL    HW232343   3.762   3.876   1.312  0.8209  0.0213  0.9147
 6904SOL     OW32344   3.355   0.669   7.843 -0.9077 -0.1820  0.2919
 6904SOL    HW132345   3.388   0.723   7.771  0.5560 -0.2207  0.9456
 6904SOL    HW232346   3.378   0.723   7.918  0.8528  0.4618 -0.7163
 6905SOL     OW32347   4.735   1.428   3.788  0.2852 -0.3886 -0.6536
 6905SOL    HW132348   4.694   1.422   3.701 -3.2090  1.3297  0.9018
 6905SOL    HW232349   4.686   1.360   3.834 -2.0131  1.0495 -0.9376
 6906SOL     OW32350   4.433   0.282  17.069 -0.0782  0.4211  0.1446
 6906SOL    HW132351   4.422   0.279  17.164  1.1530  0.6027  0.3009
 6906SOL    HW232352   4.419   0.191  17.046  3.6626 -0.4458  1.2010
 6907SOL     OW32353   4.722   1.442   6.971 -0.1563  0.4331  0.3514
 6907SOL    HW132354   4.729   1.357   7.015 -0.4397 -0.5038 -1.3822
 6907SOL    HW232355   0.068   1.483   6.991  0.2095 -1.1936  2.1903
 6908SOL     OW32356   1.740   3.794   1.411 -0.5890 -0.2827 -0.1176
 6908SOL    HW132357   1.769   3.813   1.322 -1.2962  2.4961  0.2484
 6908SOL    HW232358   1.783   3.867   1.456  0.1325 -1.2537  0.7518
 6909SOL     OW32359   1.351   3.628   0.820  0.2478 -0.6020 -0.1312
 6909SOL    HW132360   1.349   3.555   0.883 -0.9379  0.1919  0.7522
 6909SOL    HW232361   1.424   3.606   0.763 -0.5150 -3.0782 -0.1992
 6910SOL     OW32362   0.533   3.415   2.558  0.1737  0.2434  0.7151
 6910SOL    HW132363   0.451   3.375   2.531  0.4689  0.0487  0.1116
 6910SOL    HW232364   0.492   3.502   2.558 -0.1165  0.1069 -1.2888
 6911SOL     OW32365   2.186   2.046   2.801 -0.4292 -0.4551  0.3675
 6911SOL    HW132366   2.108   1.998   2.771 -1.5919  1.5586  0.2148
 6911SOL    HW232367   2.254   1.979   2.798  0.6373  0.6243  0.7629
 6912SOL     OW32368   2.643   3.070  16.684  0.3502  0.2504  0.1524
 6912SOL    HW132369   2.731   3.067  16.645  1.7465  0.6400  3.2594
 6912SOL    HW232370   2.606   2.984  16.662 -1.3676  0.5949  1.7691
 6913SOL     OW32371   2.113   4.737   7.868  0.2999 -0.4391  0.2204
 6913SOL    HW132372   2.194   0.007   7.919  0.9344  0.1672 -0.8857
 6913SOL    HW232373   2.068   0.065   7.921  0.2201 -0.3044 -0.0166
 6914SOL     OW32374   2.780   4.223   2.388  0.4027 -0.3072  0.5050
 6914SOL    HW132375   2.825   4.184   2.463  0.7116  0.6462  0.8135
 6914SOL    HW232376   2.845   4.288   2.364  0.5459 -0.0461  1.6029
 6915SOL     OW32377   2.161   2.570   2.887  0.0100 -0.5011  0.0662
 6915SOL    HW132378   2.161   2.483   2.928  1.9166 -0.0213  1.0757
 6915SOL    HW232379   2.220   2.625   2.938  0.3825 -2.1955  1.4349
 6916SOL     OW32380   2.690   1.557   0.189 -0.0045  0.8184 -0.0614
 6916SOL    HW132381   2.724   1.643   0.164 -1.4228  1.1530 -0.8462
 6916SOL    HW232382   2.753   1.497   0.152 -0.9428  0.2046 -0.6642
 6917SOL     OW32383   1.235   0.281  13.319 -0.1243  0.4654 -0.3364
 6917SOL    HW132384   1.153   0.246  13.352  0.2920  0.5196  0.7745
 6917SOL    HW232385   1.205   0.364  13.283 -1.0201  1.1931  2.1168
 6918SOL     OW32386   1.815   2.154   9.098  0.0986 -0.0526  0.2575
 6918SOL    HW132387   1.872   2.137   9.172  2.1955 -0.4131 -1.4410
 6918SOL    HW232388   1.728   2.126   9.125  0.3748  0.2274  1.4249
 6919SOL     OW32389   1.797   1.156   3.174 -0.6430 -0.7853  0.3562
 6919SOL    HW132390   1.856   1.170   3.100 -1.4005  0.9540  0.0969
 6919SOL    HW232391   1.823   1.239   3.213 -0.3854 -0.6076 -0.1892
 6920SOL     OW32392   4.232   2.701   1.344  0.4355  0.2722  0.0644
 6920SOL    HW132393   4.193   2.722   1.259 -2.6964  1.1467  1.7270
 6920SOL    HW232394   4.234   2.606   1.336  0.1555  0.2454  0.3055
 6921SOL     OW32395   2.680   0.651   8.887  0.3995 -0.2777  0.3948
 6921SOL    HW132396   2.700   0.659   8.793  0.9069  0.5122  0.5726
 6921SOL    HW232397   2.585   0.656   8.873  0.4626 -0.1123  0.0094
 6922SOL     OW32398   1.945   0.975   1.725  0.1353  0.3572 -0.4282
 6922SOL    HW132399   1.937   1.061   1.683 -0.9083 -0.1611 -1.2770
 6922SOL    HW232400   1.899   0.981   1.809  0.2049 -1.4115 -0.2715
 6923SOL     OW32401   1.096   3.032  17.208 -0.1602 -0.3792 -0.9306
 6923SOL    HW132402   1.124   2.973  17.278 -0.7517  2.5174  1.7490
 6923SOL    HW232403   1.027   2.983  17.164 -0.0437 -1.2774 -0.1192
 6924SOL     OW32404   4.447   0.352  13.704 -0.4848 -0.7176  0.9280
 6924SOL    HW132405   4.379   0.416  13.729  0.6186  0.7531  0.1710
 6924SOL    HW232406   4.433   0.286  13.771 -0.5291 -0.2061  1.4248
 6925SOL     OW32407   0.123   1.592   3.945  0.7488  0.2933 -0.7063
 6925SOL    HW132408   0.060   1.622   4.011  0.0897  0.2295 -1.3099
 6925SOL    HW232409   0.068   1.535   3.893 -2.1946  0.3435  2.3561
 6926SOL     OW32410   0.809   1.659   4.795  0.3810  0.0684 -0.3546
 6926SOL    HW132411   0.802   1.584   4.855  0.1615  0.6152  0.2964
 6926SOL    HW232412   0.719   1.691   4.798 -0.1671 -1.5836  1.3047
 6927SOL     OW32413   2.202   3.458  16.482  0.1587  0.3655 -0.2090
 6927SOL    HW132414   2.289   3.487  16.511 -0.5946 -0.5704  2.9921
 6927SOL    HW232415   2.182   3.391  16.548  0.5637 -1.3751 -1.8290
 6928SOL     OW32416   1.505   2.659   0.125 -0.1992  0.8846 -0.4000
 6928SOL    HW132417   1.449   2.736   0.116  0.8449  1.3903 -2.4223
 6928SOL    HW232418   1.571   2.686   0.061  1.2812  0.5793  1.0063
 6929SOL     OW32419   0.368   1.854   0.251  0.2073  0.5220 -0.3666
 6929SOL    HW132420   0.291   1.894   0.291  0.1772  1.9562 -1.8932
 6929SOL    HW232421   0.331   1.783   0.198  0.2718 -1.8177  2.7030
 6930SOL     OW32422   1.410   4.210  16.292 -0.2478  0.4792  0.0850
 6930SOL    HW132423   1.382   4.119  16.296 -2.9646  1.3908  1.3796
 6930SOL    HW232424   1.384   4.226  16.201  0.2246 -1.4774 -0.3829
 6931SOL     OW32425   4.397   2.163   2.374 -0.3237  1.0642 -0.0660
 6931SOL    HW132426   4.362   2.252   2.373 -1.9272  0.4505  0.5295
 6931SOL    HW232427   4.319   2.111   2.355  0.6221 -0.6402  0.7493
 6932SOL     OW32428   0.636   0.480   7.338 -0.2038 -0.3873  1.0281
 6932SOL    HW132429   0.719   0.474   7.291 -0.9391  2.0172 -0.5640
 6932SOL    HW232430   0.651   0.566   7.378  1.8241  0.4110 -1.4599
 6933SOL     OW32431   2.234   2.198  16.962 -0.0418 -0.4798 -0.7264
 6933SOL    HW132432   2.289   2.235  17.031  0.6601  1.3458 -2.2857
 6933SOL    HW232433   2.149   2.240  16.978  0.0953  0.0190 -1.3104
 6934SOL     OW32434   0.887   3.557   8.550 -0.0285  0.3882 -0.1097
 6934SOL    HW132435   0.952   3.605   8.498 -0.1156 -0.2815 -0.8225
 6934SOL    HW232436   0.910   3.599   8.633  1.5811  2.5486 -1.6422
 6935SOL     OW32437   0.771   3.234   2.958 -0.1257 -0.3941  0.2674
 6935SOL    HW132438   0.833   3.292   2.914  0.5427  1.2861  3.3681
 6935SOL    HW232439   0.784   3.149   2.916 -0.5622 -0.0389 -0.5686
 6936SOL     OW32440   2.898   4.610   5.066  0.1910  0.2126  0.5310
 6936SOL    HW132441   2.823   4.659   5.031  0.3230  0.3930  0.4962
 6936SOL    HW232442   2.977   4.634   5.018 -0.4040  0.1987 -0.4564
 6937SOL     OW32443   1.897   4.304   5.048  0.1448  0.1571  0.0306
 6937SOL    HW132444   1.833   4.259   4.993 -1.0316 -0.3322  1.7942
 6937SOL    HW232445   1.959   4.231   5.052 -0.0353  0.0947  1.7912
 6938SOL     OW32446   2.432   3.436   0.660  0.2462 -0.2991  0.5313
 6938SOL    HW132447   2.374   3.405   0.590  2.0546 -2.7334  0.1388
 6938SOL    HW232448   2.493   3.494   0.614  2.0221 -2.1064  0.6321
 6939SOL     OW32449   3.412   1.599   9.572  0.0578 -0.3874 -0.2465
 6939SOL    HW132450   3.454   1.680   9.542  1.3311 -0.7027  0.6687
 6939SOL    HW232451   3.343   1.640   9.623 -0.4179 -1.7028  0.1760
 6940SOL     OW32452   0.373   2.157   2.260 -0.1098  0.8464  0.4077
 6940SOL    HW132453   0.350   2.072   2.297 -1.0687 -0.0442 -2.2275
 6940SOL    HW232454   0.288   2.174   2.220  0.4116  0.8486 -0.7227
 6941SOL     OW32455   4.569   1.224   9.473  0.3521 -0.5120 -0.0406
 6941SOL    HW132456   4.569   1.289   9.402 -0.2401  0.4455  0.8334
 6941SOL    HW232457   4.661   1.244   9.493 -0.0601  0.4381  0.9059
 6942SOL     OW32458   0.049   0.401   6.044  0.0395 -0.2658 -0.0981
 6942SOL    HW132459   0.007   0.379   5.961 -1.6521 -0.5875  0.8513
 6942SOL    HW232460   4.713   0.388   6.104 -0.2219  0.8339 -0.1908
 6943SOL     OW32461   3.366   2.067   6.743  0.2887  0.1086  0.1849
 6943SOL    HW132462   3.331   2.152   6.714 -1.1292 -0.3804  0.4412
 6943SOL    HW232463   3.327   2.053   6.829 -0.3115  3.7661  0.5152
 6944SOL     OW32464   4.572   2.185   8.668 -0.0210 -0.0535 -0.4170
 6944SOL    HW132465   4.609   2.154   8.585 -1.6968 -0.5343 -0.9796
 6944SOL    HW232466   4.478   2.189   8.654 -0.2815 -0.5511  1.2769
 6945SOL     OW32467   2.521   0.100   3.842 -0.7777  0.0140  0.0376
 6945SOL    HW132468   2.493   0.161   3.773 -1.8760 -1.2082 -0.6008
 6945SOL    HW232469   2.476   0.155   3.906  0.4184  0.0401  0.8533
 6946SOL     OW32470   4.518   0.368  17.502  0.1981 -0.2482 -0.0624
 6946SOL    HW132471   4.540   0.295  17.561  1.5710 -1.1045 -1.6494
 6946SOL    HW232472   4.598   0.420  17.512 -1.0732  2.0230 -1.8636
 6947SOL     OW32473   0.353   0.615  11.913  0.0739 -0.6677  0.7801
 6947SOL    HW132474   0.258   0.602  11.919  0.1336 -1.7750 -0.7013
 6947SOL    HW232475   0.358   0.680  11.843 -1.0433  0.3108  1.6270
 6948SOL     OW32476   3.296   3.045  10.053  0.1949  0.1971 -0.0975
 6948SOL    HW132477   3.206   3.037  10.087  0.8198 -0.0863  1.4957
 6948SOL    HW232478   3.341   3.041  10.137 -1.8668  1.2109  1.0832
 6949SOL     OW32479   2.560   0.482   8.395  0.1905  0.2879 -0.5025
 6949SOL    HW132480   2.475   0.522   8.414  0.6004 -0.4535  2.8355
 6949SOL    HW232481   2.600   0.552   8.343 -1.0093 -0.3882 -2.3367
 6950SOL     OW32482   4.428   2.043   4.503 -0.1330 -0.2741 -0.0762
 6950SOL    HW132483   4.477   2.061   4.583 -1.6635 -0.0060  0.8075
 6950SOL    HW232484   4.347   2.092   4.514  0.0220  0.2118 -1.0953
 6951SOL     OW32485   3.681   0.952   8.858  0.1337 -0.0755 -0.0625
 6951SOL    HW132486   3.706   1.009   8.931  0.1625  0.8050 -0.7711
 6951SOL    HW232487   3.743   0.989   8.796 -0.2009 -0.9252 -0.9024
 6952SOL     OW32488   1.981   2.787  16.698 -0.2942 -0.4389  0.5218
 6952SOL    HW132489   1.999   2.702  16.737 -1.6308 -0.3583  1.3094
 6952SOL    HW232490   1.901   2.802  16.748 -1.5326  0.6856 -1.7654
 6953SOL     OW32491   0.703   0.138   2.615  0.5440  0.1414 -0.0563
 6953SOL    HW132492   0.694   0.135   2.710  0.8168  0.7947 -0.0111
 6953SOL    HW232493   0.740   0.225   2.599 -0.4430  0.7763  1.1178
 6954SOL     OW32494   2.364   2.764   2.708  0.5734  0.6986 -1.0366
 6954SOL    HW132495   2.274   2.731   2.707  1.7307 -2.4734 -3.2087
 6954SOL    HW232496   2.415   2.684   2.696 -1.2522 -0.3696 -1.6158
 6955SOL     OW32497   0.662   1.825  12.354 -0.0195  0.0711 -0.2175
 6955SOL    HW132498   0.615   1.886  12.411  0.0110 -0.2316  0.1310
 6955SOL    HW232499   0.626   1.743  12.387 -2.7140  0.0006 -3.3056
 6956SOL     OW32500   1.642   1.549  15.403  0.1675  0.2145  0.2336
 6956SOL    HW132501   1.633   1.471  15.458 -0.7170 -0.3987 -0.7571
 6956SOL    HW232502   1.730   1.533  15.369  0.1757  2.0293 -0.5842
 6957SOL     OW32503   2.414   0.637   9.239  0.4016  0.6306  0.3689
 6957SOL    HW132504   2.420   0.682   9.155  2.1095 -0.1468  0.0779
 6957SOL    HW232505   2.361   0.561   9.217  1.5926 -0.5506  1.5792
 6958SOL     OW32506   0.957   3.164   3.462 -0.1871  0.1282 -0.0680
 6958SOL    HW132507   0.903   3.179   3.540 -1.0785 -2.1267 -0.2395
 6958SOL    HW232508   0.893   3.120   3.406  0.0728 -1.7704  1.1450
 6959SOL     OW32509   3.012   2.162   5.865 -0.0612 -0.0085  0.0924
 6959SOL    HW132510   3.102   2.194   5.853  0.1066 -0.7376 -0.6524
 6959SOL    HW232511   3.001   2.181   5.958 -0.1924  0.8768 -0.1068
 6960SOL     OW32512   2.375   4.304   4.146 -0.2910  0.5038 -0.0050
 6960SOL    HW132513   2.378   4.336   4.056  3.8402 -0.2528 -0.1621
 6960SOL    HW232514   2.281   4.307   4.159 -0.2435  1.6686  0.0298
 6961SOL     OW32515   1.200   4.653   4.667 -0.5181 -0.5020  0.3717
 6961SOL    HW132516   1.261   4.720   4.637 -2.0407  0.0861 -1.4389
 6961SOL    HW232517   1.253   4.594   4.720  0.3443  0.7481  0.8853
 6962SOL     OW32518   4.656   3.626   8.189  1.2036 -0.3120  0.3039
 6962SOL    HW132519   4.717   3.672   8.131  1.6453 -1.9753 -0.5491
 6962SOL    HW232520   4.707   3.612   8.269  1.0199  1.0815  0.6602
 6963SOL     OW32521   2.097   1.699  14.361 -0.3527  0.6213 -0.0863
 6963SOL    HW132522   2.066   1.775  14.311 -1.1692  0.6033  0.3905
 6963SOL    HW232523   2.077   1.639  14.289 -1.3920  1.3070 -0.3871
 6964SOL     OW32524   0.044   0.416  12.013  0.8105  0.2652 -0.1163
 6964SOL    HW132525   0.072   0.443  11.926  1.2955  0.4098  0.0797
 6964SOL    HW232526   4.692   0.449  12.013  0.6193 -0.2598 -0.9841
 6965SOL     OW32527   0.792   3.257   5.011 -0.3445 -0.1980 -0.1494
 6965SOL    HW132528   0.764   3.228   5.098  2.0994 -1.3085  0.2852
 6965SOL    HW232529   0.704   3.267   4.975  0.4886  2.3441 -1.4271
 6966SOL     OW32530   1.040   3.402   0.958  0.4447  0.5075  0.8491
 6966SOL    HW132531   1.011   3.369   1.043 -0.3634  3.4107  1.7176
 6966SOL    HW232532   1.099   3.332   0.930 -0.2452  0.1692  0.2329
 6967SOL     OW32533   4.343   1.659   5.329  0.2716  0.5355  0.2172
 6967SOL    HW132534   4.295   1.663   5.412 -0.1032  1.1725 -0.0309
 6967SOL    HW232535   4.381   1.571   5.321 -0.0693  0.1934  2.3945
 6968SOL     OW32536   0.690   4.300   3.552 -0.5980 -0.0817  0.3994
 6968SOL    HW132537   0.777   4.270   3.529 -0.4015  1.2530 -0.5768
 6968SOL    HW232538   0.713   4.392   3.567 -0.7421 -0.1658  1.1654
 6969SOL     OW32539   3.037   3.708  12.977 -0.6109  0.0681  0.4697
 6969SOL    HW132540   3.115   3.694  12.924 -0.2413  3.0142  0.2039
 6969SOL    HW232541   2.983   3.770  12.927 -0.9439 -0.3541  0.3066
 6970SOL     OW32542   0.857   4.477   6.876 -0.0990  0.3031  0.0219
 6970SOL    HW132543   0.949   4.505   6.870  0.2791 -0.8828  0.1210
 6970SOL    HW232544   0.825   4.501   6.790  1.0641 -0.3673 -0.5948
 6971SOL     OW32545   2.749   2.888  14.551 -0.2965  0.0043 -0.1705
 6971SOL    HW132546   2.657   2.913  14.540 -0.4720 -0.6363 -0.2124
 6971SOL    HW232547   2.770   2.858  14.462 -1.8636 -1.3149 -0.0965
 6972SOL     OW32548   3.428   3.149  17.667 -0.0278 -0.0023  0.2573
 6972SOL    HW132549   3.468   3.128  17.583 -4.5698 -0.4614 -1.7920
 6972SOL    HW232550   3.497   3.202  17.708 -1.2127  0.2105  1.9939
 6973SOL     OW32551   4.533   4.636   1.657 -0.0279  0.6144 -0.5184
 6973SOL    HW132552   4.581   4.577   1.716  0.3299  1.9984  0.5518
 6973SOL    HW232553   4.584   4.716   1.670 -0.9340  1.4992 -2.4668
 6974SOL     OW32554   1.243   3.657   3.489 -0.4192  0.0183 -0.1486
 6974SOL    HW132555   1.257   3.574   3.442 -0.6237 -0.8377  1.3008
 6974SOL    HW232556   1.152   3.651   3.517 -0.2531 -1.1782  0.1373
 6975SOL     OW32557   0.838   1.648   3.258  0.1919 -0.0213 -0.4817
 6975SOL    HW132558   0.862   1.679   3.170 -1.1463  0.7867 -0.5612
 6975SOL    HW232559   0.895   1.703   3.312 -0.1509  0.9952 -1.1734
 6976SOL     OW32560   1.355   3.008  16.532  0.5844 -0.3724 -0.1207
 6976SOL    HW132561   1.397   3.026  16.448  1.2487 -3.3046 -0.4017
 6976SOL    HW232562   1.335   2.916  16.513 -4.4813  0.3668  1.5522
 6977SOL     OW32563   2.917   1.706   1.144  0.1221 -0.2301  0.1104
 6977SOL    HW132564   2.865   1.649   1.201  1.0331 -0.7735  0.4139
 6977SOL    HW232565   2.847   1.727   1.083  0.5414 -0.0912 -0.3248
 6978SOL     OW32566   2.608   3.851   4.753  0.2552  0.4252  0.3408
 6978SOL    HW132567   2.602   3.756   4.764  1.4416  0.2473 -0.4862
 6978SOL    HW232568   2.579   3.887   4.837  0.2841  0.2616  0.4208
 6979SOL     OW32569   2.534   1.496   4.904  0.0111  0.4460 -0.1064
 6979SOL    HW132570   2.558   1.578   4.861  1.9168 -0.3760 -0.6266
 6979SOL    HW232571   2.441   1.512   4.919  0.4184  2.8133 -0.0900
 6980SOL     OW32572   1.767   1.223   3.977  0.1941 -0.1001  0.4751
 6980SOL    HW132573   1.718   1.279   4.037 -0.5899 -1.0438  0.7139
 6980SOL    HW232574   1.808   1.295   3.929  0.8437  0.2902  1.6178
 6981SOL     OW32575   3.904   3.428   0.485  0.1633 -0.3803  0.2267
 6981SOL    HW132576   3.914   3.515   0.522 -0.4578  0.3059 -1.2019
 6981SOL    HW232577   3.934   3.360   0.546  0.9675  1.3120  1.6935
 6982SOL     OW32578   0.105   1.321   7.818  0.3334 -0.7990 -0.4595
 6982SOL    HW132579   0.091   1.280   7.733  0.4704 -0.1900 -0.7702
 6982SOL    HW232580   0.025   1.303   7.868  0.6753 -1.2135 -0.0528
 6983SOL     OW32581   2.181   2.791   4.737 -0.5500 -0.1367 -0.5911
 6983SOL    HW132582   2.100   2.792   4.685  0.0796  0.9945 -1.5590
 6983SOL    HW232583   2.198   2.698   4.747 -3.6056 -0.7207 -0.5910
 6984SOL     OW32584   0.138   3.571   2.512  0.3297 -0.4566 -0.2500
 6984SOL    HW132585   0.073   3.637   2.487  0.0460 -0.3013  0.8927
 6984SOL    HW232586   0.091   3.524   2.580  1.7991 -0.1392  0.9921
 6985SOL     OW32587   1.019   1.690   5.902 -0.0178 -0.1688 -0.3960
 6985SOL    HW132588   1.055   1.736   5.826  1.1927 -0.4512  0.0012
 6985SOL    HW232589   0.999   1.600   5.877 -2.5145  0.6247 -1.3238
 6986SOL     OW32590   4.697   4.162   9.668 -0.2198 -0.8113  0.2937
 6986SOL    HW132591   4.650   4.143   9.749 -1.2294  2.0389  0.3809
 6986SOL    HW232592   4.679   4.079   9.624  1.3899  0.1603 -2.2055
 6987SOL     OW32593   4.289   4.082   2.921  0.4091  0.1034 -0.1489
 6987SOL    HW132594   4.234   4.144   2.970  0.6278  0.2125 -0.0404
 6987SOL    HW232595   4.226   4.037   2.865  0.6503  0.5068 -0.7467
 6988SOL     OW32596   4.483   3.050   7.941 -0.3587 -0.1397  0.3723
 6988SOL    HW132597   4.469   3.130   7.892  0.5870 -0.2109 -0.0156
 6988SOL    HW232598   4.578   3.045   7.930 -0.5248 -1.0330 -0.5988
 6989SOL     OW32599   3.340   3.315   0.434  0.0916 -0.3191 -0.1639
 6989SOL    HW132600   3.285   3.295   0.359  0.4555  0.8737 -0.7507
 6989SOL    HW232601   3.350   3.410   0.426  1.3087 -0.4605 -0.4134
 6990SOL     OW32602   3.181   2.248   7.125 -0.0908  0.1136 -0.0010
 6990SOL    HW132603   3.203   2.217   7.213  1.0137  1.0808  0.0704
 6990SOL    HW232604   3.266   2.284   7.097 -0.3974  1.0598  0.2711
 6991SOL     OW32605   2.309   3.562  15.072 -0.1201  0.1976  0.1648
 6991SOL    HW132606   2.358   3.491  15.030  2.4275  0.5218  2.6480
 6991SOL    HW232607   2.383   3.619  15.089 -0.6922  0.6995  0.9475
 6992SOL     OW32608   0.406   3.539   5.719 -0.0387  0.0869 -0.1258
 6992SOL    HW132609   0.463   3.480   5.668 -1.9254 -1.8543  0.0473
 6992SOL    HW232610   0.383   3.608   5.656 -0.2789 -0.3409 -0.5139
 6993SOL     OW32611   2.048   4.292   2.662 -0.2316  0.4046 -0.2121
 6993SOL    HW132612   2.015   4.202   2.665 -0.3831  0.5460  2.2200
 6993SOL    HW232613   2.099   4.288   2.743  0.0877 -0.3135 -0.4502
 6994SOL     OW32614   0.404   1.824   8.811 -0.5744 -0.5119  0.5705
 6994SOL    HW132615   0.340   1.770   8.858  0.4424 -3.5114 -1.4854
 6994SOL    HW232616   0.375   1.902   8.859  4.2903  1.2582  0.6270
 6995SOL     OW32617   3.774   3.509   2.713 -0.0217 -0.9869  0.2071
 6995SOL    HW132618   3.710   3.497   2.784  3.5510 -1.1142  3.3774
 6995SOL    HW232619   3.738   3.572   2.651 -0.4448  0.1997  1.6541
 6996SOL     OW32620   0.835   0.270   4.795  1.3032  0.5974 -0.6254
 6996SOL    HW132621   0.775   0.199   4.816 -0.8863  2.1752 -1.5746
 6996SOL    HW232622   0.912   0.215   4.783  1.1699  0.0014  1.2594
 6997SOL     OW32623   1.909   3.370  14.999 -0.2701 -0.3316 -0.4185
 6997SOL    HW132624   1.990   3.329  14.970  0.0904  0.0066  0.1117
 6997SOL    HW232625   1.892   3.442  14.939  0.4838  1.4696  1.5478
 6998SOL     OW32626   0.529   4.134   1.539 -0.0821 -0.8185  0.0854
 6998SOL    HW132627   0.613   4.180   1.537 -1.0316  0.9865  1.7313
 6998SOL    HW232628   0.489   4.161   1.622 -0.8332 -0.1772 -0.4846
 6999SOL     OW32629   4.504   1.290   6.762  0.0875 -0.0902 -0.0446
 6999SOL    HW132630   4.442   1.329   6.700 -0.3870  0.4377  0.7639
 6999SOL    HW232631   4.591   1.329   6.759  0.3870 -0.6817  0.8049
 7000SOL     OW32632   3.256   2.438   2.753 -0.1576 -0.4684 -0.3141
 7000SOL    HW132633   3.224   2.363   2.702 -1.3520 -0.0795 -0.1387
 7000SOL    HW232634   3.264   2.393   2.838  2.0020  2.9858  1.2857
 7001SOL     OW32635   4.703   2.068  15.823  0.3049 -0.4287  0.1046
 7001SOL    HW132636   4.689   1.984  15.780 -2.2043  0.8891 -1.7179
 7001SOL    HW232637   0.059   2.080  15.815  0.2825 -1.0105 -0.9560
 7002SOL     OW32638   3.340   0.687   9.378 -0.1493 -0.5933 -0.1508
 7002SOL    HW132639   3.416   0.632   9.358 -0.2098 -0.4691 -0.7235
 7002SOL    HW232640   3.314   0.702   9.287  0.6837  1.2777 -0.0705
 7003SOL     OW32641   0.522   4.070   7.167  0.3207 -0.1330 -0.2912
 7003SOL    HW132642   0.598   4.015   7.188 -0.6549 -0.8861  1.3174
 7003SOL    HW232643   0.558   4.157   7.153 -0.4440  0.2314 -0.0097
 7004SOL     OW32644   3.544   0.932   7.267 -0.6566 -0.2680  0.5043
 7004SOL    HW132645   3.604   0.860   7.281 -0.0271 -0.1901 -1.8430
 7004SOL    HW232646   3.554   0.945   7.173 -0.1479 -0.0027  0.5966
 7005SOL     OW32647   2.644   3.177   0.167  0.2025 -0.4171  0.3030
 7005SOL    HW132648   2.669   3.267   0.146 -1.1961 -0.3265 -0.9804
 7005SOL    HW232649   2.607   3.182   0.255 -1.9857 -1.2273 -0.5699
 7006SOL     OW32650   3.666   2.248   0.615 -0.0199 -0.1087  0.1473
 7006SOL    HW132651   3.678   2.229   0.708 -0.1935  2.2921  0.6593
 7006SOL    HW232652   3.691   2.164   0.576  1.6392 -0.4960  2.0390
 7007SOL     OW32653   4.138   2.116   3.099 -0.5254 -0.0068 -0.3562
 7007SOL    HW132654   4.134   2.210   3.111 -0.2897 -0.1205  0.6494
 7007SOL    HW232655   4.045   2.094   3.097 -0.5430 -0.2469  1.9656
 7008SOL     OW32656   4.079   1.050   0.947 -0.0893 -0.1204  0.0748
 7008SOL    HW132657   4.021   1.035   0.872 -1.1622 -1.3448  1.1636
 7008SOL    HW232658   4.034   1.120   0.994 -0.2279 -1.1424  1.4500
 7009SOL     OW32659   3.908   2.514  17.055  0.7241  0.4750  0.7374
 7009SOL    HW132660   3.968   2.558  16.994 -0.1975 -0.9990 -1.2195
 7009SOL    HW232661   3.961   2.442  17.089 -0.4190 -0.0996  1.3035
 7010SOL     OW32662   0.061   2.875   8.656 -0.3255  1.1133 -0.6766
 7010SOL    HW132663   0.041   2.877   8.750 -2.2123 -1.7848 -1.0279
 7010SOL    HW232664   0.148   2.836   8.663 -1.1184 -0.6423 -0.6009
 7011SOL     OW32665   3.204   0.334  14.833 -0.6276  0.1916 -0.1307
 7011SOL    HW132666   3.262   0.278  14.885  0.1000 -0.9707 -2.1792
 7011SOL    HW232667   3.201   0.290  14.747 -0.4950  2.1198 -1.1123
 7012SOL     OW32668   0.230   2.308  13.168 -0.6560  0.1150 -0.2046
 7012SOL    HW132669   0.302   2.363  13.200  0.5262 -0.5837 -1.6722
 7012SOL    HW232670   0.276   2.286  13.086 -0.3844  0.6602 -0.2025
 7013SOL     OW32671   2.908   1.591   0.650  0.7834  0.3018 -0.1456
 7013SOL    HW132672   2.822   1.568   0.614  0.9637  1.7359 -1.5039
 7013SOL    HW232673   2.889   1.599   0.743  0.3122  0.0992 -0.2213
 7014SOL     OW32674   1.009   3.596   3.292 -0.0912 -0.2374 -0.0769
 7014SOL    HW132675   0.940   3.654   3.326 -1.5019 -2.1376  0.3130
 7014SOL    HW232676   1.080   3.658   3.276  1.4255 -1.7167  0.9437
 7015SOL     OW32677   3.891   3.263   4.059 -0.1054  0.6076 -0.4877
 7015SOL    HW132678   3.850   3.178   4.079  2.0162  0.0968  1.7483
 7015SOL    HW232679   3.824   3.316   4.101  0.7850  1.7968 -0.5582
 7016SOL     OW32680   3.977   0.930   3.681 -0.2403 -0.3339  0.6118
 7016SOL    HW132681   3.974   0.937   3.585  1.4944  1.5901  0.6784
 7016SOL    HW232682   4.040   0.998   3.705 -0.3515  0.7635 -2.1779
 7017SOL     OW32683   0.877   0.667  11.110 -0.0992 -0.5007  0.4339
 7017SOL    HW132684   0.796   0.635  11.070  0.3907 -0.1456 -0.8429
 7017SOL    HW232685   0.876   0.754  11.069 -2.2290 -0.8289 -0.2358
 7018SOL     OW32686   4.619   3.362   9.088 -0.1982 -0.0440  0.0916
 7018SOL    HW132687   4.683   3.293   9.106  1.2081  1.4463  0.8401
 7018SOL    HW232688   4.578   3.376   9.173  1.8145 -0.3616  1.1191
 7019SOL     OW32689   2.510   0.984   3.927 -1.1734 -0.3048 -0.3599
 7019SOL    HW132690   2.503   0.999   3.833 -1.3589 -1.1071 -0.4756
 7019SOL    HW232691   2.420   0.985   3.960 -0.1572 -1.6755  2.4512
 7020SOL     OW32692   2.968   1.703   3.449 -0.2777 -0.9941 -0.4009
 7020SOL    HW132693   2.977   1.683   3.542  0.7199 -0.9521 -0.4838
 7020SOL    HW232694   3.006   1.624   3.410 -0.1502 -2.3762  2.5478
 7021SOL     OW32695   3.659   1.621  11.744 -0.1483 -0.6832 -0.8570
 7021SOL    HW132696   3.602   1.581  11.810  0.8856 -0.1305  0.3530
 7021SOL    HW232697   3.610   1.698  11.715 -2.1721 -1.5145  0.3686
 7022SOL     OW32698   2.616   3.379  15.162 -0.4762 -0.1943  0.0472
 7022SOL    HW132699   2.639   3.286  15.164  0.9519  0.1470 -0.2578
 7022SOL    HW232700   2.567   3.379  15.079 -0.2422  1.7691 -0.0989
 7023SOL     OW32701   0.764   0.553   5.847 -0.2120 -0.9451  0.3376
 7023SOL    HW132702   0.684   0.567   5.796 -0.4432 -0.3827  0.8589
 7023SOL    HW232703   0.806   0.483   5.796  0.2879 -0.5841  0.2528
 7024SOL     OW32704   3.425   2.330   7.442  0.0714 -0.2717 -0.0908
 7024SOL    HW132705   3.334   2.301   7.442 -0.6558  1.9354 -2.1036
 7024SOL    HW232706   3.433   2.368   7.354 -1.3348  1.6012  0.5846
 7025SOL     OW32707   4.315   2.549   9.307 -0.3687 -0.4150  0.0587
 7025SOL    HW132708   4.235   2.560   9.358  0.0613 -0.4721  0.7561
 7025SOL    HW232709   4.316   2.641   9.281  1.6948  0.3815  2.8491
 7026SOL     OW32710   2.029   2.349   5.812 -0.0982  0.4964  0.2849
 7026SOL    HW132711   1.936   2.361   5.795 -0.1457  2.8936  2.1831
 7026SOL    HW232712   2.032   2.273   5.755 -1.2185  1.3825 -0.9614
 7027SOL     OW32713   2.532   2.371   8.928  0.0334 -0.0107  0.2926
 7027SOL    HW132714   2.441   2.398   8.943  0.0246 -0.4701  1.0668
 7027SOL    HW232715   2.557   2.310   8.998 -1.9774  0.7074  1.6535
 7028SOL     OW32716   2.929   4.084   2.570  0.0399 -0.4683 -0.9133
 7028SOL    HW132717   2.971   4.050   2.650  1.4565 -0.7256 -1.7714
 7028SOL    HW232718   2.850   4.031   2.562  0.6669 -1.7228  1.0466
 7029SOL     OW32719   1.915   0.943   3.301  0.2303  0.6006  0.4658
 7029SOL    HW132720   1.864   1.018   3.272 -0.6588 -0.0006  0.5002
 7029SOL    HW232721   1.916   0.898   3.217  1.2728  1.2693  0.1030
 7030SOL     OW32722   4.093   2.940  15.456 -0.4732  0.3241  0.1141
 7030SOL    HW132723   4.109   2.879  15.529  1.2258  0.6327  0.0085
 7030SOL    HW232724   4.094   2.875  15.386 -0.4394 -0.2680  0.6641
 7031SOL     OW32725   1.185   2.237   9.524  0.0719 -0.2788 -0.2649
 7031SOL    HW132726   1.191   2.295   9.448 -2.0471 -0.2296 -0.4054
 7031SOL    HW232727   1.227   2.156   9.496 -0.8353 -0.7006 -0.4215
 7032SOL     OW32728   0.875   0.870   2.628  0.2092 -0.3673  0.1560
 7032SOL    HW132729   0.920   0.894   2.709  0.5206 -1.7744  0.4140
 7032SOL    HW232730   0.936   0.814   2.580  1.1356  1.1070 -0.3660
 7033SOL     OW32731   3.171   2.617  14.558 -0.2818 -0.4271  0.5242
 7033SOL    HW132732   3.107   2.688  14.565  1.3551  1.1743 -0.6391
 7033SOL    HW232733   3.238   2.662  14.609 -1.0933 -0.7714  1.9030
 7034SOL     OW32734   3.263   2.275   3.444 -0.0818  0.3534 -0.3427
 7034SOL    HW132735   3.321   2.261   3.519 -0.0514  0.2534 -0.3854
 7034SOL    HW232736   3.270   2.371   3.443  1.4674  0.2518  0.6606
 7035SOL     OW32737   4.287   0.865   8.531  0.0948 -0.4937 -0.1009
 7035SOL    HW132738   4.344   0.866   8.608 -0.5815 -0.3008  0.3913
 7035SOL    HW232739   4.234   0.944   8.539  1.7050  0.4659  1.0739
 7036SOL     OW32740   2.050   0.838   4.981 -0.2181 -0.2530  0.3093
 7036SOL    HW132741   2.141   0.845   4.955 -0.9924 -1.4185 -2.7003
 7036SOL    HW232742   2.057   0.858   5.074 -0.6443 -0.2597  0.3426
 7037SOL     OW32743   4.145   2.702   2.947 -0.3770 -0.0989  0.0588
 7037SOL    HW132744   4.133   2.787   2.905  0.7673 -0.1071 -0.2970
 7037SOL    HW232745   4.065   2.653   2.932 -1.2552  1.6777 -1.0153
 7038SOL     OW32746   3.662   3.054   8.921  0.3689 -0.6412 -0.0750
 7038SOL    HW132747   3.620   3.053   8.835 -1.4517 -0.6417  0.8086
 7038SOL    HW232748   3.697   3.142   8.934  0.6937 -0.6777 -0.7226
 7039SOL     OW32749   0.833   2.418   7.801 -0.0389  0.5168 -0.0586
 7039SOL    HW132750   0.865   2.385   7.717  0.5050 -1.8927  1.0983
 7039SOL    HW232751   0.843   2.337   7.850 -2.3469  0.2345 -0.0746
 7040SOL     OW32752   4.398   3.401   7.203 -0.2062 -0.4658  0.1453
 7040SOL    HW132753   4.418   3.355   7.121 -1.0888  2.3964 -1.6735
 7040SOL    HW232754   4.392   3.333   7.270 -0.8902 -1.3921 -0.8578
 7041SOL     OW32755   0.218   4.568   6.977  0.3167  0.2537 -0.0127
 7041SOL    HW132756   0.141   4.611   7.015  0.7969  1.3231 -0.2493
 7041SOL    HW232757   0.186   4.478   6.976  0.6840  0.1153  1.1837
 7042SOL     OW32758   0.668   4.166   2.126  0.6885 -0.3339 -0.4558
 7042SOL    HW132759   0.730   4.237   2.145  0.1545  0.8179 -3.0080
 7042SOL    HW232760   0.720   4.111   2.067 -1.3939 -1.0281 -1.6365
 7043SOL     OW32761   3.438   1.040   2.903  0.5207  0.1103  0.2105
 7043SOL    HW132762   3.431   1.132   2.879 -0.5820 -0.3825 -1.2938
 7043SOL    HW232763   3.350   1.007   2.888  0.9362 -0.8374 -0.1311
 7044SOL     OW32764   3.563   1.136   2.324  0.1128  0.2981  0.9355
 7044SOL    HW132765   3.510   1.215   2.313  1.3770  1.0330  0.1831
 7044SOL    HW232766   3.499   1.082   2.371 -0.9837  0.3956 -0.4414
 7045SOL     OW32767   3.997   3.349   2.762 -0.5359  0.0555  0.0157
 7045SOL    HW132768   3.982   3.333   2.669 -0.9069 -0.5212  0.1740
 7045SOL    HW232769   3.937   3.424   2.766 -0.3962 -0.0169  3.4863
 7046SOL     OW32770   0.717   0.689   9.227 -0.0991 -0.3947  0.1234
 7046SOL    HW132771   0.797   0.666   9.180 -0.2312  0.2946 -0.4469
 7046SOL    HW232772   0.713   0.779   9.195  2.7575 -0.6005 -0.8075
 7047SOL     OW32773   0.453   3.721   8.456  0.2189  0.1942  0.1483
 7047SOL    HW132774   0.448   3.808   8.416  1.1853 -0.2884 -1.0139
 7047SOL    HW232775   0.535   3.724   8.505 -0.2474 -0.6618  0.9867
 7048SOL     OW32776   1.961   3.439  14.081 -0.0680  0.1380  0.4769
 7048SOL    HW132777   2.001   3.367  14.031 -0.3358  1.8506 -2.2281
 7048SOL    HW232778   1.879   3.401  14.113 -0.1777 -0.9395 -1.0483
 7049SOL     OW32779   0.064   0.735   9.761 -0.2137 -0.4023  0.0831
 7049SOL    HW132780   0.140   0.783   9.728 -1.8460  2.4996  0.4960
 7049SOL    HW232781   0.098   0.675   9.827  2.0676  0.3457 -0.4155
 7050SOL     OW32782   2.497   4.302   2.343 -0.8869  0.3657  0.0907
 7050SOL    HW132783   2.445   4.226   2.369  0.0412 -1.0096 -2.0215
 7050SOL    HW232784   2.588   4.280   2.361 -0.9322  1.5609  1.7352
 7051SOL     OW32785   0.379   3.748   6.981 -0.0030  0.6241 -0.2037
 7051SOL    HW132786   0.451   3.716   7.035 -1.6979 -2.5018  0.1902
 7051SOL    HW232787   0.303   3.702   7.018  1.1160  0.2150  1.5574
 7052SOL     OW32788   0.871   0.361   1.412 -0.1177 -0.2037  0.1807
 7052SOL    HW132789   0.900   0.271   1.427  2.3344  0.1883 -2.1740
 7052SOL    HW232790   0.941   0.399   1.359  0.6409  0.3916  1.6041
 7053SOL     OW32791   0.165   3.546  10.809 -0.3033  0.6104 -0.1976
 7053SOL    HW132792   0.218   3.625  10.819 -1.7686  1.6426 -0.4932
 7053SOL    HW232793   0.120   3.561  10.726  1.4572 -0.0602 -1.2726
 7054SOL     OW32794   2.789   3.173  11.328  0.3244 -0.1656 -0.5734
 7054SOL    HW132795   2.735   3.163  11.406  0.8885 -0.2202 -0.1958
 7054SOL    HW232796   2.769   3.092  11.280 -1.6594  0.4486 -0.7914
 7055SOL     OW32797   1.502   1.827   9.834 -0.1688 -0.0988  0.1993
 7055SOL    HW132798   1.526   1.880   9.758 -0.3407  0.0899  0.2763
 7055SOL    HW232799   1.588   1.812   9.872  0.2688  2.2594  0.1048
 7056SOL     OW32800   3.842   3.095   2.874 -0.7972 -0.1542 -0.5807
 7056SOL    HW132801   3.875   3.185   2.869  1.1137 -0.8172  0.0093
 7056SOL    HW232802   3.798   3.095   2.959 -0.4333  2.5081 -0.4021
 7057SOL     OW32803   1.282   2.900   6.434 -0.0598 -0.7027 -0.3832
 7057SOL    HW132804   1.307   2.808   6.447  0.7020 -0.3669  0.5830
 7057SOL    HW232805   1.365   2.933   6.400 -0.7804  0.2053 -1.2481
 7058SOL     OW32806   0.504   2.437   9.324 -0.0156  0.3466  0.2106
 7058SOL    HW132807   0.497   2.432   9.419  1.9099 -0.8034  0.2912
 7058SOL    HW232808   0.594   2.416   9.300 -0.0782 -1.2010  1.3602
 7059SOL     OW32809   3.231   2.041   6.428  0.5103  0.6661  0.5888
 7059SOL    HW132810   3.277   1.996   6.499  1.8859 -0.5123 -1.0593
 7059SOL    HW232811   3.267   2.129   6.417 -0.6137  1.1711  0.8848
 7060SOL     OW32812   0.323   2.507  12.857 -0.8567  0.5831 -0.0330
 7060SOL    HW132813   0.345   2.420  12.890  0.6267  0.8337 -0.3758
 7060SOL    HW232814   0.394   2.547  12.807 -1.0882 -0.2051 -0.9934
 7061SOL     OW32815   4.266   3.778   2.340  0.0425 -0.6281 -0.3757
 7061SOL    HW132816   4.308   3.781   2.254 -1.5180  0.3208 -1.1073
 7061SOL    HW232817   4.171   3.778   2.329  0.1164  1.3516 -0.9059
 7062SOL     OW32818   0.576   1.401   2.697 -0.2810 -0.5139  0.1713
 7062SOL    HW132819   0.554   1.322   2.747 -0.5413 -1.0015 -0.7186
 7062SOL    HW232820   0.599   1.360   2.614  0.8512 -0.5181  0.4781
 7063SOL     OW32821   2.964   4.716   3.650 -0.1980  0.0809  0.4536
 7063SOL    HW132822   3.046   0.017   3.620  0.3315 -0.8619  0.6780
 7063SOL    HW232823   2.905   0.053   3.659 -1.0434 -0.6708  1.1856
 7064SOL     OW32824   0.046   4.504   8.602 -0.1124 -0.0654 -0.6111
 7064SOL    HW132825   0.028   4.549   8.520  0.1039  0.0325 -0.6069
 7064SOL    HW232826   0.118   4.447   8.574 -0.1604 -0.8454  0.8565
 7065SOL     OW32827   1.624   3.357   8.169  0.3309 -0.5356 -0.8901
 7065SOL    HW132828   1.662   3.287   8.116  0.1587 -1.6853  0.4864
 7065SOL    HW232829   1.572   3.403   8.103 -3.5386 -1.0965  1.7780
 7066SOL     OW32830   2.079   0.483   2.398  1.0055 -0.0690 -0.0666
 7066SOL    HW132831   2.164   0.474   2.354  2.4663  1.8483  2.3795
 7066SOL    HW232832   2.102   0.554   2.457  1.4738 -2.7003  2.8940
 7067SOL     OW32833   3.617   3.432   3.558 -0.2191  0.2372 -0.2725
 7067SOL    HW132834   3.706   3.453   3.532  0.5256  1.0829  3.0535
 7067SOL    HW232835   3.588   3.517   3.589 -1.2553  0.3255 -1.4585
 7068SOL     OW32836   1.007   3.065   5.994 -0.3555  0.5010 -0.4487
 7068SOL    HW132837   1.065   3.027   6.061 -0.3837  0.6376 -0.3470
 7068SOL    HW232838   0.935   3.101   6.046 -0.2008 -1.5330  1.2028
 7069SOL     OW32839   0.230   0.574   8.813 -0.9731  0.4659 -0.0623
 7069SOL    HW132840   0.204   0.610   8.728  1.9938 -0.1489 -1.2361
 7069SOL    HW232841   0.287   0.501   8.786 -0.7959  0.4641  0.3151
 7070SOL     OW32842   1.285   0.516   5.358 -0.1529 -0.4467  0.0993
 7070SOL    HW132843   1.380   0.503   5.356 -0.3114 -1.9176  1.7772
 7070SOL    HW232844   1.254   0.425   5.355  1.6370 -1.1028  0.9293
 7071SOL     OW32845   1.942   3.351   1.923 -0.2684 -0.7141 -0.1839
 7071SOL    HW132846   1.971   3.372   2.012  0.2817 -2.2523  0.0074
 7071SOL    HW232847   2.020   3.311   1.885 -0.5073 -2.6658  1.3638
 7072SOL     OW32848   4.666   1.150  17.313 -0.1398  0.3404  0.1367
 7072SOL    HW132849   4.650   1.236  17.274  0.1811  0.7497  0.9029
 7072SOL    HW232850   4.593   1.145  17.375 -0.3234 -1.0067 -0.1948
 7073SOL     OW32851   3.160   1.343   9.699 -0.3825  0.0374 -0.2368
 7073SOL    HW132852   3.166   1.393   9.781 -0.8661  0.0618 -0.2156
 7073SOL    HW232853   3.160   1.411   9.632  2.0948  1.6456  1.3689
 7074SOL     OW32854   3.641   3.760   9.520  0.4844 -0.3410 -0.1120
 7074SOL    HW132855   3.569   3.697   9.530  0.2563 -0.1912 -0.7592
 7074SOL    HW232856   3.644   3.788   9.611 -0.0868  4.1089 -1.4875
 7075SOL     OW32857   1.932   3.406   3.353  0.4252 -0.1810  0.1569
 7075SOL    HW132858   2.016   3.362   3.364  0.7306  0.3561  0.0267
 7075SOL    HW232859   1.955   3.479   3.295 -2.1973  1.7516  1.5337
 7076SOL     OW32860   4.241   2.601   5.514 -0.0645 -0.3297 -0.0476
 7076SOL    HW132861   4.154   2.600   5.474  0.9407 -0.5496 -2.2406
 7076SOL    HW232862   4.285   2.636   5.437  1.3313 -1.3978  0.2597
 7077SOL     OW32863   4.626   2.517   4.290 -0.3595  0.6304  0.2594
 7077SOL    HW132864   4.555   2.453   4.300 -0.4726  0.5531 -1.0936
 7077SOL    HW232865   4.583   2.571   4.224 -0.4675  0.9564  0.5958
 7078SOL     OW32866   1.289   2.067   4.640 -0.0435  0.5440 -0.1557
 7078SOL    HW132867   1.380   2.041   4.629 -0.3204  0.6045 -2.5520
 7078SOL    HW232868   1.270   2.093   4.550 -1.9543 -2.7377 -0.6855
 7079SOL     OW32869   0.934   0.611  13.410 -0.0598 -0.1919 -0.3153
 7079SOL    HW132870   0.884   0.681  13.370  0.7376  1.0425  0.8371
 7079SOL    HW232871   0.965   0.661  13.486 -2.7512 -0.7776  1.1829
 7080SOL     OW32872   4.056   1.036   2.207 -0.2126 -0.7359 -0.0729
 7080SOL    HW132873   4.135   1.026   2.154  0.0244 -0.1261  0.1652
 7080SOL    HW232874   4.004   1.087   2.144  2.8507 -0.9118 -2.7781
 7081SOL     OW32875   3.780   4.186   4.590 -0.3578  0.3043  0.7556
 7081SOL    HW132876   3.692   4.155   4.611 -0.9261 -0.3128 -2.5855
 7081SOL    HW232877   3.829   4.168   4.670 -3.0419 -2.6625  1.7235
 7082SOL     OW32878   2.594   4.671   3.158 -0.2635 -0.2174  0.8198
 7082SOL    HW132879   2.634   0.013   3.122  1.9460 -2.2643 -1.3283
 7082SOL    HW232880   2.638   4.599   3.113  1.7653  0.5342  1.6133
 7083SOL     OW32881   1.815   1.766   1.981  0.6154  0.0642 -0.5964
 7083SOL    HW132882   1.831   1.812   2.063  2.0773 -1.5766  0.0381
 7083SOL    HW232883   1.886   1.806   1.931  2.1798  0.9194  2.3095
 7084SOL     OW32884   1.457   1.872   5.872 -0.2960  0.8586  0.1204
 7084SOL    HW132885   1.465   1.814   5.947 -0.9914 -1.0109 -1.2469
 7084SOL    HW232886   1.377   1.924   5.879 -2.6117 -2.7254  0.3270
 7085SOL     OW32887   0.346   1.952   9.407 -0.1907 -0.1326  0.5488
 7085SOL    HW132888   0.353   1.912   9.493 -0.3653  2.6437  1.8384
 7085SOL    HW232889   0.354   2.046   9.423  1.2298 -0.2463  0.5195
 7086SOL     OW32890   2.378   2.338  15.606 -0.3659  0.4117  0.5268
 7086SOL    HW132891   2.306   2.315  15.547 -1.2343  0.0768  1.7218
 7086SOL    HW232892   2.446   2.336  15.538 -0.0721  0.1087  0.8332
 7087SOL     OW32893   2.502   4.531   0.025  0.7175  0.1097  0.2741
 7087SOL    HW132894   2.527   4.485   0.106 -0.7621 -0.5765  0.3329
 7087SOL    HW232895   2.583   4.525  17.724 -1.2517 -0.7495 -2.7722
 7088SOL     OW32896   4.610   1.244   5.108  0.3619 -0.0288 -0.2233
 7088SOL    HW132897   4.583   1.257   5.017 -1.6754 -1.3936  0.1696
 7088SOL    HW232898   4.621   1.149   5.111  1.0060  0.0187 -1.3607
 7089SOL     OW32899   0.986   4.144   0.871  0.3155 -0.1641  0.0749
 7089SOL    HW132900   0.970   4.233   0.902  3.5689  0.0651  1.0886
 7089SOL    HW232901   1.075   4.127   0.904 -0.1356 -1.5206  0.6096
 7090SOL     OW32902   1.358   4.366   7.504 -0.1726  0.0134  0.3765
 7090SOL    HW132903   1.370   4.333   7.593 -2.4051 -4.5400 -1.0325
 7090SOL    HW232904   1.291   4.435   7.510 -1.3712 -1.0889 -0.2103
 7091SOL     OW32905   3.942   2.571   9.112 -0.0470 -0.0893 -0.4989
 7091SOL    HW132906   3.997   2.633   9.065  0.7961 -2.1290 -2.2309
 7091SOL    HW232907   3.941   2.618   9.195  3.6858 -2.0144  0.6137
 7092SOL     OW32908   3.104   3.830   4.417  0.3192 -0.5538 -0.2273
 7092SOL    HW132909   3.030   3.852   4.360  0.9352 -1.7023 -1.4634
 7092SOL    HW232910   3.081   3.744   4.452 -2.1239 -0.6182 -1.9247
 7093SOL     OW32911   2.629   2.680   5.897 -0.0461  0.0136 -0.0337
 7093SOL    HW132912   2.703   2.623   5.879 -0.4518 -1.4577  2.9818
 7093SOL    HW232913   2.609   2.653   5.986  0.8513 -0.0328  0.1509
 7094SOL     OW32914   3.242   3.174   7.738  0.5711 -0.0037  0.5739
 7094SOL    HW132915   3.254   3.269   7.738 -2.2226  0.3546  1.5737
 7094SOL    HW232916   3.159   3.170   7.785 -0.3387  2.8776 -0.8149
 7095SOL     OW32917   0.313   2.627   5.577  0.3358  0.6689 -0.0716
 7095SOL    HW132918   0.372   2.684   5.627  0.2874 -0.3098  1.0964
 7095SOL    HW232919   0.248   2.609   5.645 -0.7738 -1.0678 -1.5940
 7096SOL     OW32920   0.624   4.511   7.314 -0.4861  0.2127 -0.3885
 7096SOL    HW132921   0.684   4.455   7.363 -0.8248  1.6096  1.6330
 7096SOL    HW232922   0.571   4.442   7.275 -2.0221  2.8433 -2.8795
 7097SOL     OW32923   3.297   4.169  17.197 -0.1344 -0.0202  0.0220
 7097SOL    HW132924   3.277   4.099  17.136 -1.4655  0.2067  0.1886
 7097SOL    HW232925   3.253   4.151  17.281  1.0595 -1.9216  0.2292
 7098SOL     OW32926   3.348   4.722  14.886  0.2850 -0.2815 -0.1833
 7098SOL    HW132927   3.365   0.023  14.972  1.0152 -0.8097 -0.0883
 7098SOL    HW232928   3.435   4.692  14.859  1.1620  0.3456  1.9517
 7099SOL     OW32929   3.032   1.579   0.923  0.3786  0.2086  0.1188
 7099SOL    HW132930   3.024   1.639   0.998 -1.4951  0.0370  0.0589
 7099SOL    HW232931   3.113   1.533   0.945  0.1822 -0.8895 -1.4375
 7100SOL     OW32932   1.900   1.984   8.382 -0.2478 -0.1907  0.5654
 7100SOL    HW132933   1.994   1.992   8.368 -0.5106  0.7525 -0.6521
 7100SOL    HW232934   1.873   2.042   8.311 -0.1247 -1.8733 -0.8299
 7101SOL     OW32935   2.468   0.705   7.516  0.3184  0.2013 -0.3264
 7101SOL    HW132936   2.384   0.748   7.505 -0.6368 -1.3625  0.9633
 7101SOL    HW232937   2.474   0.639   7.447  0.2729  2.0026 -2.0616
 7102SOL     OW32938   2.180   4.534   9.687 -0.0003 -0.3817 -0.5670
 7102SOL    HW132939   2.254   4.475   9.677 -0.3145 -0.9601  0.5076
 7102SOL    HW232940   2.104   4.478   9.671 -0.5053 -0.6230  2.7789
 7103SOL     OW32941   1.912   1.805   6.068  0.1514 -0.5058  0.2086
 7103SOL    HW132942   1.915   1.889   6.113 -1.6080 -0.4231  0.1925
 7103SOL    HW232943   1.977   1.822   6.000 -3.6224  1.9347 -2.7631
 7104SOL     OW32944   2.363   1.754  14.524 -0.6448 -0.1436 -0.2431
 7104SOL    HW132945   2.353   1.835  14.474 -0.1169 -0.8521 -1.4887
 7104SOL    HW232946   2.314   1.690  14.473  1.7670 -1.2951 -1.0934
 7105SOL     OW32947   4.235   0.905   6.373 -0.1143  0.0877  0.0495
 7105SOL    HW132948   4.188   0.955   6.440  0.6870  0.0835  0.6147
 7105SOL    HW232949   4.291   0.860   6.436 -1.5827 -1.7195  0.0482
 7106SOL     OW32950   2.874   0.630   8.424 -0.0942 -0.2333 -0.6796
 7106SOL    HW132951   2.852   0.629   8.330 -0.1987 -0.8119 -0.6492
 7106SOL    HW232952   2.937   0.701   8.430  0.3794 -0.7187  0.0608
 7107SOL     OW32953   1.771   3.863   2.673 -0.0192  0.3671  0.1075
 7107SOL    HW132954   1.789   3.845   2.765 -2.3494  1.1570  0.7396
 7107SOL    HW232955   1.757   3.774   2.642  0.5940 -0.0068  0.9235
 7108SOL     OW32956   2.148   3.226  14.960 -0.3062 -0.3802 -1.0238
 7108SOL    HW132957   2.175   3.189  15.044  3.2417  1.3450 -1.4003
 7108SOL    HW232958   2.232   3.264  14.933 -0.6031  1.5964  0.8312
 7109SOL     OW32959   1.815   2.598   2.025 -0.4459 -0.1531  0.3310
 7109SOL    HW132960   1.753   2.665   2.055  0.1295  1.0096 -1.0665
 7109SOL    HW232961   1.871   2.654   1.971  0.4823  0.4375  1.9134
 7110SOL     OW32962   4.492   3.223   7.008  0.0611 -0.0462  0.0434
 7110SOL    HW132963   4.481   3.128   7.011 -1.0210  0.1171  1.5514
 7110SOL    HW232964   4.561   3.242   6.944 -1.2934  3.1419 -0.5042
 7111SOL     OW32965   2.837   2.178   6.706  0.2315 -0.1760 -0.3745
 7111SOL    HW132966   2.926   2.160   6.735  0.0699 -1.1139 -0.4637
 7111SOL    HW232967   2.832   2.109   6.641 -0.8969  1.4714 -2.0244
 7112SOL     OW32968   0.470   2.577   3.655 -0.4723  0.3357  0.7806
 7112SOL    HW132969   0.491   2.571   3.748 -0.1924  1.3132  0.7744
 7112SOL    HW232970   0.559   2.564   3.624 -1.1250  0.1453 -1.0112
 7113SOL     OW32971   1.952   1.477  10.665 -0.4786  0.5801  0.7055
 7113SOL    HW132972   1.981   1.568  10.669  0.3867  0.2851  1.1645
 7113SOL    HW232973   2.002   1.442  10.739  0.2861  2.8579  1.2564
 7114SOL     OW32974   0.544   0.737  10.399 -0.2431 -0.1449  0.3269
 7114SOL    HW132975   0.637   0.744  10.379 -0.3148  1.7725  0.6220
 7114SOL    HW232976   0.547   0.763  10.491  1.1297 -0.0451  0.2434
 7115SOL     OW32977   2.715   4.490  17.616 -0.4897  0.7885  0.2532
 7115SOL    HW132978   2.800   4.463  17.650  0.1186  2.1137 -0.2420
 7115SOL    HW232979   2.732   4.498  17.522  2.2573  0.2525  0.7099
 7116SOL     OW32980   2.173   2.687   0.240 -0.2808  0.2988 -0.1341
 7116SOL    HW132981   2.257   2.731   0.253 -1.5023  3.0019 -1.3708
 7116SOL    HW232982   2.196   2.608   0.289  1.8195  0.2757 -1.1244
 7117SOL     OW32983   0.419   1.730   8.562  0.3137  0.1316  0.3839
 7117SOL    HW132984   0.443   1.640   8.582  0.6898  0.3470  0.9014
 7117SOL    HW232985   0.387   1.760   8.647 -0.0851  1.0337 -0.0818
 7118SOL     OW32986   1.172   2.709   1.667 -0.0036  0.1247  0.2988
 7118SOL    HW132987   1.178   2.642   1.735 -2.1002  1.6459  1.9954
 7118SOL    HW232988   1.248   2.765   1.683  2.7507 -3.7544  0.6838
 7119SOL     OW32989   1.230   0.305  10.823  0.2837 -0.7337  0.6457
 7119SOL    HW132990   1.323   0.321  10.809  0.6755 -2.3019  1.5174
 7119SOL    HW232991   1.196   0.348  10.744 -0.4399  1.2120  2.0037
 7120SOL     OW32992   1.893   2.042   7.003 -0.4910 -0.1725  0.0993
 7120SOL    HW132993   1.880   2.124   7.050  1.1213  0.0139  0.1993
 7120SOL    HW232994   1.957   2.062   6.935  0.3259 -0.9652  0.6290
 7121SOL     OW32995   1.369   4.617   3.646 -0.3230 -0.2619  0.0327
 7121SOL    HW132996   1.308   4.687   3.670 -1.9139 -1.1314 -1.5259
 7121SOL    HW232997   1.362   4.566   3.726  0.8272  0.2121  0.4393
 7122SOL     OW32998   2.662   0.353   6.405  0.0799  0.5337 -0.0780
 7122SOL    HW132999   2.672   0.263   6.373  0.5580 -0.2072  2.1477
 7122SOL    HW233000   2.753   0.382   6.411  1.0025 -2.6505  1.3645
 7123SOL     OW33001   3.958   3.927   7.486  0.2129 -0.6434  0.4293
 7123SOL    HW133002   4.002   3.897   7.407 -0.2757  2.0057 -0.8641
 7123SOL    HW233003   3.899   3.988   7.442 -0.7035 -1.3252  0.7099
 7124SOL     OW33004   3.981   1.011   8.056 -0.2275 -0.2558  0.5012
 7124SOL    HW133005   3.949   1.024   7.966  0.3979  0.8014  0.4226
 7124SOL    HW233006   3.952   0.921   8.072 -0.7757 -0.2346 -0.3474
 7125SOL     OW33007   3.916   2.982   5.594  0.4587 -0.0570 -0.1243
 7125SOL    HW133008   3.859   2.940   5.529 -1.5811 -0.0263  1.6536
 7125SOL    HW233009   3.937   3.065   5.551  2.2337 -1.0015 -1.0702
 7126SOL     OW33010   1.017   2.745   6.477 -0.4324 -0.0220  0.0191
 7126SOL    HW133011   1.009   2.836   6.504 -1.9611  0.3346 -1.6085
 7126SOL    HW233012   1.035   2.701   6.560  2.5483 -0.0907 -0.6586
 7127SOL     OW33013   1.770   1.673   0.609  0.3506 -0.3490  0.3076
 7127SOL    HW133014   1.864   1.662   0.594  0.3009 -2.1840  1.3109
 7127SOL    HW233015   1.751   1.766   0.604  0.7623 -0.3100 -0.5595
 7128SOL     OW33016   1.484   0.826   2.444  0.0563 -0.8622 -0.1077
 7128SOL    HW133017   1.479   0.862   2.355  1.1825 -2.0130 -0.6415
 7128SOL    HW233018   1.465   0.907   2.491  0.4227 -1.1988  0.6037
 7129SOL     OW33019   2.653   2.982  13.831  0.2433  0.6678 -0.3793
 7129SOL    HW133020   2.678   2.982  13.739  0.8329 -1.7982 -0.2018
 7129SOL    HW233021   2.575   2.928  13.822 -0.9784  2.5655 -1.3028
 7130SOL     OW33022   4.189   2.209  11.837 -0.9297 -0.5808  0.1490
 7130SOL    HW133023   4.213   2.165  11.919 -0.5888 -0.0766  0.3162
 7130SOL    HW233024   4.184   2.127  11.788  3.0554 -1.1557  0.7160
 7131SOL     OW33025   0.697   2.850   4.269 -0.6830 -0.0171  0.5846
 7131SOL    HW133026   0.685   2.889   4.356  0.6299  1.3247  0.1502
 7131SOL    HW233027   0.740   2.771   4.301 -0.4260 -0.0954  0.0413
 7132SOL     OW33028   0.015   4.066  12.322  0.4435  0.0474 -0.2859
 7132SOL    HW133029   0.037   4.031  12.409 -2.4185  0.0010  0.4480
 7132SOL    HW233030   0.102   4.091  12.291  0.5406  3.1368  2.4885
 7133SOL     OW33031   0.907   2.041   5.747  0.2108  0.1640 -0.1240
 7133SOL    HW133032   0.976   1.988   5.787  0.2423  0.6221  0.4270
 7133SOL    HW233033   0.934   2.126   5.781  0.0194  0.0041  0.4362
 7134SOL     OW33034   3.904   3.262  16.133  0.8265  0.2501  0.2328
 7134SOL    HW133035   3.853   3.324  16.184 -0.6282  0.5212 -1.5551
 7134SOL    HW233036   3.983   3.310  16.109  0.5402  0.7915  0.3844
 7135SOL     OW33037   0.472   0.901   0.497  0.1286  0.7171 -0.6777
 7135SOL    HW133038   0.470   0.966   0.567 -1.3382 -2.5612  2.3279
 7135SOL    HW233039   0.503   0.822   0.542 -0.4330  1.3542  0.8314
 7136SOL     OW33040   4.156   1.387   5.608  0.4181 -0.3940 -0.0915
 7136SOL    HW133041   4.183   1.479   5.602 -2.6455  0.6069  1.9481
 7136SOL    HW233042   4.149   1.377   5.703  1.8818  1.3360  0.2197
 7137SOL     OW33043   2.305   1.621  11.924 -0.0741 -0.3535 -0.0748
 7137SOL    HW133044   2.391   1.626  11.883 -0.4041  1.3554 -0.5796
 7137SOL    HW233045   2.281   1.532  11.898  1.0390 -0.9142  0.8266
 7138SOL     OW33046   0.935   4.317   9.840  0.6112  0.6041 -0.6432
 7138SOL    HW133047   0.996   4.243   9.848  1.6322  1.0860 -3.9366
 7138SOL    HW233048   0.998   4.389   9.837  0.6577  0.6046  0.2356
 7139SOL     OW33049   1.997   0.875   6.224  0.3777  0.5463 -0.0932
 7139SOL    HW133050   2.089   0.864   6.199 -0.0618 -1.4399 -0.8537
 7139SOL    HW233051   2.003   0.943   6.291 -0.7549 -0.5314  1.0950
 7140SOL     OW33052   2.091   0.301   6.492 -0.3816  0.4788  0.0269
 7140SOL    HW133053   2.187   0.299   6.489 -0.2770  1.4137  2.1767
 7140SOL    HW233054   2.066   0.225   6.440 -0.8972  0.6105  0.0848
 7141SOL     OW33055   1.061   0.335   5.958 -0.6027 -0.1261  0.2783
 7141SOL    HW133056   1.141   0.283   5.972 -0.5281 -0.5791 -1.8601
 7141SOL    HW233057   1.011   0.316   6.037  0.3532  1.0029  1.1479
 7142SOL     OW33058   3.079   2.872   6.902  0.2081  0.1293  0.0437
 7142SOL    HW133059   3.068   2.814   6.978  0.4982  1.8658  1.4266
 7142SOL    HW233060   3.079   2.957   6.945 -1.2262 -0.1102  0.5353
 7143SOL     OW33061   4.450   3.078  12.919  0.4253 -0.2376  0.8038
 7143SOL    HW133062   4.513   3.112  12.982  2.8919 -2.7009 -0.3233
 7143SOL    HW233063   4.483   2.995  12.884  0.6292 -0.1342  0.7575
 7144SOL     OW33064   0.221   2.728  16.130  1.0335  0.2444 -0.0617
 7144SOL    HW133065   0.196   2.639  16.109 -0.8494  0.6571  0.4295
 7144SOL    HW233066   0.145   2.759  16.179 -0.3988  0.6340 -2.5131
 7145SOL     OW33067   3.561   3.044   0.881 -0.7820  0.3670 -0.5927
 7145SOL    HW133068   3.587   3.094   0.804 -3.0761  0.2652 -1.4501
 7145SOL    HW233069   3.519   2.969   0.838 -0.4439 -1.2166  1.7768
 7146SOL     OW33070   3.462   2.402   0.914 -0.2394 -0.4738 -0.1149
 7146SOL    HW133071   3.538   2.439   0.869  0.9743 -0.0288  2.2660
 7146SOL    HW233072   3.426   2.350   0.843  0.7018 -1.2939  0.0047
 7147SOL     OW33073   0.349   3.877   4.375  0.2493  0.1532 -0.4170
 7147SOL    HW133074   0.409   3.888   4.301  0.0958 -0.2992 -0.6120
 7147SOL    HW233075   0.329   3.784   4.367 -0.4895  0.1878  1.1153
 7148SOL     OW33076   1.132   2.777   3.162 -0.3159  0.0539  0.5537
 7148SOL    HW133077   1.135   2.749   3.070  3.8671 -0.1077  0.7290
 7148SOL    HW233078   1.168   2.865   3.154  0.0088 -0.1410 -0.1671
 7149SOL     OW33079   0.728   4.594   2.290  0.5087 -0.4968  0.1030
 7149SOL    HW133080   0.820   4.597   2.265  0.6231  1.8024  0.7902
 7149SOL    HW233081   0.724   4.679   2.334 -1.6562 -1.0629  0.9953
 7150SOL     OW33082   4.440   2.641   4.141  0.2848 -0.6981  0.0297
 7150SOL    HW133083   4.457   2.715   4.199  0.6526 -0.3423 -0.5302
 7150SOL    HW233084   4.484   2.661   4.059  0.3878 -3.6158 -0.6237
 7151SOL     OW33085   4.037   0.832   6.819  0.1104  0.6440 -0.7320
 7151SOL    HW133086   4.088   0.752   6.809  1.6988  1.2799  2.2268
 7151SOL    HW233087   4.079   0.887   6.753 -0.4898  0.5764 -1.1695
 7152SOL     OW33088   2.511   0.240   7.146 -0.2097  0.2605  0.3746
 7152SOL    HW133089   2.517   0.256   7.052 -0.9712 -0.3642  0.2202
 7152SOL    HW233090   2.418   0.242   7.169 -0.3747  2.8066 -0.5158
 7153SOL     OW33091   2.196   2.907   2.437 -0.0434 -0.4938  0.0426
 7153SOL    HW133092   2.131   2.925   2.506 -1.3900 -1.7502 -0.9001
 7153SOL    HW233093   2.282   2.926   2.474  0.2410  0.6889 -1.2381
 7154SOL     OW33094   2.240   2.598   1.383 -0.2770 -0.0330 -0.0820
 7154SOL    HW133095   2.229   2.677   1.330  0.6349 -0.1465 -0.4506
 7154SOL    HW233096   2.158   2.605   1.431 -0.0968  0.2003  0.1898
 7155SOL     OW33097   3.916   1.027  11.424 -0.6384 -0.3549  0.0548
 7155SOL    HW133098   3.822   1.042  11.427 -0.4838  1.2090 -2.3556
 7155SOL    HW233099   3.946   1.061  11.509  0.1301  0.3439 -0.4899
 7156SOL     OW33100   3.930   0.071   8.725  0.0349  0.4559  0.2065
 7156SOL    HW133101   3.836   0.062   8.742  0.1613 -0.9680  0.1455
 7156SOL    HW233102   3.962   0.144   8.779 -0.8756  1.4674 -0.6340
 7157SOL     OW33103   4.459   2.694  10.543  0.7701 -0.0824  0.1674
 7157SOL    HW133104   4.551   2.705  10.565  0.9450  0.7717 -0.9768
 7157SOL    HW233105   4.461   2.613  10.492 -1.5945 -0.5313  0.7819
 7158SOL     OW33106   4.451   0.946   4.868 -0.1753 -0.9840  0.2305
 7158SOL    HW133107   4.410   1.016   4.817  0.1742 -0.3633  0.8132
 7158SOL    HW233108   4.542   0.975   4.866 -0.6499  0.5686  1.2584
 7159SOL     OW33109   1.548   1.189  16.959  0.7086  0.0526 -0.0200
 7159SOL    HW133110   1.484   1.252  16.992  2.1685  0.0833  2.8320
 7159SOL    HW233111   1.620   1.253  16.959  0.5040  0.2838  0.1148
 7160SOL     OW33112   1.222   0.499   8.694 -0.4931  0.1130 -0.2646
 7160SOL    HW133113   1.156   0.431   8.681  0.2178 -0.7168  0.5180
 7160SOL    HW233114   1.243   0.514   8.601 -0.2719 -1.6402 -0.5064
 7161SOL     OW33115   2.883   1.844   4.373 -0.1047 -0.3829 -0.1541
 7161SOL    HW133116   2.955   1.869   4.315 -0.0288  2.7972  1.2903
 7161SOL    HW233117   2.808   1.860   4.316 -2.2686  0.5236  2.9656
 7162SOL     OW33118   0.423   0.479  13.549 -0.1978 -0.6653 -0.3646
 7162SOL    HW133119   0.518   0.489  13.548 -0.3634  0.8251 -1.3171
 7162SOL    HW233120   0.402   0.457  13.640  0.5962  1.3967  0.2990
 7163SOL     OW33121   0.290   2.012   8.966 -0.2039 -0.0080  0.0396
 7163SOL    HW133122   0.233   2.012   8.889 -0.0752  0.4306 -0.0579
 7163SOL    HW233123   0.224   1.970   9.022 -0.2880  1.6978  1.2267
 7164SOL     OW33124   0.497   3.612   6.086 -0.0236  0.3280 -0.0638
 7164SOL    HW133125   0.418   3.657   6.115  0.5559  1.0372  0.4143
 7164SOL    HW233126   0.516   3.685   6.026  0.2963  0.8240  0.6466
 7165SOL     OW33127   1.558   3.620   1.158 -0.2565 -0.3112  0.3901
 7165SOL    HW133128   1.496   3.618   1.085 -0.4778 -0.4838  0.5813
 7165SOL    HW233129   1.637   3.638   1.108 -0.8281 -3.2572 -1.6304
 7166SOL     OW33130   1.631   0.590   2.880 -0.2932 -0.1598  0.6249
 7166SOL    HW133131   1.645   0.510   2.831 -2.2989 -1.1171  1.6114
 7166SOL    HW233132   1.704   0.581   2.942  0.5068  1.3477 -0.1039
 7167SOL     OW33133   0.714   0.062   4.177  0.3760  0.5315 -0.0597
 7167SOL    HW133134   0.711   0.123   4.104  0.4142 -0.2499 -0.7164
 7167SOL    HW233135   0.804   0.071   4.208  0.9145 -0.7805 -1.2353
 7168SOL     OW33136   2.789   2.100   9.601  0.3023 -0.2847  0.5779
 7168SOL    HW133137   2.749   2.016   9.624  0.6661 -1.0002 -1.4839
 7168SOL    HW233138   2.721   2.155   9.640 -0.1438 -1.3974  1.3885
 7169SOL     OW33139   3.715   3.699   1.577 -0.0301 -0.1523 -0.3377
 7169SOL    HW133140   3.721   3.784   1.620 -2.1407  2.0659 -4.3826
 7169SOL    HW233141   3.644   3.662   1.629 -0.7507  0.1205 -1.1291
 7170SOL     OW33142   2.900   2.321   3.684  0.2478  0.6233 -0.2721
 7170SOL    HW133143   2.892   2.276   3.599 -3.0144 -0.5528  0.6301
 7170SOL    HW233144   2.908   2.412   3.655 -1.2634  1.2461  1.3198
 7171SOL     OW33145   3.100   2.607  13.756  0.3266 -0.2379  0.2475
 7171SOL    HW133146   3.145   2.690  13.745 -0.8950  0.6074  1.5734
 7171SOL    HW233147   3.174   2.553  13.784  0.1797 -1.9243 -2.6864
 7172SOL     OW33148   4.269   2.401   2.343  0.2489 -0.1088 -0.4016
 7172SOL    HW133149   4.200   2.392   2.277 -0.9975  0.3094  0.8471
 7172SOL    HW233150   4.234   2.473   2.396 -2.2560 -2.1368  0.6928
 7173SOL     OW33151   4.173   3.154   9.180  0.3998  0.2153 -0.1262
 7173SOL    HW133152   4.244   3.198   9.134 -2.8653  3.5213 -1.9302
 7173SOL    HW233153   4.090   3.192   9.152  0.4685  0.2263 -0.3156
 7174SOL     OW33154   2.547   0.193   8.672  0.8838 -0.1316 -0.0865
 7174SOL    HW133155   2.590   0.179   8.757  0.1618  1.4109  0.5517
 7174SOL    HW233156   2.493   0.267   8.702  3.4646  1.2478  1.2739
 7175SOL     OW33157   0.388   4.524   5.910 -0.0608  0.3895  0.0723
 7175SOL    HW133158   0.454   4.466   5.947 -2.1337 -0.4259  2.4778
 7175SOL    HW233159   0.317   4.460   5.901  0.0604  0.4759 -1.5189
 7176SOL     OW33160   4.644   3.996  16.300  0.4475 -0.2188 -0.1827
 7176SOL    HW133161   4.551   4.000  16.278 -0.0815  0.0828  2.0951
 7176SOL    HW233162   4.675   4.085  16.282  0.1131  0.4212  2.3635
 7177SOL     OW33163   1.350   1.657   8.699 -0.1264  0.2184 -0.9757
 7177SOL    HW133164   1.405   1.629   8.625 -0.7221 -0.3239 -1.2113
 7177SOL    HW233165   1.259   1.648   8.670 -0.3773  0.7796 -0.3566
 7178SOL     OW33166   0.140   3.955   6.330  0.2453  0.3954  0.2292
 7178SOL    HW133167   0.111   3.895   6.398  0.4032 -1.7262 -1.5714
 7178SOL    HW233168   0.075   3.932   6.264  3.1438 -1.8775 -1.8239
 7179SOL     OW33169   0.326   4.069   7.406  0.2082 -0.1247  0.4129
 7179SOL    HW133170   0.365   4.113   7.331 -0.6556 -1.7449 -0.9933
 7179SOL    HW233171   0.316   3.977   7.382 -1.3042  0.1025  0.1442
 7180SOL     OW33172   0.102   2.132   6.939 -0.5293  0.2466  0.5492
 7180SOL    HW133173   0.019   2.115   6.985 -0.8432  0.6375  0.1365
 7180SOL    HW233174   0.126   2.050   6.897  1.5437  1.1708 -0.0374
 7181SOL     OW33175   1.800   3.802   5.952 -0.3689 -0.2661 -0.0983
 7181SOL    HW133176   1.720   3.751   5.939 -0.6088  0.3127 -0.9454
 7181SOL    HW233177   1.853   3.735   5.994  1.0731  0.7669 -0.2676
 7182SOL     OW33178   1.486   4.156   6.720 -0.4040 -0.3469 -0.5319
 7182SOL    HW133179   1.555   4.166   6.654  0.1365 -1.7930 -0.1958
 7182SOL    HW233180   1.485   4.243   6.760  0.9080 -0.6145  0.0869
 7183SOL     OW33181   3.868   2.257  13.159 -0.1537  0.3448  0.1961
 7183SOL    HW133182   3.864   2.265  13.064 -0.6466 -1.3395  0.0707
 7183SOL    HW233183   3.819   2.335  13.185  0.4434  0.7632  0.0406
 7184SOL     OW33184   1.092   0.771  10.010  0.1172  0.3195 -0.0188
 7184SOL    HW133185   1.133   0.712  10.074 -1.6104  0.7304  1.4481
 7184SOL    HW233186   1.116   0.858  10.043 -1.6123  0.7179  0.1850
 7185SOL     OW33187   4.611   3.718   4.143 -0.2144  0.2303  0.5710
 7185SOL    HW133188   4.556   3.787   4.180 -0.4673  0.7624 -0.7975
 7185SOL    HW233189   4.670   3.764   4.083  0.7802 -0.1089  1.2905
 7186SOL     OW33190   0.280   3.685   5.257 -0.1840  0.2943 -0.1683
 7186SOL    HW133191   0.265   3.594   5.284 -2.1538  1.0970  1.4131
 7186SOL    HW233192   0.309   3.682   5.166  0.2510 -1.5616  0.0285
 7187SOL     OW33193   3.309   2.038   7.979 -0.4082  0.4402 -0.4939
 7187SOL    HW133194   3.392   2.072   7.946 -0.1186  0.3805  0.1663
 7187SOL    HW233195   3.248   2.110   7.964 -0.8669  0.4981  1.5815
 7188SOL     OW33196   3.493   0.016  17.237 -0.4244 -0.7239 -0.3063
 7188SOL    HW133197   3.472   0.019  17.143 -0.0147 -2.9404 -0.4742
 7188SOL    HW233198   3.571   0.070  17.237 -1.4111  0.6958 -0.0989
 7189SOL     OW33199   1.257   3.959   8.220 -0.2276  0.3269  1.0286
 7189SOL    HW133200   1.188   3.989   8.279  0.2391  1.1813  1.1321
 7189SOL    HW233201   1.330   3.997   8.268 -0.6073  0.4566  1.5125
 7190SOL     OW33202   1.329   3.340   1.635 -0.5857 -0.8253 -0.2584
 7190SOL    HW133203   1.355   3.423   1.594  0.6560 -0.6044  0.9615
 7190SOL    HW233204   1.399   3.278   1.616 -0.9356 -1.5748  0.9162
 7191SOL     OW33205   4.184   1.669   5.575 -0.5296 -0.6334 -0.7786
 7191SOL    HW133206   4.229   1.674   5.659 -1.6993  0.5847 -0.2201
 7191SOL    HW233207   4.150   1.758   5.563  1.9787  0.5420  0.9046
 7192SOL     OW33208   1.939   0.123   2.264 -0.0347  0.2195  0.0917
 7192SOL    HW133209   1.856   0.077   2.251  0.0026 -0.1116  1.0223
 7192SOL    HW233210   1.995   0.046   2.256 -0.8557 -0.4235  0.4994
 7193SOL     OW33211   0.947   2.371   0.269 -0.0339 -0.1995 -0.3595
 7193SOL    HW133212   0.966   2.434   0.200 -2.2482  2.8723  1.8217
 7193SOL    HW233213   0.918   2.438   0.331 -0.0409 -1.1516  0.6648
 7194SOL     OW33214   2.578   4.619   4.301 -0.3829 -0.1301  0.0871
 7194SOL    HW133215   2.499   4.610   4.246 -0.5737 -0.6662  0.4483
 7194SOL    HW233216   2.638   4.558   4.259 -1.2429 -2.3247  2.0877
 7195SOL     OW33217   2.053   2.415   8.114  0.0686  0.6020 -0.1693
 7195SOL    HW133218   2.095   2.494   8.146 -0.5263  0.4430  1.0087
 7195SOL    HW233219   2.018   2.449   8.032 -0.6336 -2.3426 -1.0994
 7196SOL     OW33220   3.266   3.472   8.763 -0.0960 -0.2840 -0.0197
 7196SOL    HW133221   3.175   3.472   8.791 -0.1789  1.9338 -0.2870
 7196SOL    HW233222   3.271   3.391   8.713 -1.1639  0.0772 -0.6936
 7197SOL     OW33223   2.683   0.643  10.652  0.0190 -0.6576  0.9520
 7197SOL    HW133224   2.742   0.717  10.666 -0.8876 -0.1267  1.9511
 7197SOL    HW233225   2.655   0.609  10.737 -1.3318 -4.1104 -0.8969
 7198SOL     OW33226   3.394   3.730  11.892  0.0518 -0.4497  0.3058
 7198SOL    HW133227   3.363   3.812  11.853  3.8330  1.3240  1.0853
 7198SOL    HW233228   3.393   3.750  11.986 -1.8734 -0.3131  0.2566
 7199SOL     OW33229   3.641   2.374   5.235 -0.4292 -0.1196 -0.4779
 7199SOL    HW133230   3.579   2.329   5.177 -1.8084 -0.0822  0.9572
 7199SOL    HW233231   3.720   2.330   5.206  0.3572 -0.0167  1.4874
 7200SOL     OW33232   1.419   1.330   6.221 -0.1207  0.1546  0.1670
 7200SOL    HW133233   1.488   1.392   6.247  1.8811 -1.4028 -1.4927
 7200SOL    HW233234   1.345   1.389   6.206 -0.4246  0.4460  2.8022
 7201SOL     OW33235   3.954   2.529   0.191  0.6433  0.2927  0.2437
 7201SOL    HW133236   3.949   2.533   0.096 -0.8273 -3.3482  0.1590
 7201SOL    HW233237   3.938   2.435   0.201 -0.0059  0.3292 -0.4970
 7202SOL     OW33238   3.529   2.578   3.759  0.5150 -0.0365  0.0271
 7202SOL    HW133239   3.580   2.626   3.694 -0.4273 -1.3825 -1.6911
 7202SOL    HW233240   3.457   2.641   3.750 -0.7418 -1.3912  0.6406
 7203SOL     OW33241   2.440   3.300   5.226  0.0678 -0.6039 -0.5446
 7203SOL    HW133242   2.502   3.270   5.293 -0.2583  1.2486  0.5997
 7203SOL    HW233243   2.495   3.269   5.154  1.2337  2.8502 -1.1489
 7204SOL     OW33244   0.522   1.608  10.254 -0.6413 -0.3939  0.1173
 7204SOL    HW133245   0.476   1.526  10.270 -1.7742  0.4204  0.9823
 7204SOL    HW233246   0.559   1.643  10.335  1.4284  0.4799 -1.1856
 7205SOL     OW33247   2.393   1.738   6.344  0.2355 -0.3633 -0.1323
 7205SOL    HW133248   2.414   1.831   6.347 -2.1132  0.1635 -0.4119
 7205SOL    HW233249   2.397   1.705   6.434 -2.2068 -1.4127 -0.3946
 7206SOL     OW33250   2.272   0.293  11.441  0.2649 -0.6058 -0.1611
 7206SOL    HW133251   2.340   0.228  11.426  0.4949 -0.3575 -0.2035
 7206SOL    HW233252   2.303   0.373  11.399 -2.0574 -0.1305 -0.9836
 7207SOL     OW33253   3.513   2.542   9.803 -0.0378 -0.2660  0.1934
 7207SOL    HW133254   3.421   2.527   9.821 -0.4288 -0.4581 -1.9316
 7207SOL    HW233255   3.511   2.631   9.768  0.8182 -0.4286 -0.2894
 7208SOL     OW33256   2.669   1.708   7.965 -0.0251 -0.1935  0.2855
 7208SOL    HW133257   2.726   1.713   7.888  0.3100  0.6441  0.5879
 7208SOL    HW233258   2.698   1.788   8.009  0.8524 -0.5101  0.2831
 7209SOL     OW33259   4.297   1.597   2.135 -0.0656  0.8609 -0.7838
 7209SOL    HW133260   4.240   1.528   2.102  2.5417 -1.6292 -0.1634
 7209SOL    HW233261   4.378   1.546   2.134  0.7982  2.2449 -2.1615
 7210SOL     OW33262   3.758   0.294   6.446 -0.1803 -0.3354 -0.0166
 7210SOL    HW133263   3.734   0.294   6.354 -3.4183 -1.4876  0.8525
 7210SOL    HW233264   3.732   0.204   6.464 -0.2837 -0.1380  0.8093
 7211SOL     OW33265   0.014   0.849   7.637  0.4996 -0.0795 -0.0382
 7211SOL    HW133266   0.098   0.890   7.618  0.4505  0.5665  1.1621
 7211SOL    HW233267   0.015   0.782   7.568  0.9209  0.8960 -0.9797
 7212SOL     OW33268   3.370   1.789   4.774 -0.4017 -0.2274 -0.3180
 7212SOL    HW133269   3.383   1.716   4.714 -0.2024 -3.5195  3.6639
 7212SOL    HW233270   3.453   1.834   4.762 -0.0731 -0.7968 -0.1984
 7213SOL     OW33271   3.975   1.575  14.152 -0.2667  0.1268  0.0613
 7213SOL    HW133272   4.017   1.607  14.072 -1.2046  0.6327 -0.2296
 7213SOL    HW233273   3.883   1.589  14.127 -0.0179  0.5939 -0.5733
 7214SOL     OW33274   3.483   0.337   8.035 -0.2184 -0.6233  0.1734
 7214SOL    HW133275   3.422   0.321   7.962  0.2760 -0.6164 -0.2470
 7214SOL    HW233276   3.529   0.254   8.031  0.3061 -0.2821 -0.9702
 7215SOL     OW33277   3.171   3.154  17.396 -0.6073 -0.6377  0.0420
 7215SOL    HW133278   3.109   3.122  17.461 -0.9830 -3.5863 -1.7950
 7215SOL    HW233279   3.112   3.184  17.327 -0.6569 -2.4522 -0.7148
 7216SOL     OW33280   0.979   0.580   7.784  0.1726 -0.1688  0.4016
 7216SOL    HW133281   0.966   0.527   7.706  1.0371 -0.0730  0.1873
 7216SOL    HW233282   0.905   0.640   7.787 -0.8719 -1.4391 -0.1570
 7217SOL     OW33283   0.109   3.298   9.583  0.2682  0.0475  0.2609
 7217SOL    HW133284   0.143   3.211   9.562  0.8973  0.7953 -1.8020
 7217SOL    HW233285   0.191   3.348   9.577 -0.4766  1.1888 -0.5091
 7218SOL     OW33286   4.095   4.539  10.990 -0.4878 -0.0544  0.1055
 7218SOL    HW133287   4.051   4.620  10.965  1.7315  1.9068  2.5280
 7218SOL    HW233288   4.112   4.499  10.905 -1.4594 -1.2915  0.4905
 7219SOL     OW33289   0.826   0.420   5.603 -0.0803  0.1078  0.5779
 7219SOL    HW133290   0.854   0.490   5.544  0.3919 -1.4935 -1.0909
 7219SOL    HW233291   0.764   0.374   5.547 -0.4695  1.6609 -0.2824
 7220SOL     OW33292   1.902   2.483   8.375 -0.2866  0.3701 -0.0891
 7220SOL    HW133293   1.833   2.452   8.317 -0.5348  2.1160 -0.7286
 7220SOL    HW233294   1.880   2.435   8.455 -1.2517  2.4054  0.8605
 7221SOL     OW33295   0.638   1.912  17.299  0.2233  0.2372  0.1239
 7221SOL    HW133296   0.588   1.842  17.258  1.0867 -0.4011  0.1500
 7221SOL    HW233297   0.593   1.978  17.245  1.2581  1.2193  0.4517
 7222SOL     OW33298   3.926   2.556   2.825 -0.5548  0.2520  0.5299
 7222SOL    HW133299   3.920   2.598   2.739  0.5921 -1.1008 -0.2164
 7222SOL    HW233300   3.869   2.479   2.825  0.1601 -0.2715 -2.0329
 7223SOL     OW33301   2.332   2.584   2.104 -0.1192  0.1373 -0.6320
 7223SOL    HW133302   2.271   2.657   2.100  1.7811  1.8252  1.3194
 7223SOL    HW233303   2.374   2.597   2.189  0.5801 -1.3218 -0.7540
 7224SOL     OW33304   4.199   3.292  10.569 -0.1087  0.3277  0.2952
 7224SOL    HW133305   4.104   3.276  10.568 -0.3761  1.8797  0.4761
 7224SOL    HW233306   4.224   3.277  10.660  0.5671  2.1807  0.4137
 7225SOL     OW33307   3.465   1.517  17.705  0.7965  0.0789  0.2377
 7225SOL    HW133308   3.469   1.581  17.634 -1.7712 -0.4720 -0.3754
 7225SOL    HW233309   3.560   1.509  17.720  0.6709 -0.1725  0.8957
 7226SOL     OW33310   3.711   2.661   4.391  0.0495 -0.4459  0.1202
 7226SOL    HW133311   3.700   2.574   4.429 -1.2119 -0.8576 -1.1684
 7226SOL    HW233312   3.649   2.718   4.437  0.6901  1.3552 -1.2410
 7227SOL     OW33313   4.629   3.869   3.128 -0.0109  0.0966 -0.0969
 7227SOL    HW133314   4.542   3.862   3.088 -0.9435  0.8071  1.8319
 7227SOL    HW233315   4.654   3.950   3.083 -0.5880  1.0128  1.2677
 7228SOL     OW33316   0.899   2.999   2.766 -0.0257  0.1408  0.6641
 7228SOL    HW133317   0.978   2.969   2.811 -1.6643 -1.9269  2.1570
 7228SOL    HW233318   0.923   3.074   2.711  0.5936 -0.6968 -0.2050
 7229SOL     OW33319   3.036   0.980   3.393  0.6022 -0.6240 -0.4386
 7229SOL    HW133320   3.042   0.959   3.300  0.4988 -0.4806 -0.4768
 7229SOL    HW233321   3.024   0.895   3.435 -0.8171 -1.0818 -1.7672
 7230SOL     OW33322   1.537   4.137   2.099  0.0695 -0.5155 -0.0743
 7230SOL    HW133323   1.620   4.142   2.052  0.0859  0.7745  0.0986
 7230SOL    HW233324   1.544   4.223   2.140  2.1230  0.7355 -3.0313
 7231SOL     OW33325   0.098   1.697   2.422  0.3860  0.2891 -0.1896
 7231SOL    HW133326   0.128   1.607   2.430 -1.3553 -0.1503  1.3900
 7231SOL    HW233327   0.073   1.727   2.510  1.2468  2.0919 -0.5523
 7232SOL     OW33328   2.832   2.927   9.663  0.7418 -0.8241 -0.6376
 7232SOL    HW133329   2.911   2.977   9.644 -1.5864  2.5719 -1.3420
 7232SOL    HW233330   2.805   2.888   9.580  2.2719 -0.3018 -1.3950
 7233SOL     OW33331   3.211   0.516   2.034 -0.8976 -0.1755 -0.3335
 7233SOL    HW133332   3.215   0.475   1.948 -1.2799 -1.2850  0.1818
 7233SOL    HW233333   3.304   0.519   2.056 -1.0103 -1.1802  0.2800
 7234SOL     OW33334   2.762   0.879   8.983  1.0577  0.3919 -0.4170
 7234SOL    HW133335   2.754   0.794   8.941 -0.4796  0.1393  0.4155
 7234SOL    HW233336   2.678   0.885   9.028  2.1937  1.2762  1.5966
 7235SOL     OW33337   3.772   3.452   9.499  0.2033 -0.2844  0.3805
 7235SOL    HW133338   3.705   3.510   9.463 -0.3950 -0.4647  1.1962
 7235SOL    HW233339   3.779   3.473   9.592 -1.6750 -0.1382  0.4828
 7236SOL     OW33340   4.523   1.289   9.866 -0.4609 -0.5727  0.0815
 7236SOL    HW133341   4.574   1.209   9.875  0.3145 -0.2647 -1.5078
 7236SOL    HW233342   4.439   1.256   9.835  0.0147 -0.1034 -1.6997
 7237SOL     OW33343   3.036   0.556  15.241  0.2953  0.1167 -0.1471
 7237SOL    HW133344   3.074   0.478  15.282  0.5428 -0.5176 -1.5841
 7237SOL    HW233345   3.070   0.549  15.152 -0.3506  0.5217 -0.4233
 7238SOL     OW33346   1.082   4.431   6.462 -0.1179  0.0413  0.2836
 7238SOL    HW133347   1.151   4.382   6.417 -1.3440 -0.8249 -0.6507
 7238SOL    HW233348   1.006   4.403   6.411  0.8998  2.3330 -2.5019
 7239SOL     OW33349   1.866   4.461  14.373  0.5553  0.3602 -0.1539
 7239SOL    HW133350   1.836   4.400  14.306  0.1386  3.3538 -2.6862
 7239SOL    HW233351   1.786   4.498  14.409  1.7775 -0.9297  3.9484
 7240SOL     OW33352   1.544   4.294   4.745 -0.3075  0.8994 -0.2345
 7240SOL    HW133353   1.533   4.205   4.779 -0.2804  0.0079 -2.5853
 7240SOL    HW233354   1.638   4.311   4.756 -0.7024  2.3659  0.9592
 7241SOL     OW33355   4.023   1.222   4.467 -0.2478 -0.7026 -0.2827
 7241SOL    HW133356   3.944   1.171   4.486 -0.0357 -0.1074  2.1423
 7241SOL    HW233357   4.053   1.163   4.397  1.3348  0.9849 -1.0219
 7242SOL     OW33358   0.370   0.594   2.729  0.5085 -0.1423 -0.0077
 7242SOL    HW133359   0.394   0.592   2.822  1.9797  0.4652 -0.3791
 7242SOL    HW233360   0.457   0.607   2.692  0.0595  0.7975 -0.7033
 7243SOL     OW33361   0.766   4.707   7.069 -0.1628 -0.0045 -0.1608
 7243SOL    HW133362   0.806   4.637   7.017 -1.2853 -2.6477  2.4916
 7243SOL    HW233363   0.697   4.663   7.119  1.0723 -0.5935  1.0027
 7244SOL     OW33364   1.843   3.370   5.660 -0.0151  0.0891 -0.6172
 7244SOL    HW133365   1.762   3.421   5.665  0.6656  1.1855 -0.8578
 7244SOL    HW233366   1.813   3.285   5.694  0.9312  0.0764  0.2018
 7245SOL     OW33367   1.370   1.913   1.609  0.5098 -0.5606 -0.0978
 7245SOL    HW133368   1.361   1.837   1.552  1.8625  0.0760 -1.1604
 7245SOL    HW233369   1.389   1.872   1.694 -2.2032 -1.2661  0.1735
 7246SOL     OW33370   2.217   0.415   1.176  0.2707 -0.4061  0.0804
 7246SOL    HW133371   2.213   0.415   1.080 -4.1995 -1.5740  0.2757
 7246SOL    HW233372   2.131   0.377   1.195  1.2908 -2.2662  0.8467
 7247SOL     OW33373   0.680   4.069   8.477 -0.4384 -0.2345 -0.5447
 7247SOL    HW133374   0.645   4.031   8.397 -0.4842  0.5092 -0.8843
 7247SOL    HW233375   0.680   3.996   8.539 -0.4666  0.2197 -0.0065
 7248SOL     OW33376   3.278   0.120   8.247  0.1207  0.0571  0.4530
 7248SOL    HW133377   3.235   0.183   8.190  3.7897  1.6240 -0.5883
 7248SOL    HW233378   3.281   0.173   8.326  3.7397  0.7155 -0.0910
 7249SOL     OW33379   1.803   3.067   0.399  0.5150 -0.2348 -0.0962
 7249SOL    HW133380   1.838   2.992   0.351  1.3615  0.4629 -0.5752
 7249SOL    HW233381   1.737   3.022   0.452 -1.8815  1.2837 -1.8015
 7250SOL     OW33382   0.936   4.152   6.438  0.0739 -0.2474  0.1201
 7250SOL    HW133383   0.967   4.153   6.347 -0.5922  0.9840 -0.0914
 7250SOL    HW233384   0.875   4.079   6.437 -1.6485  1.2155 -0.1418
 7251SOL     OW33385   1.282   0.901   8.889 -0.6395  0.3587  0.1381
 7251SOL    HW133386   1.270   0.955   8.967  1.6929 -0.4290  1.0456
 7251SOL    HW233387   1.374   0.906   8.863 -0.3681 -3.0564  0.4027
 7252SOL     OW33388   4.360   3.271   4.116  0.1932  0.1853  0.1371
 7252SOL    HW133389   4.340   3.242   4.205  2.3831  0.1746  0.6309
 7252SOL    HW233390   4.327   3.199   4.063  1.4946 -1.3386  1.4269
 7253SOL     OW33391   2.239   2.065   3.916 -0.3597  0.0552  0.0939
 7253SOL    HW133392   2.296   2.130   3.958 -0.8574  0.1295  0.6580
 7253SOL    HW233393   2.181   2.115   3.859 -0.2828 -0.0397 -0.0667
 7254SOL     OW33394   0.994   0.471   2.320 -0.0940 -0.1098  0.0997
 7254SOL    HW133395   0.998   0.391   2.269 -0.8225 -1.3260  1.9416
 7254SOL    HW233396   1.076   0.511   2.290  0.7398  0.1338  2.6549
 7255SOL     OW33397   1.315   3.193   7.165  0.4583  0.5653  0.7001
 7255SOL    HW133398   1.338   3.161   7.252  0.7351 -0.5983  0.1988
 7255SOL    HW233399   1.269   3.276   7.180  2.5105  2.0278 -1.1395
 7256SOL     OW33400   3.314   2.566   8.814  0.4682 -0.4384  0.2749
 7256SOL    HW133401   3.264   2.547   8.734 -0.4343  0.7942  0.5609
 7256SOL    HW233402   3.403   2.578   8.780  0.6562 -1.4422  0.4164
 7257SOL     OW33403   0.700   1.877   7.821 -0.4530 -0.2238  0.7502
 7257SOL    HW133404   0.615   1.839   7.801  0.2897 -0.6254 -1.6871
 7257SOL    HW233405   0.750   1.804   7.858  0.9682 -0.0554 -0.8088
 7258SOL     OW33406   0.573   4.556   8.110  0.0358  0.1855 -0.9180
 7258SOL    HW133407   0.564   4.464   8.087 -0.5342  0.1202 -0.4078
 7258SOL    HW233408   0.649   4.571   8.053  1.7416 -1.3048  0.9830
 7259SOL     OW33409   1.387   0.793   7.517  0.1087 -0.4087  0.5082
 7259SOL    HW133410   1.374   0.812   7.610 -1.1464  0.0137  0.2488
 7259SOL    HW233411   1.474   0.755   7.526 -0.8332 -2.6761 -0.1143
 7260SOL     OW33412   0.660   1.277   2.464 -0.4970  0.2872 -0.8054
 7260SOL    HW133413   0.636   1.262   2.373  1.6749  2.2849 -1.6879
 7260SOL    HW233414   0.741   1.227   2.474 -1.0587 -0.3307  0.7401
 7261SOL     OW33415   0.183   0.729   5.162 -0.1453  0.0727 -0.2435
 7261SOL    HW133416   0.225   0.659   5.112 -1.4175 -0.3858 -0.6656
 7261SOL    HW233417   0.214   0.705   5.249  1.9609  0.5463 -0.8419
 7262SOL     OW33418   0.058   0.637   2.874  0.1018  0.3607 -0.8176
 7262SOL    HW133419   0.004   0.638   2.794  1.1171  0.4210 -1.5065
 7262SOL    HW233420   0.005   0.699   2.923 -0.3577  0.1299 -1.0218
 7263SOL     OW33421   1.679   4.239   6.528  0.2547  0.0564 -0.0935
 7263SOL    HW133422   1.727   4.210   6.450 -0.6257 -1.3985 -0.1037
 7263SOL    HW233423   1.611   4.294   6.490 -0.2803 -1.9915 -2.1366
 7264SOL     OW33424   0.877   0.768   8.599 -0.0142 -0.3919 -0.1957
 7264SOL    HW133425   0.942   0.763   8.669  0.3375 -3.2069 -0.7408
 7264SOL    HW233426   0.908   0.851   8.563  1.3654 -0.9151 -0.2046
 7265SOL     OW33427   2.259   4.379   7.454 -0.2758 -0.4374  0.4991
 7265SOL    HW133428   2.296   4.461   7.486 -1.0439  0.5263 -1.0689
 7265SOL    HW233429   2.298   4.317   7.515 -1.0481 -1.3657  0.0573
 7266SOL     OW33430   2.231   0.822   7.527  0.1517 -0.0838  0.0451
 7266SOL    HW133431   2.173   0.779   7.589 -1.2609 -3.1518 -3.4167
 7266SOL    HW233432   2.228   0.906   7.573 -0.5246 -0.7081  1.1325
 7267SOL     OW33433   2.905   2.445   0.163  0.3277 -0.9960 -0.0423
 7267SOL    HW133434   2.855   2.522   0.135 -1.3197 -2.5598 -1.4836
 7267SOL    HW233435   2.843   2.413   0.229 -0.2817 -0.4851 -0.3664
 7268SOL     OW33436   0.328   4.691   2.848 -0.7946  0.5125 -0.5554
 7268SOL    HW133437   0.341   4.596   2.848 -0.3140  0.5759 -1.0448
 7268SOL    HW233438   0.344   4.703   2.942 -1.1723  0.7433 -0.5210
 7269SOL     OW33439   4.472   4.387  12.036 -0.1237  0.1015  0.3594
 7269SOL    HW133440   4.381   4.410  12.054  0.1829 -0.1070  2.1422
 7269SOL    HW233441   4.516   4.470  12.053  0.8618 -0.3552  0.0653
 7270SOL     OW33442   1.704   0.101   4.429 -0.0488  0.1675 -0.0957
 7270SOL    HW133443   1.706   0.017   4.474  1.3022  0.0446 -0.3886
 7270SOL    HW233444   1.670   0.068   4.346 -0.7427  0.9328 -0.1160
 7271SOL     OW33445   1.726   1.769   7.592 -0.1342  0.0110 -0.4763
 7271SOL    HW133446   1.678   1.755   7.511  1.5966 -0.9268 -1.3349
 7271SOL    HW233447   1.794   1.702   7.600 -0.9388 -0.7312  0.0934
 7272SOL     OW33448   1.528   1.763  15.532  0.9492  0.0608  0.3736
 7272SOL    HW133449   1.574   1.744  15.614  1.8483 -0.5197 -0.2643
 7272SOL    HW233450   1.568   1.691  15.484  2.4889 -0.2243  2.1036
 7273SOL     OW33451   3.372   4.626   7.247 -0.3939  0.2258 -0.0651
 7273SOL    HW133452   3.431   4.702   7.245 -0.5191  0.2527 -2.5419
 7273SOL    HW233453   3.347   4.619   7.155  0.5833 -1.0002 -0.2350
 7274SOL     OW33454   2.419   1.142   5.179  0.7116  0.0505 -0.1507
 7274SOL    HW133455   2.453   1.068   5.129  0.3955  0.5891 -1.1619
 7274SOL    HW233456   2.498   1.153   5.231  0.0718  1.1507  0.5962
 7275SOL     OW33457   3.925   0.316  14.515  0.6936 -0.0127  0.0851
 7275SOL    HW133458   3.853   0.262  14.485 -0.1240  1.2740 -0.2624
 7275SOL    HW233459   3.886   0.402  14.499 -0.7162 -0.2632  2.1703
 7276SOL     OW33460   0.452   2.535   1.377 -0.3348 -0.3063 -0.3482
 7276SOL    HW133461   0.512   2.583   1.434  1.9254 -1.0142 -2.1368
 7276SOL    HW233462   0.490   2.447   1.389  3.2328  1.0010 -2.2420
 7277SOL     OW33463   4.555   2.849   9.169  0.2019  0.1229  0.8132
 7277SOL    HW133464   4.584   2.940   9.176  2.8999 -0.7168  0.5037
 7277SOL    HW233465   4.640   2.806   9.177 -0.4670 -1.0327  1.7105
 7278SOL     OW33466   2.759   1.485   1.722  0.2048  0.1183 -0.2079
 7278SOL    HW133467   2.829   1.437   1.766  0.2622  0.5783  0.2072
 7278SOL    HW233468   2.700   1.410   1.726 -1.0970  1.0078 -2.4569
 7279SOL     OW33469   3.496   0.802   8.300  0.3263  0.0842 -0.1362
 7279SOL    HW133470   3.529   0.797   8.390  1.0676  0.8864 -0.3632
 7279SOL    HW233471   3.580   0.819   8.256  2.0146  2.5054  3.9524
 7280SOL     OW33472   4.697   2.606   5.789  0.0100  0.0929 -0.2715
 7280SOL    HW133473   4.686   2.621   5.883  0.6303 -1.0784 -0.0165
 7280SOL    HW233474   0.047   2.641   5.772 -0.1576  1.0724  0.8740
 7281SOL     OW33475   2.990   1.216   4.927 -0.0714  0.2728  0.4748
 7281SOL    HW133476   3.011   1.134   4.881  0.7099 -0.4519  2.1406
 7281SOL    HW233477   3.072   1.263   4.913 -0.4492  0.3759 -1.5179
 7282SOL     OW33478   2.529   3.458   1.433 -0.1154 -0.5477  0.2864
 7282SOL    HW133479   2.559   3.463   1.524  1.1412 -0.6089 -0.1252
 7282SOL    HW233480   2.616   3.446   1.393  0.4945 -1.7895  1.9736
 7283SOL     OW33481   2.940   3.337   1.615 -0.7070 -0.5710 -0.0174
 7283SOL    HW133482   2.923   3.351   1.708  1.2640  3.4791 -0.2796
 7283SOL    HW233483   3.033   3.315   1.609 -0.1706  1.5432  0.4601
 7284SOL     OW33484   3.342   3.911  11.484 -0.2979  0.1824 -0.3902
 7284SOL    HW133485   3.419   3.855  11.476  0.2511  0.4369  3.0887
 7284SOL    HW233486   3.307   3.901  11.396 -1.2927 -1.7422  0.2107
 7285SOL     OW33487   3.323   0.986   1.243 -0.3545 -0.6129 -0.2708
 7285SOL    HW133488   3.375   0.906   1.254  0.4670 -0.0747 -0.2259
 7285SOL    HW233489   3.260   0.960   1.176 -1.9937  1.2943  0.5318
 7286SOL     OW33490   2.927   2.801  10.870  0.5724 -0.6494 -0.3003
 7286SOL    HW133491   2.962   2.854  10.798  2.1469 -2.5735 -0.9420
 7286SOL    HW233492   2.835   2.802  10.846  0.3985  0.3850  0.4203
 7287SOL     OW33493   4.672   1.875   8.048 -0.4036  0.3441  0.1120
 7287SOL    HW133494   4.635   1.955   8.085 -2.5578 -0.0768 -1.0946
 7287SOL    HW233495   4.730   1.835   8.113 -1.4731 -0.8150  0.3587
 7288SOL     OW33496   3.151   3.909   7.091  0.0858  0.4141 -0.9855
 7288SOL    HW133497   3.234   3.912   7.139  0.6250 -0.1009 -1.8781
 7288SOL    HW233498   3.175   3.835   7.035 -0.4905  0.8831 -1.8410
 7289SOL     OW33499   2.264   3.017  10.749 -0.4412  0.3568  0.4786
 7289SOL    HW133500   2.183   3.065  10.735  0.6930  2.0647 -0.3467
 7289SOL    HW233501   2.256   3.009  10.843  0.8426  0.9661  0.6507
 7290SOL     OW33502   3.619   4.592   7.680  0.5944 -0.2091 -0.0901
 7290SOL    HW133503   3.594   4.587   7.773 -2.7475 -3.5172 -1.1776
 7290SOL    HW233504   3.548   4.536   7.650  0.9827 -1.3081  1.0621
 7291SOL     OW33505   3.816   1.981   4.882  0.2922 -0.3290 -0.0180
 7291SOL    HW133506   3.881   1.944   4.823 -0.1077 -1.1681  0.0743
 7291SOL    HW233507   3.876   2.025   4.943  0.6044 -0.3106 -0.3368
 7292SOL     OW33508   1.058   3.312   3.034  0.2410  0.4950 -0.0154
 7292SOL    HW133509   1.038   3.405   3.048  1.5967  0.9072 -0.9443
 7292SOL    HW233510   1.143   3.322   2.993  0.9160 -0.9559  1.0414
 7293SOL     OW33511   0.717   2.673   9.093 -0.4450 -0.4054  0.0568
 7293SOL    HW133512   0.632   2.631   9.077 -0.9782  0.1324  1.5486
 7293SOL    HW233513   0.689   2.764   9.082  0.9346  0.1733  1.3558
 7294SOL     OW33514   0.290   1.457   8.341  0.6529  0.0415  0.1873
 7294SOL    HW133515   0.311   1.536   8.390  0.7043  1.4631 -2.1392
 7294SOL    HW233516   0.194   1.454   8.339  0.8158 -3.5057 -1.9102
 7295SOL     OW33517   2.746   2.662   1.581 -0.2473 -0.5442  0.3916
 7295SOL    HW133518   2.705   2.741   1.615 -0.0165  0.1309 -0.9161
 7295SOL    HW233519   2.823   2.702   1.539  0.5799 -0.0160  2.4027
 7296SOL     OW33520   2.378   2.835  17.069  0.2857  0.0144  0.4964
 7296SOL    HW133521   2.401   2.853  17.160 -1.4693  0.8327  0.7640
 7296SOL    HW233522   2.298   2.887  17.059  0.0404 -0.5953 -0.6949
 7297SOL     OW33523   2.606   1.320  12.017  0.1895  0.3377 -0.0454
 7297SOL    HW133524   2.512   1.329  12.033  0.5068 -1.6328  2.7569
 7297SOL    HW233525   2.640   1.344  12.103  1.1297  0.8668 -0.5645
 7298SOL     OW33526   3.479   1.796   1.389 -0.1099 -0.4427 -0.2310
 7298SOL    HW133527   3.393   1.818   1.424  0.4011  0.1020  0.6884
 7298SOL    HW233528   3.523   1.880   1.400 -0.4939 -0.1798 -0.7578
 7299SOL     OW33529   3.212   1.404  11.682  0.3142  0.7596 -0.6066
 7299SOL    HW133530   3.216   1.310  11.702  1.7164  0.8625 -0.4283
 7299SOL    HW233531   3.269   1.440  11.749 -1.1204 -0.6260  1.3687
 7300SOL     OW33532   2.222   0.148  13.468  0.1524  0.4234 -0.0720
 7300SOL    HW133533   2.292   0.182  13.413  1.5016 -0.3887  1.1705
 7300SOL    HW233534   2.156   0.218  13.464  0.0852  0.3844  0.3246
 7301SOL     OW33535   3.852   0.930   3.114 -0.2458  0.0088 -0.6323
 7301SOL    HW133536   3.856   1.018   3.152 -0.0650 -0.3804  0.2286
 7301SOL    HW233537   3.758   0.922   3.097 -0.2275 -2.6644  0.6902
 7302SOL     OW33538   1.887   3.800  10.327 -0.4150 -0.3851 -0.1068
 7302SOL    HW133539   1.862   3.885  10.362  0.6475  0.0943 -0.5257
 7302SOL    HW233540   1.914   3.752  10.406 -1.4032  2.1411  1.7467
 7303SOL     OW33541   3.514   1.764   3.231  0.4798 -0.3366 -0.4737
 7303SOL    HW133542   3.590   1.822   3.237  1.6819 -1.7651 -1.6507
 7303SOL    HW233543   3.472   1.768   3.317  0.9054  1.9376 -0.3730
 7304SOL     OW33544   0.408   3.845  12.340  0.0584 -0.2444  0.3246
 7304SOL    HW133545   0.493   3.887  12.328  0.1557 -0.4903  0.1331
 7304SOL    HW233546   0.359   3.862  12.259 -0.1877  0.2175  0.5744
 7305SOL     OW33547   2.477   3.207  11.202  0.5080 -0.2707 -0.3446
 7305SOL    HW133548   2.569   3.216  11.230  0.7430 -1.1395 -0.8278
 7305SOL    HW233549   2.443   3.278  11.256  0.2639 -0.3800 -0.3584
 7306SOL     OW33550   3.083   3.555   7.576 -0.3566  0.1774 -0.2343
 7306SOL    HW133551   3.071   3.532   7.483  0.5638 -1.2326  0.0012
 7306SOL    HW233552   3.034   3.637   7.564 -0.4828  0.2868  1.0717
 7307SOL     OW33553   4.483   2.353  13.844  0.4555 -0.0506 -0.2263
 7307SOL    HW133554   4.536   2.334  13.766  1.0761  0.3402  0.0984
 7307SOL    HW233555   4.457   2.438  13.807  0.4780  0.3708  0.7357
 7308SOL     OW33556   1.932   3.543   7.320  0.3216 -0.2075  0.2254
 7308SOL    HW133557   1.933   3.455   7.284  1.2547 -0.5398  1.0750
 7308SOL    HW233558   2.014   3.575   7.281 -0.1444 -0.2708 -0.7983
 7309SOL     OW33559   4.595   2.799   6.471 -0.3130 -0.0664 -0.0524
 7309SOL    HW133560   4.566   2.721   6.424  0.5151  1.0079 -2.3607
 7309SOL    HW233561   4.687   2.811   6.445  0.2442 -1.1830  1.3574
 7310SOL     OW33562   3.848   0.946  13.134 -0.1705 -0.5457  0.2479
 7310SOL    HW133563   3.873   0.958  13.226  0.3851  1.0985 -0.1168
 7310SOL    HW233564   3.926   0.900  13.101  0.6252  1.4203 -0.5801
 7311SOL     OW33565   1.658   3.341   1.034  0.0068 -0.1091  0.4095
 7311SOL    HW133566   1.599   3.283   1.082  1.8472  0.1501  2.9904
 7311SOL    HW233567   1.737   3.356   1.086 -0.7946  0.2441  1.5247
 7312SOL     OW33568   0.929   0.938   1.297 -0.4085 -0.2525  0.5377
 7312SOL    HW133569   1.022   0.925   1.313 -0.7976 -0.9293  2.1649
 7312SOL    HW233570   0.931   1.030   1.270 -0.3977 -0.4102 -0.0044
 7313SOL     OW33571   1.536   2.577  16.779 -0.4797 -0.0323  0.0640
 7313SOL    HW133572   1.480   2.536  16.844 -0.6209  0.2882  0.1447
 7313SOL    HW233573   1.476   2.592  16.705  0.3172  0.2985 -0.5110
 7314SOL     OW33574   0.444   4.203   6.255 -0.0217  0.0300 -0.1624
 7314SOL    HW133575   0.357   4.242   6.250 -0.1679  0.0065  1.9674
 7314SOL    HW233576   0.451   4.160   6.170 -0.6315  2.5078 -1.4728
 7315SOL     OW33577   2.417   0.069   1.464  0.0296 -0.0158  0.1868
 7315SOL    HW133578   2.363   0.137   1.505 -1.5553 -1.5520  0.6650
 7315SOL    HW233579   2.370   4.726   1.485  0.2457  0.1434  1.2640
 7316SOL     OW33580   1.158   2.865   7.802 -0.1658  0.2860  0.2307
 7316SOL    HW133581   1.105   2.913   7.865 -2.7222 -2.3197  0.0851
 7316SOL    HW233582   1.094   2.796   7.785 -1.8279  1.6511  0.9669
 7317SOL     OW33583   4.012   0.010  17.271 -0.0198  0.1308 -0.2731
 7317SOL    HW133584   3.927   0.013  17.227 -0.6193  0.0981  0.8788
 7317SOL    HW233585   4.042   4.657  17.268 -0.5777 -0.0172 -1.4527
 7318SOL     OW33586   1.189   3.339   6.275  0.2864 -0.2309  0.1471
 7318SOL    HW133587   1.163   3.277   6.343 -0.5438 -0.5469 -0.4550
 7318SOL    HW233588   1.284   3.344   6.283  0.2634  1.8490 -0.9572
 7319SOL     OW33589   0.165   0.366  12.533  0.8168 -0.5185 -0.2425
 7319SOL    HW133590   0.157   0.372  12.438 -0.7033  1.5215  0.0244
 7319SOL    HW233591   0.147   0.273  12.547 -1.1520 -0.4294 -2.3502
 7320SOL     OW33592   3.913   0.388   2.524  0.4377 -0.0553 -0.7191
 7320SOL    HW133593   3.876   0.384   2.612  1.2867 -3.5694 -0.5335
 7320SOL    HW233594   3.890   0.478   2.498  0.2272 -0.2583 -1.2364
 7321SOL     OW33595   3.589   2.207   4.010 -0.2015 -0.0763 -0.1942
 7321SOL    HW133596   3.508   2.258   4.004 -0.1983  0.1295  1.6251
 7321SOL    HW233597   3.643   2.265   3.956  0.5198 -1.6516 -1.1542
 7322SOL     OW33598   4.711   4.622   6.557  0.0331 -0.6290 -0.1239
 7322SOL    HW133599   4.725   4.696   6.615  0.7357 -0.3177 -0.6957
 7322SOL    HW233600   4.665   4.556   6.609 -0.4867 -0.3794 -0.2659
 7323SOL     OW33601   3.531   3.965   2.894 -1.0921 -0.8533 -0.0122
 7323SOL    HW133602   3.552   4.041   2.839  2.1917 -0.0648  2.3296
 7323SOL    HW233603   3.533   3.997   2.984  0.9367 -0.1114 -0.3276
 7324SOL     OW33604   0.602   2.911   8.945 -0.0719  0.2753 -0.1033
 7324SOL    HW133605   0.675   2.966   8.919 -0.5081 -0.8175 -3.5853
 7324SOL    HW233606   0.568   2.886   8.859  2.0388 -1.6104 -0.3855
 7325SOL     OW33607   2.200   1.947   4.158 -0.0442  0.5839 -0.6023
 7325SOL    HW133608   2.206   1.998   4.077 -1.4754 -0.6821 -1.5136
 7325SOL    HW233609   2.171   1.864   4.120  0.5332 -0.6454  1.6701
 7326SOL     OW33610   2.945   1.454   3.053  0.0522  0.0998 -0.1631
 7326SOL    HW133611   3.010   1.386   3.035  2.1393  2.6243 -2.2273
 7326SOL    HW233612   2.946   1.498   2.968  1.7586 -1.1752 -0.7944
 7327SOL     OW33613   4.062   2.408   1.001 -0.0175  0.0776  0.0676
 7327SOL    HW133614   4.082   2.315   0.986  0.2911 -0.2697  2.6444
 7327SOL    HW233615   4.142   2.446   1.038  0.1793 -0.4854  0.2165
 7328SOL     OW33616   3.048   3.212   8.350  0.1672 -0.3554  0.3800
 7328SOL    HW133617   3.047   3.178   8.261 -0.7240  0.0738  0.2211
 7328SOL    HW233618   2.969   3.169   8.383 -0.1544 -0.2050 -0.1842
 7329SOL     OW33619   2.677   2.177   9.922 -0.3415 -0.2969 -0.2798
 7329SOL    HW133620   2.585   2.203   9.931 -0.2720 -0.0819 -0.2089
 7329SOL    HW233621   2.692   2.181  10.017  0.3986  0.4269 -0.4333
 7330SOL     OW33622   3.172   2.347   1.886 -0.3821 -0.0101 -0.2427
 7330SOL    HW133623   3.142   2.417   1.827 -0.4088 -0.7274 -1.0900
 7330SOL    HW233624   3.230   2.299   1.827 -0.0587  0.5424 -0.3706
 7331SOL     OW33625   1.212   4.022   6.380  0.0823  0.1296  0.1209
 7331SOL    HW133626   1.277   3.978   6.435  0.9923  1.2137 -0.0658
 7331SOL    HW233627   1.167   3.939   6.363  0.9318  0.5646 -4.3018
 7332SOL     OW33628   1.033   3.682   5.986 -0.0774 -0.3326 -0.3434
 7332SOL    HW133629   0.946   3.699   5.952  0.3578  0.8129 -0.8609
 7332SOL    HW233630   1.007   3.596   6.020 -1.3625 -0.7936 -2.5118
 7333SOL     OW33631   2.303   3.158  15.189 -0.5745  0.4896 -0.1843
 7333SOL    HW133632   2.324   3.065  15.185  1.1914  1.0129 -3.3309
 7333SOL    HW233633   2.386   3.205  15.184 -0.7623  0.6257 -2.2375
 7334SOL     OW33634   4.348   3.312  11.524  0.2115  0.8008  0.1125
 7334SOL    HW133635   4.328   3.222  11.552  0.8328  0.1751 -1.4374
 7334SOL    HW233636   4.426   3.328  11.578  0.0895 -0.0892  0.5615
 7335SOL     OW33637   1.743   3.122   2.625  0.3156 -0.4313  0.1765
 7335SOL    HW133638   1.657   3.086   2.602 -0.2008  0.5091  0.6308
 7335SOL    HW233639   1.720   3.166   2.707  0.7685 -1.4328  0.8443
 7336SOL     OW33640   1.808   1.046   1.956 -0.6258 -0.0707  0.1069
 7336SOL    HW133641   1.788   0.991   2.032 -1.5938  1.0563  0.6539
 7336SOL    HW233642   1.859   1.106   2.011  0.9896 -1.8808  0.5932
 7337SOL     OW33643   2.285   1.485  14.783 -0.7373  0.5989  0.4803
 7337SOL    HW133644   2.311   1.572  14.812 -0.9647  0.7126  0.3431
 7337SOL    HW233645   2.212   1.509  14.727 -0.7815 -1.2135 -0.2480
 7338SOL     OW33646   0.947   2.170   2.447 -0.3355  0.7749 -0.0335
 7338SOL    HW133647   1.041   2.169   2.427 -0.2326 -1.0586  0.6142
 7338SOL    HW233648   0.908   2.136   2.366 -1.0062 -0.5876  0.8795
 7339SOL     OW33649   4.111   4.588   8.864 -0.2921 -0.3916 -0.6170
 7339SOL    HW133650   4.158   4.613   8.784  0.1477  1.7703  0.3266
 7339SOL    HW233651   4.081   4.674   8.892  1.6527  0.2905 -0.6430
 7340SOL     OW33652   3.237   1.350   4.878 -0.2297 -1.0038  0.2695
 7340SOL    HW133653   3.211   1.441   4.885  1.8334 -0.4837  1.0207
 7340SOL    HW233654   3.313   1.353   4.935 -0.0480  1.0946 -0.0836
 7341SOL     OW33655   1.776   3.029  12.702  0.1154  0.3773  0.2367
 7341SOL    HW133656   1.838   3.075  12.645  0.3976 -1.3930 -0.8972
 7341SOL    HW233657   1.725   2.975  12.642 -1.0814  0.6022  1.0527
 7342SOL     OW33658   2.197   2.715   4.377 -0.3857 -0.1873  0.3590
 7342SOL    HW133659   2.241   2.661   4.443  2.4238  1.1865 -0.3979
 7342SOL    HW233660   2.104   2.710   4.398 -0.1618  0.7101  1.5763
 7343SOL     OW33661   2.800   2.551   7.447 -0.4829  0.1200  0.0539
 7343SOL    HW133662   2.777   2.631   7.494 -1.6521  0.2855 -0.7825
 7343SOL    HW233663   2.720   2.539   7.395 -1.4996  2.1628  1.1459
 7344SOL     OW33664   3.625   0.166   3.561 -0.2441 -0.2208  0.2411
 7344SOL    HW133665   3.596   0.237   3.619 -2.2181  0.7263 -1.9207
 7344SOL    HW233666   3.628   0.092   3.622 -1.6238 -0.5735 -0.1132
 7345SOL     OW33667   0.191   4.057   3.147  0.4744  0.6239 -0.4625
 7345SOL    HW133668   0.246   3.991   3.190 -0.7030 -1.5148 -2.2303
 7345SOL    HW233669   0.266   4.101   3.107  0.2121  0.8938 -0.6574
 7346SOL     OW33670   4.670   2.337   5.680  0.3547  0.3880  0.1660
 7346SOL    HW133671   4.695   2.420   5.722 -0.0609  0.3835  0.4203
 7346SOL    HW233672   4.606   2.374   5.620  0.4200 -0.1936 -0.2644
 7347SOL     OW33673   3.140   3.020   9.331 -0.1348  0.0107  0.5057
 7347SOL    HW133674   3.146   2.930   9.361 -0.4215 -0.0519  0.3712
 7347SOL    HW233675   3.047   3.020   9.310  0.1023 -0.3666 -0.5254
 7348SOL     OW33676   2.700   3.345   3.237  0.2380 -0.1099 -0.3127
 7348SOL    HW133677   2.643   3.418   3.261 -0.9916 -0.8409 -1.0247
 7348SOL    HW233678   2.764   3.338   3.309 -0.3313 -1.2511  0.0844
 7349SOL     OW33679   0.199   1.214  16.536 -0.0820 -0.1458  0.7221
 7349SOL    HW133680   0.217   1.261  16.455  1.2300 -2.8971 -0.5488
 7349SOL    HW233681   0.287   1.200  16.570  0.9621 -0.7546 -2.2551
 7350SOL     OW33682   0.688   4.217  14.549  0.2032 -0.1043 -0.3512
 7350SOL    HW133683   0.617   4.223  14.612 -0.4420  0.9662 -1.1870
 7350SOL    HW233684   0.768   4.209  14.601 -0.7092 -0.7863  0.9320
 7351SOL     OW33685   2.676   3.761   7.625 -0.3183 -0.5296 -0.4134
 7351SOL    HW133686   2.605   3.812   7.586 -0.1867  1.3236  1.7358
 7351SOL    HW233687   2.661   3.777   7.718  0.1493  0.0129 -0.4277
 7352SOL     OW33688   2.001   1.184   2.088  0.0017  0.0923  0.3122
 7352SOL    HW133689   2.087   1.210   2.121  1.6997 -2.9002 -1.8123
 7352SOL    HW233690   1.956   1.267   2.108 -1.2589 -0.5553  0.1865
 7353SOL     OW33691   3.611   1.830   8.131 -0.3473 -0.1534 -0.2476
 7353SOL    HW133692   3.524   1.793   8.146 -0.8871  0.8432 -0.8817
 7353SOL    HW233693   3.614   1.893   8.204  2.3378 -1.1071  0.4588
 7354SOL     OW33694   0.198   1.000   3.222 -0.0759 -0.1497 -0.2660
 7354SOL    HW133695   0.280   1.049   3.235  0.4564 -1.3658  0.9835
 7354SOL    HW233696   0.160   1.034   3.141  0.0019  0.1850 -0.1625
 7355SOL     OW33697   0.345   4.392   4.145 -0.0114 -0.7575 -0.4689
 7355SOL    HW133698   0.345   4.366   4.237 -2.7190  0.1716 -0.1971
 7355SOL    HW233699   0.383   4.317   4.099  2.4114  0.0903  0.1891
 7356SOL     OW33700   3.864   1.033   6.840  0.0360 -0.1992 -0.1435
 7356SOL    HW133701   3.906   1.080   6.768  2.1423  1.1085  1.9756
 7356SOL    HW233702   3.928   0.963   6.853  1.4170  0.7725 -1.7660
 7357SOL     OW33703   3.504   1.108   1.888 -0.2491 -0.2369  0.0060
 7357SOL    HW133704   3.533   1.093   1.978 -2.4504  0.7843  0.8842
 7357SOL    HW233705   3.461   1.026   1.865 -0.6531 -0.0350  0.0487
 7358SOL     OW33706   4.399   0.347   5.912  0.6892 -0.1087 -0.0584
 7358SOL    HW133707   4.465   0.295   5.865  1.3685 -0.9539  1.8448
 7358SOL    HW233708   4.446   0.431   5.914 -0.7596  0.6756  0.8797
 7359SOL     OW33709   1.043   0.785   6.089  0.4653 -0.2617 -0.9294
 7359SOL    HW133710   1.057   0.724   6.017 -0.4273 -0.2372 -1.1274
 7359SOL    HW233711   1.080   0.864   6.049 -1.2066  0.9021 -0.1750
 7360SOL     OW33712   3.088   3.542   3.348 -0.0925 -0.2100  0.1933
 7360SOL    HW133713   3.105   3.612   3.410  0.1672  0.6270 -0.8318
 7360SOL    HW233714   3.165   3.486   3.360 -0.2550 -0.5403 -0.2746
 7361SOL     OW33715   2.540   2.120  15.061 -0.4301 -0.5683  0.2156
 7361SOL    HW133716   2.581   2.204  15.082 -1.3368 -0.1356  0.2794
 7361SOL    HW233717   2.571   2.062  15.131 -1.5623 -0.6986  0.6141
 7362SOL     OW33718   2.272   1.691  10.644  0.0228 -0.0570  0.0311
 7362SOL    HW133719   2.340   1.723  10.586  0.6506 -0.5154  0.5098
 7362SOL    HW233720   2.203   1.685  10.578  0.0785  0.0260 -0.0353
 7363SOL     OW33721   4.204   1.150  12.180 -0.1238  0.2774 -0.0980
 7363SOL    HW133722   4.160   1.234  12.185  0.5973  0.6847 -0.6169
 7363SOL    HW233723   4.238   1.164  12.092 -0.8727 -0.8919 -0.5729
 7364SOL     OW33724   3.941   4.701   5.526  0.0789  0.3385  0.3455
 7364SOL    HW133725   3.985   4.653   5.597  1.3258  0.5911 -0.2453
 7364SOL    HW233726   3.850   4.675   5.536  0.0657  0.5860  0.8664
 7365SOL     OW33727   1.920   2.731   6.574 -0.4884  0.1904  0.1547
 7365SOL    HW133728   1.833   2.709   6.541  0.1082 -1.7653 -0.0623
 7365SOL    HW233729   1.913   2.827   6.565  3.2714  0.4137 -0.4114
 7366SOL     OW33730   4.519   4.502   0.033  0.6967 -0.2657 -0.6469
 7366SOL    HW133731   4.435   4.464   0.058  0.4890  0.6079 -0.0155
 7366SOL    HW233732   4.561   4.510   0.119 -1.4943 -2.1836  0.6161
 7367SOL     OW33733   0.699   4.683   7.800  0.1366 -0.0376  0.5862
 7367SOL    HW133734   0.762   4.716   7.735 -0.3002  1.0288  0.7059
 7367SOL    HW233735   0.753   4.647   7.870  0.6776 -0.0023  0.1923
 7368SOL     OW33736   3.650   4.228  17.041 -0.0173 -0.1091  0.1895
 7368SOL    HW133737   3.611   4.143  17.019  1.3526 -0.9022  0.8632
 7368SOL    HW233738   3.601   4.258  17.117 -1.7243 -2.5890  0.0579
 7369SOL     OW33739   0.383   2.991   9.099  0.6933 -0.5326 -0.1631
 7369SOL    HW133740   0.458   2.951   9.056  0.4020 -0.2937 -0.8940
 7369SOL    HW233741   0.430   3.047   9.161 -0.8319  0.3575  0.1984
 7370SOL     OW33742   3.742   2.202   8.172 -0.9016  0.7550  0.1450
 7370SOL    HW133743   3.795   2.147   8.115 -0.7776 -1.3208  2.2857
 7370SOL    HW233744   3.693   2.142   8.229 -1.9155 -1.2540 -2.8428
 7371SOL     OW33745   1.311   0.060   2.859 -0.2036  0.5355  0.3510
 7371SOL    HW133746   1.253   0.034   2.930 -0.8791  1.9760  0.3192
 7371SOL    HW233747   1.329   0.145   2.898  1.6313  1.0256 -1.5792
 7372SOL     OW33748   3.285   3.474  11.892 -0.3290 -0.2539 -0.5640
 7372SOL    HW133749   3.309   3.566  11.890 -0.4345 -0.2037  0.5503
 7372SOL    HW233750   3.268   3.464  11.798  0.8467 -1.0142 -0.7009
 7373SOL     OW33751   0.006   4.557  10.968  0.5810  0.3097  0.2161
 7373SOL    HW133752   0.092   4.598  10.954  0.1012  1.3171  0.2299
 7373SOL    HW233753   0.042   4.470  10.985 -0.9839 -0.1535  1.1750
 7374SOL     OW33754   4.262   3.861  17.744  0.1582 -0.4371  0.1732
 7374SOL    HW133755   4.308   3.832  17.665 -2.5994  2.6329 -2.5538
 7374SOL    HW233756   4.330   3.923   0.021 -1.5765  0.8340  1.6298
 7375SOL     OW33757   2.398   3.444   1.184 -0.3160  0.4822 -0.6805
 7375SOL    HW133758   2.372   3.358   1.152  3.2800 -0.7820 -0.1510
 7375SOL    HW233759   2.410   3.427   1.278  0.1522  1.3225 -0.5848
 7376SOL     OW33760   0.150   1.394   5.589 -0.1410 -0.9474  0.3456
 7376SOL    HW133761   0.152   1.301   5.611 -1.5913 -0.4243  2.7163
 7376SOL    HW233762   0.245   1.406   5.596 -0.1075 -1.5785  0.9139
 7377SOL     OW33763   3.239   3.257   7.303  0.7233 -0.1700  0.0166
 7377SOL    HW133764   3.220   3.222   7.216  1.0112  0.4775 -0.3132
 7377SOL    HW233765   3.253   3.350   7.286  0.3078 -0.1101  0.0132
 7378SOL     OW33766   1.069   3.934   2.127 -0.5495  0.6812 -0.0383
 7378SOL    HW133767   1.130   3.968   2.061  1.2425  0.0061  1.2515
 7378SOL    HW233768   1.099   3.993   2.196 -0.3385  1.3502 -0.6976
 7379SOL     OW33769   3.457   2.811   9.692 -0.1558 -0.0599 -0.3467
 7379SOL    HW133770   3.368   2.847   9.696  0.1412  0.5295  0.8439
 7379SOL    HW233771   3.456   2.799   9.597 -1.5118 -1.9333 -0.1051
 7380SOL     OW33772   2.476   2.521   2.712 -0.2604 -0.1242  0.0187
 7380SOL    HW133773   2.452   2.434   2.745 -3.0389 -0.3548 -2.5902
 7380SOL    HW233774   2.549   2.510   2.652 -0.3425 -0.1560 -0.0751
 7381SOL     OW33775   3.835   2.352   3.574  0.1553 -0.3423 -0.0068
 7381SOL    HW133776   3.906   2.308   3.528  2.4305  0.5374  2.6192
 7381SOL    HW233777   3.874   2.344   3.662 -2.1577 -0.6175  0.9912
 7382SOL     OW33778   0.722   3.965  15.530  0.4419  0.1663  0.6229
 7382SOL    HW133779   0.787   3.975  15.600  0.5253  2.6102  0.1915
 7382SOL    HW233780   0.720   3.869  15.535 -1.0433  0.2433  1.5926
 7383SOL     OW33781   3.197   0.645   3.526 -0.7043  0.4232  0.5717
 7383SOL    HW133782   3.109   0.656   3.489 -2.4420  0.6379  4.7670
 7383SOL    HW233783   3.207   0.732   3.565 -1.5272  0.5787  0.4355
 7384SOL     OW33784   0.912   2.837  17.141 -0.5663 -0.2108 -0.0188
 7384SOL    HW133785   0.894   2.846  17.047 -0.2504  0.9474  0.0320
 7384SOL    HW233786   0.947   2.747  17.142  0.2985  0.1548  2.4095
 7385SOL     OW33787   1.695   3.325  17.653  0.1355  0.0999 -0.2121
 7385SOL    HW133788   1.656   3.239  17.635  0.2747 -0.2000  0.8734
 7385SOL    HW233789   1.748   3.338  17.575 -0.7915 -0.0849 -0.8664
 7386SOL     OW33790   4.050   0.342  15.892 -0.1328 -0.3090 -0.0146
 7386SOL    HW133791   4.107   0.279  15.935 -0.6953 -1.8711 -1.5659
 7386SOL    HW233792   4.087   0.420  15.933 -0.1850 -0.4822  0.3667
 7387SOL     OW33793   2.923   2.883   1.061  0.4465  0.4110 -0.8136
 7387SOL    HW133794   2.835   2.908   1.036  0.5869  0.2857 -1.4169
 7387SOL    HW233795   2.964   2.969   1.077 -0.8857  0.9190 -0.1131
 7388SOL     OW33796   1.445   0.575   8.802  0.5250 -0.4681 -0.6755
 7388SOL    HW133797   1.436   0.533   8.887  0.2765  1.8796  0.4770
 7388SOL    HW233798   1.359   0.556   8.766  0.1092 -0.5086  0.3505
 7389SOL     OW33799   3.368   3.425   6.873  0.7186  0.3226 -0.1562
 7389SOL    HW133800   3.409   3.464   6.796 -2.0165  1.6791 -0.9033
 7389SOL    HW233801   3.443   3.433   6.932  0.7832  3.7087 -0.7336
 7390SOL     OW33802   0.774   3.923  12.923  0.1442 -0.3127  0.5734
 7390SOL    HW133803   0.784   3.981  12.848  2.1222  1.3107  2.1031
 7390SOL    HW233804   0.703   3.865  12.897 -1.3561  1.6045  0.4574
 7391SOL     OW33805   0.062   0.183   0.523 -0.1426  0.3467 -0.3140
 7391SOL    HW133806   4.721   0.129   0.525  0.8611 -1.0462  0.8844
 7391SOL    HW233807   0.063   0.221   0.434  1.9886  1.1623  0.0524
 7392SOL     OW33808   3.332   4.400   1.627  0.1378  0.9713 -0.0149
 7392SOL    HW133809   3.375   4.458   1.565 -1.0855  0.0351 -1.7308
 7392SOL    HW233810   3.376   4.316   1.611  0.1074  0.6695  1.4856
 7393SOL     OW33811   3.741   3.255  10.980  0.2230 -0.2100  0.1183
 7393SOL    HW133812   3.667   3.289  11.030 -1.3670 -0.9854 -1.7113
 7393SOL    HW233813   3.798   3.331  10.974  0.3755 -0.4992 -1.9494
 7394SOL     OW33814   3.457   2.700   2.506 -0.2049  0.2378 -0.1097
 7394SOL    HW133815   3.442   2.740   2.420  0.5999  1.0463  0.1280
 7394SOL    HW233816   3.551   2.682   2.501 -0.0090  1.2476 -0.0663
 7395SOL     OW33817   4.103   1.116  12.776  0.5783  0.1240 -0.2885
 7395SOL    HW133818   4.012   1.133  12.802  0.2116  0.4901 -1.7732
 7395SOL    HW233819   4.116   1.033  12.821  2.0841 -0.3950 -1.6641
 7396SOL     OW33820   0.800   0.675   8.147 -0.2436  0.0413  0.0191
 7396SOL    HW133821   0.757   0.761   8.154 -0.6349 -0.0725 -0.9398
 7396SOL    HW233822   0.737   0.617   8.105 -0.2973 -0.0415  0.2134
 7397SOL     OW33823   1.787   4.139   8.274 -0.3885  0.0186  0.2621
 7397SOL    HW133824   1.777   4.171   8.363  0.1205  1.1880 -0.0943
 7397SOL    HW233825   1.694   4.139   8.249  0.7246 -0.4691 -3.8877
 7398SOL     OW33826   2.772   3.352   1.381 -0.2441  0.7680 -0.1060
 7398SOL    HW133827   2.835   3.351   1.453 -1.2925 -0.5443  0.8061
 7398SOL    HW233828   2.821   3.316   1.307  0.0098 -1.3106  1.0844
 7399SOL     OW33829   3.691   0.918   7.741  0.4155 -0.0031  0.5847
 7399SOL    HW133830   3.761   0.953   7.686  0.3424  0.8040  1.0037
 7399SOL    HW233831   3.678   0.981   7.813 -1.1747  1.7381 -1.2353
 7400SOL     OW33832   1.036   0.361  11.424  0.0172 -0.7386  0.4481
 7400SOL    HW133833   0.973   0.433  11.419  0.6155 -0.1808  0.8535
 7400SOL    HW233834   1.012   0.310  11.347  3.4998 -0.2039 -0.9873
 7401SOL     OW33835   0.614   3.928   8.871  0.9480 -0.3120 -0.1456
 7401SOL    HW133836   0.603   4.020   8.892 -0.0971 -0.5053  0.1443
 7401SOL    HW233837   0.699   3.915   8.913  0.5930  0.1419  0.7082
 7402SOL     OW33838   0.318   2.969  16.151 -0.2706  0.1376 -0.7181
 7402SOL    HW133839   0.296   2.877  16.166  1.5764 -0.2055 -0.0930
 7402SOL    HW233840   0.234   3.008  16.126 -0.4474  0.7812  0.9034
 7403SOL     OW33841   2.682   2.375   3.348 -0.0059  0.2800 -0.5838
 7403SOL    HW133842   2.687   2.399   3.441 -1.6760 -0.7943 -0.2040
 7403SOL    HW233843   2.592   2.400   3.328 -0.9707 -0.4499  2.7988
 7404SOL     OW33844   4.682   2.770   7.576  0.3673  0.4898  0.4892
 7404SOL    HW133845   0.006   2.697   7.575  0.7646  0.8112  1.4688
 7404SOL    HW233846   4.627   2.757   7.654  0.0147  0.0494  0.1638
 7405SOL     OW33847   4.195   1.004   6.660 -0.3037  0.3331 -0.4569
 7405SOL    HW133848   4.284   1.022   6.691 -0.8640  0.6162  0.9928
 7405SOL    HW233849   4.187   1.088   6.614  0.9326  0.8711  0.3251
 7406SOL     OW33850   3.851   4.220   6.532 -0.0643  0.1802 -0.1509
 7406SOL    HW133851   3.797   4.155   6.577 -0.9529  0.9643 -0.1074
 7406SOL    HW233852   3.837   4.190   6.442 -2.4765  2.8855 -0.6603
 7407SOL     OW33853   3.617   3.078   4.499  0.1672  0.1076  0.1531
 7407SOL    HW133854   3.704   3.099   4.535 -0.2124 -0.7273  1.5677
 7407SOL    HW233855   3.558   3.147   4.528 -0.4287 -0.1338 -0.5008
 7408SOL     OW33856   3.428   2.641   5.352  0.2339  0.5094  0.0760
 7408SOL    HW133857   3.343   2.683   5.365  1.4522  3.1274 -0.3554
 7408SOL    HW233858   3.408   2.553   5.383  0.2391  0.1955 -0.8311
 7409SOL     OW33859   1.038   3.332  14.627 -0.3651 -0.4059  0.1050
 7409SOL    HW133860   0.979   3.407  14.634 -2.3765 -2.0410  0.4749
 7409SOL    HW233861   1.049   3.300  14.717  1.2767 -0.2354 -0.0215
 7410SOL     OW33862   0.577   3.913   4.166  0.1300 -0.1715  0.5731
 7410SOL    HW133863   0.661   3.913   4.120  0.1682 -0.4966  0.6417
 7410SOL    HW233864   0.545   3.825   4.145 -0.3015  0.6265 -2.1337
 7411SOL     OW33865   4.055   2.188   8.578 -0.9160 -0.1362 -0.0025
 7411SOL    HW133866   4.128   2.212   8.634  0.0172  0.0323 -1.2764
 7411SOL    HW233867   3.983   2.216   8.634 -1.3094  1.0647 -1.0841
 7412SOL     OW33868   1.438   3.949   8.830 -0.7241  0.6330  0.4711
 7412SOL    HW133869   1.519   3.905   8.855  0.2910  0.9711 -2.2447
 7412SOL    HW233870   1.379   3.878   8.856 -0.6820 -0.3730 -2.2069
 7413SOL     OW33871   2.708   4.631   6.801 -0.3717 -0.4054  0.2592
 7413SOL    HW133872   2.649   4.628   6.876 -1.1116 -1.1136 -0.3469
 7413SOL    HW233873   2.777   4.569   6.823 -0.8057 -0.8651  0.3390
 7414SOL     OW33874   1.425   2.797   0.982  0.2943  0.2862  0.0157
 7414SOL    HW133875   1.467   2.712   0.974 -1.6786 -0.3355 -3.7420
 7414SOL    HW233876   1.337   2.762   0.965  0.0640 -0.2974  2.4033
 7415SOL     OW33877   2.969   2.063   2.757  0.2105 -0.1834  0.0367
 7415SOL    HW133878   3.059   2.070   2.724 -1.0224 -1.1879 -3.5128
 7415SOL    HW233879   2.937   2.153   2.765 -2.4731 -1.2993  1.5954
 7416SOL     OW33880   4.228   1.260   1.982 -0.2657  0.3672 -0.0330
 7416SOL    HW133881   4.248   1.177   1.939  1.4244  0.4448  0.6035
 7416SOL    HW233882   4.133   1.260   1.967 -0.4006 -1.2062  0.8869
 7417SOL     OW33883   3.836   1.935   3.399 -0.1033  0.4579 -0.7111
 7417SOL    HW133884   3.925   1.898   3.406  0.4850  1.7592 -1.3864
 7417SOL    HW233885   3.781   1.858   3.416  0.5643  0.3764  1.1436
 7418SOL     OW33886   0.248   1.947   2.381  0.5369 -0.1741  0.2882
 7418SOL    HW133887   0.285   1.905   2.458  1.8261  0.6925  0.1307
 7418SOL    HW233888   0.196   1.877   2.340 -1.7619  2.2862 -0.9667
 7419SOL     OW33889   2.201   3.745   7.617  0.0849  0.8206 -0.2927
 7419SOL    HW133890   2.248   3.667   7.588  0.8937  1.3235 -0.3459
 7419SOL    HW233891   2.119   3.746   7.568 -1.5982 -1.5755  2.5318
 7420SOL     OW33892   4.449   0.808   4.309  0.3715  0.7032  0.2606
 7420SOL    HW133893   4.397   0.826   4.231  1.0450  0.5054 -0.2346
 7420SOL    HW233894   4.469   0.899   4.335  1.6199  0.0189  1.7192
 7421SOL     OW33895   1.941   0.892  11.996  0.1322 -0.5655 -0.2444
 7421SOL    HW133896   1.856   0.849  11.992 -0.6194  1.0843 -2.1214
 7421SOL    HW233897   1.963   0.887  11.903 -0.4883  0.1231 -0.4300
 7422SOL     OW33898   4.083   2.190   8.308  0.0835 -0.8392  0.1028
 7422SOL    HW133899   4.076   2.181   8.403  0.0152 -1.3657  0.0522
 7422SOL    HW233900   4.059   2.281   8.294  0.0784 -0.9523 -0.6380
 7423SOL     OW33901   3.930   2.949   3.525 -0.2552  0.3874  0.3634
 7423SOL    HW133902   3.950   3.041   3.506  2.1843 -0.5344 -1.4791
 7423SOL    HW233903   4.017   2.909   3.529  0.3415  1.3853 -2.3644
 7424SOL     OW33904   2.974   0.980   8.491  0.2036  0.1449  0.4012
 7424SOL    HW133905   2.954   1.073   8.502 -1.4320  0.4804 -5.2008
 7424SOL    HW233906   3.070   0.980   8.495  0.1066  0.2100  2.6256
 7425SOL     OW33907   1.725   3.341  10.742 -0.0630 -0.0329  0.2559
 7425SOL    HW133908   1.671   3.262  10.749 -0.3912 -0.0081 -2.0409
 7425SOL    HW233909   1.771   3.322  10.660 -0.1407  0.9322 -0.0100
 7426SOL     OW33910   2.611   3.093  12.116 -0.0275  0.5017 -0.2451
 7426SOL    HW133911   2.549   3.166  12.115 -0.1780  0.2929 -3.5863
 7426SOL    HW233912   2.585   3.035  12.045  1.7280  0.5222 -0.9184
 7427SOL     OW33913   3.618   2.367   2.341 -0.0488 -0.0378  0.6530
 7427SOL    HW133914   3.628   2.391   2.433 -0.9927 -0.1955  0.7961
 7427SOL    HW233915   3.561   2.291   2.341  0.3821 -0.3616  0.1323
 7428SOL     OW33916   0.160   2.024   6.419  0.5013  0.4027  0.0129
 7428SOL    HW133917   0.150   2.035   6.324  0.2953 -2.6367 -0.3196
 7428SOL    HW233918   0.237   1.967   6.416 -0.3565 -0.8561  2.2860
 7429SOL     OW33919   0.617   1.728   4.076 -0.4754 -0.6397 -0.3250
 7429SOL    HW133920   0.616   1.678   4.157 -1.1110 -1.3686 -0.7803
 7429SOL    HW233921   0.620   1.660   4.008  1.3103 -0.3795 -0.4898
 7430SOL     OW33922   4.434   0.317   7.947  0.5641 -0.6222 -0.2742
 7430SOL    HW133923   4.502   0.251   7.938 -0.0155 -1.4405  1.3383
 7430SOL    HW233924   4.489   0.372   7.891 -2.7235 -0.7878 -3.6899
 7431SOL     OW33925   2.158   3.483   2.194  0.1570  0.1330 -0.1168
 7431SOL    HW133926   2.224   3.495   2.126 -0.4277 -0.3377 -0.7750
 7431SOL    HW233927   2.111   3.564   2.175 -0.9977 -0.5719 -0.2497
 7432SOL     OW33928   2.885   1.825  13.375 -0.0204 -0.0476  0.3743
 7432SOL    HW133929   2.861   1.917  13.367 -2.0942 -0.1967  4.3971
 7432SOL    HW233930   2.954   1.813  13.310  1.6550  0.0313  2.1180
 7433SOL     OW33931   2.781   1.039   3.969 -0.2630 -0.4581  0.1274
 7433SOL    HW133932   2.805   0.975   4.036 -2.8426 -2.2018 -0.6021
 7433SOL    HW233933   2.689   1.023   3.951  0.0446 -1.7952 -0.2915
 7434SOL     OW33934   3.593   0.808   2.424  0.8441 -0.1891  0.0109
 7434SOL    HW133935   3.522   0.815   2.360  1.3227  0.5463 -0.4517
 7434SOL    HW233936   3.562   0.876   2.484  1.3570  0.9966 -1.0581
 7435SOL     OW33937   3.670   4.076   9.399 -0.8576  0.2010  0.0333
 7435SOL    HW133938   3.695   4.162   9.365 -2.0391  1.1843  1.6076
 7435SOL    HW233939   3.693   4.085   9.491  1.4627  0.5284 -0.5802
 7436SOL     OW33940   3.224   3.373   9.408  1.0073  0.1498 -0.2330
 7436SOL    HW133941   3.296   3.314   9.431  0.0986 -1.3461 -1.2236
 7436SOL    HW233942   3.250   3.392   9.318 -2.2906 -2.0313 -1.6693
 7437SOL     OW33943   1.796   0.174   4.039 -0.0069  0.1624 -0.4122
 7437SOL    HW133944   1.838   0.190   3.955  0.5234  1.6398  0.1447
 7437SOL    HW233945   1.854   0.217   4.101 -1.1203 -0.3080  0.9669
 7438SOL     OW33946   2.267   1.758  14.778  0.2253 -0.0043  0.0343
 7438SOL    HW133947   2.231   1.847  14.769 -1.2946 -0.4373  1.8032
 7438SOL    HW233948   2.297   1.751  14.688 -0.9405 -2.8250 -0.1138
 7439SOL     OW33949   4.532   0.221   2.413 -0.0228  0.0041 -0.3755
 7439SOL    HW133950   4.513   0.129   2.436 -0.2969  0.0307 -0.4998
 7439SOL    HW233951   4.477   0.230   2.335 -0.3574  0.8234 -0.0433
 7440SOL     OW33952   2.829   2.401   9.725  0.7059 -0.1018 -0.1486
 7440SOL    HW133953   2.804   2.422   9.815 -0.5363  0.9485 -0.7476
 7440SOL    HW233954   2.744   2.387   9.684  1.2083 -1.1257 -0.8450
 7441SOL     OW33955   0.056   4.064   5.543  0.1969  0.4307  0.2031
 7441SOL    HW133956   0.148   4.077   5.522 -0.3833  0.6785 -2.1187
 7441SOL    HW233957   0.034   4.097   5.457  2.1520 -0.5285 -0.6780
 7442SOL     OW33958   2.838   1.999   1.893 -0.1843  0.1978 -0.1644
 7442SOL    HW133959   2.916   2.026   1.942  0.5887 -1.6723 -0.3836
 7442SOL    HW233960   2.831   1.906   1.915  0.1065  0.0040 -0.8956
 7443SOL     OW33961   0.184   0.862  13.659 -0.0449  0.5113 -0.1188
 7443SOL    HW133962   0.140   0.947  13.651 -1.8090 -0.1921  2.1079
 7443SOL    HW233963   0.235   0.876  13.738  0.7500  1.8511 -0.8619
 7444SOL     OW33964   0.311   0.436   5.789  0.3363 -0.3606  0.5996
 7444SOL    HW133965   0.282   0.359   5.740 -0.5323 -0.2978  1.0123
 7444SOL    HW233966   0.309   0.410   5.882 -0.0810 -2.2458  0.0583
 7445SOL     OW33967   2.564   0.820   2.541  0.0648 -0.3692  0.3919
 7445SOL    HW133968   2.653   0.845   2.513 -0.1253  0.7494  0.8194
 7445SOL    HW233969   2.527   0.810   2.453  0.3089 -3.4947  0.6270
 7446SOL     OW33970   0.525   2.129   3.768  0.1656 -0.4514 -0.1241
 7446SOL    HW133971   0.496   2.106   3.856  1.8093  0.3274  0.6381
 7446SOL    HW233972   0.467   2.199   3.739  0.0688 -0.7183 -0.5789
 7447SOL     OW33973   1.717   0.742  11.091 -0.3939  0.0013  0.4400
 7447SOL    HW133974   1.804   0.716  11.118  0.2772  0.1791 -1.5180
 7447SOL    HW233975   1.676   0.795  11.159  1.9655  0.2125  1.6677
 7448SOL     OW33976   3.277   4.289   8.727 -0.3350  0.8660 -0.3966
 7448SOL    HW133977   3.240   4.270   8.640 -1.9098  1.8783  0.0597
 7448SOL    HW233978   3.233   4.217   8.771  3.0134 -1.6425 -1.1022
 7449SOL     OW33979   3.705   0.886   9.345  0.2638 -0.5754 -0.5859
 7449SOL    HW133980   3.700   0.792   9.327 -1.7261 -0.9362  1.8332
 7449SOL    HW233981   3.793   0.901   9.380 -0.0245  1.2231 -0.6094
 7450SOL     OW33982   0.550   3.802  12.846  0.0891  0.0244  0.5623
 7450SOL    HW133983   0.476   3.804  12.784  0.0695 -0.1284  0.5807
 7450SOL    HW233984   0.504   3.781  12.927 -1.7061  0.9574 -0.2140
 7451SOL     OW33985   0.399   0.410   1.948  0.7778 -0.0174  0.5509
 7451SOL    HW133986   0.350   0.374   2.022 -1.7396  0.3624 -0.9497
 7451SOL    HW233987   0.332   0.390   1.883 -0.5663  3.7599  0.7966
 7452SOL     OW33988   2.930   3.384   6.067  0.8414  0.5402  0.1379
 7452SOL    HW133989   2.991   3.411   6.136  0.3171 -1.4786  1.4149
 7452SOL    HW233990   2.980   3.323   6.013 -1.0041  0.9760 -2.0339
 7453SOL     OW33991   0.953   3.505  16.816  0.1285 -0.0936  0.8504
 7453SOL    HW133992   0.944   3.550  16.899 -0.9431 -0.2490  0.8115
 7453SOL    HW233993   0.968   3.414  16.842 -0.2089 -0.2853  0.3891
 7454SOL     OW33994   3.281   2.447   6.277 -0.2153  0.4730  0.3141
 7454SOL    HW133995   3.277   2.542   6.263  2.4915  0.3985 -0.9745
 7454SOL    HW233996   3.187   2.436   6.289 -0.3692 -1.5034 -2.7350
 7455SOL     OW33997   0.701   1.047   7.870  0.2399  0.4880  0.0509
 7455SOL    HW133998   0.783   1.093   7.883 -0.4025  0.5543  3.6800
 7455SOL    HW233999   0.685   1.005   7.954  1.2068 -0.0953 -0.0518
 7456SOL     OW34000   2.155   2.805   0.677 -0.3282  0.4965  0.0257
 7456SOL    HW134001   2.083   2.742   0.675 -0.3548  0.4721  1.5612
 7456SOL    HW234002   2.180   2.806   0.585  0.8672 -1.7136  0.3313
 7457SOL     OW34003   3.633   1.912   7.795 -0.2328  0.3585 -0.0258
 7457SOL    HW134004   3.575   1.975   7.838 -0.7694 -1.3898  1.8555
 7457SOL    HW234005   3.696   1.895   7.865  1.9629  0.3033 -2.0259
 7458SOL     OW34006   1.932   2.566   7.240 -0.6672 -0.6129 -0.3958
 7458SOL    HW134007   1.896   2.636   7.186 -0.7920  1.3028  2.1724
 7458SOL    HW234008   1.878   2.581   7.318  1.1233  0.6850  0.5878
 7459SOL     OW34009   0.414   1.554  12.762  0.2578 -0.3716  0.1095
 7459SOL    HW134010   0.355   1.524  12.692 -0.0567 -3.3559  1.6596
 7459SOL    HW234011   0.372   1.632  12.797  2.9823  0.0028  2.5560
 7460SOL     OW34012   4.738   1.880   5.909 -0.1839  0.0606  0.3217
 7460SOL    HW134013   0.012   1.966   5.871 -1.8605 -0.0277 -0.4043
 7460SOL    HW234014   0.037   1.823   5.842  2.9519 -0.0660  2.1536
 7461SOL     OW34015   3.969   0.368  12.647 -0.2553  0.7934  0.0482
 7461SOL    HW134016   3.959   0.297  12.583  0.7587 -0.1796  0.9559
 7461SOL    HW234017   4.062   0.351  12.664  0.2951  2.9131 -0.8604
 7462SOL     OW34018   2.447   0.907   3.332 -0.5719  0.1672  0.1786
 7462SOL    HW134019   2.421   0.860   3.411  0.2227  0.0230  0.3631
 7462SOL    HW234020   2.537   0.875   3.319 -1.1707 -0.7082 -1.7779
 7463SOL     OW34021   3.550   4.730   9.035  0.9250  0.0555 -0.3613
 7463SOL    HW134022   3.479   4.737   9.099 -0.2548 -0.8244 -1.5536
 7463SOL    HW234023   3.507   4.674   8.969 -0.4938 -1.9539  2.2488
 7464SOL     OW34024   3.704   1.918   5.202 -0.3013  0.0307 -0.2163
 7464SOL    HW134025   3.716   1.982   5.273  3.3843 -0.3598 -0.4957
 7464SOL    HW234026   3.773   1.853   5.213 -0.0397 -0.0426 -2.4625
 7465SOL     OW34027   0.286   3.885   8.741  0.2546  0.6004 -0.6146
 7465SOL    HW134028   0.295   3.905   8.834 -1.4071  1.5251 -0.6450
 7465SOL    HW234029   0.356   3.821   8.729 -1.7806 -2.3397  3.3061
 7466SOL     OW34030   3.561   1.217   4.452  0.0442  0.2559  0.0061
 7466SOL    HW134031   3.583   1.305   4.420  2.7986 -0.7954 -0.9790
 7466SOL    HW234032   3.475   1.231   4.491 -0.3608  0.8042 -1.0839
 7467SOL     OW34033   1.799   1.545   3.548 -0.3693 -0.0764 -0.2039
 7467SOL    HW134034   1.776   1.537   3.455 -2.8713  0.2431  0.3904
 7467SOL    HW234035   1.867   1.478   3.552  0.6802  1.0122 -0.1799
 7468SOL     OW34036   0.525   2.968   3.836 -0.3319 -0.4037 -0.3908
 7468SOL    HW134037   0.587   2.901   3.863 -0.6723  0.1250  1.6845
 7468SOL    HW234038   0.446   2.923   3.866 -1.3298  1.5030 -0.1482
 7469SOL     OW34039   0.087   0.360  13.443 -0.4965 -0.0884 -0.6143
 7469SOL    HW134040   0.030   0.292  13.407 -1.3367 -0.7154  1.9096
 7469SOL    HW234041   0.067   0.353  13.536  1.7538 -0.2524 -0.1587
 7470SOL     OW34042   3.695   4.643   1.637 -0.5566  0.2640  0.0479
 7470SOL    HW134043   3.693   4.608   1.548 -1.4555  1.2887 -0.3399
 7470SOL    HW234044   3.606   4.631   1.669 -0.5128 -0.2010 -0.0037
 7471SOL     OW34045   3.056   0.204   5.841 -0.2153 -0.3955 -0.2781
 7471SOL    HW134046   2.996   0.174   5.909 -1.0203 -2.0190 -1.6921
 7471SOL    HW234047   2.994   0.225   5.772 -0.5531  1.5927  0.6382
 7472SOL     OW34048   3.988   1.510   7.114 -0.1749  0.2414 -0.4003
 7472SOL    HW134049   3.956   1.596   7.088  3.2292  0.8896 -2.4105
 7472SOL    HW234050   3.950   1.520   7.201  0.4152  0.4861 -0.1728
 7473SOL     OW34051   2.948   4.147   3.551  0.6541 -0.1965 -0.0844
 7473SOL    HW134052   2.973   4.163   3.642  0.0961  0.7852 -0.0986
 7473SOL    HW234053   2.883   4.217   3.542 -1.1716 -1.5979  2.0551
 7474SOL     OW34054   1.051   2.065   7.853 -0.1926 -0.2637  0.2173
 7474SOL    HW134055   0.986   2.133   7.873  0.7040  0.7538 -0.3253
 7474SOL    HW234056   1.132   2.095   7.894  1.0683  0.3587 -2.6959
 7475SOL     OW34057   3.723   3.988   7.644  0.4667 -0.2787 -0.3382
 7475SOL    HW134058   3.740   4.047   7.717 -2.3435  1.0442 -0.7631
 7475SOL    HW234059   3.797   3.929   7.653  1.2851  0.4264 -2.5054
 7476SOL     OW34060   2.045   2.760   8.722  0.5912 -0.0913  0.6056
 7476SOL    HW134061   1.995   2.682   8.697 -0.2845  0.7029 -0.1194
 7476SOL    HW234062   1.977   2.810   8.766  1.4304  2.4119 -0.9645
 7477SOL     OW34063   2.258   0.815   6.487  0.3387 -0.2479  0.0035
 7477SOL    HW134064   2.321   0.833   6.418 -1.7693 -1.2807 -2.1901
 7477SOL    HW234065   2.233   0.727   6.462 -0.3594 -0.3717  1.1516
 7478SOL     OW34066   2.732   0.558   3.596 -0.1495 -0.1417 -0.1177
 7478SOL    HW134067   2.700   0.646   3.615 -0.1228  0.2530 -1.9285
 7478SOL    HW234068   2.668   0.527   3.532 -0.7951  0.0665  0.4275
 7479SOL     OW34069   2.655   1.703   5.123 -0.7929 -0.0193 -0.5688
 7479SOL    HW134070   2.731   1.746   5.084 -1.0877 -0.3243 -1.4709
 7479SOL    HW234071   2.603   1.681   5.045  1.1297 -1.2209 -1.5170
 7480SOL     OW34072   0.964   2.782   5.728  0.4255  0.1992 -0.0015
 7480SOL    HW134073   0.989   2.872   5.747 -3.3794  0.9218  1.7289
 7480SOL    HW234074   1.048   2.740   5.712 -0.4003 -0.6449 -2.1179
 7481SOL     OW34075   2.913   2.676   2.572  0.3030 -0.5516  0.1532
 7481SOL    HW134076   2.982   2.636   2.520  0.4737 -1.8091  1.3573
 7481SOL    HW234077   2.948   2.762   2.599  2.1588 -1.1143 -0.4536
 7482SOL     OW34078   0.425   1.899   7.487 -0.3868 -0.0323 -0.7760
 7482SOL    HW134079   0.401   1.865   7.573 -1.8292 -2.1541 -2.0025
 7482SOL    HW234080   0.340   1.914   7.445 -0.4042 -1.6671 -1.3201
 7483SOL     OW34081   3.357   1.298  11.905 -0.3203 -0.0376 -0.0112
 7483SOL    HW134082   3.400   1.227  11.951 -1.1062  0.2457  1.1669
 7483SOL    HW234083   3.296   1.315  11.977  1.1203  1.7988  0.7623
 7484SOL     OW34084   4.201   2.577   5.049 -0.1067  0.3018 -0.0996
 7484SOL    HW134085   4.163   2.497   5.012  0.8434  0.1924 -0.8637
 7484SOL    HW234086   4.124   2.633   5.055  0.1209  0.3558  2.2555
 7485SOL     OW34087   0.271   3.729  14.779  0.2259  0.2792 -0.0536
 7485SOL    HW134088   0.362   3.746  14.804  0.6516  1.8393 -2.6391
 7485SOL    HW234089   0.238   3.815  14.753 -1.7004  0.2105  2.2035
 7486SOL     OW34090   0.378   3.763   3.458 -0.5892 -0.4907 -0.3420
 7486SOL    HW134091   0.366   3.840   3.403  2.3729  0.1888 -0.0606
 7486SOL    HW234092   0.382   3.688   3.399  1.0303 -0.0371 -0.8039
 7487SOL     OW34093   0.008   1.708   4.177 -0.0058  0.4162 -0.5608
 7487SOL    HW134094   4.724   1.790   4.220  0.6070  1.6079 -2.5320
 7487SOL    HW234095   4.710   1.646   4.240 -2.1215  0.3063 -1.8825
 7488SOL     OW34096   0.271   2.656   7.512  0.2279  0.2386  0.0106
 7488SOL    HW134097   0.244   2.656   7.604 -1.9124 -0.7308 -0.6280
 7488SOL    HW234098   0.351   2.710   7.515  0.8665 -0.7341  0.5863
 7489SOL     OW34099   1.611   0.640   7.521 -0.7710  0.1455 -0.2014
 7489SOL    HW134100   1.661   0.693   7.459 -1.4979  1.3962  0.2907
 7489SOL    HW234101   1.623   0.560   7.470 -1.1282 -0.9426  1.4110
 7490SOL     OW34102   3.985   2.715  13.214 -0.0021  0.1174 -0.3370
 7490SOL    HW134103   3.951   2.745  13.130  0.9619 -0.5179 -0.9523
 7490SOL    HW234104   4.015   2.800  13.249 -1.0445  0.1248  0.5240
 7491SOL     OW34105   3.298   3.786  16.609 -0.8117 -0.2797 -0.1477
 7491SOL    HW134106   3.312   3.716  16.673 -2.1911  0.4616  0.9641
 7491SOL    HW234107   3.233   3.740  16.556 -1.0174  0.8017 -0.8190
 7492SOL     OW34108   2.566   0.719  15.055  0.0103  0.2190  0.3246
 7492SOL    HW134109   2.499   0.655  15.079  0.1567 -0.8878 -2.2109
 7492SOL    HW234110   2.645   0.665  15.046  0.2997  0.6898 -0.0024
 7493SOL     OW34111   0.746   4.190  12.767  0.1549 -0.1526 -0.4781
 7493SOL    HW134112   0.759   4.199  12.861 -0.2278  2.3846 -0.6505
 7493SOL    HW234113   0.743   4.283  12.744  3.0462  0.1695  0.4353
 7494SOL     OW34114   4.691   2.940   6.794  0.2048 -0.2634  0.1784
 7494SOL    HW134115   4.731   2.876   6.852  0.2945 -1.4240 -1.1761
 7494SOL    HW234116   0.033   2.989   6.772  0.2800 -0.5528 -0.1928
 7495SOL     OW34117   2.819   4.487   7.584  0.1149 -0.1562 -0.1897
 7495SOL    HW134118   2.741   4.535   7.613  0.4678  0.7743 -0.7809
 7495SOL    HW234119   2.794   4.464   7.495 -2.1983  0.3598  0.3242
 7496SOL     OW34120   4.378   2.508   8.066 -0.0655 -0.0701 -0.3340
 7496SOL    HW134121   4.371   2.590   8.017  0.5961 -0.7777 -1.6082
 7496SOL    HW234122   4.359   2.442   7.998  0.4290  0.9359 -1.4409
 7497SOL     OW34123   2.119   4.727   3.948 -0.2272 -0.1377  0.0576
 7497SOL    HW134124   2.124   4.662   3.878  3.0283  0.5688 -0.3884
 7497SOL    HW234125   2.089   0.075   3.918  2.0305  0.4422 -0.5631
 7498SOL     OW34126   2.831   1.206   2.968 -0.3632 -0.2541 -0.5208
 7498SOL    HW134127   2.863   1.138   3.026  1.8390  1.6167  0.4652
 7498SOL    HW234128   2.758   1.238   3.023 -0.6971 -1.8913 -0.0235
 7499SOL     OW34129   3.477   0.469   1.797  0.2725 -0.2964  0.2668
 7499SOL    HW134130   3.539   0.527   1.842 -0.2625  1.7835 -1.6858
 7499SOL    HW234131   3.507   0.458   1.707  0.9395  2.0527  0.2014
 7500SOL     OW34132   1.757   0.689  16.285  0.4445 -0.0855  0.5478
 7500SOL    HW134133   1.838   0.733  16.312 -0.2274  0.8233  1.0996
 7500SOL    HW234134   1.727   0.754  16.221  2.5876 -1.4394 -1.8067
 7501SOL     OW34135   2.453   0.865   2.815 -0.3002  0.4678  0.1596
 7501SOL    HW134136   2.478   0.869   2.723 -1.0337  0.9169 -0.0244
 7501SOL    HW234137   2.392   0.939   2.817  1.1000  1.5672  2.8909
 7502SOL     OW34138   2.276   0.677   8.193  0.4834 -0.1664 -0.0799
 7502SOL    HW134139   2.311   0.710   8.110  0.9799 -1.8241 -0.5406
 7502SOL    HW234140   2.246   0.760   8.230 -3.1630 -1.6072  0.1943
 7503SOL     OW34141   0.045   3.534  11.062  0.2997  0.4960  0.1487
 7503SOL    HW134142   4.692   3.562  11.069  0.3280  0.8794 -1.0126
 7503SOL    HW234143   0.068   3.531  10.969 -0.4055 -1.0908  0.0269
 7504SOL     OW34144   1.814   2.049   1.597  0.2539  0.1781  0.5083
 7504SOL    HW134145   1.800   1.980   1.533  2.7404  0.4604 -0.3490
 7504SOL    HW234146   1.752   2.114   1.563  1.5683  1.6556  0.9310
 7505SOL     OW34147   2.734   0.544   3.290 -0.2947  0.0829 -0.3853
 7505SOL    HW134148   2.697   0.524   3.204 -1.3175 -1.1758  0.3375
 7505SOL    HW234149   2.666   0.520   3.353 -0.9122  1.1703 -0.6484
 7506SOL     OW34150   2.032   3.278   6.442 -0.1394 -0.1742 -0.2192
 7506SOL    HW134151   1.993   3.286   6.529 -0.9607  3.1090 -0.9063
 7506SOL    HW234152   2.122   3.304   6.461 -0.1864  0.1788 -0.4855
 7507SOL     OW34153   4.348   2.195  16.061  0.0039  0.1671 -0.2346
 7507SOL    HW134154   4.319   2.169  16.148 -0.4024  0.2870 -0.3371
 7507SOL    HW234155   4.432   2.150  16.046 -0.7411 -2.3646  3.2705
 7508SOL     OW34156   2.431   2.269  10.022 -0.4653 -0.5041  0.4899
 7508SOL    HW134157   2.435   2.303  10.111  0.8459 -0.9944  0.6063
 7508SOL    HW234158   2.357   2.322   9.992  0.1256 -0.1086 -0.2827
 7509SOL     OW34159   3.310   2.454   5.550 -0.3608  0.1752  0.2737
 7509SOL    HW134160   3.308   2.358   5.542 -1.1347  0.2324 -0.1775
 7509SOL    HW234161   3.365   2.467   5.627  0.5518 -0.0395 -0.3426
 7510SOL     OW34162   2.068   2.907   5.208  0.2244 -0.4691  0.1694
 7510SOL    HW134163   2.164   2.905   5.203 -0.0379 -2.8477 -3.3462
 7510SOL    HW234164   2.055   2.828   5.259  1.2635 -0.0434  1.0907
 7511SOL     OW34165   3.000   0.261   8.676  0.3517 -0.3570  0.0029
 7511SOL    HW134166   3.011   0.313   8.597 -0.0531 -1.1214 -0.5488
 7511SOL    HW234167   2.943   0.317   8.729  1.7746  1.3012 -0.1864
 7512SOL     OW34168   0.789   3.578   8.262 -0.5552  0.2183  0.1421
 7512SOL    HW134169   0.744   3.653   8.223  0.6676  0.3525 -0.9763
 7512SOL    HW234170   0.707   3.529   8.270 -0.2996 -0.3481 -0.8037
 7513SOL     OW34171   1.942   2.317   1.621  0.0820 -0.4491  0.1576
 7513SOL    HW134172   2.013   2.255   1.609 -1.8562 -2.5601 -0.3841
 7513SOL    HW234173   1.875   2.255   1.649  0.0796 -0.4533  0.1424
 7514SOL     OW34174   4.172   2.813   4.465 -0.4057 -0.5050 -0.9871
 7514SOL    HW134175   4.135   2.898   4.445 -1.8075 -1.1565 -1.1368
 7514SOL    HW234176   4.234   2.828   4.537 -2.6637  1.7671  0.4876
 7515SOL     OW34177   3.060   0.487   8.867  0.0901  0.3518  0.1763
 7515SOL    HW134178   3.071   0.574   8.828 -2.3476  0.7334  0.3161
 7515SOL    HW234179   2.968   0.461   8.867  0.8996 -2.4790 -0.1099
 7516SOL     OW34180   2.590   1.187   6.500  0.7755  0.2451 -0.5812
 7516SOL    HW134181   2.575   1.097   6.468  0.7310 -0.9056  2.7173
 7516SOL    HW234182   2.577   1.170   6.593 -0.7031  2.1648 -0.4432
 7517SOL     OW34183   0.581   0.358   9.786  0.9471  0.3359 -0.3454
 7517SOL    HW134184   0.525   0.416   9.734 -0.7434 -0.5909  0.4473
 7517SOL    HW234185   0.533   0.370   9.868  2.3379  0.8109  0.3939
 7518SOL     OW34186   1.269   3.597  15.507  0.0318 -0.0418 -0.1154
 7518SOL    HW134187   1.339   3.557  15.559 -1.5809 -0.1793  1.9506
 7518SOL    HW234188   1.309   3.601  15.420  1.3500 -1.4420  0.4389
 7519SOL     OW34189   0.519   0.489  13.179 -0.0214 -0.3942 -0.0163
 7519SOL    HW134190   0.448   0.534  13.132  0.4081  1.3496  0.9994
 7519SOL    HW234191   0.476   0.447  13.253  2.4546 -1.2852  0.9147
 7520SOL     OW34192   2.164   1.792  11.319  0.0699 -0.1596 -0.0539
 7520SOL    HW134193   2.072   1.818  11.322  0.0747 -0.1118 -0.3476
 7520SOL    HW234194   2.192   1.849  11.247  1.8263  0.2602  0.9594
 7521SOL     OW34195   4.688   0.444   1.797  0.6306 -0.6641  0.4190
 7521SOL    HW134196   4.690   0.477   1.707 -0.2657 -0.6010  0.4297
 7521SOL    HW234197   4.698   0.527   1.844 -0.3062 -0.2355 -0.1423
 7522SOL     OW34198   1.125   1.564   2.212  0.4271 -0.2747  0.0974
 7522SOL    HW134199   1.130   1.471   2.192 -0.0551  0.0679 -1.6438
 7522SOL    HW234200   1.116   1.609   2.128 -1.6048 -3.4691 -1.3983
 7523SOL     OW34201   2.536   2.105   3.101 -0.0140 -0.4556  0.7449
 7523SOL    HW134202   2.598   2.033   3.109 -1.2471 -1.5797  0.1120
 7523SOL    HW234203   2.594   2.173   3.067 -1.2694  0.4327  0.3672
 7524SOL     OW34204   1.735   4.607   4.536  0.1153 -0.7312 -0.1479
 7524SOL    HW134205   1.697   4.606   4.624  4.3626  1.6357  1.7001
 7524SOL    HW234206   1.728   4.514   4.512 -1.6701 -0.2595 -1.4890
 7525SOL     OW34207   3.838   4.474   6.104  0.5002  0.2728  0.3353
 7525SOL    HW134208   3.750   4.464   6.067  0.3032  1.4464  0.4635
 7525SOL    HW234209   3.878   4.420   6.036  1.8548  1.1464  0.4443
 7526SOL     OW34210   2.064   2.123   5.636 -0.3551 -0.4515 -0.2629
 7526SOL    HW134211   2.154   2.094   5.651 -0.9910 -1.8595  0.8178
 7526SOL    HW234212   2.073   2.155   5.546  0.0646 -2.4018 -0.9163
 7527SOL     OW34213   2.431   2.708  11.911 -0.0403 -0.1065 -0.0857
 7527SOL    HW134214   2.384   2.647  11.967  0.0116  0.2089  0.3002
 7527SOL    HW234215   2.385   2.701  11.827 -0.4805  1.4162  0.0280
 7528SOL     OW34216   3.661   4.577  14.046  0.2117  0.8003  0.2224
 7528SOL    HW134217   3.748   4.542  14.028  0.3940  0.9177  0.8762
 7528SOL    HW234218   3.646   4.626  13.965  0.1165 -0.8681 -0.7494
 7529SOL     OW34219   1.231   1.527   8.210 -0.1082  0.3584 -0.5121
 7529SOL    HW134220   1.327   1.520   8.212 -0.1090  1.4742  3.6334
 7529SOL    HW234221   1.215   1.448   8.160 -0.3702 -0.9330  1.6031
 7530SOL     OW34222   3.578   0.319  13.271  0.0042  0.3575  0.3657
 7530SOL    HW134223   3.655   0.329  13.214  0.8315  0.1212  1.4336
 7530SOL    HW234224   3.540   0.243  13.227 -0.0577  0.4654  0.2306
 7531SOL     OW34225   0.127   0.397   6.375  0.0806 -0.1488  0.5234
 7531SOL    HW134226   0.041   0.377   6.338  0.7804 -0.1690 -1.0882
 7531SOL    HW234227   0.155   0.306   6.384  0.5942 -0.0474  0.0004
 7532SOL     OW34228   0.282   1.818   4.743  0.0002 -0.1458 -0.4113
 7532SOL    HW134229   0.256   1.776   4.826 -2.0502  1.6816 -0.1345
 7532SOL    HW234230   0.223   1.893   4.745  0.5999  0.3202 -0.1212
 7533SOL     OW34231   1.037   0.074   5.401 -0.1229 -0.1536 -0.0320
 7533SOL    HW134232   1.085   0.000   5.364  2.1598  0.5181  1.6078
 7533SOL    HW234233   0.955   0.034   5.432 -1.4073  1.4649 -1.3801
 7534SOL     OW34234   0.494   3.167   3.340 -0.3286  0.1298  0.5116
 7534SOL    HW134235   0.537   3.202   3.262  0.5973 -0.2587  0.8507
 7534SOL    HW234236   0.438   3.097   3.306 -0.6339  0.0895  1.1007
 7535SOL     OW34237   4.716   0.435  14.922  0.6523 -0.1077  0.1549
 7535SOL    HW134238   0.023   0.350  14.925  1.3464  0.2273 -0.5865
 7535SOL    HW234239   0.059   0.487  14.922  1.9349 -2.1171 -0.7703
 7536SOL     OW34240   1.106   1.953   1.063 -0.2767  0.1516 -0.3344
 7536SOL    HW134241   1.177   1.901   1.101 -0.8393  0.5374  1.2471
 7536SOL    HW234242   1.027   1.915   1.102  1.1774 -0.8021  1.6732
 7537SOL     OW34243   3.297   4.333  16.830  0.0519  0.2740 -0.3648
 7537SOL    HW134244   3.307   4.413  16.778 -0.7417  1.8339  1.8648
 7537SOL    HW234245   3.300   4.363  16.921  3.5250  1.4593 -0.8493
 7538SOL     OW34246   2.994   4.431   6.119  0.3197  0.3470  0.3801
 7538SOL    HW134247   2.943   4.365   6.072  2.1372  0.3003 -1.5056
 7538SOL    HW234248   2.990   4.387   6.204 -0.0154 -1.9441 -0.8333
 7539SOL     OW34249   4.069   4.479   7.730  0.0090 -0.1346  0.1755
 7539SOL    HW134250   4.053   4.426   7.652  0.7190 -2.2162  1.4544
 7539SOL    HW234251   4.152   4.523   7.713 -0.3021  0.3333 -0.1197
 7540SOL     OW34252   3.086   1.428   2.211  0.0669  0.4054  0.0212
 7540SOL    HW134253   3.030   1.351   2.199 -2.1991  1.7043  2.1956
 7540SOL    HW234254   3.041   1.486   2.151 -0.3249 -0.3627 -0.4312
 7541SOL     OW34255   3.538   2.923   4.091  0.3557  0.5623 -0.3136
 7541SOL    HW134256   3.474   2.859   4.122 -0.5298  1.8923  0.6101
 7541SOL    HW234257   3.520   2.934   3.997 -1.7427 -0.2563 -0.0002
 7542SOL     OW34258   0.365   1.121   0.318  0.0765 -0.4110 -0.2554
 7542SOL    HW134259   0.413   1.055   0.368 -1.6920  0.7906  2.9851
 7542SOL    HW234260   0.283   1.077   0.296 -0.6801  0.2219  1.3427
 7543SOL     OW34261   3.667   1.228   7.188  0.7139 -0.0421  0.7211
 7543SOL    HW134262   3.652   1.147   7.139 -3.5865  2.6509 -2.4502
 7543SOL    HW234263   3.585   1.271   7.164  0.7476 -0.5452 -0.2949
 7544SOL     OW34264   0.502   2.840   3.524  0.0418 -0.0342 -0.2328
 7544SOL    HW134265   0.498   2.788   3.444 -1.1367 -0.9891  0.4469
 7544SOL    HW234266   0.482   2.776   3.592 -0.4113  0.4591  0.0976
 7545SOL     OW34267   2.019   1.624  11.996  0.1320  0.1826 -0.3219
 7545SOL    HW134268   2.062   1.641  11.912  2.2643  1.5464  1.0343
 7545SOL    HW234269   2.072   1.676  12.057 -0.3836 -0.3788  0.6005
 7546SOL     OW34270   0.465   3.364   7.547  0.6637  0.3162 -0.3240
 7546SOL    HW134271   0.408   3.288   7.557 -0.4707  1.1574 -0.3893
 7546SOL    HW234272   0.469   3.364   7.452  0.7508  0.1788 -0.3208
 7547SOL     OW34273   1.363   1.620   1.474 -0.2422  0.3196 -0.3925
 7547SOL    HW134274   1.317   1.543   1.507  1.3702 -0.5010 -0.0825
 7547SOL    HW234275   1.308   1.631   1.397  0.0556  1.0526 -0.4942
 7548SOL     OW34276   0.684   2.023   0.423 -0.9463  0.6772  1.1621
 7548SOL    HW134277   0.657   2.073   0.500 -2.0006  0.0539  1.1965
 7548SOL    HW234278   0.779   2.025   0.425 -0.9023 -0.5739  0.5102
 7549SOL     OW34279   2.039   0.840   3.885 -0.0658 -0.4692 -0.1987
 7549SOL    HW134280   2.004   0.807   3.968 -2.7560 -1.5082 -1.7418
 7549SOL    HW234281   2.009   0.930   3.878  0.7030 -0.0433  1.9585
 7550SOL     OW34282   1.963   3.047   7.160 -0.0943 -0.3288  0.2604
 7550SOL    HW134283   2.000   3.118   7.213 -0.0759  0.7803 -1.2264
 7550SOL    HW234284   1.890   3.016   7.214 -0.6366  3.2593  1.5836
 7551SOL     OW34285   3.001   0.976   4.366 -0.4233 -0.2879  0.2028
 7551SOL    HW134286   3.006   0.930   4.283  1.3673  1.1017 -0.4627
 7551SOL    HW234287   2.928   1.036   4.352 -2.0190 -2.0996  0.8403
 7552SOL     OW34288   2.030   1.276  14.716 -0.4289  0.0465 -0.2491
 7552SOL    HW134289   2.005   1.358  14.673  1.1065 -0.0911 -1.3826
 7552SOL    HW234290   2.116   1.262  14.677  0.2243  1.6772  0.5975
 7553SOL     OW34291   0.912   1.870   1.232 -0.4354 -0.2309 -0.7632
 7553SOL    HW134292   0.926   1.936   1.299  1.2256  0.8638 -2.1866
 7553SOL    HW234293   0.926   1.790   1.284 -0.9159  1.1754  1.5068
 7554SOL     OW34294   0.363   1.378   6.274 -0.3126  0.4163  0.1160
 7554SOL    HW134295   0.413   1.367   6.193 -0.9571  0.7544 -0.3273
 7554SOL    HW234296   0.273   1.392   6.245 -1.1556 -1.7751  1.6411
 7555SOL     OW34297   1.049   2.716  15.100  0.1027 -0.5210 -0.1163
 7555SOL    HW134298   1.070   2.623  15.088 -3.1177 -1.0196 -1.8585
 7555SOL    HW234299   1.042   2.743  15.009 -0.5474 -1.3418 -0.3101
 7556SOL     OW34300   0.399   1.290   1.525 -0.4919  0.2463  0.4132
 7556SOL    HW134301   0.482   1.334   1.508 -0.3770 -1.0004 -2.2942
 7556SOL    HW234302   0.340   1.336   1.465 -0.3497  1.0088  0.8591
 7557SOL     OW34303   4.539   2.359  11.804 -0.0221 -0.4313 -0.7312
 7557SOL    HW134304   4.524   2.343  11.898  0.3593 -1.0966 -0.7794
 7557SOL    HW234305   4.595   2.436  11.805  0.2664 -0.6347 -1.2550
 7558SOL     OW34306   3.649   1.464  16.109 -0.3096 -0.3513 -0.2125
 7558SOL    HW134307   3.738   1.459  16.072 -1.1616 -1.8968 -2.0251
 7558SOL    HW234308   3.604   1.486  16.028  1.3911  0.9129 -0.8151
 7559SOL     OW34309   4.278   3.076   8.828 -1.0358 -0.2838  0.8721
 7559SOL    HW134310   4.253   3.118   8.910 -0.3878  1.4952  0.1431
 7559SOL    HW234311   4.366   3.111   8.812 -2.4344  2.7029 -0.1515
 7560SOL     OW34312   0.160   0.391  12.272  0.6591 -0.2303 -0.0352
 7560SOL    HW134313   0.243   0.438  12.261 -0.7906  2.0240 -1.3782
 7560SOL    HW234314   0.097   0.412  12.203  1.0405 -1.6753 -0.8313
 7561SOL     OW34315   2.403   0.073  11.264 -0.1278  0.5470 -0.0944
 7561SOL    HW134316   2.479   0.112  11.306 -1.4201  1.2283  1.5886
 7561SOL    HW234317   2.434   0.077  11.173  1.7971  0.7783  0.5649
 7562SOL     OW34318   1.173   0.031   5.006  0.4273  0.0159 -0.7547
 7562SOL    HW134319   1.244   4.728   5.054 -0.4277  0.2187  0.6624
 7562SOL    HW234320   1.209   0.120   5.009 -0.2786  0.2405  0.9576
 7563SOL     OW34321   1.743   4.107   7.061  0.2444  0.9260  0.6610
 7563SOL    HW134322   1.735   4.053   7.140  0.9228 -0.4306 -0.1964
 7563SOL    HW234323   1.818   4.164   7.079  0.6688  0.4018  0.5711
 7564SOL     OW34324   4.037   4.286   7.285 -0.2385  0.1117  0.2245
 7564SOL    HW134325   4.062   4.368   7.243 -0.0439  0.0323  0.1823
 7564SOL    HW234326   4.082   4.219   7.233 -1.5683 -1.5556  1.2309
 7565SOL     OW34327   1.708   4.717  17.026  0.1407 -0.4205  0.0104
 7565SOL    HW134328   1.693   4.643  16.967 -0.6351  0.0168 -0.3515
 7565SOL    HW234329   1.742   4.681  17.108  0.1901 -0.0197  0.1638
 7566SOL     OW34330   3.855   2.091   3.066  0.4725  0.1791 -0.0234
 7566SOL    HW134331   3.827   2.101   2.975 -0.4435  1.4593  0.3926
 7566SOL    HW234332   3.773   2.075   3.113 -0.0714 -0.6767 -1.2586
 7567SOL     OW34333   2.086   0.508   9.800 -0.2583  0.4029 -0.3525
 7567SOL    HW134334   2.072   0.571   9.729 -0.9634 -1.0103 -1.4841
 7567SOL    HW234335   1.998   0.472   9.809 -0.3519  0.5988 -0.4736
 7568SOL     OW34336   1.643   2.489   4.714 -0.3145  0.1804 -0.2954
 7568SOL    HW134337   1.606   2.537   4.788  0.4448  0.5393 -0.1465
 7568SOL    HW234338   1.567   2.441   4.682  0.0136 -0.8084  0.4260
 7569SOL     OW34339   2.495   2.640  11.500  0.3417 -0.0172 -0.1834
 7569SOL    HW134340   2.440   2.661  11.575 -0.6166  0.7372 -1.1010
 7569SOL    HW234341   2.521   2.548  11.509 -2.0294 -0.6350  0.1500
 7570SOL     OW34342   1.945   1.135   4.393  0.0680  0.3100  0.8818
 7570SOL    HW134343   1.983   1.172   4.313  0.5818  0.0426  0.9972
 7570SOL    HW234344   1.861   1.179   4.398 -0.5501 -0.6767 -0.9918
 7571SOL     OW34345   0.537   1.692   7.333  0.2784 -0.1608 -0.0056
 7571SOL    HW134346   0.526   1.758   7.401  0.3161  1.5969 -1.7321
 7571SOL    HW234347   0.447   1.662   7.325  0.1561  1.1835 -3.2197
 7572SOL     OW34348   3.849   3.745   5.158 -0.3757  0.0187 -0.4734
 7572SOL    HW134349   3.932   3.710   5.126  0.1757  0.7908  0.1413
 7572SOL    HW234350   3.810   3.788   5.081  1.2970  1.0130 -0.7609
 7573SOL     OW34351   1.142   4.569   8.167  0.3220 -0.0257 -0.1944
 7573SOL    HW134352   1.108   4.573   8.257  0.2245 -0.3495 -0.2176
 7573SOL    HW234353   1.201   4.495   8.173 -0.0986 -0.4311 -1.0021
 7574SOL     OW34354   3.181   0.121   7.879 -0.0148 -0.5951  0.1200
 7574SOL    HW134355   3.240   0.064   7.927 -0.1214  1.2219  2.3888
 7574SOL    HW234356   3.145   0.185   7.941 -0.0765 -0.9616  0.4614
 7575SOL     OW34357   1.357   2.821   4.123 -0.1284  0.6668  0.3488
 7575SOL    HW134358   1.383   2.730   4.132  0.2650  0.8090  0.6842
 7575SOL    HW234359   1.345   2.840   4.217 -0.7905  1.3092  0.1350
 7576SOL     OW34360   2.667   0.372  11.042 -0.2563 -0.2996 -0.3199
 7576SOL    HW134361   2.677   0.344  11.133 -1.6826  2.6945  0.7594
 7576SOL    HW234362   2.576   0.343  11.032 -0.0207 -0.7047 -1.2330
 7577SOL     OW34363   2.993   3.598   4.603  0.1605  0.1326  0.0680
 7577SOL    HW134364   2.995   3.511   4.563  2.2234  0.7515 -1.1362
 7577SOL    HW234365   3.026   3.581   4.692  0.8850 -0.1515 -0.2558
 7578SOL     OW34366   1.539   0.546   3.770  0.1630 -0.2132  0.2623
 7578SOL    HW134367   1.587   0.629   3.761  3.5884 -2.1289  0.6857
 7578SOL    HW234368   1.519   0.536   3.863 -0.3258  1.3598  0.3367
 7579SOL     OW34369   3.969   1.285  17.416  0.2909 -0.8985 -0.4955
 7579SOL    HW134370   3.938   1.357  17.471 -0.6145 -0.8676 -1.0567
 7579SOL    HW234371   3.917   1.294  17.337 -2.3778  0.3344  1.4191
 7580SOL     OW34372   1.540   2.859   3.903 -0.7693 -0.5010  0.4872
 7580SOL    HW134373   1.626   2.856   3.945 -0.0420  2.3323 -0.8269
 7580SOL    HW234374   1.487   2.855   3.983 -3.3666  1.6717 -1.1062
 7581SOL     OW34375   0.819   0.348  10.796  0.8909 -0.0968  0.3579
 7581SOL    HW134376   0.884   0.278  10.801  0.6877 -0.3367 -0.3232
 7581SOL    HW234377   0.866   0.425  10.827  0.7004 -1.2239  3.4240
 7582SOL     OW34378   2.695   4.382   5.259 -0.3358 -0.2901 -0.1456
 7582SOL    HW134379   2.632   4.453   5.269 -0.1867 -0.2437  0.4911
 7582SOL    HW234380   2.639   4.312   5.293  0.8199 -0.6840  0.9804
 7583SOL     OW34381   1.146   3.979   1.248  0.6452  0.5302 -0.1708
 7583SOL    HW134382   1.055   3.956   1.269  1.2199 -2.3444 -0.8951
 7583SOL    HW234383   1.177   3.918   1.182 -0.5685 -2.0411  1.6384
 7584SOL     OW34384   1.619   1.356   0.729  0.9218 -0.0563 -0.3619
 7584SOL    HW134385   1.628   1.344   0.824 -1.7644 -1.0888 -0.2675
 7584SOL    HW234386   1.708   1.331   0.705  1.4310  0.1116  1.3288
 7585SOL     OW34387   3.225   3.296   1.477  0.3925  0.2494 -0.2187
 7585SOL    HW134388   3.172   3.269   1.402 -0.4304  1.9837 -0.2560
 7585SOL    HW234389   3.211   3.390   1.482 -1.5492 -0.1002  0.7213
 7586SOL     OW34390   0.692   1.472   7.388  0.5372 -0.0018 -0.3983
 7586SOL    HW134391   0.640   1.549   7.363  2.0147  1.0680 -0.1667
 7586SOL    HW234392   0.763   1.512   7.438 -0.3250  0.5041  0.4357
 7587SOL     OW34393   3.718   3.507   2.413 -0.2597  0.1817 -0.2660
 7587SOL    HW134394   3.770   3.481   2.337 -0.5030  0.4131 -0.5108
 7587SOL    HW234395   3.676   3.425   2.439  0.2630 -0.1819 -0.5781
 7588SOL     OW34396   2.359   3.142   0.536  0.1360  0.1855 -0.3547
 7588SOL    HW134397   2.332   3.063   0.489 -1.5079 -0.1821  1.2040
 7588SOL    HW234398   2.393   3.188   0.459 -0.0195 -2.6296 -2.1181
 7589SOL     OW34399   1.552   2.246   4.984 -0.1690  0.2121  0.2701
 7589SOL    HW134400   1.520   2.312   5.046  0.1651  1.5841 -1.0219
 7589SOL    HW234401   1.645   2.267   4.984 -0.1139 -0.0260  0.2151
 7590SOL     OW34402   0.333   2.786   3.941 -0.4875  0.1914  0.7416
 7590SOL    HW134403   0.257   2.780   3.883 -0.1406 -1.6669  0.4746
 7590SOL    HW234404   0.380   2.705   3.918  0.8245  1.3001 -0.5081
 7591SOL     OW34405   0.304   2.686   4.601  0.3148  0.0743 -0.1897
 7591SOL    HW134406   0.367   2.664   4.532  0.4499  2.0675 -0.7087
 7591SOL    HW234407   0.242   2.718   4.535  2.3238  0.3814 -1.9490
 7592SOL     OW34408   1.233   2.153   3.114 -0.1198  0.2027 -0.2856
 7592SOL    HW134409   1.286   2.217   3.066  0.6011  0.3917  0.7646
 7592SOL    HW234410   1.154   2.146   3.060 -0.5909  2.2869  0.1243
 7593SOL     OW34411   1.627   1.059   9.395 -0.5473 -0.0054 -0.5855
 7593SOL    HW134412   1.542   1.055   9.351 -1.0810  2.6385  0.2369
 7593SOL    HW234413   1.603   1.139   9.441 -0.2394 -0.8730  1.0703
 7594SOL     OW34414   3.924   0.842   4.312 -0.1981 -0.2308 -0.2026
 7594SOL    HW134415   3.833   0.870   4.321  0.5303  1.3579  2.2223
 7594SOL    HW234416   3.920   0.752   4.281 -0.1981 -0.0463 -0.7361
 7595SOL     OW34417   4.049   2.259   5.807 -0.0089 -0.0857 -0.0709
 7595SOL    HW134418   4.124   2.288   5.859 -0.4601 -0.6413  0.8981
 7595SOL    HW234419   3.992   2.333   5.829  0.6160  0.6104 -0.8229
 7596SOL     OW34420   1.932   0.587   4.094  0.5897  0.1574 -0.6074
 7596SOL    HW134421   1.891   0.524   4.152  1.0910 -1.9083 -2.4914
 7596SOL    HW234422   1.897   0.672   4.123  1.8997  0.6564 -0.4753
 7597SOL     OW34423   4.089   2.943   1.387 -0.4291 -0.2031 -0.4123
 7597SOL    HW134424   4.015   2.905   1.340  0.1668 -1.3867 -0.3955
 7597SOL    HW234425   4.159   2.879   1.375  0.5799  1.2125 -2.1501
 7598SOL     OW34426   4.523   0.035   7.942  0.2285  0.6750  0.8210
 7598SOL    HW134427   4.440   0.037   7.990 -0.0697  3.3938  0.2388
 7598SOL    HW234428   4.573   4.697   7.970 -1.0929 -0.8350 -0.9377
 7599SOL     OW34429   3.349   3.415   5.998 -0.1728 -0.3259  0.0331
 7599SOL    HW134430   3.358   3.508   5.978  0.5705 -0.6283 -1.0091
 7599SOL    HW234431   3.430   3.397   6.046 -1.1377  1.3078  2.2652
 7600SOL     OW34432   3.650   1.256   6.729  0.1526 -0.4054  0.6097
 7600SOL    HW134433   3.674   1.168   6.700 -2.3922 -0.4765 -1.3232
 7600SOL    HW234434   3.719   1.263   6.794  2.2532 -0.7580 -1.5899
 7601SOL     OW34435   3.732   1.864  17.337  0.4698 -0.4270 -0.4588
 7601SOL    HW134436   3.640   1.889  17.328  0.3575 -0.8025 -0.3363
 7601SOL    HW234437   3.776   1.916  17.269 -0.9972  1.3878 -0.0245
 7602SOL     OW34438   4.521   0.213   1.771  0.2694  0.2219  0.3653
 7602SOL    HW134439   4.458   0.258   1.715  1.0979  0.9159 -0.0080
 7602SOL    HW234440   4.598   0.264   1.744  1.3144 -1.6817 -0.2436
 7603SOL     OW34441   1.955   3.570   4.843  0.0645  0.0282  0.1566
 7603SOL    HW134442   2.046   3.560   4.814 -0.0224  3.0334 -1.1063
 7603SOL    HW234443   1.930   3.481   4.869  0.1334  0.5635  1.9890
 7604SOL     OW34444   1.743   1.594  12.036 -0.7157  0.5381  0.5397
 7604SOL    HW134445   1.741   1.499  12.048  1.9495  0.1875 -1.8065
 7604SOL    HW234446   1.838   1.605  12.034 -0.4698 -1.7117 -0.3581
 7605SOL     OW34447   3.908   3.450   5.286 -0.1338  0.0531  0.2129
 7605SOL    HW134448   3.885   3.509   5.358 -1.6069  0.4562 -0.5901
 7605SOL    HW234449   3.829   3.398   5.268  0.4062  0.0827 -2.2595
 7606SOL     OW34450   2.233   3.198   1.161  0.3635 -0.3668 -0.4493
 7606SOL    HW134451   2.173   3.247   1.106 -1.0700 -0.8808  0.6720
 7606SOL    HW234452   2.175   3.183   1.236  0.3393  0.0180 -0.3921
 7607SOL     OW34453   0.529   3.455   2.207  0.7141  0.2202  0.2252
 7607SOL    HW134454   0.573   3.538   2.189  0.6386  0.1806 -0.1495
 7607SOL    HW234455   0.597   3.403   2.249  2.2821  0.5780 -1.8839
 7608SOL     OW34456   1.791   2.155   0.029 -0.0247  1.0553 -0.2987
 7608SOL    HW134457   1.707   2.129   0.064 -0.1638  2.2988  0.2944
 7608SOL    HW234458   1.789   2.251   0.024 -1.4486  1.1206  1.6368
 7609SOL     OW34459   0.066   1.982   8.581 -0.1339 -0.4414 -0.3947
 7609SOL    HW134460   0.053   1.971   8.675  1.6139  1.0070  0.0197
 7609SOL    HW234461   0.124   1.910   8.559 -2.4627 -1.5252 -3.0224
 7610SOL     OW34462   4.450   0.321  12.767 -0.3958 -0.2856 -0.1819
 7610SOL    HW134463   4.466   0.366  12.850 -3.2695 -0.6377  0.5532
 7610SOL    HW234464   4.513   0.249  12.769  2.2517  2.0606  0.1942
 7611SOL     OW34465   1.942   1.617   3.138  0.0698  0.3188 -0.7924
 7611SOL    HW134466   1.892   1.659   3.068 -2.2063 -1.5390 -0.2796
 7611SOL    HW234467   2.020   1.592   3.089 -1.6437  1.5294 -4.1155
 7612SOL     OW34468   2.032   2.909  10.985 -0.7331  0.2011 -0.3009
 7612SOL    HW134469   2.038   2.972  11.056  1.6471  2.0212 -2.1169
 7612SOL    HW234470   1.968   2.952  10.927 -0.7862 -0.1526 -0.5099
 7613SOL     OW34471   4.100   1.049   5.893 -0.4657 -0.3471  0.0161
 7613SOL    HW134472   4.034   0.987   5.861 -1.5797  0.7918  0.0864
 7613SOL    HW234473   4.096   1.035   5.987 -0.8863  0.1251  0.0666
 7614SOL     OW34474   4.227   3.836  14.450 -0.2869  0.4304  0.3374
 7614SOL    HW134475   4.276   3.790  14.382 -2.6960 -1.8352  0.1628
 7614SOL    HW234476   4.270   3.799  14.527 -0.8976 -1.9958 -0.5109
 7615SOL     OW34477   3.159   0.064   6.999 -0.2833 -0.3632  0.3692
 7615SOL    HW134478   3.254   0.062   7.005 -0.2793  1.8023  0.9643
 7615SOL    HW234479   3.139   0.153   7.028  0.0838  0.0239 -0.5723
 7616SOL     OW34480   2.629   3.471   1.682 -0.0320  0.7778  0.0578
 7616SOL    HW134481   2.645   3.522   1.761  0.2443  0.5295  0.1594
 7616SOL    HW234482   2.642   3.388   1.727  1.9349 -0.8208 -3.4918
 7617SOL     OW34483   2.251   1.490   4.161  0.3821  0.1578 -0.2262
 7617SOL    HW134484   2.232   1.565   4.105 -1.1844 -0.3776 -0.4187
 7617SOL    HW234485   2.334   1.468   4.120  0.6440  0.3866  0.1870
 7618SOL     OW34486   3.670   2.319  13.901 -0.5795 -0.4810  0.0740
 7618SOL    HW134487   3.760   2.320  13.932 -0.3891 -2.0042 -0.4327
 7618SOL    HW234488   3.667   2.409  13.868 -2.6831 -0.3568  0.5809
 7619SOL     OW34489   0.329   0.947   3.864 -0.1830 -0.9538 -0.0372
 7619SOL    HW134490   0.293   0.877   3.918 -0.4400 -1.8476 -1.3588
 7619SOL    HW234491   0.410   0.963   3.913  1.2876 -1.8050 -2.1745
 7620SOL     OW34492   1.821   3.172   3.868 -0.2516  0.0012  0.5106
 7620SOL    HW134493   1.845   3.247   3.923 -0.0315  0.4062 -0.1379
 7620SOL    HW234494   1.792   3.213   3.786  2.6910  0.3581 -0.3301
 7621SOL     OW34495   1.236   4.352   5.331 -0.2758  0.2342 -0.3202
 7621SOL    HW134496   1.228   4.305   5.248 -0.5141  1.0214 -0.7486
 7621SOL    HW234497   1.170   4.421   5.327 -2.2112 -1.5565  0.8070
 7622SOL     OW34498   1.327   1.197  16.370  0.5059  0.2345 -0.2420
 7622SOL    HW134499   1.280   1.195  16.454 -1.8001  1.5426 -1.4977
 7622SOL    HW234500   1.289   1.121  16.325 -0.6541  0.8927 -0.3908
 7623SOL     OW34501   4.311   3.588   4.132  0.2302  0.0430 -0.0438
 7623SOL    HW134502   4.268   3.520   4.081  0.7135 -0.6614  0.4980
 7623SOL    HW234503   4.389   3.547   4.169 -0.0867 -1.6745 -1.3067
 7624SOL     OW34504   1.548   3.301   5.706 -0.1223 -0.1247 -0.0907
 7624SOL    HW134505   1.516   3.388   5.732  0.5888  0.6566 -1.7611
 7624SOL    HW234506   1.613   3.293   5.775 -0.1103  0.4889 -0.0238
 7625SOL     OW34507   4.685   0.307   5.800 -0.1342  0.3981  0.0558
 7625SOL    HW134508   4.737   0.227   5.800 -1.7123 -0.6445  1.1697
 7625SOL    HW234509   4.684   0.328   5.707  2.4841  1.9562  0.3867
 7626SOL     OW34510   4.109   3.867   9.636  0.5322  0.7222 -0.1271
 7626SOL    HW134511   4.045   3.812   9.682  1.7145 -0.2090  0.4161
 7626SOL    HW234512   4.127   3.809   9.562 -0.2465  0.6061 -0.2196
 7627SOL     OW34513   2.684   3.868   8.205  0.0518  0.1120  0.1755
 7627SOL    HW134514   2.619   3.814   8.160  1.1065  1.1142 -2.5563
 7627SOL    HW234515   2.633   3.895   8.281  0.5164 -1.9093  1.1977
 7628SOL     OW34516   1.815   4.444   5.281  0.4700 -0.5012 -0.1121
 7628SOL    HW134517   1.901   4.486   5.270 -0.0426  1.6245  3.8186
 7628SOL    HW234518   1.811   4.396   5.198 -1.1031  0.0897 -0.3786
 7629SOL     OW34519   1.738   0.126  13.165  0.0037 -0.5958  0.1079
 7629SOL    HW134520   1.782   0.044  13.188 -3.1854 -1.9303  1.5869
 7629SOL    HW234521   1.643   0.111  13.171 -0.1125 -0.9201 -2.6107
 7630SOL     OW34522   4.272   0.909  12.946  0.3911 -0.7232  0.3098
 7630SOL    HW134523   4.337   0.980  12.944 -0.6163  0.2423  2.1189
 7630SOL    HW234524   4.336   0.839  12.929 -0.2764 -0.9161 -1.4008
 7631SOL     OW34525   2.548   0.715   1.810 -0.2103 -0.2025 -0.0276
 7631SOL    HW134526   2.464   0.670   1.809 -0.0875 -0.4814  1.3894
 7631SOL    HW234527   2.510   0.803   1.813  0.6883  0.1528  1.3955
 7632SOL     OW34528   3.086   3.590   2.181  0.4191  0.2781  0.1519
 7632SOL    HW134529   3.177   3.577   2.153  1.1890 -0.1982  2.8332
 7632SOL    HW234530   3.087   3.521   2.248 -0.0444 -0.9029 -1.0599
 7633SOL     OW34531   1.232   3.233   0.886  0.2420  0.0235  0.2371
 7633SOL    HW134532   1.258   3.324   0.902  1.8331 -0.3687 -0.1093
 7633SOL    HW234533   1.267   3.176   0.954 -1.7292 -0.5661  0.7574
 7634SOL     OW34534   3.885   2.597  17.435  0.7778  0.2940 -0.0879
 7634SOL    HW134535   3.890   2.546  17.516  0.4488  0.2487 -0.0959
 7634SOL    HW234536   3.974   2.589  17.402  1.2284  0.2591  1.1432
 7635SOL     OW34537   2.445   3.730   8.177 -0.0751  0.6907  0.8966
 7635SOL    HW134538   2.442   3.634   8.172  2.0031  0.7119 -0.7716
 7635SOL    HW234539   2.356   3.760   8.193  0.4239  1.9033  1.3953
 7636SOL     OW34540   2.015   4.159   3.550 -0.2935  0.1347 -0.0550
 7636SOL    HW134541   1.980   4.240   3.586  1.8322  1.3873 -0.7665
 7636SOL    HW234542   1.934   4.122   3.517  0.7910 -2.5879  0.3047
 7637SOL     OW34543   3.368   2.730  13.962 -0.2011 -0.2213  0.0933
 7637SOL    HW134544   3.278   2.749  13.938 -0.0817 -0.1709 -0.3146
 7637SOL    HW234545   3.412   2.815  13.957 -1.1304  0.2768  0.3360
 7638SOL     OW34546   4.179   3.106   6.731 -0.3003 -0.5642 -0.2816
 7638SOL    HW134547   4.261   3.059   6.724 -0.3700 -0.6912 -0.2450
 7638SOL    HW234548   4.137   3.053   6.799 -0.1346  1.1139  1.1313
 7639SOL     OW34549   0.386   1.768   5.327  0.6267  0.0720  0.5376
 7639SOL    HW134550   0.460   1.815   5.366  0.0611  0.7131  0.8344
 7639SOL    HW234551   0.429   1.692   5.287 -0.1445  0.0182 -0.1813
 7640SOL     OW34552   1.947   3.737   7.507 -0.6502  1.2124 -0.3732
 7640SOL    HW134553   1.929   3.678   7.434 -0.9188  0.9054 -0.0600
 7640SOL    HW234554   1.865   3.781   7.531 -0.5746  1.2000 -0.0951
 7641SOL     OW34555   3.186   2.416  13.080  0.7315  0.1743  0.5828
 7641SOL    HW134556   3.120   2.482  13.097  1.7846  1.7187 -1.3185
 7641SOL    HW234557   3.265   2.470  13.091 -2.4371  4.6218  1.2782
 7642SOL     OW34558   0.492   4.663   5.032 -0.1661 -0.6696 -0.2300
 7642SOL    HW134559   0.398   4.674   5.047 -0.3527 -2.6546  0.0827
 7642SOL    HW234560   0.529   0.012   5.047 -0.4252 -0.6377  0.2194
 7643SOL     OW34561   4.285   3.828   0.994  0.0740 -0.6689 -0.5301
 7643SOL    HW134562   4.262   3.735   0.983  0.4855 -0.7688 -0.5662
 7643SOL    HW234563   4.371   3.822   0.952  1.3555  1.2872  1.8586
 7644SOL     OW34564   3.240   3.036   4.537  0.8752  0.1884 -0.1922
 7644SOL    HW134565   3.187   2.963   4.568 -0.0929  0.6230 -0.8148
 7644SOL    HW234566   3.183   3.072   4.468  1.2192 -3.0615 -2.1639
 7645SOL     OW34567   2.884   0.511   6.057 -0.0275  0.1515  0.2005
 7645SOL    HW134568   2.861   0.587   6.110 -1.2843 -0.0856  0.0063
 7645SOL    HW234569   2.941   0.462   6.116 -2.1901 -1.6063  0.8245
 7646SOL     OW34570   2.934   3.653   6.908  0.0669 -0.2431 -0.3872
 7646SOL    HW134571   3.025   3.628   6.927  0.2542 -1.3653 -2.7613
 7646SOL    HW234572   2.931   3.642   6.813  1.4407  2.7057 -0.7597
 7647SOL     OW34573   1.237   0.662   6.633 -0.0884  0.2196 -0.3708
 7647SOL    HW134574   1.323   0.705   6.626  0.1167 -0.2407 -0.6703
 7647SOL    HW234575   1.172   0.732   6.641 -0.8263 -0.8568  2.8553
 7648SOL     OW34576   4.596   1.791   3.387  0.0088 -0.0665  0.3718
 7648SOL    HW134577   4.535   1.782   3.461  0.0798  0.2814  0.4714
 7648SOL    HW234578   4.610   1.701   3.359  0.7364 -0.4647  2.0472
 7649SOL     OW34579   0.697   1.922   2.956  0.0600 -0.4151  0.6189
 7649SOL    HW134580   0.777   1.869   2.950  0.7789  0.6275  0.9134
 7649SOL    HW234581   0.634   1.855   2.984 -0.2782  0.0047  0.8681
 7650SOL     OW34582   1.307   3.935  16.275  0.0938  0.3102 -0.0023
 7650SOL    HW134583   1.291   3.883  16.354 -0.5819 -1.5477 -1.3641
 7650SOL    HW234584   1.322   3.862  16.214 -0.3727 -0.5814  0.9467
 7651SOL     OW34585   2.841   2.504   5.440  0.1370  0.4361 -0.1216
 7651SOL    HW134586   2.909   2.502   5.507  0.0622  1.2895 -0.0212
 7651SOL    HW234587   2.872   2.423   5.400  2.6785  0.7959  1.1318
 7652SOL     OW34588   2.723   1.177   8.486 -0.3761  0.2077  0.0140
 7652SOL    HW134589   2.705   1.243   8.552  0.6005  0.9318 -0.4443
 7652SOL    HW234590   2.682   1.097   8.518  1.5549  0.6829  3.6269
 7653SOL     OW34591   0.864   3.080  15.077 -0.2927  0.3201 -0.2997
 7653SOL    HW134592   0.957   3.083  15.100 -0.2790  2.4797 -0.6510
 7653SOL    HW234593   0.844   3.166  15.041  1.0400  1.5816  1.9825
 7654SOL     OW34594   1.645   3.491   2.009 -0.1407  0.8382 -0.0959
 7654SOL    HW134595   1.594   3.472   2.088  2.2848  0.2377  1.3150
 7654SOL    HW234596   1.580   3.502   1.940  1.7635 -0.2003 -2.0463
 7655SOL     OW34597   2.304   1.673  15.036 -0.1117  0.5936 -0.4528
 7655SOL    HW134598   2.278   1.713  14.953  2.7236  0.4869 -1.4063
 7655SOL    HW234599   2.398   1.687  15.042 -0.2022  0.8317  0.3624
 7656SOL     OW34600   0.737   4.691   5.187  0.4749 -0.2007 -0.1180
 7656SOL    HW134601   0.748   4.674   5.281 -1.1230  2.6363  0.5616
 7656SOL    HW234602   0.711   4.603   5.158 -0.7650  0.0761  0.1703
 7657SOL     OW34603   3.379   2.325   3.001 -0.2193  0.2200  0.4870
 7657SOL    HW134604   3.309   2.281   3.049 -0.8421  0.7480  0.0713
 7657SOL    HW234605   3.445   2.256   2.995  0.5054  0.9999 -0.5417
 7658SOL     OW34606   1.670   3.456   7.794 -0.1167 -0.7928  0.4886
 7658SOL    HW134607   1.610   3.382   7.793 -1.0441 -0.0398 -0.2742
 7658SOL    HW234608   1.720   3.444   7.713  1.6188  1.7032  1.1914
 7659SOL     OW34609   1.888   3.957  12.245 -0.0130 -0.2002  0.6650
 7659SOL    HW134610   1.803   4.001  12.249 -0.7277 -1.7089  2.3164
 7659SOL    HW234611   1.916   3.979  12.334 -0.4982 -1.0096  1.0229
 7660SOL     OW34612   3.855   4.137   2.085  0.2201 -0.1297 -0.3174
 7660SOL    HW134613   3.888   4.095   2.164  0.1947 -0.0880 -0.2841
 7660SOL    HW234614   3.831   4.061   2.033  2.0135 -0.6322 -0.4013
 7661SOL     OW34615   0.154   4.080   8.602 -0.0759 -0.0624 -0.3412
 7661SOL    HW134616   0.205   4.005   8.632  0.2181 -0.2143 -1.2247
 7661SOL    HW234617   0.197   4.079   8.517  2.1523 -0.0408  0.7796
 7662SOL     OW34618   4.280   4.502   6.430 -0.0645 -0.2540  0.1518
 7662SOL    HW134619   4.303   4.585   6.471  1.5844 -0.5737 -0.1138
 7662SOL    HW234620   4.266   4.524   6.338  0.9926  0.1536  0.0906
 7663SOL     OW34621   0.184   1.461   4.494  0.4088 -0.3508  0.2485
 7663SOL    HW134622   0.270   1.489   4.528  0.4358  1.2535 -1.1670
 7663SOL    HW234623   0.132   1.539   4.512 -1.1769 -1.4429  0.3451
 7664SOL     OW34624   3.208   4.153   8.021  0.2822  0.0679  0.6732
 7664SOL    HW134625   3.267   4.212   8.069  1.3552 -0.5106  0.0601
 7664SOL    HW234626   3.137   4.145   8.085 -1.8109  0.1443 -1.6207
 7665SOL     OW34627   3.821   2.621   8.255  0.2609  0.4293 -0.1503
 7665SOL    HW134628   3.792   2.680   8.185  0.5309 -0.7185 -1.2210
 7665SOL    HW234629   3.843   2.692   8.316  2.6720 -0.2690 -0.1925
 7666SOL     OW34630   4.394   4.362   1.865 -0.3645 -0.5838 -0.3185
 7666SOL    HW134631   4.457   4.397   1.802  0.5657 -0.6714  0.5624
 7666SOL    HW234632   4.423   4.273   1.884 -3.2923 -2.0117 -2.6108
 7667SOL     OW34633   0.169   1.757   9.436 -0.1205  0.7552 -0.1909
 7667SOL    HW134634   0.222   1.825   9.395 -0.3475 -0.2576 -2.1729
 7667SOL    HW234635   0.109   1.810   9.489 -0.6675 -0.2593  0.2103
 7668SOL     OW34636   2.775   2.317  13.934 -0.3788 -0.2632  0.1112
 7668SOL    HW134637   2.849   2.258  13.926 -0.4866  0.0123 -3.0376
 7668SOL    HW234638   2.692   2.272  13.947 -0.7928  0.2318 -0.7713
 7669SOL     OW34639   3.831   2.812   4.022  0.6502  0.0516  0.1929
 7669SOL    HW134640   3.857   2.793   3.932  0.9951  2.2773 -0.1669
 7669SOL    HW234641   3.848   2.906   4.016  0.4924  0.0201 -0.7907
 7670SOL     OW34642   1.913   1.438   3.909 -0.0595  0.6415  0.1605
 7670SOL    HW134643   1.988   1.458   3.853  0.0991  0.5116  0.3271
 7670SOL    HW234644   1.875   1.523   3.930 -1.0961  0.8420 -2.4614
 7671SOL     OW34645   1.872   2.286   0.472  0.2066 -0.1568 -0.2648
 7671SOL    HW134646   1.789   2.325   0.444 -1.4176 -3.5429 -0.2983
 7671SOL    HW234647   1.916   2.275   0.388 -0.8445 -3.4790 -0.4068
 7672SOL     OW34648   0.341   2.291   4.523 -0.2189  0.2799  0.5900
 7672SOL    HW134649   0.275   2.349   4.483 -0.7855  1.4541  3.2398
 7672SOL    HW234650   0.285   2.234   4.576  0.8498 -0.8570  0.5020
 7673SOL     OW34651   2.249   0.928  15.288  0.9021  0.0708 -0.3042
 7673SOL    HW134652   2.165   0.972  15.274  0.8026  0.0208  0.1542
 7673SOL    HW234653   2.290   0.974  15.361  1.9213 -0.0919 -0.7703
 7674SOL     OW34654   4.732   2.642   2.419  0.3057 -0.1705 -0.3263
 7674SOL    HW134655   0.050   2.603   2.352 -0.6373 -0.1271 -1.1487
 7674SOL    HW234656   4.716   2.726   2.377 -0.3840  1.1354  2.5656
 7675SOL     OW34657   3.062   3.965   6.361 -0.3779  0.2221  0.5054
 7675SOL    HW134658   3.019   3.886   6.329  0.4306 -1.2952  3.1844
 7675SOL    HW234659   3.020   4.034   6.310 -0.3973 -0.1340  0.0366
 7676SOL     OW34660   1.977   4.081  15.619  0.1110  0.1010  0.3869
 7676SOL    HW134661   1.894   4.069  15.573  0.1554  0.3708  0.2336
 7676SOL    HW234662   2.032   4.125  15.554 -0.6892 -2.1269 -1.8182
 7677SOL     OW34663   2.089   1.784   1.866  0.1941  0.2411  0.3573
 7677SOL    HW134664   2.089   1.786   1.771  2.6072  0.4344  0.3573
 7677SOL    HW234665   2.146   1.856   1.896  1.5451 -0.8806  0.5085
 7678SOL     OW34666   0.746   3.788   5.295 -0.4295 -0.2341  0.5025
 7678SOL    HW134667   0.697   3.709   5.271 -0.9983  0.3690 -0.3304
 7678SOL    HW234668   0.764   3.818   5.206  1.1664  0.7976  1.1690
 7679SOL     OW34669   2.102   1.596   9.525  0.4778  0.2278  0.1477
 7679SOL    HW134670   2.118   1.511   9.484  0.8253  0.0362  0.6828
 7679SOL    HW234671   2.059   1.573   9.607 -0.9045 -0.1163 -0.6778
 7680SOL     OW34672   0.259   3.096   5.940  0.2161 -0.3184  0.2709
 7680SOL    HW134673   0.218   3.159   5.881  2.2493  2.2631  1.6507
 7680SOL    HW234674   0.350   3.122   5.949  0.2560  0.0201 -1.2369
 7681SOL     OW34675   4.147   3.912  16.185  0.5752 -0.1836  0.4132
 7681SOL    HW134676   4.161   3.853  16.259 -0.2624 -1.2125 -0.2529
 7681SOL    HW234677   4.052   3.912  16.173  0.8098 -0.6239 -1.3371
 7682SOL     OW34678   1.136   0.293   4.509  0.2851 -0.1804 -0.3683
 7682SOL    HW134679   1.143   0.359   4.578 -1.9337 -0.6917  0.3413
 7682SOL    HW234680   1.113   0.212   4.555  3.5141 -1.4383 -0.9676
 7683SOL     OW34681   1.227   4.275   6.302 -0.5838  0.1538 -0.4418
 7683SOL    HW134682   1.236   4.187   6.340  0.9477  0.6254  0.2967
 7683SOL    HW234683   1.218   4.259   6.208 -3.3037  0.4936 -0.2206
 7684SOL     OW34684   3.057   4.402   1.581 -0.1983 -0.1197  0.8611
 7684SOL    HW134685   3.152   4.409   1.581 -0.1630 -0.6254  0.1067
 7684SOL    HW234686   3.044   4.494   1.605  0.0149  0.5615 -1.6972
 7685SOL     OW34687   4.621   2.590  13.493  0.0512 -0.1342 -0.0742
 7685SOL    HW134688   4.573   2.574  13.412 -0.2076  2.0020 -0.3407
 7685SOL    HW234689   4.709   2.565  13.466 -0.7711 -2.0118 -0.9559
 7686SOL     OW34690   2.915   2.570   9.507 -0.4330  0.4882  0.0344
 7686SOL    HW134691   2.984   2.631   9.531 -0.2928  0.0387  0.7532
 7686SOL    HW234692   2.893   2.526   9.589  3.5606  0.3022  0.9923
 7687SOL     OW34693   3.795   1.249  16.252  0.2542 -0.1158  0.3995
 7687SOL    HW134694   3.728   1.317  16.255  1.7518  1.4355 -2.2119
 7687SOL    HW234695   3.860   1.280  16.190  0.2645  0.2990  0.6224
 7688SOL     OW34696   4.544   1.687   3.984 -0.6988  0.1255  0.2714
 7688SOL    HW134697   4.620   1.705   4.039  0.9577  1.6574 -2.5580
 7688SOL    HW234698   4.574   1.743   3.914  0.8112 -1.0282  0.0007
 7689SOL     OW34699   4.647   2.734   0.332 -0.3061 -0.1110  0.8531
 7689SOL    HW134700   4.684   2.667   0.275 -1.6452 -0.8307  0.8354
 7689SOL    HW234701   4.721   2.761   0.386 -0.3924  1.7775  0.0552
 7690SOL     OW34702   3.702   2.149   1.633  0.0771  0.1835 -0.2703
 7690SOL    HW134703   3.769   2.190   1.688  0.6134  0.1085 -0.8800
 7690SOL    HW234704   3.747   2.092   1.571  0.9119 -0.8694  1.2949
 7691SOL     OW34705   3.404   3.964   1.674 -0.0074 -0.9807 -0.8927
 7691SOL    HW134706   3.458   3.886   1.685  3.3987  1.2432 -1.8963
 7691SOL    HW234707   3.392   4.003   1.761  0.0499 -0.8903 -0.9255
 7692SOL     OW34708   0.039   2.360  13.807  0.1500 -0.0439  0.0738
 7692SOL    HW134709   4.738   2.284  13.849  1.2662 -1.6197 -1.7540
 7692SOL    HW234710   0.025   2.438  13.862 -2.4902 -0.2518 -0.3194
 7693SOL     OW34711   3.865   0.391   1.837  0.3332  0.0406 -0.2258
 7693SOL    HW134712   3.796   0.434   1.887 -0.2849 -1.7462  0.4311
 7693SOL    HW234713   3.809   0.348   1.773 -0.9382 -1.9144  2.2584
 7694SOL     OW34714   3.898   1.473   5.051 -0.9070  0.4285 -0.1048
 7694SOL    HW134715   3.880   1.380   5.036  0.0076 -0.0371  1.6622
 7694SOL    HW234716   3.814   1.516   5.038 -1.5897 -0.6152  0.8212
 7695SOL     OW34717   3.731   0.340   5.293  0.1549  0.1394 -0.2365
 7695SOL    HW134718   3.775   0.406   5.346 -0.1767  0.3421 -0.2133
 7695SOL    HW234719   3.764   0.364   5.207 -1.2553  0.8062 -0.5798
 7696SOL     OW34720   0.585   1.538   7.016 -0.3110 -0.0122  0.4720
 7696SOL    HW134721   0.563   1.508   6.927  2.5667  0.9436 -0.5360
 7696SOL    HW234722   0.651   1.477   7.048 -0.9925 -0.4773  1.0061
 7697SOL     OW34723   1.246   1.679   4.934 -0.6772  0.3128 -0.1210
 7697SOL    HW134724   1.337   1.699   4.917 -0.2457 -0.6186  1.0263
 7697SOL    HW234725   1.204   1.731   4.867 -1.9564  0.3777  0.7209
 7698SOL     OW34726   4.149   2.255   7.614 -0.5255  0.1333  0.0514
 7698SOL    HW134727   4.156   2.174   7.563  0.3079  0.0499  0.2866
 7698SOL    HW234728   4.093   2.297   7.550 -1.4829 -1.9905 -0.5071
 7699SOL     OW34729   1.048   3.291   2.311 -0.2435 -0.3527 -0.5834
 7699SOL    HW134730   1.004   3.238   2.245 -0.9916 -0.1403 -0.2622
 7699SOL    HW234731   1.125   3.311   2.258 -0.3377  0.5002 -0.3969
 7700SOL     OW34732   3.642   2.235  15.287 -0.5572 -0.5218 -0.2259
 7700SOL    HW134733   3.625   2.157  15.341  1.9964  0.0520  1.4007
 7700SOL    HW234734   3.704   2.203  15.222 -1.0620  0.7606 -1.3283
 7701SOL     OW34735   0.378   4.121  17.426 -0.3824  0.5445 -0.3054
 7701SOL    HW134736   0.463   4.158  17.403 -0.8225  1.8280  0.1411
 7701SOL    HW234737   0.403   4.029  17.421  0.6090  0.8016 -0.0270
 7702SOL     OW34738   1.805   0.344  15.394  0.2777  0.2800 -0.0655
 7702SOL    HW134739   1.724   0.297  15.415 -1.2751  1.5681 -3.0421
 7702SOL    HW234740   1.877   0.289  15.424  2.3638  2.4454 -1.1011
 7703SOL     OW34741   0.122   1.822  11.493  0.1416 -0.1269  0.3043
 7703SOL    HW134742   0.083   1.904  11.524  0.8680  0.8534 -1.3827
 7703SOL    HW234743   0.186   1.859  11.432  1.3969 -0.0846  1.6208
 7704SOL     OW34744   4.662   4.445   1.816 -0.0737 -0.2420 -0.4897
 7704SOL    HW134745   4.675   4.352   1.794 -1.0148 -0.5042  0.0797
 7704SOL    HW234746   0.001   4.465   1.870  2.2600 -0.4971 -3.7003
 7705SOL     OW34747   0.716   4.071  11.342 -0.1786  0.0681 -0.1076
 7705SOL    HW134748   0.790   4.028  11.383  0.2736  0.2228 -0.7639
 7705SOL    HW234749   0.751   4.137  11.282  2.0012 -0.0117  1.1051
 7706SOL     OW34750   0.066   0.070  11.270 -0.0759  0.5987  0.1092
 7706SOL    HW134751   4.708   0.076  11.266 -0.2746 -2.0031  0.7674
 7706SOL    HW234752   0.078   4.737  11.333  0.3320  1.0425  0.5276
 7707SOL     OW34753   1.176   1.419   9.524  0.1418  0.1500 -0.2384
 7707SOL    HW134754   1.216   1.374   9.598  2.0243  0.1123 -1.2471
 7707SOL    HW234755   1.259   1.448   9.485 -1.1962  1.2153 -2.3362
 7708SOL     OW34756   0.823   0.178   8.850  0.1612  0.0604 -0.0606
 7708SOL    HW134757   0.870   0.189   8.932  1.4608 -1.3118 -0.6043
 7708SOL    HW234758   0.747   0.131   8.883 -0.4280  2.0825  1.4211
 7709SOL     OW34759   4.465   0.385   2.608  0.2681 -0.1973 -0.6332
 7709SOL    HW134760   4.481   0.323   2.537  1.0355 -0.3247 -0.3453
 7709SOL    HW234761   4.527   0.343   2.667  1.1302 -0.2056 -1.5643
 7710SOL     OW34762   1.447   0.326  13.016  0.0055 -0.3737 -0.2490
 7710SOL    HW134763   1.421   0.253  13.072 -1.0605 -0.8017 -1.3097
 7710SOL    HW234764   1.531   0.343  13.059 -1.3240 -0.3681  2.3804
 7711SOL     OW34765   0.190   3.026   7.914 -0.1701  0.2660 -0.4375
 7711SOL    HW134766   0.163   3.117   7.907  0.0181  0.2532 -1.4020
 7711SOL    HW234767   0.138   3.006   7.991 -0.3030 -1.4405 -0.9470
 7712SOL     OW34768   0.662   4.502  11.191 -0.3633  0.1000 -0.3520
 7712SOL    HW134769   0.711   4.530  11.268 -0.5169 -0.4945 -0.0446
 7712SOL    HW234770   0.590   4.565  11.191 -1.3165 -0.9925 -0.9096
 7713SOL     OW34771   1.290   4.123   8.976 -0.4521  0.2567  0.1448
 7713SOL    HW134772   1.225   4.068   9.020  0.3300 -0.6077  0.2318
 7713SOL    HW234773   1.344   4.064   8.924  0.1576 -0.8323  2.0043
 7714SOL     OW34774   1.493   2.898   1.353  0.3007 -0.2656  0.5438
 7714SOL    HW134775   1.534   2.833   1.411  2.8218 -0.8847 -1.9137
 7714SOL    HW234776   1.565   2.945   1.310 -0.0776 -1.0421 -0.9419
 7715SOL     OW34777   0.717   4.469   2.974  0.1743  0.4110  0.0767
 7715SOL    HW134778   0.695   4.516   2.893 -1.2205 -0.6478 -0.1557
 7715SOL    HW234779   0.747   4.540   3.030 -0.2639  0.6086  0.0564
 7716SOL     OW34780   1.115   3.587   1.940  0.3771  0.0312 -0.2173
 7716SOL    HW134781   1.085   3.555   1.855 -1.0248 -0.9991  0.6503
 7716SOL    HW234782   1.037   3.578   1.995  0.0478 -0.5809 -0.7828
 7717SOL     OW34783   0.955   4.505  14.715  0.8414 -0.2753  0.3662
 7717SOL    HW134784   0.965   4.411  14.731 -3.0701 -0.5978  0.8294
 7717SOL    HW234785   1.041   4.532  14.748  1.2067  0.0537 -0.8685
 7718SOL     OW34786   4.663   0.199   7.245 -0.0540 -0.0965  0.7810
 7718SOL    HW134787   4.610   0.219   7.168  0.1268 -0.3967  0.5780
 7718SOL    HW234788   4.601   0.189   7.318  1.9037  0.7378  2.5659
 7719SOL     OW34789   1.531   3.072   2.101 -0.1087  0.9301 -0.1408
 7719SOL    HW134790   1.576   3.118   2.030 -0.9160 -0.6771 -1.6948
 7719SOL    HW234791   1.592   3.086   2.174 -1.1864  0.1092  0.9037
 7720SOL     OW34792   0.339   0.280   4.878 -0.2135 -0.4890 -0.5663
 7720SOL    HW134793   0.247   0.265   4.859 -0.5002 -0.6822  0.9394
 7720SOL    HW234794   0.371   0.298   4.790 -1.3779  1.1520 -0.6496
 7721SOL     OW34795   1.266   3.686  14.827 -0.4978  0.0729 -0.2692
 7721SOL    HW134796   1.199   3.642  14.879 -0.8704 -0.8541 -1.5385
 7721SOL    HW234797   1.226   3.664  14.743 -3.3580 -1.4047  1.4756
 7722SOL     OW34798   4.421   3.324   6.410  1.2264  0.0817 -0.0027
 7722SOL    HW134799   4.441   3.311   6.502  3.6741 -0.8996 -0.6839
 7722SOL    HW234800   4.477   3.400   6.390  0.9059  0.4107  0.3527
 7723SOL     OW34801   0.425   3.659   2.514  0.2887 -0.1284  0.4084
 7723SOL    HW134802   0.331   3.666   2.494  0.4653 -1.2565 -0.8606
 7723SOL    HW234803   0.467   3.674   2.429 -1.0628  2.6678  0.2158
 7724SOL     OW34804   2.997   3.444  14.689 -0.0015 -0.5537 -0.7141
 7724SOL    HW134805   3.077   3.392  14.680 -0.3023 -1.2711  0.7685
 7724SOL    HW234806   2.938   3.402  14.751  1.5061 -0.7680  0.5824
 7725SOL     OW34807   0.801   4.325   7.397 -0.2772  0.7028 -0.1166
 7725SOL    HW134808   0.864   4.323   7.469 -0.0831  0.7014 -0.2870
 7725SOL    HW234809   0.834   4.269   7.327 -1.0815 -1.3461  1.1473
 7726SOL     OW34810   4.724   0.511  12.867 -0.6050  0.2342  0.8963
 7726SOL    HW134811   0.078   0.495  12.848 -0.4738  1.8995  0.1125
 7726SOL    HW234812   4.708   0.464  12.949  2.4961 -1.7298  0.3497
 7727SOL     OW34813   2.669   0.095   1.111 -0.1670  0.1365 -0.2758
 7727SOL    HW134814   2.749   0.092   1.058  0.2352 -1.3888  0.4067
 7727SOL    HW234815   2.689   0.164   1.174  1.3214 -2.0174  1.5860
 7728SOL     OW34816   2.790   0.213   3.598 -0.0456 -0.1093  0.4739
 7728SOL    HW134817   2.711   0.190   3.549 -0.5019  0.2594  1.0334
 7728SOL    HW234818   2.748   0.258   3.671  1.4125  3.2352 -0.7513
 7729SOL     OW34819   2.362   1.774   7.766 -0.0444 -0.2021  0.6067
 7729SOL    HW134820   2.431   1.807   7.708 -1.5954  0.2670 -0.9870
 7729SOL    HW234821   2.391   1.684   7.781 -0.6387 -0.4031  0.5442
 7730SOL     OW34822   1.316   1.786   1.167  0.2878  0.0483  1.0151
 7730SOL    HW134823   1.253   1.714   1.171 -0.7435  0.9549  1.2960
 7730SOL    HW234824   1.394   1.755   1.122 -0.0105  0.6326  0.0976
 7731SOL     OW34825   4.162   2.542   7.736 -0.0194 -0.0362  0.0686
 7731SOL    HW134826   4.150   2.451   7.762  0.9289 -0.9779 -2.9078
 7731SOL    HW234827   4.244   2.537   7.688  0.5612 -0.7986  1.1306
 7732SOL     OW34828   3.644   0.707  14.011  0.2404  0.1430  0.0358
 7732SOL    HW134829   3.689   0.653  14.076  0.9285 -1.5517 -1.8414
 7732SOL    HW234830   3.551   0.695  14.033 -0.2714 -1.6476 -3.0399
 7733SOL     OW34831   4.596   1.344  11.507  0.1713  0.3824  0.2722
 7733SOL    HW134832   4.535   1.417  11.513 -1.4138 -1.0837  1.8111
 7733SOL    HW234833   4.651   1.374  11.435 -0.5834 -0.7906 -0.7957
 7734SOL     OW34834   4.466   2.922  11.576 -0.2589  0.6893  0.5847
 7734SOL    HW134835   4.475   2.854  11.642 -2.2926 -2.0983 -2.0025
 7734SOL    HW234836   4.379   2.909  11.539 -0.6371  1.4217  1.2008
 7735SOL     OW34837   2.240   0.782   4.259  0.7156 -0.2807  0.4544
 7735SOL    HW134838   2.149   0.774   4.286 -0.4275 -0.3481 -3.4134
 7735SOL    HW234839   2.265   0.867   4.296  0.4170  0.2010 -0.4630
 7736SOL     OW34840   0.922   0.582   1.787 -0.1381 -0.4398 -0.1084
 7736SOL    HW134841   0.882   0.497   1.767 -0.4856  0.0254 -1.3810
 7736SOL    HW234842   0.843   0.636   1.800 -0.1319 -0.3967 -0.2454
 7737SOL     OW34843   3.761   0.476   0.870 -0.3191 -0.7233 -0.2902
 7737SOL    HW134844   3.770   0.381   0.883 -1.3368 -0.5290  1.7896
 7737SOL    HW234845   3.714   0.494   0.951  2.4248  1.6224  0.7884
 7738SOL     OW34846   1.100   2.646   3.791  0.1264 -0.3039 -0.7234
 7738SOL    HW134847   1.069   2.728   3.753 -1.0068 -0.5211 -0.2789
 7738SOL    HW234848   1.015   2.602   3.797 -1.2805  2.4786 -0.5434
 7739SOL     OW34849   0.248   3.737  15.172 -0.8002  0.2627 -0.0919
 7739SOL    HW134850   0.333   3.736  15.127 -1.7159 -0.1180 -1.7876
 7739SOL    HW234851   0.273   3.687  15.250  0.8575 -0.4973 -1.1029
 7740SOL     OW34852   4.403   3.682   8.960  0.2266 -0.1873  1.0602
 7740SOL    HW134853   4.438   3.601   8.924 -1.1381  0.0323 -0.7539
 7740SOL    HW234854   4.471   3.744   8.934 -1.0300  1.2293  1.1472
 7741SOL     OW34855   2.280   1.306   3.026 -0.4511 -0.0966  0.3391
 7741SOL    HW134856   2.280   1.311   3.121  0.2074  0.5187  0.3102
 7741SOL    HW234857   2.349   1.242   3.008 -0.6931  0.1533 -1.4858
 7742SOL     OW34858   1.694   1.070  10.948  0.3244 -0.2493  0.1441
 7742SOL    HW134859   1.710   1.097  11.039 -0.3180 -0.8044  0.4267
 7742SOL    HW234860   1.778   1.031  10.923  0.5584  0.3233  0.0351
 7743SOL     OW34861   4.701   0.146  17.296  0.2247  0.3582  0.4955
 7743SOL    HW134862   4.608   0.140  17.319  0.4048 -0.7604  0.9429
 7743SOL    HW234863   4.704   0.077  17.230 -0.3830 -0.0965  0.9375
 7744SOL     OW34864   1.727   3.199   1.938  0.0142  0.2227  0.0648
 7744SOL    HW134865   1.690   3.273   1.890 -1.0656 -0.6839 -0.5231
 7744SOL    HW234866   1.800   3.258   1.958  1.0885 -1.0098 -0.2305
 7745SOL     OW34867   3.918   2.288  16.714  0.4010  0.4873  0.3012
 7745SOL    HW134868   3.884   2.332  16.636  1.9616  0.9452 -0.1226
 7745SOL    HW234869   3.879   2.345  16.780 -0.0018  0.5370  0.0165
 7746SOL     OW34870   1.891   2.565  15.452 -0.1812 -0.0193 -0.0550
 7746SOL    HW134871   1.891   2.507  15.528 -3.2883  0.4725  0.3151
 7746SOL    HW234872   1.980   2.598  15.439 -0.0787 -0.0387  0.6067
 7747SOL     OW34873   0.316   1.861  12.175  0.2953  0.3366 -0.0247
 7747SOL    HW134874   0.250   1.827  12.235 -0.0216 -0.2269 -0.6960
 7747SOL    HW234875   0.356   1.932  12.226 -0.0950  0.7389 -0.2769
 7748SOL     OW34876   2.862   4.355  13.459  0.1760 -0.3990  0.4564
 7748SOL    HW134877   2.939   4.403  13.491 -0.4945  0.6081  0.5691
 7748SOL    HW234878   2.900   4.309  13.384  0.3664 -0.2836  0.4820
 7749SOL     OW34879   4.601   1.191   7.349  0.0352  0.2210 -0.4156
 7749SOL    HW134880   4.570   1.148   7.429  0.1449  2.7191  0.9808
 7749SOL    HW234881   4.548   1.145   7.284 -2.6576 -0.1452  2.0348
 7750SOL     OW34882   2.071   3.994   2.726 -0.1905 -0.0570  0.5971
 7750SOL    HW134883   2.100   3.909   2.694  0.9229  1.3076 -2.0858
 7750SOL    HW234884   1.978   3.979   2.742 -0.0563 -1.3939  0.1270
 7751SOL     OW34885   2.221   2.429   9.946 -0.0252 -0.0484  0.2110
 7751SOL    HW134886   2.288   2.487   9.909 -0.1222 -0.2050 -0.2085
 7751SOL    HW234887   2.177   2.469  10.021  0.8868 -0.9235  1.2152
 7752SOL     OW34888   3.707   4.561   5.306 -0.7992 -0.6650  0.0246
 7752SOL    HW134889   3.733   4.543   5.216  1.7487  1.1198  0.3832
 7752SOL    HW234890   3.680   4.652   5.296 -3.7547 -1.2791  2.3616
 7753SOL     OW34891   2.193   0.621  13.086 -0.3424  0.8275  0.8764
 7753SOL    HW134892   2.205   0.539  13.134  1.2930  1.5597  1.7088
 7753SOL    HW234893   2.208   0.603  12.994 -1.2156 -2.0477  1.2959
 7754SOL     OW34894   3.163   3.677   5.100 -0.5500 -0.5330 -0.9718
 7754SOL    HW134895   3.257   3.660   5.106 -0.8191 -0.8815  2.0072
 7754SOL    HW234896   3.143   3.690   5.192  0.1845  1.0490 -1.0464
 7755SOL     OW34897   2.197   4.487   8.164  0.4477  0.0454 -0.1379
 7755SOL    HW134898   2.252   4.545   8.216  0.9468 -0.7025  0.1736
 7755SOL    HW234899   2.260   4.431   8.118 -0.2433  0.7610 -1.9693
 7756SOL     OW34900   1.925   4.517   6.742  0.1793  0.0805 -0.0112
 7756SOL    HW134901   2.010   4.544   6.775  1.5595 -0.5136 -3.0729
 7756SOL    HW234902   1.949   4.449   6.679  0.0287  0.2730 -0.2761
 7757SOL     OW34903   0.503   0.079   8.721  0.0554 -0.0493  0.4587
 7757SOL    HW134904   0.491   0.168   8.688  0.4335  0.0579  0.6139
 7757SOL    HW234905   0.461   0.085   8.807  0.8390  1.5761  0.7137
 7758SOL     OW34906   2.198   3.445  14.744 -0.4011 -0.0481  0.5590
 7758SOL    HW134907   2.112   3.406  14.731 -0.4903 -0.7408  3.1226
 7758SOL    HW234908   2.180   3.539  14.742 -0.4300 -0.0657  0.0820
 7759SOL     OW34909   2.110   0.832   9.050  0.0603 -0.4055  0.0760
 7759SOL    HW134910   2.205   0.820   9.049  0.4173  2.5259  0.2256
 7759SOL    HW234911   2.099   0.913   9.099  2.1911 -1.1259  1.7482
 7760SOL     OW34912   0.239   4.112   0.453 -0.0892 -0.7548  0.3258
 7760SOL    HW134913   0.274   4.024   0.441 -0.3819 -1.1261  2.1223
 7760SOL    HW234914   0.317   4.153   0.491 -0.9457  0.0319  1.2346
 7761SOL     OW34915   0.124   1.093   0.560  0.1167 -0.2583 -0.3057
 7761SOL    HW134916   0.182   1.167   0.581 -0.4178  0.2389 -0.5797
 7761SOL    HW234917   0.104   1.051   0.643  1.1111  0.5681  0.3626
 7762SOL     OW34918   2.173   3.005  12.571 -0.3900 -0.2478  0.1747
 7762SOL    HW134919   2.226   2.936  12.532 -0.4568  1.4048 -2.8267
 7762SOL    HW234920   2.129   3.049  12.498 -0.3356 -1.6334 -0.6853
 7763SOL     OW34921   0.494   4.459   2.078  0.5750  0.7454  0.1943
 7763SOL    HW134922   0.455   4.510   2.007  1.1247  1.3415  0.3188
 7763SOL    HW234923   0.499   4.529   2.144 -0.4076  1.1282 -0.1389
 7764SOL     OW34924   3.904   1.707  16.000 -0.0933  0.3021 -0.1460
 7764SOL    HW134925   3.943   1.766  15.935 -0.5829 -1.3626 -1.9930
 7764SOL    HW234926   3.877   1.753  16.079 -4.4108 -0.3953 -1.2372
 7765SOL     OW34927   1.318   4.512  17.342 -0.3409 -0.1690 -0.2985
 7765SOL    HW134928   1.249   4.546  17.400 -1.3153 -4.1480  0.8652
 7765SOL    HW234929   1.352   4.440  17.394 -0.1397 -0.7496 -1.2384
 7766SOL     OW34930   3.945   2.241   1.785  0.6221 -0.5885  0.1982
 7766SOL    HW134931   3.988   2.327   1.781 -0.5704  0.0577  1.5244
 7766SOL    HW234932   4.022   2.184   1.788  0.3401 -1.1692 -3.7180
 7767SOL     OW34933   0.404   2.035   3.242 -0.3114  0.6984  0.0935
 7767SOL    HW134934   0.455   1.969   3.289  1.6622  1.7589 -0.5578
 7767SOL    HW234935   0.402   2.106   3.306 -0.7606  1.3760 -0.6578
 7768SOL     OW34936   4.342   2.142  13.078 -0.2097 -0.2741  0.3985
 7768SOL    HW134937   4.393   2.222  13.089 -0.1926  0.1359 -2.6383
 7768SOL    HW234938   4.295   2.148  13.161 -1.4809 -1.3854 -0.2282
 7769SOL     OW34939   0.903   3.757   8.740 -0.0154 -0.1779  0.3556
 7769SOL    HW134940   0.889   3.779   8.832 -0.2912 -2.5482  0.8654
 7769SOL    HW234941   0.994   3.788   8.731 -0.5516  1.1756 -0.4123
 7770SOL     OW34942   4.227   0.782   5.277  0.7943 -0.0897  0.7136
 7770SOL    HW134943   4.254   0.873   5.273 -0.9893  0.3400 -1.1258
 7770SOL    HW234944   4.262   0.748   5.360 -0.4186 -0.0372  1.2394
 7771SOL     OW34945   1.886   1.381   0.627  0.5247  0.1062 -0.4904
 7771SOL    HW134946   1.910   1.465   0.666 -0.9317  0.9288 -1.3509
 7771SOL    HW234947   1.972   1.347   0.602 -0.9779 -2.2660 -2.4526
 7772SOL     OW34948   2.351   1.299  12.148 -0.6707  0.1683 -0.0448
 7772SOL    HW134949   2.278   1.356  12.172 -0.7150  1.6516 -3.5999
 7772SOL    HW234950   2.327   1.236  12.216 -1.8364  2.1452  1.3867
 7773SOL     OW34951   2.348   0.473   3.827 -0.8346  0.1616  0.4609
 7773SOL    HW134952   2.265   0.457   3.871 -1.6106  0.0210 -1.0634
 7773SOL    HW234953   2.337   0.562   3.794 -0.4959 -0.6607 -1.8594
 7774SOL     OW34954   1.525   2.663   7.691 -0.4975  0.2092 -0.3623
 7774SOL    HW134955   1.518   2.700   7.779  0.0846 -1.0105  0.1889
 7774SOL    HW234956   1.567   2.579   7.711 -2.0648 -0.7715 -1.2317
 7775SOL     OW34957   0.910   1.591   0.514 -0.0748  0.0551  0.1169
 7775SOL    HW134958   0.859   1.583   0.433  0.2938 -2.0415  0.1060
 7775SOL    HW234959   0.917   1.498   0.535  1.5951 -0.0174 -0.8163
 7776SOL     OW34960   0.934   3.975   3.216  0.3359  0.0937 -0.3747
 7776SOL    HW134961   0.907   3.976   3.124 -0.9753  2.5895  0.0582
 7776SOL    HW234962   0.883   4.043   3.259  1.0346  0.4695 -0.1503
 7777SOL     OW34963   1.152   3.081   3.149  0.6183 -0.0029 -0.3192
 7777SOL    HW134964   1.174   3.100   3.240  0.0052 -0.1840 -0.1385
 7777SOL    HW234965   1.136   3.169   3.115 -0.8056 -0.3786 -0.6030
 7778SOL     OW34966   1.422   1.249   8.075 -0.2033  0.2741 -0.4128
 7778SOL    HW134967   1.332   1.250   8.106 -0.2195 -1.3933 -0.4577
 7778SOL    HW234968   1.477   1.254   8.154  1.0387  1.6366 -1.3535
 7779SOL     OW34969   4.399   1.198   6.098 -0.5090 -0.4704  0.1796
 7779SOL    HW134970   4.363   1.215   6.011 -1.1098 -0.2392  0.4793
 7779SOL    HW234971   4.475   1.153   6.059  1.3663  2.8486  0.0390
 7780SOL     OW34972   4.079   0.042   6.882  0.2528  0.2538 -0.6730
 7780SOL    HW134973   4.008   0.016   6.824  0.1064 -0.5964 -0.0992
 7780SOL    HW234974   4.027   0.080   6.952 -0.4494 -1.8822 -0.0776
 7781SOL     OW34975   0.787   2.630   4.392  0.9754 -0.2081  0.1497
 7781SOL    HW134976   0.791   2.594   4.481 -1.4559  2.5092  1.3442
 7781SOL    HW234977   0.878   2.623   4.363  1.4153  1.9794  1.0173
 7782SOL     OW34978   2.072   1.771   6.634  0.1092 -0.1763  0.3083
 7782SOL    HW134979   1.983   1.799   6.657 -0.8673 -1.3157 -2.0585
 7782SOL    HW234980   2.105   1.753   6.722 -0.6441  0.7990  0.7850
 7783SOL     OW34981   3.602   1.794   5.518  0.6805  0.0940 -0.5248
 7783SOL    HW134982   3.669   1.860   5.497  0.4915  1.1944  2.3824
 7783SOL    HW234983   3.651   1.732   5.572 -2.4730 -2.0149 -0.0983
 7784SOL     OW34984   0.243   0.612   6.179 -0.4314  0.2235  0.4596
 7784SOL    HW134985   0.170   0.550   6.179  0.1489 -0.4676  0.2366
 7784SOL    HW234986   0.210   0.688   6.226  0.9907  0.7691  0.5984
 7785SOL     OW34987   2.930   1.809   6.830 -0.0727 -0.1689  0.1861
 7785SOL    HW134988   2.874   1.737   6.799 -0.4865 -0.2843  1.1948
 7785SOL    HW234989   2.924   1.867   6.755  1.0379 -0.8104 -0.4124
 7786SOL     OW34990   2.272   1.330  17.095 -0.5318 -0.2760 -0.3546
 7786SOL    HW134991   2.200   1.277  17.060 -0.1504 -0.6837 -0.5247
 7786SOL    HW234992   2.229   1.414  17.109  0.6195  0.0504  1.1108
 7787SOL     OW34993   0.629   2.311   7.535 -0.1825 -0.4828  0.2738
 7787SOL    HW134994   0.637   2.218   7.556  3.5527  0.4426  2.9901
 7787SOL    HW234995   0.548   2.331   7.582  0.3230  1.6847  0.2163
 7788SOL     OW34996   0.306   4.428  11.331  0.3912  0.4543 -0.2929
 7788SOL    HW134997   0.310   4.366  11.404  0.8036 -1.1836 -1.7177
 7788SOL    HW234998   0.285   4.379  11.252  1.7827 -1.4573  0.5043
 7789SOL     OW34999   2.860   1.832  14.068 -0.6465  0.1412 -0.0614
 7789SOL    HW135000   2.853   1.898  14.138  0.6748 -0.6999  0.8768
 7789SOL    HW235001   2.805   1.763  14.106 -0.4439  0.5737  1.0385
 7790SOL     OW35002   4.184   2.904   9.279  0.1626 -0.4248  0.2397
 7790SOL    HW135003   4.194   2.994   9.247  1.6331 -1.2000 -1.5192
 7790SOL    HW235004   4.204   2.917   9.372  0.5441  1.3460 -0.0871
 7791SOL     OW35005   3.281   1.941   2.072  0.2051 -0.5820 -0.3988
 7791SOL    HW135006   3.331   1.997   2.132 -0.3153 -1.6499  1.0329
 7791SOL    HW235007   3.213   2.001   2.042 -0.2506  0.2011  2.1751
 7792SOL     OW35008   3.765   3.900   6.284 -0.8804 -0.4803  0.1005
 7792SOL    HW135009   3.686   3.862   6.323 -1.5321  0.6458 -0.1206
 7792SOL    HW235010   3.748   3.994   6.293  0.7934 -0.2695  1.0543
 7793SOL     OW35011   2.282   0.421  12.041  0.2445  0.1199 -0.3662
 7793SOL    HW135012   2.273   0.503  12.091  1.0010  0.4567 -0.7772
 7793SOL    HW235013   2.362   0.380  12.074  0.5209  1.7115  0.9439
 7794SOL     OW35014   3.357   2.920  11.609  0.3322  0.3415 -0.3117
 7794SOL    HW135015   3.295   2.966  11.666  1.7207  0.3637  1.1650
 7794SOL    HW235016   3.356   2.972  11.528 -2.3196 -0.7532 -0.9981
 7795SOL     OW35017   0.252   3.524  13.641 -0.1500 -0.3074 -0.5097
 7795SOL    HW135018   0.159   3.504  13.624 -0.2750  0.6866 -1.0170
 7795SOL    HW235019   0.239   3.511  13.735 -1.5440  0.0095 -0.6573
 7796SOL     OW35020   4.527   0.576   7.598  0.4997 -0.0623 -0.0358
 7796SOL    HW135021   4.551   0.536   7.515  1.4448 -0.1969  0.2937
 7796SOL    HW235022   4.521   0.668   7.573  2.7003  0.4213  1.2313
 7797SOL     OW35023   2.906   4.435   8.899  0.6029 -0.0101  0.4278
 7797SOL    HW135024   2.899   4.527   8.926  1.1099 -0.4966  2.1887
 7797SOL    HW235025   2.979   4.401   8.950  1.4125 -3.5034 -3.0803
 7798SOL     OW35026   4.419   4.507  11.515  0.3422 -0.0070  0.1106
 7798SOL    HW135027   4.363   4.563  11.462  2.2692  0.1171 -1.8282
 7798SOL    HW235028   4.497   4.505  11.460  1.1131  0.6593  1.1570
 7799SOL     OW35029   3.989   4.300  16.664  0.3748  0.0696  0.0963
 7799SOL    HW135030   4.026   4.217  16.693 -0.2276 -0.3713 -0.3975
 7799SOL    HW235031   3.909   4.301  16.717  1.3368 -2.9918  1.5677
 7800SOL     OW35032   0.152   0.849   1.387  0.9311  0.8054 -0.0189
 7800SOL    HW135033   0.220   0.912   1.411  0.5148  0.8578  1.0453
 7800SOL    HW235034   0.137   0.811   1.474 -0.6484  2.0267  0.2272
 7801SOL     OW35035   3.956   3.054   3.264 -0.2608 -0.2953  0.1877
 7801SOL    HW135036   3.925   2.964   3.277 -0.5205 -0.4212 -1.3194
 7801SOL    HW235037   3.881   3.093   3.219  0.9182  1.1257 -0.5301
 7802SOL     OW35038   2.492   4.471   6.419  0.2085  0.0297 -0.2287
 7802SOL    HW135039   2.466   4.456   6.510  0.9970  0.6078  0.0918
 7802SOL    HW235040   2.540   4.551   6.441 -0.0250 -0.5912  2.5813
 7803SOL     OW35041   0.303   3.233  12.500 -0.3460 -0.0220 -0.2125
 7803SOL    HW135042   0.348   3.152  12.524 -2.9141 -1.1860  0.6582
 7803SOL    HW235043   0.371   3.297  12.524 -0.5139 -0.4720  1.4714
 7804SOL     OW35044   2.426   0.396   6.250 -0.2490 -0.3553 -0.0917
 7804SOL    HW135045   2.374   0.340   6.308 -2.0064 -0.0180 -1.3636
 7804SOL    HW235046   2.507   0.405   6.300 -0.4787 -1.8397  0.5344
 7805SOL     OW35047   3.751   2.674  14.225  0.5040  0.0358 -0.4329
 7805SOL    HW135048   3.753   2.615  14.300  0.5324 -3.7125 -3.3915
 7805SOL    HW235049   3.663   2.665  14.189 -0.0985  2.3302  0.4715
 7806SOL     OW35050   4.177   3.834  16.936  0.5375 -0.3716 -0.0603
 7806SOL    HW135051   4.156   3.787  16.856 -1.1600  0.5248 -0.1457
 7806SOL    HW235052   4.088   3.843  16.971  0.9258 -1.5020  1.2324
 7807SOL     OW35053   2.883   0.279  13.363  0.0464  0.4877  0.3573
 7807SOL    HW135054   2.973   0.301  13.387  0.7713 -1.8586 -0.2654
 7807SOL    HW235055   2.828   0.318  13.431  0.7223  0.5957  0.8460
 7808SOL     OW35056   0.527   3.234   8.817  0.3628  0.0921 -0.0597
 7808SOL    HW135057   0.446   3.253   8.865 -0.4637 -0.7088 -1.1316
 7808SOL    HW235058   0.585   3.283   8.876  0.5755  0.1190 -0.2895
 7809SOL     OW35059   1.993   0.090  14.764 -0.1964 -0.3382  0.0939
 7809SOL    HW135060   2.059   0.118  14.700  0.5535  0.1923  1.1025
 7809SOL    HW235061   1.938   0.033  14.710  0.7137  1.3176 -2.5589
 7810SOL     OW35062   0.702   4.155   4.377  1.3239  0.1092 -0.5892
 7810SOL    HW135063   0.625   4.193   4.420  0.1995 -0.1578 -2.3873
 7810SOL    HW235064   0.686   4.062   4.395 -0.0019  0.7061  1.3732
 7811SOL     OW35065   3.524   3.445   7.368  0.3802  0.2832  0.6531
 7811SOL    HW135066   3.562   3.393   7.439  4.7411  1.9598 -0.4625
 7811SOL    HW235067   3.602   3.447   7.313  0.7835  1.2873  1.2563
 7812SOL     OW35068   1.752   1.499  10.438 -0.1235 -0.5647 -0.6554
 7812SOL    HW135069   1.793   1.453  10.512  2.0233  0.9914 -0.8616
 7812SOL    HW235070   1.822   1.513  10.374 -0.2938 -1.3489 -1.0112
 7813SOL     OW35071   0.637   3.695   2.021  0.0957  0.4437  0.1384
 7813SOL    HW135072   0.590   3.770   1.985  1.3770  1.2633  0.1636
 7813SOL    HW235073   0.591   3.627   1.973 -0.3436  1.0503 -0.3025
 7814SOL     OW35074   1.068   3.432   2.780  0.1192 -0.3147  0.3025
 7814SOL    HW135075   1.076   3.499   2.848 -0.1762 -0.6500  0.6608
 7814SOL    HW235076   0.973   3.422   2.779  0.1327 -0.4833  0.7342
 7815SOL     OW35077   0.801   4.716   6.364 -0.1408 -0.5575  0.3079
 7815SOL    HW135078   0.721   0.024   6.337 -0.0741  0.2926  1.5923
 7815SOL    HW235079   0.825   4.682   6.277  1.8882 -0.2057  0.7318
 7816SOL     OW35080   4.109   4.077   6.909 -0.1020 -0.4420  0.0573
 7816SOL    HW135081   4.164   4.148   6.942 -0.4348  1.2133 -2.9070
 7816SOL    HW235082   4.095   4.107   6.819 -0.2444 -0.1022  0.1900
 7817SOL     OW35083   3.993   3.623   6.650  0.2254 -0.5826  0.8561
 7817SOL    HW135084   4.086   3.605   6.665  0.8754  2.3893  0.3689
 7817SOL    HW235085   3.956   3.567   6.717 -2.8939  2.1767  1.4220
 7818SOL     OW35086   3.265   0.150   3.011  0.3169 -0.1291 -0.3658
 7818SOL    HW135087   3.271   0.237   3.051 -0.9201  0.0941 -0.6643
 7818SOL    HW235088   3.272   0.162   2.917 -1.0615  1.0934 -0.3100
 7819SOL     OW35089   2.837   0.146  10.532 -0.0862  0.3904  0.2328
 7819SOL    HW135090   2.786   0.065  10.530  2.2451 -1.0395 -0.7424
 7819SOL    HW235091   2.781   0.189  10.597  0.0551  0.4818  0.2963
 7820SOL     OW35092   0.898   0.996   4.724  0.3207  0.4091 -0.0804
 7820SOL    HW135093   0.821   0.953   4.686  1.2224 -0.4911 -0.8748
 7820SOL    HW235094   0.901   1.064   4.657 -0.7995 -1.2621 -1.8221
 7821SOL     OW35095   1.628   1.760   8.782 -0.4498  0.0108 -0.3977
 7821SOL    HW135096   1.571   1.733   8.710  0.0544 -2.3115  0.0887
 7821SOL    HW235097   1.714   1.753   8.738  0.0988  0.4798  0.6042
 7822SOL     OW35098   0.799   3.163  14.538 -0.4669 -0.2116 -0.2610
 7822SOL    HW135099   0.887   3.201  14.530 -0.8396  0.7649  0.1889
 7822SOL    HW235100   0.811   3.088  14.480  0.5733 -1.0491  1.0711
 7823SOL     OW35101   0.728   1.014   6.822 -0.2608 -0.1212 -0.6881
 7823SOL    HW135102   0.699   0.936   6.870  0.6234  0.2757  0.5056
 7823SOL    HW235103   0.718   0.990   6.730  1.3163  0.6192 -1.0507
 7824SOL     OW35104   4.331   1.081   2.359  0.6286 -0.5511 -0.4757
 7824SOL    HW135105   4.358   1.039   2.278 -0.3240  1.7362 -1.9625
 7824SOL    HW235106   4.328   1.006   2.419  1.7752 -0.3053 -0.1158
 7825SOL     OW35107   2.415   3.799  16.335  0.4654 -0.1168 -0.2497
 7825SOL    HW135108   2.434   3.834  16.422  0.5250 -2.7703  0.7958
 7825SOL    HW235109   2.396   3.880  16.288  1.0930  1.2589  1.8359
 7826SOL     OW35110   4.483   0.554   7.036  0.0712  0.0554 -0.0149
 7826SOL    HW135111   4.547   0.516   7.096 -1.9125 -2.2845  0.6046
 7826SOL    HW235112   4.536   0.602   6.973  2.0058 -0.6144  1.1050
 7827SOL     OW35113   0.986   1.562   4.413 -0.6007 -0.3939  0.1055
 7827SOL    HW135114   1.070   1.523   4.435  0.2206  1.3500  0.0986
 7827SOL    HW235115   0.985   1.645   4.461 -0.1727 -0.0590 -0.4641
 7828SOL     OW35116   4.358   1.115   9.594 -0.0628  0.6712  0.0657
 7828SOL    HW135117   4.433   1.171   9.575 -0.3283  0.6983 -0.8810
 7828SOL    HW235118   4.287   1.179   9.593 -1.1501 -0.5253  0.8483
 7829SOL     OW35119   1.296   2.904   2.499  0.6965 -0.4053  0.1277
 7829SOL    HW135120   1.238   2.893   2.424  0.4353  3.4157 -0.2372
 7829SOL    HW235121   1.246   2.850   2.560  1.4519  0.6788  1.6952
 7830SOL     OW35122   2.200   2.823   2.184  0.3994  0.8497 -0.2727
 7830SOL    HW135123   2.127   2.871   2.144  0.3073  0.9171 -0.0227
 7830SOL    HW235124   2.210   2.880   2.260 -1.8994  1.7781 -0.6650
 7831SOL     OW35125   4.409   0.743  15.242 -0.5783 -0.6614 -0.5087
 7831SOL    HW135126   4.448   0.730  15.156 -0.7360 -0.9131 -0.5419
 7831SOL    HW235127   4.475   0.803  15.275  0.0140 -1.8402  0.4502
 7832SOL     OW35128   0.085   3.117  16.082  0.0802  0.1913 -0.5686
 7832SOL    HW135129   0.050   3.090  16.167  1.9763  0.7188  0.3835
 7832SOL    HW235130   0.013   3.173  16.051 -1.3967 -1.2404  0.2964
 7833SOL     OW35131   0.614   3.644  17.380 -0.1048 -0.1189  0.2294
 7833SOL    HW135132   0.659   3.722  17.411  1.2821 -0.9817  0.3945
 7833SOL    HW235133   0.525   3.656  17.413  0.3803 -1.0015  1.8728
 7834SOL     OW35134   4.291   4.728   4.221 -0.3102 -0.3793 -0.2801
 7834SOL    HW135135   4.196   4.737   4.229 -0.3361 -1.2164  0.4194
 7834SOL    HW235136   4.327   4.707   4.307 -1.2628 -0.0392  0.1953
 7835SOL     OW35137   0.061   0.470  13.175 -0.2810 -0.0628 -0.0022
 7835SOL    HW135138   0.064   0.434  13.264  0.1164  0.8992  0.3786
 7835SOL    HW235139   4.715   0.517  13.173  1.1484  2.4348 -2.0728
 7836SOL     OW35140   3.489   0.060  16.333  0.6332 -0.3306  0.2797
 7836SOL    HW135141   3.439   0.053  16.252  1.3780 -0.4006 -0.1819
 7836SOL    HW235142   3.575   0.083  16.297  0.2609  0.6049  0.0108
 7837SOL     OW35143   0.995   3.162  13.725 -0.0881  0.1660  0.4616
 7837SOL    HW135144   0.939   3.209  13.662  0.5158 -1.0024 -0.9353
 7837SOL    HW235145   0.934   3.133  13.794  0.2417 -1.0775  0.2346
 7838SOL     OW35146   1.207   2.946  11.509 -0.2825  0.0782  0.1877
 7838SOL    HW135147   1.125   2.902  11.490 -0.1152 -0.4437  0.6580
 7838SOL    HW235148   1.240   2.887  11.577 -1.2425 -1.3633 -0.6013
 7839SOL     OW35149   3.144   3.424   3.688  0.5080 -0.2661  0.1800
 7839SOL    HW135150   3.172   3.379   3.608  1.3540 -3.1462  2.0915
 7839SOL    HW235151   3.204   3.498   3.683 -0.7441  0.8098  1.1211
 7840SOL     OW35152   2.425   3.720   1.788 -0.1639  0.1631 -0.7826
 7840SOL    HW135153   2.471   3.712   1.872 -1.3849 -1.6551 -0.2777
 7840SOL    HW235154   2.488   3.772   1.739 -0.9137  0.7214 -1.1623
 7841SOL     OW35155   4.383   2.919   6.926  0.0146  0.3222 -0.0305
 7841SOL    HW135156   4.468   2.941   6.888  0.0640  0.0074 -0.0999
 7841SOL    HW235157   4.385   2.825   6.910  2.0391  0.4571 -0.6442
 7842SOL     OW35158   4.027   2.013   5.055  0.3085  0.3146  0.0524
 7842SOL    HW135159   4.115   2.034   5.024  0.8795 -1.0086  0.7769
 7842SOL    HW235160   4.046   1.923   5.082 -0.0729 -0.0158 -0.7714
 7843SOL     OW35161   2.621   0.797  15.381  0.1031 -0.1161 -0.1401
 7843SOL    HW135162   2.709   0.795  15.342  0.1843 -0.3960  0.0580
 7843SOL    HW235163   2.597   0.882  15.345 -0.7572  0.0324  0.8102
 7844SOL     OW35164   0.265   0.803  15.799  0.2298  0.2676 -0.2344
 7844SOL    HW135165   0.295   0.767  15.882 -1.2585  0.6221  0.4367
 7844SOL    HW235166   0.336   0.799  15.734 -0.9315  0.4573 -1.5119
 7845SOL     OW35167   3.838   1.943   0.655  0.0003 -0.0942 -0.5483
 7845SOL    HW135168   3.744   1.959   0.646 -0.1141 -1.6337 -2.1733
 7845SOL    HW235169   3.846   1.848   0.658  1.1853  0.0614  0.7107
 7846SOL     OW35170   1.707   0.944   2.176  0.5328 -0.2586 -0.1421
 7846SOL    HW135171   1.739   0.955   2.266 -2.3309 -0.4745  0.9065
 7846SOL    HW235172   1.699   0.848   2.171  0.1452 -0.2763  0.7540
 7847SOL     OW35173   0.100   3.612  13.290  0.4436 -0.5187  0.1895
 7847SOL    HW135174   0.060   3.697  13.309 -0.4989 -0.0737 -3.9217
 7847SOL    HW235175   0.189   3.624  13.322  0.8124 -0.1384 -0.9886
 7848SOL     OW35176   2.741   1.968   3.775 -0.1565 -0.2939 -0.2448
 7848SOL    HW135177   2.828   1.993   3.745  0.0147  0.7920  1.1438
 7848SOL    HW235178   2.713   1.897   3.718  1.3080  0.8503 -2.3610
 7849SOL     OW35179   4.303   0.150  10.994 -0.6341 -0.0408  0.2488
 7849SOL    HW135180   4.258   0.106  11.066  0.4540  1.0090  1.5742
 7849SOL    HW235181   4.283   0.096  10.917  1.5364  2.8304 -2.3590
 7850SOL     OW35182   0.980   3.432   5.762  0.8262 -0.6886  0.0148
 7850SOL    HW135183   0.887   3.434   5.783  0.2978  1.8493 -2.5568
 7850SOL    HW235184   1.027   3.433   5.845  3.0611 -1.0389 -1.2368
 7851SOL     OW35185   2.107   2.149   6.612 -0.0421 -0.3143 -0.4224
 7851SOL    HW135186   2.106   2.110   6.700 -2.7391  0.5396 -0.0599
 7851SOL    HW235187   2.088   2.077   6.553  0.9227 -1.4554  0.6530
 7852SOL     OW35188   2.480   3.672   5.488 -0.0736  0.1723 -0.1140
 7852SOL    HW135189   2.418   3.667   5.560  0.8320  0.9651  0.7229
 7852SOL    HW235190   2.523   3.755   5.510 -0.6022  0.6414 -0.8811
 7853SOL     OW35191   2.968   0.341   3.265 -0.0582  0.4047 -0.2318
 7853SOL    HW135192   2.901   0.410   3.256  0.3100  0.5407 -1.9115
 7853SOL    HW235193   2.976   0.348   3.361  0.7535 -0.3690 -0.2485
 7854SOL     OW35194   2.286   0.731   3.805  1.2112  0.4095 -0.6117
 7854SOL    HW135195   2.352   0.778   3.855  0.5625  1.2421 -0.5377
 7854SOL    HW235196   2.206   0.771   3.842  0.6870  0.3216 -1.6549
 7855SOL     OW35197   1.891   1.782   8.664 -0.5210  0.3160 -0.0092
 7855SOL    HW135198   1.901   1.861   8.717 -1.4639  0.1584  0.4125
 7855SOL    HW235199   1.965   1.798   8.605  0.9953  1.8391  2.3382
 7856SOL     OW35200   0.092   3.274   5.807 -0.3995  0.7431  0.3967
 7856SOL    HW135201   0.129   3.363   5.803 -0.3995  0.7452  0.4398
 7856SOL    HW235202   0.008   3.299   5.844 -0.7541  0.2143 -0.0550
 7857SOL     OW35203   2.309   3.062   5.505 -0.2112 -0.1688 -0.7069
 7857SOL    HW135204   2.296   3.137   5.563 -0.4474 -0.2337 -0.6728
 7857SOL    HW235205   2.296   3.110   5.423 -1.5712 -0.9190 -0.9278
 7858SOL     OW35206   1.906   2.683   4.399 -0.3113 -0.2727  0.2859
 7858SOL    HW135207   1.919   2.666   4.306  2.0919  0.0787  0.5522
 7858SOL    HW235208   1.879   2.594   4.424 -0.1818 -0.8682 -1.6434
 7859SOL     OW35209   2.741   0.293   8.497  0.4925 -0.1430 -0.2686
 7859SOL    HW135210   2.675   0.344   8.451  0.1554  0.2826  0.6914
 7859SOL    HW235211   2.699   0.243   8.567  3.1898 -2.0442  0.0107
 7860SOL     OW35212   1.909   3.544   1.372  0.5832 -0.2702  0.2959
 7860SOL    HW135213   1.970   3.536   1.446  0.8232  2.5815  0.4216
 7860SOL    HW235214   1.841   3.603   1.406  0.1859 -1.6372  1.8718
 7861SOL     OW35215   1.703   0.555   1.377 -0.3224 -0.2048 -0.6417
 7861SOL    HW135216   1.720   0.523   1.289 -0.0117  0.1475 -0.7102
 7861SOL    HW235217   1.662   0.638   1.350 -1.8125 -1.2752 -1.6753
 7862SOL     OW35218   0.812   2.581  11.329  1.2876 -0.3554  0.1327
 7862SOL    HW135219   0.790   2.622  11.245 -2.6004 -1.7198  0.4915
 7862SOL    HW235220   0.903   2.554  11.319  1.4927  0.1412  0.6810
 7863SOL     OW35221   3.021   4.691   7.499  0.1466 -0.0053  0.7531
 7863SOL    HW135222   2.985   4.730   7.419 -0.9972  2.6577  2.5740
 7863SOL    HW235223   2.957   4.626   7.527  0.9898 -0.8886  0.6176
 7864SOL     OW35224   3.935   0.505   9.836  0.2155  0.6429 -0.1769
 7864SOL    HW135225   3.940   0.435   9.901  1.0938  0.7392 -0.1388
 7864SOL    HW235226   3.972   0.457   9.762  0.0246 -4.0071  2.7639
 7865SOL     OW35227   2.678   2.973   1.023  0.2262  0.4123 -0.4082
 7865SOL    HW135228   2.655   2.977   0.930 -1.0298  2.8538  0.0042
 7865SOL    HW235229   2.619   3.040   1.059 -1.6858 -1.7301  0.4157
 7866SOL     OW35230   4.605   0.572   4.212  0.5649 -0.5291 -0.3621
 7866SOL    HW135231   4.524   0.615   4.238 -0.0482 -0.6057 -2.1733
 7866SOL    HW235232   4.603   0.497   4.272 -1.0986 -0.3181 -0.1549
 7867SOL     OW35233   3.148   1.551   5.852 -0.1800  0.5721  0.2973
 7867SOL    HW135234   3.059   1.518   5.862  0.0927 -1.3477 -3.5515
 7867SOL    HW235235   3.155   1.636   5.895 -0.4908 -0.5878  2.6272
 7868SOL     OW35236   4.589   1.720  10.176  0.0143 -0.1789  0.0401
 7868SOL    HW135237   4.511   1.665  10.167  0.7857 -1.3239  0.2625
 7868SOL    HW235238   4.598   1.729  10.271 -3.2090  0.0362  0.3268
 7869SOL     OW35239   3.953   2.489   4.952  0.5015  0.1461  0.4390
 7869SOL    HW135240   3.910   2.416   4.907  0.8183 -0.4424  1.0945
 7869SOL    HW235241   3.936   2.551   4.881  1.5870 -0.8843 -0.7225
 7870SOL     OW35242   0.893   3.882   0.852 -0.2576 -0.6161 -0.0637
 7870SOL    HW135243   0.929   3.971   0.850  1.7462 -1.3525  2.4520
 7870SOL    HW235244   0.811   3.894   0.804  0.4339  3.3232 -0.2786
 7871SOL     OW35245   0.747   1.365   3.140 -0.1805 -0.0393 -0.0304
 7871SOL    HW135246   0.692   1.383   3.063 -0.4409  0.1643  0.2021
 7871SOL    HW235247   0.751   1.453   3.176 -2.5101 -0.1895  0.6214
 7872SOL     OW35248   2.940   2.311   8.383 -0.1692 -0.3441  0.0534
 7872SOL    HW135249   3.029   2.277   8.369  0.9168  1.6877  2.0956
 7872SOL    HW235250   2.941   2.324   8.478 -3.7724  1.2550 -0.1479
 7873SOL     OW35251   2.076   0.196   5.789 -0.1124 -0.4191  0.2718
 7873SOL    HW135252   2.121   0.264   5.838 -0.3950  0.6614 -0.9786
 7873SOL    HW235253   2.030   0.256   5.731  2.3604  0.7437 -0.4563
 7874SOL     OW35254   3.612   4.462   5.947 -0.3930  0.0372  0.5368
 7874SOL    HW135255   3.611   4.392   5.882 -1.4765 -1.8876  2.6525
 7874SOL    HW235256   3.530   4.510   5.934  0.3507  1.4471  0.9819
 7875SOL     OW35257   2.269   4.063   0.603 -0.2935 -0.0203 -0.0646
 7875SOL    HW135258   2.315   4.060   0.519 -2.7310 -0.7830 -1.3704
 7875SOL    HW235259   2.222   3.979   0.605 -0.7676  0.2321 -0.5753
 7876SOL     OW35260   3.470   0.832   5.121  0.8884  0.4980  0.7525
 7876SOL    HW135261   3.396   0.771   5.118  2.5296 -1.4071 -0.1602
 7876SOL    HW235262   3.510   0.792   5.199  0.0480  2.2870  2.1071
 7877SOL     OW35263   1.978   0.477   9.162 -0.5558 -0.1173  0.1358
 7877SOL    HW135264   1.936   0.392   9.160 -1.5393  0.3728  0.2337
 7877SOL    HW235265   1.930   0.521   9.232 -1.3639 -2.2777  0.9349
 7878SOL     OW35266   2.949   4.329   6.892 -0.2460 -0.0250 -0.2026
 7878SOL    HW135267   2.986   4.417   6.893  2.1706 -1.0677  0.2605
 7878SOL    HW235268   2.916   4.341   6.802  0.6415  3.3372 -0.0832
 7879SOL     OW35269   1.328   3.161   0.594 -0.3151  0.2707 -0.2621
 7879SOL    HW135270   1.333   3.173   0.689  0.3407  0.1022 -0.2683
 7879SOL    HW235271   1.389   3.228   0.562 -0.8119  0.9718  0.2783
 7880SOL     OW35272   1.520   4.725  16.128 -0.1436  0.5938  0.2773
 7880SOL    HW135273   1.615   4.715  16.129 -0.2650 -0.6336 -0.4371
 7880SOL    HW235274   1.504   0.082  16.126  0.8476  0.7068 -1.8317
 7881SOL     OW35275   3.360   0.294   7.736  0.0032 -0.5196 -0.4156
 7881SOL    HW135276   3.303   0.226   7.771 -0.8909  1.1375  1.3238
 7881SOL    HW235277   3.411   0.240   7.675  1.4395 -0.9232  1.1651
 7882SOL     OW35278   2.260   2.410   9.012  0.2499 -0.4915  0.1546
 7882SOL    HW135279   2.217   2.493   9.032  0.2270 -0.8531  1.6523
 7882SOL    HW235280   2.217   2.359   9.081  0.6482 -0.4049  0.4661
 7883SOL     OW35281   1.788   2.962   7.799 -0.2439 -0.3086 -0.0178
 7883SOL    HW135282   1.761   2.873   7.822 -0.2508 -0.7983 -1.8882
 7883SOL    HW235283   1.838   2.983   7.878  0.8584  1.1686 -1.1140
 7884SOL     OW35284   4.708   4.097   9.252 -0.2519 -0.0934  0.2033
 7884SOL    HW135285   4.672   4.165   9.309 -1.5846 -1.4900  1.0139
 7884SOL    HW235286   4.734   4.157   9.182  1.3061 -0.8526  0.1370
 7885SOL     OW35287   0.622   2.177  15.322  0.2377 -0.3879  0.1006
 7885SOL    HW135288   0.683   2.216  15.260 -0.3637  1.5572  0.7284
 7885SOL    HW235289   0.632   2.083  15.307 -1.8115 -0.3452 -1.5775
 7886SOL     OW35290   3.322   3.663   3.687 -0.9356  0.3340 -0.1823
 7886SOL    HW135291   3.337   3.716   3.766  2.3140 -1.5674  0.4898
 7886SOL    HW235292   3.388   3.686   3.622  0.2674 -1.5607  0.3504
 7887SOL     OW35293   0.103   4.264   3.326 -0.1188 -0.9364 -0.5387
 7887SOL    HW135294   0.145   4.340   3.285 -2.4277 -0.0150 -1.1662
 7887SOL    HW235295   0.125   4.196   3.262  0.8432 -0.8870 -0.2608
 7888SOL     OW35296   2.333   4.710   6.633  0.0219 -0.4647 -0.4701
 7888SOL    HW135297   2.304   4.655   6.706 -1.2365  0.3202 -0.3743
 7888SOL    HW235298   2.254   4.702   6.579 -0.0265 -1.4166 -0.2564
 7889SOL     OW35299   4.010   0.870   4.705  0.1684  0.0710  0.4075
 7889SOL    HW135300   4.027   0.776   4.690 -1.3940  0.0209 -1.1295
 7889SOL    HW235301   4.099   0.895   4.731  0.1040 -0.5962  1.2671
 7890SOL     OW35302   1.895   2.205   4.526 -0.2136 -0.0376  0.2119
 7890SOL    HW135303   1.988   2.203   4.502 -0.0302 -0.2532  0.9262
 7890SOL    HW235304   1.900   2.232   4.618 -0.0343  1.1459 -0.1428
 7891SOL     OW35305   4.635   3.068   4.748  0.1430 -0.0328 -0.4171
 7891SOL    HW135306   4.566   3.020   4.703  0.0672 -0.3132  0.0010
 7891SOL    HW235307   4.591   3.135   4.800 -0.7732 -1.2621  0.3627
 7892SOL     OW35308   4.693   4.485   3.113  0.4857  0.4826 -0.2707
 7892SOL    HW135309   4.602   4.515   3.121  0.0781 -0.0978 -2.5017
 7892SOL    HW235310   4.729   4.531   3.188 -2.7124  3.4635 -0.5266
 7893SOL     OW35311   0.207   1.238   6.080  0.1233 -0.8619 -0.0977
 7893SOL    HW135312   0.292   1.274   6.053 -0.8284  0.2096 -1.6511
 7893SOL    HW235313   0.144   1.274   6.018 -0.6257 -0.2692  1.0037
 7894SOL     OW35314   1.497   0.534   8.002  0.6564 -0.3144 -0.6101
 7894SOL    HW135315   1.408   0.532   7.966  0.9729 -1.7753 -1.3305
 7894SOL    HW235316   1.552   0.514   7.926  1.1309 -0.6141 -0.1882
 7895SOL     OW35317   1.356   1.237   9.603  0.3492 -0.3946  0.1954
 7895SOL    HW135318   1.446   1.269   9.606  0.4755 -0.5112 -2.2231
 7895SOL    HW235319   1.358   1.189   9.520 -2.9182  1.0298 -0.6837
 7896SOL     OW35320   1.211   2.186   4.940  0.2785 -0.0539 -0.2996
 7896SOL    HW135321   1.185   2.111   4.993 -0.6044  1.5018  1.4647
 7896SOL    HW235322   1.234   2.145   4.857 -0.8022  0.3194 -0.7876
 7897SOL     OW35323   2.983   0.025   8.331  0.1095  0.1406  0.3794
 7897SOL    HW135324   2.951   0.113   8.353  0.7589 -0.0274  1.9709
 7897SOL    HW235325   3.077   0.038   8.323  0.2302 -1.2808 -0.5614
 7898SOL     OW35326   4.232   0.254   8.705 -0.2149 -0.2616 -0.3561
 7898SOL    HW135327   4.260   0.212   8.787  2.0408 -1.1795 -1.6060
 7898SOL    HW235328   4.149   0.288   8.737 -2.4552 -3.8838 -2.3695
 7899SOL     OW35329   3.766   3.230  13.041  0.3632  0.2962 -0.2378
 7899SOL    HW135330   3.798   3.305  13.090  1.3068 -0.9492  1.0677
 7899SOL    HW235331   3.677   3.249  13.072 -0.4767 -0.0899 -2.3787
 7900SOL     OW35332   2.553   2.092  13.982 -0.4686 -0.0433 -0.3325
 7900SOL    HW135333   2.468   2.067  13.945 -0.6108  0.0560 -0.0727
 7900SOL    HW235334   2.524   2.098  14.073 -0.1565 -1.2269 -0.1578
 7901SOL     OW35335   0.865   0.435  16.497 -0.1542  0.1195  0.4221
 7901SOL    HW135336   0.960   0.449  16.490 -0.3570  2.0350  1.3637
 7901SOL    HW235337   0.848   0.353  16.451  1.0497  0.7464 -1.1434
 7902SOL     OW35338   3.530   4.421   9.749 -0.0612  0.0343 -0.0635
 7902SOL    HW135339   3.521   4.485   9.678 -0.2647 -0.0166 -0.0824
 7902SOL    HW235340   3.525   4.481   9.823  1.0517  0.8606 -0.6412
 7903SOL     OW35341   3.683   2.734   4.839 -0.0062  0.1856 -0.3840
 7903SOL    HW135342   3.604   2.775   4.804  0.8998  1.3738 -1.0462
 7903SOL    HW235343   3.665   2.643   4.817  0.3819  0.3638 -1.4027
 7904SOL     OW35344   3.851   2.702  16.737  0.4539  0.6549  0.1151
 7904SOL    HW135345   3.790   2.630  16.748 -0.3942  1.5389  1.2183
 7904SOL    HW235346   3.788   2.773  16.749  1.5402  1.6860 -0.2776
 7905SOL     OW35347   3.792   2.448  16.512  0.1619 -0.7445  0.2626
 7905SOL    HW135348   3.752   2.534  16.507  0.6420 -0.3880  2.4177
 7905SOL    HW235349   3.726   2.402  16.565 -0.2720 -0.0918  0.2861
 7906SOL     OW35350   2.743   4.394   3.814  0.4811 -0.7829  0.0298
 7906SOL    HW135351   2.754   4.361   3.725 -1.8757  0.7784 -0.8214
 7906SOL    HW235352   2.675   4.457   3.795  0.3583 -0.4010  1.7000
 7907SOL     OW35353   4.074   4.130   9.221 -0.2892  0.2954 -0.1481
 7907SOL    HW135354   4.063   4.049   9.270 -3.0508 -0.0359 -1.3514
 7907SOL    HW235355   4.061   4.204   9.281  0.1202 -1.9607  2.6864
 7908SOL     OW35356   2.486   0.346  12.281  0.6424 -0.2557  0.0846
 7908SOL    HW135357   2.551   0.342  12.352  2.4692  1.1338 -1.4906
 7908SOL    HW235358   2.408   0.345  12.336  2.1280  1.7824  2.2347
 7909SOL     OW35359   1.569   2.235   9.563 -0.3814  0.3590 -0.4640
 7909SOL    HW135360   1.515   2.271   9.633  0.6601  0.9195  0.0622
 7909SOL    HW235361   1.548   2.297   9.493 -2.3496 -1.8961 -1.8806
 7910SOL     OW35362   2.733   3.352   8.151  0.0997 -0.3136  0.5213
 7910SOL    HW135363   2.685   3.426   8.190  2.3211  0.5217  1.6697
 7910SOL    HW235364   2.780   3.330   8.231 -0.6332  0.9052  1.2960
 7911SOL     OW35365   3.257   1.408   8.704  0.1544 -0.0769  0.1280
 7911SOL    HW135366   3.301   1.324   8.688  0.0567 -0.1758  0.3685
 7911SOL    HW235367   3.182   1.382   8.758  1.2909 -0.1634  1.6777
 7912SOL     OW35368   0.671   4.469  12.744  0.0782  0.8900 -0.2247
 7912SOL    HW135369   0.687   4.522  12.822  0.3288  0.4809  0.0019
 7912SOL    HW235370   0.706   4.526  12.676 -0.2537 -0.5575 -1.6294
 7913SOL     OW35371   3.995   4.435   5.875 -0.6647 -0.4411 -0.5175
 7913SOL    HW135372   4.055   4.368   5.909 -0.6962  0.0943  0.5957
 7913SOL    HW235373   4.040   4.472   5.799 -0.3544  0.5587  0.1546
 7914SOL     OW35374   2.952   1.923   4.696  0.3052 -0.5446 -0.2825
 7914SOL    HW135375   2.965   1.930   4.602 -3.3656  1.4239 -0.6747
 7914SOL    HW235376   3.026   1.972   4.731  1.1873 -0.2216 -2.6188
 7915SOL     OW35377   4.624   2.940   3.525 -0.2573  0.1285  0.2466
 7915SOL    HW135378   4.718   2.952   3.514 -0.3838 -0.1998 -1.2197
 7915SOL    HW235379   4.604   3.013   3.583 -0.5360  0.9127 -0.8395
 7916SOL     OW35380   0.708   1.923   7.201  0.2235  0.7602 -0.5702
 7916SOL    HW135381   0.634   1.944   7.259  0.5688  1.7567 -0.4832
 7916SOL    HW235382   0.673   1.898   7.116 -1.4464  0.3547  0.2327
 7917SOL     OW35383   0.990   0.225   5.717  0.7242 -0.0103  0.2515
 7917SOL    HW135384   0.947   0.302   5.680 -2.9872 -2.1474  0.1537
 7917SOL    HW235385   1.039   0.265   5.789  0.1306  0.5265  0.3597
 7918SOL     OW35386   1.815   1.799   1.463  0.5300  0.3859 -0.4093
 7918SOL    HW135387   1.763   1.738   1.516  0.2765  0.1778 -0.9013
 7918SOL    HW235388   1.755   1.800   1.389 -0.8321  0.8767  0.6920
 7919SOL     OW35389   2.127   2.129   3.587 -0.0715 -0.4192  0.3367
 7919SOL    HW135390   2.147   2.213   3.628  2.9020 -0.4273 -1.0370
 7919SOL    HW235391   2.137   2.144   3.493 -0.5302 -0.0415  0.3483
 7920SOL     OW35392   4.708   4.315  14.749  0.2885 -0.3247 -0.0895
 7920SOL    HW135393   4.717   4.234  14.799 -1.1739  0.5422  1.6076
 7920SOL    HW235394   0.061   4.327  14.722 -0.3816 -1.8587 -3.0314
 7921SOL     OW35395   0.073   3.350   2.232  0.0059 -0.4755  0.1470
 7921SOL    HW135396   0.004   3.394   2.182 -0.2750 -0.8693  0.1853
 7921SOL    HW235397   0.059   3.262   2.197 -0.0947  1.2450 -4.0865
 7922SOL     OW35398   0.100   3.697   8.707  0.2175 -0.7242 -0.2311
 7922SOL    HW135399   0.132   3.630   8.647  2.9042  3.3940 -3.4024
 7922SOL    HW235400   0.182   3.745   8.723  0.0924 -0.5894 -0.0056
 7923SOL     OW35401   2.174   1.337   3.303 -0.1144 -0.7910  0.6253
 7923SOL    HW135402   2.259   1.305   3.334 -0.0261 -0.8262  0.3507
 7923SOL    HW235403   2.132   1.262   3.344 -2.2575  0.0136 -0.0882
 7924SOL     OW35404   2.314   3.332  16.210 -0.1508  0.6667 -0.4675
 7924SOL    HW135405   2.392   3.333  16.154  0.6976 -0.6373  0.6794
 7924SOL    HW235406   2.344   3.282  16.286 -0.5713  0.2406 -0.5817
 7925SOL     OW35407   0.282   3.540  13.943 -0.3678  0.4155  0.0681
 7925SOL    HW135408   0.346   3.533  14.014 -1.9246  1.2221  1.5701
 7925SOL    HW235409   0.283   3.636  13.939 -3.3057  0.4053 -0.6085
 7926SOL     OW35410   1.391   4.082   7.052 -0.1359  0.4593 -0.2422
 7926SOL    HW135411   1.311   4.062   7.100 -1.5313  1.4142 -2.1845
 7926SOL    HW235412   1.415   3.989   7.053  1.1386  0.7796 -1.0922
 7927SOL     OW35413   4.283   3.872   7.939 -0.2070  0.1795 -0.2074
 7927SOL    HW135414   4.188   3.874   7.954  0.0963  0.6074  1.6437
 7927SOL    HW235415   4.312   3.960   7.964 -2.0849  0.9181 -0.6001
 7928SOL     OW35416   4.308   2.860   4.733 -0.4615  0.3971 -0.3983
 7928SOL    HW135417   4.238   2.913   4.771  0.6512  0.5109  1.4562
 7928SOL    HW235418   4.285   2.769   4.754  2.3317 -0.1405  0.3493
 7929SOL     OW35419   1.517   0.363   6.156  0.0204  0.6143  0.1975
 7929SOL    HW135420   1.557   0.399   6.235  2.3283  0.3320 -0.8176
 7929SOL    HW235421   1.460   0.291   6.181  0.9164 -0.6649 -1.4313
 7930SOL     OW35422   1.022   0.961  10.975  0.6245  0.3936 -0.0734
 7930SOL    HW135423   1.071   0.930  11.052  1.6732  1.9567 -0.1104
 7930SOL    HW235424   1.092   0.970  10.910  3.3650 -1.2734  2.6332
 7931SOL     OW35425   4.239   0.398  12.618 -0.9015 -0.1251  0.1739
 7931SOL    HW135426   4.258   0.347  12.540  1.1339 -0.9390  1.1974
 7931SOL    HW235427   4.316   0.377  12.671  0.0002 -1.0208 -1.4782
 7932SOL     OW35428   1.417   2.435   6.714  0.3279 -0.0496  0.7927
 7932SOL    HW135429   1.336   2.398   6.750 -0.8609 -0.1908 -2.0456
 7932SOL    HW235430   1.477   2.429   6.789  1.2389  0.8464  0.1323
 7933SOL     OW35431   1.708   0.784   9.299  0.3753  0.0274  0.0131
 7933SOL    HW135432   1.731   0.848   9.232  1.1954 -1.7749 -1.4214
 7933SOL    HW235433   1.647   0.837   9.351 -0.2132 -1.9370  1.3135
 7934SOL     OW35434   1.678   2.219   7.928 -0.0655 -0.0926 -0.2755
 7934SOL    HW135435   1.605   2.177   7.882  0.4169 -3.0914  1.6786
 7934SOL    HW235436   1.685   2.148   7.991 -1.0562 -0.5790 -0.6938
 7935SOL     OW35437   3.574   0.259  14.560 -0.1158 -0.4404  0.6674
 7935SOL    HW135438   3.647   0.221  14.510  0.8123 -0.0052  1.6856
 7935SOL    HW235439   3.610   0.233  14.645  1.7514 -1.0576 -0.2964
 7936SOL     OW35440   0.332   4.039   5.482 -0.3866 -0.2131 -0.3666
 7936SOL    HW135441   0.331   4.029   5.387  0.7281  2.2922 -0.6493
 7936SOL    HW235442   0.423   4.054   5.509 -0.4282  0.0579 -0.3768
 7937SOL     OW35443   4.424   4.724  11.331  0.0612 -0.0748 -0.1812
 7937SOL    HW135444   4.350   0.046  11.316  0.6433  0.6121 -0.3155
 7937SOL    HW235445   4.448   4.700  11.241  0.7000 -2.0100  0.5127
 7938SOL     OW35446   2.216   2.366   8.520  0.1082  0.5480  0.1096
 7938SOL    HW135447   2.213   2.319   8.437 -0.7379 -0.0376  0.4749
 7938SOL    HW235448   2.154   2.315   8.572 -0.5796 -0.1694 -1.4235
 7939SOL     OW35449   2.902   2.295   4.470 -0.2793 -0.2371  0.2044
 7939SOL    HW135450   2.826   2.239   4.484 -0.3004 -0.1714  0.3608
 7939SOL    HW235451   2.901   2.309   4.375 -1.3991 -0.5987  0.1575
 7940SOL     OW35452   3.779   2.145   2.801 -0.1351 -0.3803  0.1807
 7940SOL    HW135453   3.840   2.174   2.733  0.9281 -2.3751  0.2910
 7940SOL    HW235454   3.712   2.211   2.783  0.5290 -0.2137 -1.7377
 7941SOL     OW35455   3.571   1.791  14.710 -0.0617 -0.2671  0.1527
 7941SOL    HW135456   3.525   1.775  14.627  0.9392 -1.8665 -0.0961
 7941SOL    HW235457   3.595   1.699  14.723  0.8633 -0.4389 -2.6921
 7942SOL     OW35458   4.484   3.500  11.388  0.2391  0.3035 -0.3441
 7942SOL    HW135459   4.476   3.589  11.423  0.4049 -0.0854  0.6814
 7942SOL    HW235460   4.418   3.449  11.435 -0.7151  0.9396 -0.9973
 7943SOL     OW35461   4.248   4.512   1.249 -0.2646 -0.1836 -0.9277
 7943SOL    HW135462   4.182   4.488   1.314 -0.0017 -0.6302 -0.8270
 7943SOL    HW235463   4.279   4.423   1.230  2.6890  0.5012  0.7475
 7944SOL     OW35464   3.457   3.291   1.024  0.5727 -0.5065  0.4738
 7944SOL    HW135465   3.538   3.342   1.025  1.3627 -1.7801  1.2459
 7944SOL    HW235466   3.468   3.229   0.953  0.0888  1.7856 -1.5990
 7945SOL     OW35467   4.606   1.176   1.334 -0.1367  0.6776  0.1873
 7945SOL    HW135468   4.600   1.144   1.244  2.2832  0.7925 -0.0154
 7945SOL    HW235469   4.665   1.114   1.377 -0.5507  0.9868  1.2035
 7946SOL     OW35470   4.668   3.724   1.928 -0.0146 -0.0950  0.3343
 7946SOL    HW135471   0.001   3.666   1.899 -0.3022 -0.3971  0.2338
 7946SOL    HW235472   4.690   3.749   2.018  0.1426  2.2910 -0.3699
 7947SOL     OW35473   3.346   3.541   4.082  0.5830  0.3124 -0.4583
 7947SOL    HW135474   3.410   3.492   4.032  0.7696 -0.1533  0.2432
 7947SOL    HW235475   3.336   3.616   4.022  1.1257  1.1272  0.4662
 7948SOL     OW35476   1.528   1.169  17.696  0.2852  0.5857  0.6792
 7948SOL    HW135477   1.484   1.089  17.726  2.0389  0.8224  3.8831
 7948SOL    HW235478   1.464   1.202  17.632  0.9744 -0.1550 -0.3960
 7949SOL     OW35479   4.640   2.628   3.744 -0.0589  0.2230 -0.4068
 7949SOL    HW135480   4.620   2.542   3.781  0.7697 -0.1073 -0.7264
 7949SOL    HW235481   4.557   2.653   3.704 -0.3130  2.1246  1.3248
 7950SOL     OW35482   3.579   2.540   7.759  0.1982  0.3465 -0.0935
 7950SOL    HW135483   3.572   2.633   7.735  0.3666  0.5545  0.6708
 7950SOL    HW235484   3.654   2.547   7.818 -0.3097 -1.6763  0.7746
 7951SOL     OW35485   3.979   2.993   5.274 -0.4739  0.3705  0.4494
 7951SOL    HW135486   4.072   2.972   5.281 -0.6582  0.5340  3.3521
 7951SOL    HW235487   3.976   3.045   5.193  0.2635 -0.3112 -0.0195
 7952SOL     OW35488   4.173   2.308  17.595  0.2199  0.5208 -0.2739
 7952SOL    HW135489   4.240   2.334  17.531  2.9326 -1.5663  1.7218
 7952SOL    HW235490   4.225   2.322  17.674  2.4578  0.1226 -1.6645
 7953SOL     OW35491   0.889   2.136   2.705  0.4506  0.1960  0.2233
 7953SOL    HW135492   0.907   2.154   2.613  0.5059 -0.5410  0.0927
 7953SOL    HW235493   0.853   2.048   2.712  1.6716 -0.3253 -0.0572
 7954SOL     OW35494   1.205   0.224   7.690 -0.2717  0.5999  0.1906
 7954SOL    HW135495   1.275   0.250   7.751 -0.7987  1.2381  0.5298
 7954SOL    HW235496   1.232   0.266   7.609 -1.8300 -1.7547 -1.5249
 7955SOL     OW35497   4.404   0.419   6.478  0.6531  0.1607  0.4799
 7955SOL    HW135498   4.335   0.462   6.427  1.2045 -1.5947 -1.7505
 7955SOL    HW235499   4.394   0.330   6.445 -0.9863  0.8968 -0.9950
 7956SOL     OW35500   1.595   1.357   4.161 -0.5218 -0.1276  0.6439
 7956SOL    HW135501   1.594   1.447   4.128 -0.0018 -0.3984 -0.1098
 7956SOL    HW235502   1.502   1.331   4.158 -0.4953 -0.0041 -1.2817
 7957SOL     OW35503   0.347   3.962   9.695 -0.1397  0.0009 -0.3778
 7957SOL    HW135504   0.268   3.922   9.731  0.2834 -0.7288 -0.2670
 7957SOL    HW235505   0.309   4.041   9.655  0.9861  0.7307  0.0172
 7958SOL     OW35506   3.118   4.092   4.870 -0.3002 -0.3583  0.8365
 7958SOL    HW135507   3.108   4.026   4.801 -0.4351  0.0788  0.4381
 7958SOL    HW235508   3.031   4.087   4.910 -0.2596  2.4107  1.3081
 7959SOL     OW35509   2.480   2.333  13.091  0.4118 -0.6580  0.0869
 7959SOL    HW135510   2.415   2.393  13.054  1.2518 -0.4711 -1.0761
 7959SOL    HW235511   2.514   2.294  13.011  0.2226  1.4584 -1.0322
 7960SOL     OW35512   4.146   2.421   7.200 -0.4112 -1.1016 -0.2580
 7960SOL    HW135513   4.117   2.512   7.208 -1.2065 -1.4978  1.5289
 7960SOL    HW235514   4.108   2.377   7.277 -1.1657  1.5658  0.8770
 7961SOL     OW35515   2.528   3.929   2.866 -0.2724 -0.2107  0.0407
 7961SOL    HW135516   2.602   3.989   2.863 -1.0848  0.7637 -0.6307
 7961SOL    HW235517   2.464   3.994   2.893  1.9913  2.3093 -0.7385
 7962SOL     OW35518   1.549   1.977   6.230 -0.2552  0.5169  0.5440
 7962SOL    HW135519   1.494   2.015   6.162  1.4824  0.6130 -0.7909
 7962SOL    HW235520   1.554   1.888   6.196  1.1414  1.2323 -1.1155
 7963SOL     OW35521   1.319   3.595   5.983  0.0201  0.7780 -0.3961
 7963SOL    HW135522   1.232   3.635   5.977 -0.7271 -0.9518 -0.8677
 7963SOL    HW235523   1.319   3.548   5.900 -0.5457 -0.0870  0.0884
 7964SOL     OW35524   1.593   2.895   6.007 -0.4207 -0.6667 -0.1688
 7964SOL    HW135525   1.617   2.967   6.066 -2.2557  0.1940 -0.4654
 7964SOL    HW235526   1.651   2.919   5.935 -2.3554  1.9661 -0.8759
 7965SOL     OW35527   0.393   4.169   2.942 -0.1832 -0.1535  0.9951
 7965SOL    HW135528   0.372   4.109   2.870  0.5672  0.0992  0.5609
 7965SOL    HW235529   0.455   4.227   2.898  0.4805 -0.8145  1.0743
 7966SOL     OW35530   1.244   1.411   4.794 -0.0173 -0.0547 -0.5124
 7966SOL    HW135531   1.168   1.422   4.737  0.7073  2.6618 -0.9622
 7966SOL    HW235532   1.226   1.475   4.863  1.2115  0.3708 -0.5847
 7967SOL     OW35533   0.707   0.733   2.088  0.3359  0.3616 -0.0748
 7967SOL    HW135534   0.732   0.803   2.147 -0.3397  2.7523 -2.6273
 7967SOL    HW235535   0.612   0.739   2.077  0.1646 -1.2279  0.4650
 7968SOL     OW35536   4.688   4.724  12.933 -0.4114  0.0055 -0.0368
 7968SOL    HW135537   4.678   0.079  12.909  0.4238  0.1829  0.3290
 7968SOL    HW235538   4.622   4.687  12.874  0.1940 -1.5339  0.2642
 7969SOL     OW35539   0.116   0.792  13.238  0.2751  0.5175  0.3588
 7969SOL    HW135540   0.161   0.743  13.169  0.3821 -0.1931  0.9288
 7969SOL    HW235541   0.166   0.761  13.314 -0.4520 -1.6233 -0.0166
 7970SOL     OW35542   0.618   0.934   4.602 -0.4177 -0.2756 -0.1064
 7970SOL    HW135543   0.605   0.840   4.614  0.5222 -0.2625  0.9999
 7970SOL    HW235544   0.525   0.953   4.597 -0.2901  1.2185  3.1569
 7971SOL     OW35545   2.037   2.580   1.558 -0.4000  0.1372  0.0458
 7971SOL    HW135546   2.018   2.486   1.557 -3.4057  0.7347  0.3045
 7971SOL    HW235547   2.116   2.573   1.611 -1.0601  0.1125  1.0066
 7972SOL     OW35548   0.248   0.923   4.878  0.0052  0.5095  0.0530
 7972SOL    HW135549   0.342   0.934   4.863 -0.3666  0.2269 -2.5044
 7972SOL    HW235550   0.252   0.862   4.952  0.0674  0.4069 -0.0351
 7973SOL     OW35551   0.142   0.751  17.464 -0.1231  0.3838 -0.1710
 7973SOL    HW135552   0.088   0.677  17.492  2.7424 -2.9759 -3.5358
 7973SOL    HW235553   0.225   0.705  17.450 -0.1952 -0.2538  1.5500
 7974SOL     OW35554   3.089   0.065   3.237 -0.7205  0.3500 -0.3719
 7974SOL    HW135555   3.117   0.069   3.145 -2.3298 -1.9688 -0.9600
 7974SOL    HW235556   3.064   0.157   3.248  0.4087  0.4482  1.3145
 7975SOL     OW35557   3.025   1.275  13.686 -0.3198  0.0340  0.3826
 7975SOL    HW135558   2.986   1.321  13.611  1.9205  1.5623  0.1625
 7975SOL    HW235559   3.007   1.185  13.661  0.8564  0.3053 -1.4735
 7976SOL     OW35560   2.811   0.303   2.010  0.7418 -0.0525 -0.2694
 7976SOL    HW135561   2.836   0.286   1.919 -0.6694  2.1758 -1.0608
 7976SOL    HW235562   2.759   0.383   2.010 -2.6589 -2.2278  2.4144
 7977SOL     OW35563   0.096   1.614   9.196 -0.4225  0.3475 -0.2454
 7977SOL    HW135564   0.138   1.620   9.281  0.0786 -0.4082 -0.4422
 7977SOL    HW235565   0.010   1.580   9.221  0.5516  0.8873  3.6969
 7978SOL     OW35566   2.367   2.242   9.329 -0.2339  0.3686  0.3289
 7978SOL    HW135567   2.452   2.275   9.301  0.5254 -1.3674  0.5828
 7978SOL    HW235568   2.401   2.175   9.388  1.5783  2.6665  1.9072
 7979SOL     OW35569   0.542   1.451   3.666 -0.5553 -0.1724  0.3300
 7979SOL    HW135570   0.481   1.381   3.642  0.2015 -0.6232 -0.2855
 7979SOL    HW235571   0.520   1.534   3.623 -1.1579 -0.7468 -0.4760
 7980SOL     OW35572   1.409   2.187   6.081  0.0328 -0.1840 -0.6475
 7980SOL    HW135573   1.354   2.260   6.051  1.1089  1.4349  1.3537
 7980SOL    HW235574   1.380   2.180   6.172  0.9622 -2.2599 -0.4993
 7981SOL     OW35575   4.028   1.696   1.896  0.0357  0.1150 -0.3625
 7981SOL    HW135576   4.052   1.629   1.833  1.6192  0.8334 -0.5145
 7981SOL    HW235577   3.935   1.672   1.899  0.4642 -1.4059  0.6191
 7982SOL     OW35578   3.821   1.209  13.295  0.1620  0.0548  0.1220
 7982SOL    HW135579   3.726   1.208  13.281 -0.0905 -2.0875  1.8812
 7982SOL    HW235580   3.825   1.199  13.391  1.5150 -2.2778 -0.1627
 7983SOL     OW35581   2.308   0.623   2.834 -0.3411 -0.8850  0.6838
 7983SOL    HW135582   2.354   0.707   2.825 -1.3226 -0.4886 -0.6392
 7983SOL    HW235583   2.274   0.635   2.923 -0.6566 -2.3393  0.7564
 7984SOL     OW35584   4.335   3.165  12.655 -0.3896 -0.4783 -0.5296
 7984SOL    HW135585   4.370   3.134  12.738  0.4293 -1.3831 -1.2053
 7984SOL    HW235586   4.379   3.248  12.643 -2.3734  0.7467  0.6854
 7985SOL     OW35587   2.256   0.404   7.316  0.5326  0.3533  0.0525
 7985SOL    HW135588   2.201   0.480   7.302 -0.8992 -1.1562 -2.4633
 7985SOL    HW235589   2.335   0.449   7.285  0.8162  1.7389  2.7806
 7986SOL     OW35590   4.081   1.640  13.918 -0.0880 -0.4591 -0.3398
 7986SOL    HW135591   4.145   1.568  13.912  2.5007  2.0032 -2.2421
 7986SOL    HW235592   4.070   1.652  13.824  0.9282 -1.9726 -0.6715
 7987SOL     OW35593   3.814   4.591   2.804 -0.1459 -0.8501  0.0027
 7987SOL    HW135594   3.874   4.614   2.734 -1.8928 -1.9563 -1.8457
 7987SOL    HW235595   3.735   4.640   2.781  1.4832  1.2054 -1.1259
 7988SOL     OW35596   1.363   0.260   3.148 -0.4781  0.6057 -0.6312
 7988SOL    HW135597   1.401   0.262   3.236  3.5317  1.8279 -2.3885
 7988SOL    HW235598   1.400   0.340   3.111  0.1471  1.2281  1.3440
 7989SOL     OW35599   2.844   1.231   6.056 -0.1705 -0.5071  0.0954
 7989SOL    HW135600   2.761   1.223   6.104  1.5500  1.0164  3.3629
 7989SOL    HW235601   2.874   1.140   6.061 -1.2016 -0.7283  2.4883
 7990SOL     OW35602   1.294   1.805   7.849  0.1835  0.1628 -0.4675
 7990SOL    HW135603   1.286   1.742   7.777  2.5595 -3.8908  2.8191
 7990SOL    HW235604   1.220   1.786   7.906  0.1056  1.0432 -0.2729
 7991SOL     OW35605   3.848   0.654   8.535  0.9481 -0.1914  0.6330
 7991SOL    HW135606   3.920   0.621   8.480  1.6929  0.4310  1.2298
 7991SOL    HW235607   3.873   0.604   8.613  1.9863 -2.2030 -0.9785
 7992SOL     OW35608   4.664   3.094   9.220  0.4903 -0.2844  0.2143
 7992SOL    HW135609   4.668   3.072   9.313  0.3885 -1.2164 -0.0055
 7992SOL    HW235610   0.016   3.114   9.194  0.0786  1.7775  0.3474
 7993SOL     OW35611   2.957   2.238   5.426  0.0093  0.1928  0.4170
 7993SOL    HW135612   2.929   2.211   5.513  1.0485 -1.0045  0.3713
 7993SOL    HW235613   3.051   2.224   5.439 -0.0374  0.4191  0.9742
 7994SOL     OW35614   3.988   2.532   2.499 -0.4896 -0.1910 -0.3173
 7994SOL    HW135615   4.071   2.564   2.536  0.1395 -0.5925 -1.3787
 7994SOL    HW235616   3.991   2.585   2.419 -0.0708  0.0917 -0.1126
 7995SOL     OW35617   0.366   2.926  17.296 -0.0324 -0.4674  0.1892
 7995SOL    HW135618   0.375   2.853  17.357  0.7788 -3.1304 -3.1433
 7995SOL    HW235619   0.447   2.913  17.246 -0.2887 -0.5151 -0.2121
 7996SOL     OW35620   1.325   3.035  12.777 -0.3438  0.4673  0.2471
 7996SOL    HW135621   1.275   3.037  12.695 -0.4523 -1.7041  0.2515
 7996SOL    HW235622   1.252   3.054  12.837 -0.7980 -0.9548  0.1580
 7997SOL     OW35623   4.664   4.119   4.183 -0.0314  0.3270 -0.0850
 7997SOL    HW135624   0.013   4.099   4.218 -0.3897  0.4292  0.8888
 7997SOL    HW235625   4.618   4.121   4.268  1.9055 -1.2138  1.0114
 7998SOL     OW35626   1.983   3.154  17.190 -0.4360 -0.0690 -0.2193
 7998SOL    HW135627   1.979   3.241  17.152 -2.0340  0.4566  1.1284
 7998SOL    HW235628   1.898   3.133  17.230 -0.6260  1.2479  0.0571
 7999SOL     OW35629   3.158   4.094   3.376 -0.0851 -0.5099  0.3687
 7999SOL    HW135630   3.151   4.179   3.331  0.8074  0.5804  2.3052
 7999SOL    HW235631   3.091   4.102   3.443 -0.3331  1.9084 -0.1591
 8000SOL     OW35632   3.461   2.375   9.235 -0.0008 -0.6395 -0.3707
 8000SOL    HW135633   3.484   2.443   9.172 -2.2032  0.9552  0.5307
 8000SOL    HW235634   3.431   2.421   9.313  2.0664 -0.9538  0.6027
 8001SOL     OW35635   2.831   1.732   5.354 -0.4063 -0.0171  0.2639
 8001SOL    HW135636   2.756   1.791   5.344  0.7091  1.5091  1.0397
 8001SOL    HW235637   2.789   1.646   5.353  1.3003 -0.7996 -2.4651
 8002SOL     OW35638   1.392   1.975  14.502 -0.4849 -0.2280  0.0581
 8002SOL    HW135639   1.440   2.050  14.469 -3.2734  1.1988 -0.8105
 8002SOL    HW235640   1.371   1.923  14.424 -0.8310  0.0693 -0.0476
 8003SOL     OW35641   1.877   2.394   9.006 -0.7177  0.4035 -0.4027
 8003SOL    HW135642   1.844   2.308   9.031  0.4814  0.3404  1.0058
 8003SOL    HW235643   1.954   2.389   9.062 -1.8650 -2.5616  0.9231
 8004SOL     OW35644   2.716   0.687   7.919  0.1686  0.6176 -0.2093
 8004SOL    HW135645   2.779   0.712   7.851 -0.2690 -3.2193 -2.0328
 8004SOL    HW235646   2.680   0.607   7.881 -1.9380  2.0857 -1.3363
 8005SOL     OW35647   0.262   2.438   3.014  0.0171  0.5480 -0.1221
 8005SOL    HW135648   0.184   2.417   2.962  0.4780 -0.1953 -0.5037
 8005SOL    HW235649   0.286   2.346   3.020  0.2432  0.6977  1.3604
 8006SOL     OW35650   1.203   3.432   3.763 -0.1186 -0.0383 -0.1644
 8006SOL    HW135651   1.177   3.406   3.674  0.3696 -2.3682  0.3860
 8006SOL    HW235652   1.114   3.432   3.800  0.6086 -0.8792  1.5643
 8007SOL     OW35653   3.461   3.018   6.954  0.6243  0.2763 -0.0720
 8007SOL    HW135654   3.498   2.980   6.874 -0.1504 -2.5371  0.9132
 8007SOL    HW235655   3.539   3.037   7.005 -0.4886  0.0658  1.7084
 8008SOL     OW35656   0.535   2.541  11.081 -0.2548 -0.4418 -0.0127
 8008SOL    HW135657   0.535   2.491  11.163  0.0672  0.2150  0.3948
 8008SOL    HW235658   0.445   2.532  11.051 -0.1090  0.0885 -0.6158
 8009SOL     OW35659   1.607   3.312   8.434 -0.1904  0.0700 -0.1056
 8009SOL    HW135660   1.606   3.394   8.483  0.2111 -0.4666  0.8086
 8009SOL    HW235661   1.597   3.336   8.342  1.7579  1.2428  0.0004
 8010SOL     OW35662   0.664   4.195   5.246 -0.1703 -0.0335 -0.4189
 8010SOL    HW135663   0.680   4.151   5.163  2.6352 -1.5343  0.9588
 8010SOL    HW235664   0.648   4.287   5.222  1.3569  1.2023  3.2777
 8011SOL     OW35665   4.706   0.333   0.308 -0.0622 -0.2171  0.7033
 8011SOL    HW135666   4.640   0.357   0.374 -0.1090 -0.3083  0.6904
 8011SOL    HW235667   0.032   0.404   0.307  0.0960 -0.4081 -2.4921
 8012SOL     OW35668   0.702   1.407   1.670 -0.5972  0.6623 -0.0712
 8012SOL    HW135669   0.667   1.474   1.728 -2.1031  0.5646 -0.8541
 8012SOL    HW235670   0.665   1.425   1.583  2.0227  1.3412 -1.0283
 8013SOL     OW35671   2.218   3.314   1.830  0.4088 -0.3101 -0.0200
 8013SOL    HW135672   2.290   3.251   1.838  0.9138  0.3471  0.6230
 8013SOL    HW235673   2.249   3.359   1.751  1.2762  1.2486  1.1965
 8014SOL     OW35674   1.609   0.271  12.667 -0.0930 -0.1781  0.5815
 8014SOL    HW135675   1.686   0.328  12.677  0.9238 -1.2469 -1.2711
 8014SOL    HW235676   1.554   0.307  12.737 -4.0436 -1.5523 -1.8298
 8015SOL     OW35677   1.291   2.582  14.820  0.1816  0.7598  0.7499
 8015SOL    HW135678   1.361   2.536  14.867  0.4738  0.1309 -0.2985
 8015SOL    HW235679   1.226   2.512  14.810  0.3577  0.6992  0.0301
 8016SOL     OW35680   4.113   0.711   8.760  0.7283 -0.0352  0.2313
 8016SOL    HW135681   4.171   0.719   8.683 -0.4628 -1.8026 -0.8403
 8016SOL    HW235682   4.098   0.805   8.769 -0.5091 -0.1703 -0.3592
 8017SOL     OW35683   2.914   4.737   9.509  0.0937 -0.1867  0.0141
 8017SOL    HW135684   2.991   4.706   9.462  0.0772  0.5073 -0.4734
 8017SOL    HW235685   2.918   0.089   9.477  1.3409 -0.0797  0.5068
 8018SOL     OW35686   2.541   4.662   5.041 -0.4744  0.5796  0.1474
 8018SOL    HW135687   2.546   4.570   5.015 -1.5547  0.6180 -0.1878
 8018SOL    HW235688   2.546   4.652   5.136 -0.8903  2.0180  0.3125
 8019SOL     OW35689   2.415   2.039  10.360  0.2810 -0.6421 -0.1941
 8019SOL    HW135690   2.504   2.073  10.350 -0.0570 -0.5068 -2.8111
 8019SOL    HW235691   2.358   2.115  10.368  0.4656 -0.5015 -0.2278
 8020SOL     OW35692   4.297   3.541   6.017  0.2111 -0.1647  0.0896
 8020SOL    HW135693   4.222   3.484   6.004  0.2644  0.4408 -3.0230
 8020SOL    HW235694   4.273   3.623   5.974  1.1923  1.2691  2.3309
 8021SOL     OW35695   2.715   3.185   1.778  0.2049 -1.0728 -0.6180
 8021SOL    HW135696   2.743   3.122   1.845 -0.4267 -0.5685  0.1135
 8021SOL    HW235697   2.798   3.210   1.737 -1.5080  2.0974 -2.0844
 8022SOL     OW35698   3.556   2.558   6.065  0.8489  0.8494  0.2332
 8022SOL    HW135699   3.588   2.545   6.154 -1.6301  2.5394  1.3663
 8022SOL    HW235700   3.631   2.543   6.007  0.9352  1.5884  0.1589
 8023SOL     OW35701   0.265   2.389   5.179  0.4430 -0.0033  0.3175
 8023SOL    HW135702   0.300   2.478   5.174 -1.7308  0.6870 -2.5545
 8023SOL    HW235703   0.339   2.355   5.128 -0.5576 -1.6682 -0.0117
 8024SOL     OW35704   1.933   1.593  10.221  0.0069 -0.2919  0.1555
 8024SOL    HW135705   1.938   1.672  10.167 -2.5380 -1.3071 -1.5423
 8024SOL    HW235706   1.961   1.521  10.164  2.4595 -1.7392  3.1652
 8025SOL     OW35707   3.603   0.965   4.463  0.0507  0.3869 -0.7509
 8025SOL    HW135708   3.548   0.977   4.541  0.8192 -1.2442  0.0411
 8025SOL    HW235709   3.588   1.054   4.432  0.5300  0.9034  0.5134
 8026SOL     OW35710   0.948   3.973  13.125 -0.3556  0.0106  0.2122
 8026SOL    HW135711   1.030   3.939  13.090 -0.8487 -2.5695  1.5028
 8026SOL    HW235712   0.888   3.956  13.052  2.1362 -1.8750 -1.4001
 8027SOL     OW35713   4.077   4.701   3.348 -1.0511 -0.4724  0.4829
 8027SOL    HW135714   4.172   4.688   3.346 -1.1892 -1.0812 -2.4529
 8027SOL    HW235715   4.048   4.611   3.362 -0.0346 -1.1206 -1.5301
 8028SOL     OW35716   3.719   2.190   5.941  0.1700  0.0129  0.1408
 8028SOL    HW135717   3.678   2.231   5.865 -0.0092  1.0580  0.8031
 8028SOL    HW235718   3.751   2.263   5.994 -0.5201  1.3693 -1.3516
 8029SOL     OW35719   0.550   3.325   5.589 -0.5818 -0.6299  0.1468
 8029SOL    HW135720   0.463   3.293   5.614 -1.0484  0.2931 -0.2842
 8029SOL    HW235721   0.577   3.259   5.525 -0.6385  0.9669 -1.5097
 8030SOL     OW35722   3.637   3.794   8.846 -0.4137  0.4997  0.0382
 8030SOL    HW135723   3.708   3.789   8.782  0.3718  0.8732  0.8778
 8030SOL    HW235724   3.661   3.877   8.886 -0.0328  0.4583 -0.0988
 8031SOL     OW35725   1.622   0.536   0.032  0.4465 -0.7818  0.1776
 8031SOL    HW135726   1.683   0.471  17.747 -0.2610 -2.1556  1.5134
 8031SOL    HW235727   1.570   0.549  17.702  1.0550 -0.2447 -0.1347
 8032SOL     OW35728   4.509   1.148   7.608  0.2626  0.0917 -1.0460
 8032SOL    HW135729   4.475   1.143   7.698  1.5103 -0.5443 -0.6071
 8032SOL    HW235730   4.510   1.243   7.596  0.0372  0.1351 -0.7177
 8033SOL     OW35731   1.904   3.492   7.939  0.7727 -0.0021  0.2606
 8033SOL    HW135732   1.964   3.428   7.901 -1.3699 -1.9007  0.1179
 8033SOL    HW235733   1.832   3.481   7.877 -0.1568  2.4871  0.9080
 8034SOL     OW35734   0.551   3.697   3.253  0.1225  0.0197 -0.0433
 8034SOL    HW135735   0.494   3.771   3.277 -1.0429 -0.5400 -1.0701
 8034SOL    HW235736   0.625   3.702   3.314 -1.3858  3.7086  1.5156
 8035SOL     OW35737   3.636   0.798  11.668  0.0305 -0.1489 -0.5844
 8035SOL    HW135738   3.656   0.869  11.608 -0.5953  0.2644 -0.3018
 8035SOL    HW235739   3.700   0.731  11.641 -1.1132 -0.8733 -1.4989
 8036SOL     OW35740   4.410   4.093  17.518  0.0732 -0.0426 -0.2893
 8036SOL    HW135741   4.442   4.041  17.592  0.8435 -1.1164 -1.3831
 8036SOL    HW235742   4.460   4.170  17.544  0.4790 -0.4206  0.0368
 8037SOL     OW35743   3.294   1.877   2.761  0.1871 -0.2405 -0.1098
 8037SOL    HW135744   3.385   1.906   2.753  0.1847  0.3686  2.2547
 8037SOL    HW235745   3.291   1.843   2.850 -0.9962  2.2312  0.8090
 8038SOL     OW35746   4.728   4.695   7.054 -0.1540 -0.5924 -0.2873
 8038SOL    HW135747   4.721   0.025   7.121 -4.1323 -0.3798 -0.9578
 8038SOL    HW235748   4.635   4.692   7.034 -0.0434  1.4065 -1.0741
 8039SOL     OW35749   2.059   0.270  12.135 -0.0003  0.7794 -0.3147
 8039SOL    HW135750   2.129   0.316  12.089  0.0984 -0.0044 -0.9627
 8039SOL    HW235751   2.015   0.235  12.057 -1.0361  0.2801  0.4908
 8040SOL     OW35752   2.597   2.670   3.273  0.9086 -0.2708 -0.1695
 8040SOL    HW135753   2.574   2.726   3.348 -0.8324 -2.2951  0.7939
 8040SOL    HW235754   2.536   2.598   3.289  0.1293  0.5905  0.7634
 8041SOL     OW35755   1.942   2.035   6.202 -0.2619  0.4726  0.5919
 8041SOL    HW135756   1.892   2.104   6.245 -1.2303 -1.5855  2.8070
 8041SOL    HW235757   1.984   2.086   6.133 -1.2156 -0.8632 -0.9574
 8042SOL     OW35758   2.424   3.883   5.011  0.4684  0.7538 -0.5005
 8042SOL    HW135759   2.451   3.802   5.054  0.1285 -0.3086 -2.3014
 8042SOL    HW235760   2.394   3.938   5.083 -2.9111  1.9647 -2.8013
 8043SOL     OW35761   1.538   2.100  14.912  0.1985 -0.5971 -0.8019
 8043SOL    HW135762   1.461   2.089  14.855 -1.2044 -0.1053  0.9897
 8043SOL    HW235763   1.552   2.011  14.944  2.9520  1.1314  2.6706
 8044SOL     OW35764   0.416   3.200   9.803 -0.1735  0.1290 -0.4986
 8044SOL    HW135765   0.370   3.177   9.884 -0.8702  0.1001 -0.8982
 8044SOL    HW235766   0.507   3.177   9.821 -0.7602 -2.5135 -0.8467
 8045SOL     OW35767   0.823   2.079   2.226 -0.1306  0.4930  0.1126
 8045SOL    HW135768   0.751   2.107   2.170 -0.2576  0.0789  0.0715
 8045SOL    HW235769   0.804   1.985   2.227  2.9956 -0.1653  0.4319
 8046SOL     OW35770   2.386   3.409  13.720 -0.0203  0.2491 -0.5528
 8046SOL    HW135771   2.474   3.370  13.718  0.0601  0.3324  1.4678
 8046SOL    HW235772   2.336   3.336  13.685  2.0259 -2.1640  1.5625
 8047SOL     OW35773   1.991   0.749   9.689 -0.1798  0.8180  0.5256
 8047SOL    HW135774   2.028   0.836   9.675  1.0572  0.0092 -1.1735
 8047SOL    HW235775   1.898   0.772   9.683 -0.4274  0.0506  1.4850
 8048SOL     OW35776   0.704   0.953   8.152 -0.0229  0.0910 -0.2708
 8048SOL    HW135777   0.622   0.918   8.189 -0.7433  1.4940 -0.5612
 8048SOL    HW235778   0.748   0.978   8.233 -0.7773  1.5447 -0.3161
 8049SOL     OW35779   0.746   2.565  13.428 -0.3115 -0.5791 -0.4425
 8049SOL    HW135780   0.777   2.654  13.409 -1.0621 -0.3592 -0.5969
 8049SOL    HW235781   0.808   2.547  13.499  0.3706 -2.5972 -1.5558
 8050SOL     OW35782   1.085   2.469   3.521 -0.2952 -0.5032 -0.1829
 8050SOL    HW135783   1.067   2.530   3.593 -2.4623 -0.0989 -1.0671
 8050SOL    HW235784   1.132   2.395   3.559  0.9668 -0.9264 -2.6146
 8051SOL     OW35785   1.148   1.450   3.215  0.2604  0.2839 -0.5983
 8051SOL    HW135786   1.093   1.471   3.290  0.9122  0.6251 -0.2078
 8051SOL    HW235787   1.157   1.356   3.227 -0.0185  0.4647  1.0428
 8052SOL     OW35788   3.875   4.666   2.283 -0.0943  0.1751  0.1463
 8052SOL    HW135789   3.938   4.700   2.347 -0.6706 -0.5295  1.0808
 8052SOL    HW235790   3.914   4.661   2.196 -0.6156 -2.9345  0.0818
 8053SOL     OW35791   4.007   4.078   2.321 -0.1997 -0.0629  0.0560
 8053SOL    HW135792   4.087   4.063   2.372 -0.6079  2.8044  1.5232
 8053SOL    HW235793   3.975   3.988   2.319 -0.3970 -0.0438  2.5885
 8054SOL     OW35794   1.579   1.707   7.339 -0.0669  0.4259 -0.0307
 8054SOL    HW135795   1.571   1.783   7.282  0.5645  1.0938  0.7685
 8054SOL    HW235796   1.485   1.686   7.338 -0.2087  1.0448 -0.1875
 8055SOL     OW35797   1.380   1.222   1.896 -0.1414 -0.0570 -0.2547
 8055SOL    HW135798   1.460   1.261   1.860 -0.9877 -0.0851 -2.1582
 8055SOL    HW235799   1.422   1.169   1.964 -0.5781 -2.6976 -2.0465
 8056SOL     OW35800   0.108   2.588   6.494 -0.0652  0.4272 -0.4277
 8056SOL    HW135801   0.122   2.680   6.472  2.2821 -0.1993 -1.5724
 8056SOL    HW235802   0.079   2.596   6.584  2.1388  2.0422  0.1287
 8057SOL     OW35803   2.341   1.512   8.680  0.5777  0.1775 -0.2071
 8057SOL    HW135804   2.424   1.534   8.639  0.8454  1.3086  0.9609
 8057SOL    HW235805   2.358   1.419   8.690  1.1237  0.0692 -2.0962
 8058SOL     OW35806   3.593   2.009  15.489 -0.2972 -0.1508 -0.3759
 8058SOL    HW135807   3.667   1.998  15.549 -0.3250 -1.2603 -0.5451
 8058SOL    HW235808   3.513   1.999  15.541  0.0447  0.1734  0.2117
 8059SOL     OW35809   2.388   1.240   8.748  0.4011 -0.2257  0.6567
 8059SOL    HW135810   2.446   1.220   8.821 -0.4236  0.6117  1.5411
 8059SOL    HW235811   2.438   1.186   8.686 -1.6841 -0.7196 -0.5962
 8060SOL     OW35812   4.434   3.728   7.761 -0.5258  0.2492 -0.4806
 8060SOL    HW135813   4.388   3.778   7.829  0.8639  1.4300 -0.4138
 8060SOL    HW235814   4.510   3.783   7.743 -0.5981  0.6333  0.3974
 8061SOL     OW35815   0.154   3.639   9.282 -0.7074  0.6250 -0.7748
 8061SOL    HW135816   0.142   3.648   9.377  0.4282  0.4764 -0.6064
 8061SOL    HW235817   0.064   3.613   9.263 -0.3930  0.4578 -2.0294
 8062SOL     OW35818   1.154   4.138   2.819 -0.0346 -0.2950  0.1727
 8062SOL    HW135819   1.078   4.107   2.771  0.9029 -0.3288 -1.3060
 8062SOL    HW235820   1.184   4.204   2.756 -1.5394  0.7208  0.5307
 8063SOL     OW35821   2.502   4.350   3.320  0.3595 -0.5179 -0.0079
 8063SOL    HW135822   2.567   4.367   3.252  0.2364  0.6040  0.1621
 8063SOL    HW235823   2.448   4.291   3.267  0.5496  1.5175 -2.4797
 8064SOL     OW35824   2.508   0.475   7.289 -0.0631 -0.3955 -0.8825
 8064SOL    HW135825   2.589   0.491   7.338 -0.3023  2.4707 -1.4584
 8064SOL    HW235826   2.536   0.409   7.226 -0.0613 -0.5220 -0.7517
 8065SOL     OW35827   2.918   1.553   4.822  0.1049 -0.4307 -0.2133
 8065SOL    HW135828   2.890   1.623   4.882 -1.0439  0.8390 -2.2354
 8065SOL    HW235829   3.000   1.534   4.868  1.0633  0.5440 -1.5420
 8066SOL     OW35830   2.324   1.902   9.833 -0.3037  0.1234  0.0834
 8066SOL    HW135831   2.331   1.819   9.880  0.9066  0.0336 -0.2577
 8066SOL    HW235832   2.245   1.922   9.883  0.4195  1.0950  0.8313
 8067SOL     OW35833   3.571   2.375   0.104  0.2884  0.2938  0.9472
 8067SOL    HW135834   3.572   2.384   0.199 -0.1492  1.1736  0.8760
 8067SOL    HW235835   3.652   2.327   0.087  1.2223  2.6572 -1.3421
 8068SOL     OW35836   4.430   0.037   3.340 -0.1656  0.3052  0.4720
 8068SOL    HW135837   4.415   0.010   3.430  0.6121  2.1778  1.1759
 8068SOL    HW235838   4.399   0.128   3.334 -0.1149  0.3927  1.5426
 8069SOL     OW35839   2.337   3.393   8.585 -0.3181 -0.0379 -0.7905
 8069SOL    HW135840   2.352   3.483   8.556 -0.4875 -0.2551 -1.5421
 8069SOL    HW235841   2.249   3.382   8.549 -0.1898 -0.4734 -0.9661
 8070SOL     OW35842   2.110   4.520  14.486 -0.1069  0.8101 -0.0671
 8070SOL    HW135843   2.022   4.494  14.459 -0.7595  3.2400 -0.2272
 8070SOL    HW235844   2.094   4.614  14.478 -1.6718  0.3916 -1.8591
 8071SOL     OW35845   1.206   1.014   5.192 -0.3685  0.0165 -0.4445
 8071SOL    HW135846   1.200   1.109   5.203 -0.3220  0.0027 -0.3009
 8071SOL    HW235847   1.300   0.997   5.188 -0.2125  1.1458 -1.4687
 8072SOL     OW35848   3.241   4.604   9.766  0.9120 -0.6447  0.1273
 8072SOL    HW135849   3.304   4.592   9.837 -1.2963  0.6473  2.3204
 8072SOL    HW235850   3.188   4.524   9.764 -0.4786  0.2613  0.0923
 8073SOL     OW35851   1.195   0.882  14.778 -0.3117  0.0424  0.5611
 8073SOL    HW135852   1.193   0.807  14.836  0.7427 -1.6777 -1.6057
 8073SOL    HW235853   1.260   0.855  14.713 -2.8231 -1.1822 -1.4524
 8074SOL     OW35854   2.319   4.643   3.173 -0.1015  0.3706  0.2904
 8074SOL    HW135855   2.311   4.646   3.078  0.0510 -0.8691  0.2297
 8074SOL    HW235856   2.415   4.642   3.175 -0.0854  1.0536 -0.0076
 8075SOL     OW35857   1.524   3.019   9.033 -0.1785  0.6424  0.0491
 8075SOL    HW135858   1.498   2.930   9.058  1.0196  0.0906 -0.6589
 8075SOL    HW235859   1.441   3.063   9.051 -1.5900 -2.6261  1.6659
 8076SOL     OW35860   0.008   0.429   5.115 -0.3062 -0.0611  0.5298
 8076SOL    HW135861   4.665   0.398   5.075 -0.6123 -0.2378  1.2792
 8076SOL    HW235862   4.716   0.427   5.206 -0.0416 -1.9122  0.5805
 8077SOL     OW35863   1.836   0.004   6.607 -0.0641  0.1384 -0.2415
 8077SOL    HW135864   1.843   0.080   6.666 -0.7755  0.1212 -0.1360
 8077SOL    HW235865   1.816   4.676   6.673  1.1355  1.2897  1.3007
 8078SOL     OW35866   0.540   2.784   7.502  0.6814  0.0691 -0.1425
 8078SOL    HW135867   0.588   2.804   7.583 -1.5882 -0.4619  1.3260
 8078SOL    HW235868   0.570   2.701   7.464 -2.2205 -0.1542 -1.9767
 8079SOL     OW35869   0.689   2.822   1.826  0.3802  0.0892  0.4201
 8079SOL    HW135870   0.629   2.783   1.890 -0.8990  0.3842 -0.6120
 8079SOL    HW235871   0.772   2.784   1.856 -1.5463 -3.0664  1.7847
 8080SOL     OW35872   3.266   4.662  13.464  0.1604 -0.2704  0.5639
 8080SOL    HW135873   3.301   4.618  13.387  1.3365 -0.2878  1.1218
 8080SOL    HW235874   3.271   0.013  13.430 -1.3725  0.6495  2.7056
 8081SOL     OW35875   4.531   1.261   4.838 -0.2684  0.0402 -0.0347
 8081SOL    HW135876   4.445   1.302   4.849 -0.6501 -0.6262 -0.5287
 8081SOL    HW235877   4.563   1.309   4.761 -1.5690  0.7598 -0.1259
 8082SOL     OW35878   4.541   1.028   3.755  0.1928 -0.0886  0.2395
 8082SOL    HW135879   4.539   1.020   3.660  1.1334  0.0394  0.2071
 8082SOL    HW235880   4.572   0.942   3.784  0.7501  0.0873  0.1799
 8083SOL     OW35881   4.478   1.142   8.180  0.1764 -0.1548 -0.8270
 8083SOL    HW135882   4.569   1.117   8.191 -0.4460 -1.0493  2.6220
 8083SOL    HW235883   4.440   1.054   8.167 -0.7719 -0.1046  1.4775
 8084SOL     OW35884   0.920   2.854  14.434  0.5273 -0.0331 -0.1100
 8084SOL    HW135885   0.927   2.835  14.341  0.3809  0.5827 -0.2513
 8084SOL    HW235886   1.009   2.886  14.444 -0.3800  2.4712  0.1619
 8085SOL     OW35887   0.959   2.306   5.739  0.2589 -0.2060  0.7459
 8085SOL    HW135888   0.919   2.388   5.769 -0.9981 -0.2230 -0.8522
 8085SOL    HW235889   1.035   2.301   5.797  0.5550 -1.2878  0.2592
 8086SOL     OW35890   3.176   2.258   8.016  0.0884  0.0777  0.2504
 8086SOL    HW135891   3.159   2.341   8.061  2.0017  0.9615 -0.6450
 8086SOL    HW235892   3.087   2.232   7.991  0.2851 -1.0874  0.7896
 8087SOL     OW35893   1.590   4.212   1.579 -0.2679  0.4303  0.6311
 8087SOL    HW135894   1.514   4.198   1.635  0.4906 -0.1559  1.5052
 8087SOL    HW235895   1.606   4.299   1.615  0.3392 -0.0928  1.6154
 8088SOL     OW35896   2.493   3.813   2.313 -0.1733  0.8957  0.1995
 8088SOL    HW135897   2.442   3.764   2.377 -3.2448  1.8351 -1.5463
 8088SOL    HW235898   2.577   3.822   2.359 -0.6127  2.4848  0.6839
 8089SOL     OW35899   0.503   2.412   4.203  0.3461 -0.3673  0.8966
 8089SOL    HW135900   0.576   2.351   4.214  2.3763  1.6425 -1.4688
 8089SOL    HW235901   0.509   2.470   4.279 -0.0104 -0.9672  1.3870
 8090SOL     OW35902   0.714   3.550  15.977 -0.0384  0.2357  0.1205
 8090SOL    HW135903   0.803   3.517  15.993 -0.9034 -0.4484  3.3598
 8090SOL    HW235904   0.716   3.533  15.882  0.2106 -1.4216  0.4207
 8091SOL     OW35905   4.097   3.694   8.185 -0.3632 -0.3009  0.2128
 8091SOL    HW135906   4.040   3.747   8.129  1.6711  1.4704 -0.2004
 8091SOL    HW235907   4.156   3.746   8.240  1.4901 -1.3723 -0.7402
 8092SOL     OW35908   3.231   0.942  10.053 -0.1948 -0.1569  0.1048
 8092SOL    HW135909   3.155   0.981  10.010  0.8505 -0.1965 -1.7889
 8092SOL    HW235910   3.211   0.851  10.031 -0.7050 -0.1315  0.4454
 8093SOL     OW35911   1.742   4.244   2.862 -0.6650  0.9511 -0.0644
 8093SOL    HW135912   1.650   4.266   2.872 -1.0363 -0.5776 -0.1467
 8093SOL    HW235913   1.794   4.325   2.857  1.3080 -0.2787  0.4849
 8094SOL     OW35914   2.134   3.276   3.869  0.2907 -0.2534 -0.1457
 8094SOL    HW135915   2.200   3.293   3.936 -0.2779  1.1436  0.0590
 8094SOL    HW235916   2.062   3.332   3.897  1.4238  0.9152  0.4151
 8095SOL     OW35917   4.579   0.682   5.553 -0.2767  0.1160 -0.1407
 8095SOL    HW135918   4.625   0.727   5.624  2.2480 -2.3010 -0.2395
 8095SOL    HW235919   4.501   0.732   5.533 -2.3767 -3.2277 -0.2900
 8096SOL     OW35920   4.206   3.535  11.480 -0.2990  0.2630  0.2884
 8096SOL    HW135921   4.118   3.527  11.515 -1.1249 -0.0641 -1.8463
 8096SOL    HW235922   4.246   3.448  11.485 -2.0466 -0.4765  1.2697
 8097SOL     OW35923   4.651   1.511   5.622  0.0044 -0.1251 -0.0949
 8097SOL    HW135924   4.731   1.459   5.618  0.7997  1.2415 -1.6991
 8097SOL    HW235925   4.574   1.457   5.639  0.3970 -0.7440 -0.2937
 8098SOL     OW35926   3.705   2.008   8.980  0.5365 -0.0942  0.3309
 8098SOL    HW135927   3.709   2.068   9.055 -0.6891 -2.2837  2.1589
 8098SOL    HW235928   3.631   2.046   8.933  1.0964  1.6483  0.8446
 8099SOL     OW35929   4.138   1.004   1.864 -0.1651 -0.2077  0.4909
 8099SOL    HW135930   4.101   1.069   1.805 -0.7848 -0.2578  0.8252
 8099SOL    HW235931   4.083   0.929   1.844  1.2861 -1.1917  0.1637
 8100SOL     OW35932   4.562   0.636   4.516 -0.3393  0.2179 -0.0829
 8100SOL    HW135933   4.620   0.685   4.574 -1.0513  0.0586  0.7785
 8100SOL    HW235934   4.542   0.695   4.444 -0.3828 -1.1215 -1.1660
 8101SOL     OW35935   3.452   4.605   2.511  0.1968 -0.0646 -0.1724
 8101SOL    HW135936   3.518   4.543   2.541 -0.2414 -0.3072  0.2901
 8101SOL    HW235937   3.500   4.662   2.451 -0.2637 -1.3845 -1.8080
 8102SOL     OW35938   4.683   4.304   2.908 -0.8475 -0.1320  0.5570
 8102SOL    HW135939   4.663   4.359   2.984 -0.9242  0.8219 -0.1578
 8102SOL    HW235940   4.605   4.326   2.857  0.3687  1.6938 -0.5406
 8103SOL     OW35941   1.618   2.668  16.345 -0.2286 -0.4066 -0.4313
 8103SOL    HW135942   1.684   2.727  16.381  0.0859 -1.7657  1.2201
 8103SOL    HW235943   1.650   2.583  16.374  1.7036  0.7357  0.7640
 8104SOL     OW35944   1.039   0.742   3.603  0.3747  0.1359  0.0543
 8104SOL    HW135945   0.982   0.815   3.628  0.3220  0.3281 -0.6375
 8104SOL    HW235946   1.085   0.776   3.527  2.4460  1.5749  1.9502
 8105SOL     OW35947   0.745   2.995  11.648  0.3194 -0.3923 -0.9144
 8105SOL    HW135948   0.726   2.982  11.555  0.2292 -0.4277 -0.8911
 8105SOL    HW235949   0.792   3.078  11.652 -2.0018  1.0130 -2.6064
 8106SOL     OW35950   4.315   3.006  10.981 -0.2929  0.2588 -0.2473
 8106SOL    HW135951   4.375   2.932  10.974  0.2171  0.5835  0.6780
 8106SOL    HW235952   4.250   2.965  10.925 -1.4112  0.3004  1.0140
 8107SOL     OW35953   1.114   1.680   2.458  0.3847  0.0073 -0.1008
 8107SOL    HW135954   1.057   1.612   2.493  0.4628  0.0604  0.1308
 8107SOL    HW235955   1.120   1.649   2.368 -0.9907 -0.2418 -0.1057
 8108SOL     OW35956   2.173   2.716   9.955 -0.1679  0.2076 -0.3434
 8108SOL    HW135957   2.244   2.769   9.992  0.7132 -0.1569 -1.5024
 8108SOL    HW235958   2.130   2.687  10.036 -0.5357  1.3755 -0.1287
 8109SOL     OW35959   3.725   2.648   2.559 -0.2853  0.4724 -0.4938
 8109SOL    HW135960   3.808   2.634   2.513 -1.5338 -2.1237 -1.9803
 8109SOL    HW235961   3.742   2.705   2.634  0.9994 -0.9680  0.3183
 8110SOL     OW35962   0.478   2.893  13.544  0.3769  0.1418 -0.1511
 8110SOL    HW135963   0.571   2.916  13.549  0.4347  0.4417 -2.7455
 8110SOL    HW235964   0.458   2.878  13.637 -1.0635 -0.2355 -0.5156
 8111SOL     OW35965   1.304   4.172   2.531  0.1773 -0.2807  0.2566
 8111SOL    HW135966   1.306   4.078   2.518  1.4205 -0.6360  3.0773
 8111SOL    HW235967   1.381   4.196   2.480  1.1835  1.4498  2.5885
 8112SOL     OW35968   2.442   1.314   5.836 -0.6778  0.3549 -0.0375
 8112SOL    HW135969   2.466   1.327   5.744  0.6911 -2.0416 -0.0170
 8112SOL    HW235970   2.523   1.329   5.883  0.5378 -2.1100 -1.3782
 8113SOL     OW35971   0.545   3.513  11.356 -0.1175  0.0671  0.1619
 8113SOL    HW135972   0.594   3.584  11.398  2.6461 -1.6985 -0.0307
 8113SOL    HW235973   0.456   3.535  11.382  0.3299 -0.3552  2.0294
 8114SOL     OW35974   0.828   3.138   7.595  0.1254 -0.6465  0.4533
 8114SOL    HW135975   0.773   3.119   7.519 -0.3101 -0.1045  0.6315
 8114SOL    HW235976   0.754   3.155   7.653  0.8709  0.7051  1.0295
 8115SOL     OW35977   2.610   4.454   5.580 -0.6146  0.7262  0.4013
 8115SOL    HW135978   2.690   4.496   5.611  0.9863 -0.5121 -2.1390
 8115SOL    HW235979   2.550   4.529   5.587  0.0361  1.3816 -1.0908
 8116SOL     OW35980   4.027   3.857  11.447 -0.5163  0.4288  0.2016
 8116SOL    HW135981   4.104   3.853  11.504  0.1226  1.9445 -0.5695
 8116SOL    HW235982   3.959   3.870  11.513  0.3228 -0.8817  1.3346
 8117SOL     OW35983   4.099   4.143   3.861 -0.1602  1.1742  0.4352
 8117SOL    HW135984   4.143   4.193   3.792 -0.9959  0.6090 -0.5188
 8117SOL    HW235985   4.119   4.055   3.830 -4.5597  0.8525 -1.5366
 8118SOL     OW35986   1.388   2.006  15.529  0.3062  0.3566 -0.2385
 8118SOL    HW135987   1.413   1.923  15.570 -1.0948 -0.4464 -1.0427
 8118SOL    HW235988   1.449   2.003  15.456  1.4616 -0.3421  0.7574
 8119SOL     OW35989   1.858   1.945   2.192  0.8412 -0.2015  0.0793
 8119SOL    HW135990   1.795   1.963   2.263  0.6322  2.3968 -0.7929
 8119SOL    HW235991   1.934   1.937   2.249  0.2964  0.1267  0.8575
 8120SOL     OW35992   1.161   3.350   7.998 -0.7402 -0.1493  0.2648
 8120SOL    HW135993   1.158   3.354   7.903  2.9672  0.4497  0.1419
 8120SOL    HW235994   1.211   3.429   8.019  0.8638 -0.9642 -0.4731
 8121SOL     OW35995   0.256   3.297   0.994 -0.5075  0.4048 -0.0294
 8121SOL    HW135996   0.325   3.234   0.974 -1.8650 -1.6196  1.7325
 8121SOL    HW235997   0.244   3.296   1.089 -1.2834  0.4429 -0.1319
 8122SOL     OW35998   1.345   0.350   0.501  0.5137  0.8320 -0.1998
 8122SOL    HW135999   1.426   0.351   0.449 -0.8019  0.9938 -2.2313
 8122SOL    HW236000   1.360   0.415   0.570 -0.4830  2.1639 -1.2186
 8123SOL     OW36001   3.630   0.595  10.170 -0.1577 -0.1499 -0.5443
 8123SOL    HW136002   3.581   0.568  10.248  2.1801 -0.8981  0.6655
 8123SOL    HW236003   3.568   0.561  10.105 -3.1141 -0.2469  2.3326
 8124SOL     OW36004   3.922   4.112  11.238 -0.5352  0.4045 -0.0600
 8124SOL    HW136005   3.858   4.055  11.281 -2.0009  0.7698 -1.7411
 8124SOL    HW236006   3.905   4.196  11.279  0.1299  0.8065 -0.6133
 8125SOL     OW36007   1.390   4.523   4.813 -0.1974 -0.9989  0.1974
 8125SOL    HW136008   1.347   4.539   4.897  0.6979  2.9908 -0.1352
 8125SOL    HW236009   1.435   4.440   4.827 -0.0446 -0.5051  2.6627
 8126SOL     OW36010   4.490   3.827   5.036 -0.1633  0.3273 -0.1810
 8126SOL    HW136011   4.576   3.795   5.062 -0.5144 -0.6920 -0.2427
 8126SOL    HW236012   4.450   3.851   5.120  0.8281 -0.3672  0.4948
 8127SOL     OW36013   1.918   0.102   7.088 -0.1794 -0.0771 -0.2271
 8127SOL    HW136014   1.858   0.028   7.103  0.5835 -0.5861  0.3222
 8127SOL    HW236015   1.987   0.055   7.042  0.1759 -1.3953  1.6231
 8128SOL     OW36016   2.692   2.825  10.751  0.0716  0.6748  0.5432
 8128SOL    HW136017   2.753   2.862  10.687 -0.2262  1.0044  0.4475
 8128SOL    HW236018   2.653   2.758  10.695  1.2808  0.5489 -0.1513
 8129SOL     OW36019   4.185   0.555  12.942 -0.1141 -0.1177 -0.3806
 8129SOL    HW136020   4.204   0.560  13.036  2.0696 -1.7702 -0.7391
 8129SOL    HW236021   4.250   0.615  12.903 -0.8453  0.2344 -1.0542
 8130SOL     OW36022   1.159   0.744   5.402  0.2776  0.3005 -0.4097
 8130SOL    HW136023   1.100   0.726   5.328  0.9132  0.9777 -1.0839
 8130SOL    HW236024   1.217   0.668   5.397 -0.2736 -0.0933 -0.7822
 8131SOL     OW36025   3.472   0.997   4.210  0.7487  0.3444 -0.0886
 8131SOL    HW136026   3.484   0.933   4.279 -1.2697  0.0121 -0.0654
 8131SOL    HW236027   3.564   1.021   4.198  0.6663  1.2161  1.0167
 8132SOL     OW36028   2.906   4.557   8.167  0.4270 -0.6867  0.0681
 8132SOL    HW136029   2.961   4.613   8.222 -1.6772  0.5725  0.8776
 8132SOL    HW236030   2.889   4.482   8.225 -2.0026  1.6691  2.3828
 8133SOL     OW36031   1.238   1.990  12.241 -0.2182 -0.2895  0.2144
 8133SOL    HW136032   1.177   1.925  12.205  0.0600 -1.5954  2.0604
 8133SOL    HW236033   1.323   1.962  12.209  0.3479  0.4405  1.0807
 8134SOL     OW36034   2.935   2.035   4.078  0.3616  0.3916  0.7349
 8134SOL    HW136035   2.913   2.111   4.133  0.1566 -0.7523  2.2393
 8134SOL    HW236036   2.992   2.079   4.015  0.6249 -0.9106  0.0733
 8135SOL     OW36037   1.071   3.600   4.278  0.2139 -0.1900  0.6776
 8135SOL    HW136038   1.012   3.524   4.269  0.3673 -0.5176  2.5407
 8135SOL    HW236039   1.157   3.562   4.260  0.0091 -0.3566  0.0287
 8136SOL     OW36040   3.839   1.862  11.904 -0.1314  0.1070 -0.8207
 8136SOL    HW136041   3.887   1.901  11.831 -0.6741  1.9808 -0.2010
 8136SOL    HW236042   3.900   1.855  11.978 -1.3008 -1.9200 -0.0576
 8137SOL     OW36043   2.352   1.280   9.713 -0.6795 -0.3956  0.3423
 8137SOL    HW136044   2.355   1.246   9.624  0.4541  0.2022  0.1484
 8137SOL    HW236045   2.432   1.243   9.752 -0.9561  0.2428  1.5110
 8138SOL     OW36046   0.971   0.953   2.872 -0.1394 -0.1350 -0.0201
 8138SOL    HW136047   1.049   0.936   2.924 -0.5013  0.1151  0.5953
 8138SOL    HW236048   0.936   1.023   2.927 -0.0374  0.1710 -0.3474
 8139SOL     OW36049   3.452   2.529   1.809 -0.2552  0.4665  0.1790
 8139SOL    HW136050   3.374   2.530   1.754  0.0130  2.1578 -0.1758
 8139SOL    HW236051   3.522   2.561   1.751  0.4848  0.9359  1.3302
 8140SOL     OW36052   2.086   3.250   7.272 -0.1636 -0.5494 -0.5471
 8140SOL    HW136053   2.127   3.309   7.335  0.5518 -0.0961 -1.4396
 8140SOL    HW236054   2.125   3.274   7.188 -0.9301 -1.9763 -1.3108
 8141SOL     OW36055   0.969   2.972   7.962 -0.3796  0.3931 -0.2833
 8141SOL    HW136056   0.939   2.893   8.007 -0.8946  0.5991 -0.2673
 8141SOL    HW236057   0.891   3.026   7.976 -0.7967 -0.1575 -0.5094
 8142SOL     OW36058   2.681   2.284   2.202  0.6382 -0.2485 -0.2759
 8142SOL    HW136059   2.628   2.282   2.282  1.4663 -1.0364  0.2473
 8142SOL    HW236060   2.715   2.373   2.194 -0.3005  0.1178 -0.2347
 8143SOL     OW36061   3.866   3.078   6.724  0.2566  0.2472  0.1604
 8143SOL    HW136062   3.861   3.041   6.636  1.7128  0.5354 -0.0485
 8143SOL    HW236063   3.947   3.032   6.747 -0.6640  0.2752  3.4405
 8144SOL     OW36064   0.985   1.131   7.265  0.3233  0.4336 -0.3597
 8144SOL    HW136065   0.955   1.059   7.211 -2.3451  0.7979  0.6356
 8144SOL    HW236066   1.057   1.084   7.309  0.6139  0.5682 -0.6884
 8145SOL     OW36067   2.605   3.673  16.127 -0.1765 -0.2985  0.3821
 8145SOL    HW136068   2.518   3.704  16.153  0.5545  0.6508  1.6537
 8145SOL    HW236069   2.599   3.688  16.032  1.1122 -0.7497  0.2300
 8146SOL     OW36070   4.677   0.863   4.132 -0.0190 -0.0564 -0.5822
 8146SOL    HW136071   0.034   0.867   4.135 -0.0589 -0.7384  1.5189
 8146SOL    HW236072   4.651   0.788   4.186  0.1701  1.4494  1.5922
 8147SOL     OW36073   3.041   2.928   2.673  0.1256  0.2613  0.2089
 8147SOL    HW136074   3.067   2.870   2.745  0.3427  0.9534  0.6818
 8147SOL    HW236075   2.988   3.001   2.704 -3.3061 -1.1994 -2.2568
 8148SOL     OW36076   1.615   2.071   4.043 -0.0265 -0.7261  0.0495
 8148SOL    HW136077   1.694   2.017   4.044  0.3791 -0.0654  3.2947
 8148SOL    HW236078   1.621   2.118   4.126  2.0216 -0.9901  0.0485
 8149SOL     OW36079   4.482   0.568  11.272  0.3467  0.3654 -0.5197
 8149SOL    HW136080   4.499   0.637  11.208  2.6026  1.8007  1.5897
 8149SOL    HW236081   4.391   0.545  11.255  0.6528 -1.1279 -0.2157
 8150SOL     OW36082   3.257   4.309   2.304 -0.2395 -0.2754  0.1235
 8150SOL    HW136083   3.216   4.305   2.390  0.6766  1.2936  0.6305
 8150SOL    HW236084   3.274   4.402   2.287  0.7635 -0.6031 -0.6489
 8151SOL     OW36085   0.238   2.792  10.649  0.1524 -0.4156  0.0621
 8151SOL    HW136086   0.238   2.742  10.731 -0.4790  2.6390  1.9071
 8151SOL    HW236087   0.274   2.873  10.684 -0.6380  0.4887 -1.2198
 8152SOL     OW36088   2.063   1.141  10.765 -0.4006 -0.1696  0.1165
 8152SOL    HW136089   2.094   1.211  10.822 -2.3910 -0.5221  1.6357
 8152SOL    HW236090   2.089   1.177  10.681  3.5407 -0.0430  1.4015
 8153SOL     OW36091   4.471   3.775   2.161  1.0916  0.2539 -0.0029
 8153SOL    HW136092   4.448   3.864   2.187 -0.1501  0.3911 -1.5789
 8153SOL    HW236093   4.565   3.770   2.180  1.5853  0.7495 -2.3627
 8154SOL     OW36094   0.433   0.015   5.761  0.2186  0.6108 -0.4071
 8154SOL    HW136095   0.410   4.674   5.809  1.2101 -0.1185 -1.1375
 8154SOL    HW236096   0.508   0.053   5.807  1.3084  0.4842 -2.0535
 8155SOL     OW36097   0.319   0.889   6.519 -0.8321 -0.6371 -0.2574
 8155SOL    HW136098   0.302   0.963   6.576 -0.4188 -1.3526  0.7991
 8155SOL    HW236099   0.379   0.921   6.451 -1.1754  0.6744  0.0755
 8156SOL     OW36100   4.395   0.552  16.583  0.2437 -0.6117 -0.3508
 8156SOL    HW136101   4.347   0.520  16.659 -0.3581  1.0060 -0.0725
 8156SOL    HW236102   4.353   0.507  16.509 -0.9804 -1.0322  0.5992
 8157SOL     OW36103   2.915   1.835   9.524  0.0188 -0.1927 -1.1532
 8157SOL    HW136104   2.883   1.752   9.557  3.1909 -0.2982  1.6479
 8157SOL    HW236105   2.947   1.867   9.608  1.2161 -1.1262 -1.2560
 8158SOL     OW36106   1.878   4.078   7.653 -0.1290  0.0645 -0.1428
 8158SOL    HW136107   1.856   4.048   7.741  0.3376 -0.5450 -0.2397
 8158SOL    HW236108   1.968   4.106   7.666  0.1569 -0.9567  0.0506
 8159SOL     OW36109   4.226   3.440  17.569  0.3064  0.0815  0.7515
 8159SOL    HW136110   4.166   3.500  17.524 -1.2285  0.4018  3.2321
 8159SOL    HW236111   4.195   3.357  17.532 -0.9450  1.3713 -1.1173
 8160SOL     OW36112   1.103   4.715   5.700 -0.1481 -0.6427 -0.3519
 8160SOL    HW136113   1.051   0.052   5.672  0.8317 -0.0867 -0.6918
 8160SOL    HW236114   1.059   4.691   5.782 -2.1947 -1.3711 -1.6923
 8161SOL     OW36115   3.814   2.369   3.192  0.4370  0.7789  0.0247
 8161SOL    HW136116   3.791   2.288   3.147  1.2685  1.1721 -1.0958
 8161SOL    HW236117   3.907   2.385   3.172  0.5078 -0.0189 -0.2942
 8162SOL     OW36118   1.003   1.761  14.291 -0.3419  0.0368  0.4274
 8162SOL    HW136119   1.015   1.695  14.359  2.4511  1.7517  1.6029
 8162SOL    HW236120   1.078   1.742  14.236 -0.8905  0.8957 -0.6201
 8163SOL     OW36121   0.723   1.016  15.732 -0.0330 -0.1047  0.6131
 8163SOL    HW136122   0.629   1.005  15.713  0.0822  1.3647 -0.8556
 8163SOL    HW236123   0.759   0.934  15.700 -1.7442 -1.3080  1.7575
 8164SOL     OW36124   2.865   1.227   8.860 -0.0654  0.3702 -0.1567
 8164SOL    HW136125   2.960   1.226   8.848  0.1394  2.0124  1.4124
 8164SOL    HW236126   2.863   1.231   8.955  1.3437 -1.4311 -0.0504
 8165SOL     OW36127   2.033   1.169  16.122 -0.2429 -0.0961 -0.5491
 8165SOL    HW136128   2.094   1.227  16.167 -2.6021  1.9778 -0.0145
 8165SOL    HW236129   1.986   1.239  16.076 -0.8144 -1.1791 -1.6025
 8166SOL     OW36130   1.842   0.627   6.275 -0.2858  0.7341 -0.2765
 8166SOL    HW136131   1.884   0.712   6.262 -0.1517  0.6672 -0.2852
 8166SOL    HW236132   1.871   0.595   6.189 -0.6421 -0.1794 -0.0563
 8167SOL     OW36133   4.042   4.351   0.310  0.3798 -0.4371  0.3499
 8167SOL    HW136134   3.967   4.409   0.325  0.3124 -0.4044 -0.1022
 8167SOL    HW236135   4.105   4.417   0.281 -1.5920  0.5998 -1.5828
 8168SOL     OW36136   1.466   2.297   4.729  0.2951  0.3700 -0.2606
 8168SOL    HW136137   1.525   2.272   4.799 -1.8140 -4.2619 -0.1052
 8168SOL    HW236138   1.397   2.230   4.733 -0.5537  1.3140  0.7480
 8169SOL     OW36139   1.028   0.111   4.733 -0.5886 -0.0307  0.2655
 8169SOL    HW136140   1.058   0.087   4.820 -0.4826 -0.5180  0.0928
 8169SOL    HW236141   1.077   0.044   4.686  1.2373  0.3616  1.6109
 8170SOL     OW36142   1.493   2.201   6.569  0.3736  0.1958 -0.3946
 8170SOL    HW136143   1.492   2.293   6.596  0.5183  0.1093 -0.1000
 8170SOL    HW236144   1.442   2.163   6.640  0.4960  1.8880  0.6186
 8171SOL     OW36145   2.948   1.463   7.253 -0.1737 -0.1109  0.3579
 8171SOL    HW136146   2.859   1.488   7.230 -0.3414  0.1896  1.3384
 8171SOL    HW236147   2.961   1.506   7.338 -0.6697  2.1162 -0.7002
 8172SOL     OW36148   3.433   3.823   8.493 -0.3362  0.6991  0.4632
 8172SOL    HW136149   3.416   3.763   8.565  0.9955  2.4979  2.2572
 8172SOL    HW236150   3.429   3.762   8.419  0.2121  1.0698  0.1241
 8173SOL     OW36151   4.551   2.292  12.070 -0.4009  0.1225 -0.2883
 8173SOL    HW136152   4.525   2.283  12.162  2.4511 -1.0965  0.3788
 8173SOL    HW236153   4.642   2.265  12.082 -0.3028  1.7017  2.4215
 8174SOL     OW36154   4.629   1.611   4.793 -0.5314 -0.0980 -0.4718
 8174SOL    HW136155   4.616   1.548   4.722 -1.5304  0.6341 -0.9319
 8174SOL    HW236156   4.568   1.585   4.862 -2.0980  1.4752 -1.2819
 8175SOL     OW36157   1.979   1.352   9.089  0.0770 -0.2991 -0.0035
 8175SOL    HW136158   1.919   1.279   9.077  0.4507 -0.8352  1.3716
 8175SOL    HW236159   1.935   1.429   9.053 -0.1452 -1.8419 -3.0013
 8176SOL     OW36160   4.558   4.605  17.546 -0.1073 -0.5262 -0.2151
 8176SOL    HW136161   4.586   4.690  17.579  0.9666 -0.5008 -1.1731
 8176SOL    HW236162   4.516   4.569  17.624  1.2570  0.4194  0.9613
 8177SOL     OW36163   3.484   4.067   3.148  0.3948  0.4270  0.1891
 8177SOL    HW136164   3.441   4.152   3.137 -1.4332 -0.8065 -2.2955
 8177SOL    HW236165   3.548   4.092   3.214 -1.8592  0.8171  2.2483
 8178SOL     OW36166   2.472   1.543   7.896  0.6023 -0.1089 -0.6646
 8178SOL    HW136167   2.515   1.624   7.924 -0.0281  0.2863 -0.8614
 8178SOL    HW236168   2.471   1.492   7.978  0.3019 -0.1442 -0.6913
 8179SOL     OW36169   4.019   1.909  15.866  0.5294  0.1215  0.2658
 8179SOL    HW136170   4.101   1.955  15.847  1.2077 -1.1526  0.0891
 8179SOL    HW236171   3.986   1.968  15.934  2.0494  0.6723  0.5206
 8180SOL     OW36172   0.578   4.181   8.947 -0.1613 -0.1677 -0.0048
 8180SOL    HW136173   0.555   4.180   9.040  0.8622  0.5989  0.2449
 8180SOL    HW236174   0.552   4.270   8.924 -0.5680 -0.1399  0.5603
 8181SOL     OW36175   0.587   4.483   9.395  0.0831 -0.2252  0.1047
 8181SOL    HW136176   0.568   4.503   9.487 -0.0422  1.3591 -0.2793
 8181SOL    HW236177   0.679   4.457   9.397 -0.0858 -0.8395 -0.1653
 8182SOL     OW36178   1.976   0.743   4.381 -0.0029  0.7233  0.5743
 8182SOL    HW136179   2.008   0.654   4.394  0.1832  0.9287  1.5112
 8182SOL    HW236180   1.898   0.746   4.437 -0.2990  3.1937  0.0580
 8183SOL     OW36181   1.865   4.015  13.108 -0.0947  0.2271  0.0648
 8183SOL    HW136182   1.942   4.072  13.111  0.4101 -0.4589  0.0928
 8183SOL    HW236183   1.831   4.016  13.019 -1.5766 -0.7463  0.6362
 8184SOL     OW36184   3.636   2.156   7.195  0.0930 -0.2847 -0.0817
 8184SOL    HW136185   3.672   2.208   7.124  0.3067 -0.3643 -0.0320
 8184SOL    HW236186   3.699   2.153   7.267 -1.0005  1.5569  0.9462
 8185SOL     OW36187   1.712   3.746   3.610 -0.0702  0.6658  0.0621
 8185SOL    HW136188   1.778   3.716   3.548  1.0842 -0.5048  1.8806
 8185SOL    HW236189   1.644   3.767   3.546 -0.6082  0.2718  0.5022
 8186SOL     OW36190   0.595   2.868  17.545  0.4006  0.0782 -0.2971
 8186SOL    HW136191   0.510   2.824  17.547 -1.2821  3.3885  0.2092
 8186SOL    HW236192   0.632   2.829  17.466  1.5035  0.6685 -0.0680
 8187SOL     OW36193   1.380   4.401   4.524 -0.0896  0.0604  0.1199
 8187SOL    HW136194   1.436   4.383   4.599  0.6362  0.0111 -0.4398
 8187SOL    HW236195   1.312   4.335   4.539  0.4983 -0.7248 -0.7108
 8188SOL     OW36196   0.850   0.735   6.480 -0.2527 -0.3124  0.2789
 8188SOL    HW136197   0.906   0.735   6.557  0.2506 -0.7361 -0.0807
 8188SOL    HW236198   0.768   0.703   6.518 -0.8915 -0.2989 -1.0916
 8189SOL     OW36199   3.597   2.509   0.700 -0.0291 -0.1794 -0.6639
 8189SOL    HW136200   3.598   2.446   0.627 -1.8283 -0.3841 -0.5152
 8189SOL    HW236201   3.668   2.566   0.672  0.0371  1.2176  2.4019
 8190SOL     OW36202   3.636   3.329  17.199  0.2027  0.4850 -0.1032
 8190SOL    HW136203   3.655   3.248  17.151 -0.0982  0.5729 -0.3688
 8190SOL    HW236204   3.546   3.316  17.231  0.2619  0.0998 -0.0890
 8191SOL     OW36205   2.426   2.835   1.803  0.0282 -0.4874 -0.1110
 8191SOL    HW136206   2.501   2.848   1.745  0.0358  0.0304  0.0157
 8191SOL    HW236207   2.472   2.819   1.886 -0.2705 -0.7673  0.0011
 8192SOL     OW36208   4.372   2.232  11.181 -0.0522 -0.1924 -0.4142
 8192SOL    HW136209   4.373   2.253  11.088  1.4262 -3.3962 -1.1258
 8192SOL    HW236210   4.464   2.212  11.203 -0.5749 -2.4190 -0.2583
 8193SOL     OW36211   1.436   4.335  17.510 -0.7879 -0.3036  0.4616
 8193SOL    HW136212   1.454   4.358  17.601  2.5666  2.9905 -1.0403
 8193SOL    HW236213   1.404   4.245  17.515  2.1158 -1.2473  2.1727
 8194SOL     OW36214   4.396   1.468   7.076  0.5015 -0.0106  0.1595
 8194SOL    HW136215   4.426   1.416   7.002 -0.2143 -1.7939  1.1303
 8194SOL    HW236216   4.482   1.498   7.105 -0.0097  1.3757  0.2856
 8195SOL     OW36217   3.425   0.491   1.105 -0.2218 -0.4419  0.5656
 8195SOL    HW136218   3.516   0.462   1.107  0.2204  0.8554 -0.1949
 8195SOL    HW236219   3.407   0.513   1.196 -1.0177 -0.0159  0.3136
 8196SOL     OW36220   1.465   1.608   6.553 -0.7007 -0.1918 -0.2846
 8196SOL    HW136221   1.502   1.574   6.471 -0.2887  0.0573 -0.2015
 8196SOL    HW236222   1.373   1.594   6.533 -1.2746  2.3543  0.5870
 8197SOL     OW36223   4.006   3.882  13.716  0.0497  0.2355 -0.0372
 8197SOL    HW136224   4.070   3.952  13.728  0.3900 -0.5446  2.7353
 8197SOL    HW236225   3.946   3.911  13.648  0.3338  1.5846  0.2974
 8198SOL     OW36226   0.138   1.596   5.988 -0.2150  0.2052  0.3762
 8198SOL    HW136227   0.153   1.665   6.053  0.2700  0.5948 -0.1598
 8198SOL    HW236228   0.128   1.644   5.906  0.0146 -2.9432 -1.4951
 8199SOL     OW36229   3.354   1.689   5.643  0.5624 -0.4740  0.3538
 8199SOL    HW136230   3.428   1.724   5.593 -0.4855  2.2744  0.7036
 8199SOL    HW236231   3.358   1.753   5.714  0.5265 -0.1038  0.0239
 8200SOL     OW36232   3.993   0.101   3.939  0.2226 -0.2846 -0.1861
 8200SOL    HW136233   3.906   0.122   3.907  1.4115  1.1117 -2.5364
 8200SOL    HW236234   4.025   0.046   3.868 -0.8491 -0.2439 -0.6960
 8201SOL     OW36235   4.440   2.215   7.417 -0.7999 -0.0834 -0.1998
 8201SOL    HW136236   4.382   2.139   7.429  0.1994 -0.7850  0.2137
 8201SOL    HW236237   4.506   2.183   7.356 -2.0972 -1.8109 -0.6936
 8202SOL     OW36238   4.583   1.544   9.254  0.1759  0.1849  0.0929
 8202SOL    HW136239   4.519   1.475   9.239 -0.5505  1.2183 -1.4911
 8202SOL    HW236240   4.520   1.616   9.257  0.4745  0.4678 -0.4386
 8203SOL     OW36241   2.610   0.906   7.610 -0.0041  0.2510  0.7140
 8203SOL    HW136242   2.700   0.877   7.624  0.0465  0.6082  1.1400
 8203SOL    HW236243   2.575   0.822   7.580  3.2895 -1.7294  2.5009
 8204SOL     OW36244   4.370   0.040   2.986  0.2769  0.0472 -0.4552
 8204SOL    HW136245   4.454   0.087   2.987 -1.6588  3.4659 -0.7586
 8204SOL    HW236246   4.384   4.721   3.062 -1.8668  2.0930  1.4492
 8205SOL     OW36247   2.058   1.044   0.590  0.5741 -0.3475  0.2086
 8205SOL    HW136248   2.138   0.991   0.583 -0.1524 -1.0325 -3.0411
 8205SOL    HW236249   2.101   1.129   0.591 -1.2471  0.5599 -0.2372
 8206SOL     OW36250   3.999   3.551   2.468 -0.0199  0.4368  0.7106
 8206SOL    HW136251   3.951   3.471   2.489  1.5921 -1.2319 -1.9569
 8206SOL    HW236252   4.092   3.535   2.480 -0.9370 -3.5332  2.3472
 8207SOL     OW36253   1.132   3.625  12.896 -0.3796  0.0893  0.3700
 8207SOL    HW136254   1.078   3.597  12.970 -3.0085  0.8036 -1.3052
 8207SOL    HW236255   1.184   3.693  12.939 -0.5930  0.4123  0.1088
 8208SOL     OW36256   1.273   4.135   3.307  0.0327  0.3331 -0.3684
 8208SOL    HW136257   1.268   4.182   3.224  0.9371 -1.0256 -1.1751
 8208SOL    HW236258   1.211   4.064   3.292 -0.0786  0.1352  0.9662
 8209SOL     OW36259   3.863   3.775   4.702  0.6731 -0.8702  0.6704
 8209SOL    HW136260   3.819   3.696   4.670  0.4281 -0.9007  1.0864
 8209SOL    HW236261   3.949   3.735   4.694  0.7264 -0.5162 -0.6161
 8210SOL     OW36262   0.876   1.467   7.106 -0.4499 -0.9020 -0.0497
 8210SOL    HW136263   0.934   1.479   7.030  2.7451 -0.0698  2.5055
 8210SOL    HW236264   0.872   1.556   7.141 -0.4219  0.3022 -3.1409
 8211SOL     OW36265   3.042   0.076  13.271  0.2428 -0.0071 -0.5180
 8211SOL    HW136266   3.047   0.019  13.348 -1.2737  0.9147  0.2691
 8211SOL    HW236267   2.991   0.149  13.306 -0.1732 -0.6569  0.2289
 8212SOL     OW36268   2.322   3.534   6.320  0.0396 -0.2913 -0.6009
 8212SOL    HW136269   2.280   3.598   6.261  2.5408  2.0085  0.0958
 8212SOL    HW236270   2.289   3.572   6.401 -1.9109  0.7859 -1.8859
 8213SOL     OW36271   3.546   4.387  15.827  0.2327  0.0179 -0.9882
 8213SOL    HW136272   3.519   4.459  15.885 -0.7786 -0.5493 -0.7651
 8213SOL    HW236273   3.594   4.435  15.759 -0.6889  2.0911 -0.1926
 8214SOL     OW36274   4.591   2.773   2.635  0.2953 -0.2798 -0.0020
 8214SOL    HW136275   4.624   2.746   2.550  1.3682 -0.4479  0.4672
 8214SOL    HW236276   4.580   2.691   2.684  1.6167 -1.0809 -1.0671
 8215SOL     OW36277   2.412   3.751  11.714  0.1675 -0.4662 -0.6072
 8215SOL    HW136278   2.364   3.833  11.699 -1.6911 -1.4431  0.0035
 8215SOL    HW236279   2.461   3.791  11.786  0.8732  0.6315 -1.7005
 8216SOL     OW36280   1.872   2.513  17.542  0.1199  0.3842 -0.4578
 8216SOL    HW136281   1.821   2.555  17.611  0.4910 -0.3262  0.2528
 8216SOL    HW236282   1.940   2.577  17.522 -0.3021  0.8786 -0.3022
 8217SOL     OW36283   3.941   3.225   3.684 -0.5446 -0.2819 -0.1287
 8217SOL    HW136284   4.008   3.265   3.739 -2.3044  2.2174  0.2068
 8217SOL    HW236285   3.984   3.217   3.599 -1.2050  0.2882 -0.5150
 8218SOL     OW36286   3.056   4.389  17.506 -0.0807 -0.0027  0.2656
 8218SOL    HW136287   3.051   4.461  17.569 -1.3690  0.3833 -0.2727
 8218SOL    HW236288   2.976   4.343  17.532  0.4441 -0.4411  1.0953
 8219SOL     OW36289   0.716   0.130   5.646 -0.3596  0.0076  0.3052
 8219SOL    HW136290   0.807   0.146   5.673  0.1264 -2.0627 -0.1471
 8219SOL    HW236291   0.678   0.129   5.734 -0.1012 -0.1295  0.4154
 8220SOL     OW36292   2.546   3.105   3.410  0.3889  0.0723  0.3196
 8220SOL    HW136293   2.466   3.156   3.422  1.0520  1.3077 -0.4215
 8220SOL    HW236294   2.589   3.135   3.491 -1.8605  2.5281  0.5890
 8221SOL     OW36295   3.152   4.027  12.800 -0.3644 -0.3665  0.2847
 8221SOL    HW136296   3.070   3.988  12.770  0.7678 -1.9768 -0.7096
 8221SOL    HW236297   3.154   3.995  12.890  0.3154 -1.4753 -0.1316
 8222SOL     OW36298   1.127   2.467  15.056 -0.1495  0.6628 -0.2633
 8222SOL    HW136299   1.109   2.385  15.010  1.0095  0.0324  0.4224
 8222SOL    HW236300   1.210   2.449  15.099  0.2285  1.7253 -0.5471
 8223SOL     OW36301   0.492   3.287   5.890 -0.5905 -0.2978  0.4877
 8223SOL    HW136302   0.424   3.344   5.855 -1.3108 -1.1374  0.5397
 8223SOL    HW236303   0.507   3.322   5.978  0.6993 -0.1920  0.2397
 8224SOL     OW36304   2.366   4.677   8.297  0.6353  0.6009  0.6364
 8224SOL    HW136305   2.454   4.660   8.332  0.2949 -1.1266  0.6603
 8224SOL    HW236306   2.388   4.718   8.213  0.9266 -0.6305  0.1143
 8225SOL     OW36307   0.805   3.993   1.973  0.4480 -0.0360 -0.5636
 8225SOL    HW136308   0.842   3.905   1.971  0.1496 -0.1421 -1.3121
 8225SOL    HW236309   0.850   4.028   1.896 -0.2460  0.0344 -0.9423
 8226SOL     OW36310   3.670   2.643  10.491 -0.3167 -0.5681 -0.5395
 8226SOL    HW136311   3.680   2.548  10.485 -1.0082 -0.6376 -0.6541
 8226SOL    HW236312   3.593   2.636  10.548  0.1982 -0.9810  0.1009
 8227SOL     OW36313   3.661   2.439   8.342 -0.2912  0.0030  0.1218
 8227SOL    HW136314   3.687   2.363   8.290 -0.7109 -0.2098  0.2155
 8227SOL    HW236315   3.731   2.501   8.325  0.5860 -0.5873  1.5856
 8228SOL     OW36316   1.680   2.789   2.665  0.0737 -0.2458  0.0115
 8228SOL    HW136317   1.673   2.860   2.729  1.5601  0.1274 -0.2455
 8228SOL    HW236318   1.697   2.707   2.712  0.2448  0.2511  0.8229
 8229SOL     OW36319   0.033   2.603   1.407 -0.7728  0.6996 -0.2994
 8229SOL    HW136320   0.079   2.521   1.389 -0.3917  0.6371  1.0036
 8229SOL    HW236321   4.691   2.582   1.455  0.0490  0.3975  0.9520
 8230SOL     OW36322   2.736   2.927  11.210 -0.2302  0.0440 -0.6908
 8230SOL    HW136323   2.662   2.905  11.267  1.4223 -2.4794  0.4930
 8230SOL    HW236324   2.700   2.928  11.121  1.3786  2.4449 -1.3183
 8231SOL     OW36325   1.617   0.481  16.380  0.1963  0.1078 -0.0415
 8231SOL    HW136326   1.645   0.476  16.472  0.7383  0.7297 -0.1735
 8231SOL    HW236327   1.665   0.558  16.350 -1.3663  0.7980 -0.7813
 8232SOL     OW36328   2.955   2.774   0.407  0.3132 -0.2081 -0.4345
 8232SOL    HW136329   2.933   2.766   0.499 -1.2561  2.0882 -0.6092
 8232SOL    HW236330   3.016   2.701   0.396 -0.1053 -0.3832 -1.6608
 8233SOL     OW36331   2.195   0.045   5.299 -0.0712  1.1082 -0.0183
 8233SOL    HW136332   2.151   4.700   5.278  1.2100  0.2373  0.6626
 8233SOL    HW236333   2.168   0.041   5.391 -1.4556 -0.1091 -0.4649
 8234SOL     OW36334   1.700   0.797  12.064 -0.3822 -0.2365 -0.2411
 8234SOL    HW136335   1.650   0.723  12.030 -1.8719  1.0332 -0.8116
 8234SOL    HW236336   1.727   0.770  12.152 -0.6999  1.4525  0.3634
 8235SOL     OW36337   4.105   0.513   3.414  0.1841 -0.1330 -0.1254
 8235SOL    HW136338   4.026   0.463   3.393  0.5049 -1.5624  2.1435
 8235SOL    HW236339   4.079   0.604   3.396  2.7642  0.2364 -1.9451
 8236SOL     OW36340   3.002   4.268   4.678 -0.0667 -0.5943 -0.3094
 8236SOL    HW136341   2.926   4.215   4.703 -1.7784  1.5535 -0.9657
 8236SOL    HW236342   3.067   4.228   4.735 -0.7958  0.7854  1.5030
 8237SOL     OW36343   0.251   3.459  14.910 -0.0733  0.2323 -0.5136
 8237SOL    HW136344   0.307   3.488  14.982  2.4054  1.0595 -2.7592
 8237SOL    HW236345   0.226   3.543  14.872 -0.1264 -0.0423 -1.0791
 8238SOL     OW36346   2.382   1.208  14.144 -0.2081  0.5527 -0.0073
 8238SOL    HW136347   2.374   1.118  14.175 -1.4941  0.8873  0.6485
 8238SOL    HW236348   2.293   1.237  14.165 -0.3574  0.3099 -0.2895
 8239SOL     OW36349   0.089   2.650   4.941 -0.3153 -0.2039 -0.4888
 8239SOL    HW136350   0.030   2.605   5.001 -0.2636 -0.1519 -0.3995
 8239SOL    HW236351   0.050   2.620   4.859  1.3092 -0.3144 -1.2310
 8240SOL     OW36352   1.241   4.042   0.611  0.1887 -0.0445 -0.1466
 8240SOL    HW136353   1.226   3.960   0.659  1.2962 -0.8222 -1.1080
 8240SOL    HW236354   1.159   4.092   0.614 -0.3605 -0.8462 -1.3388
 8241SOL     OW36355   4.550   3.885   0.907 -0.2618 -0.5855 -0.1588
 8241SOL    HW136356   4.559   3.790   0.908  0.6946 -0.5154 -1.8884
 8241SOL    HW236357   4.516   3.918   0.823  0.4476 -1.2393 -0.6951
 8242SOL     OW36358   3.442   2.772   4.684 -0.7282 -0.2151  0.0210
 8242SOL    HW136359   3.426   2.783   4.590  1.0052  2.7462  0.0778
 8242SOL    HW236360   3.395   2.689   4.694  0.8202 -1.6442 -4.1627
 8243SOL     OW36361   1.660   2.439   0.402 -0.2349 -0.2581 -0.4031
 8243SOL    HW136362   1.629   2.472   0.487  1.2706 -0.8462  0.3735
 8243SOL    HW236363   1.655   2.530   0.371  3.5142 -0.3097 -1.1172
 8244SOL     OW36364   3.981   2.149   4.562 -1.0428  0.8467  0.0709
 8244SOL    HW136365   3.926   2.151   4.483 -1.4374 -1.1913  0.3010
 8244SOL    HW236366   3.977   2.060   4.595  0.6150  0.5662 -0.5047
 8245SOL     OW36367   3.181   0.891   3.695 -0.1119  0.8576  0.0783
 8245SOL    HW136368   3.096   0.865   3.730  0.7063 -2.8135 -0.6674
 8245SOL    HW236369   3.221   0.930   3.773  0.8265  0.2014 -0.0748
 8246SOL     OW36370   0.336   1.627   1.805 -0.3630  0.0881 -0.0781
 8246SOL    HW136371   0.284   1.629   1.885 -1.3388  0.6373 -0.7191
 8246SOL    HW236372   0.330   1.533   1.789  0.1675  0.0982 -0.3285
 8247SOL     OW36373   0.178   0.458   2.579 -0.0627  0.5948 -0.0959
 8247SOL    HW136374   0.229   0.473   2.659  1.6197  3.0071 -1.5796
 8247SOL    HW236375   0.245   0.452   2.511  0.9378 -1.8025  1.0913
 8248SOL     OW36376   4.525   1.849   7.143  0.1638 -0.1176  0.0536
 8248SOL    HW136377   4.467   1.801   7.083  1.1493  0.1547 -1.1017
 8248SOL    HW236378   4.468   1.865   7.219  0.2908  3.3630 -0.5971
 8249SOL     OW36379   1.647   1.264   1.844  0.5801 -0.4767  0.7026
 8249SOL    HW136380   1.729   1.308   1.823  0.3273 -0.5351 -0.3840
 8249SOL    HW236381   1.688   1.194   1.895 -0.9724 -2.6659 -1.0714
 8250SOL     OW36382   2.462   1.466   7.426  0.2863  0.1867 -0.0759
 8250SOL    HW136383   2.541   1.502   7.467 -1.2107  3.1539  0.1717
 8250SOL    HW236384   2.495   1.385   7.388  2.4146 -0.1037  2.3679
 8251SOL     OW36385   2.747   2.328   0.337 -0.5526 -0.4603  0.0746
 8251SOL    HW136386   2.748   2.299   0.429  1.7208  0.3785  0.3135
 8251SOL    HW236387   2.709   2.253   0.291 -1.0078 -0.1017 -0.1393
 8252SOL     OW36388   4.208   2.544  13.367 -0.9706 -0.4977 -0.0445
 8252SOL    HW136389   4.285   2.579  13.322 -1.2615  3.0093  2.1284
 8252SOL    HW236390   4.138   2.609  13.354  1.9912  2.5440 -0.8237
 8253SOL     OW36391   3.197   0.271   5.375 -0.1900  0.0825  0.4412
 8253SOL    HW136392   3.175   0.180   5.397  0.5053 -0.0497  0.5683
 8253SOL    HW236393   3.284   0.265   5.335  0.1575 -1.6055  1.4293
 8254SOL     OW36394   4.510   1.300   8.427  0.3370 -0.2404  0.1266
 8254SOL    HW136395   4.489   1.247   8.351 -0.1070  1.5013 -0.9677
 8254SOL    HW236396   4.427   1.334   8.461 -0.1911  0.4321 -1.8703
 8255SOL     OW36397   2.630   0.651  16.603  0.3615  0.1400 -0.1161
 8255SOL    HW136398   2.609   0.569  16.648  0.1631  0.4455  0.3491
 8255SOL    HW236399   2.540   0.680  16.588  1.6045  4.1136  0.1463
 8256SOL     OW36400   3.787   1.585   6.574 -0.2375 -0.5091 -0.0293
 8256SOL    HW136401   3.751   1.641   6.643  2.0895  3.5509 -2.0981
 8256SOL    HW236402   3.705   1.540   6.553  0.1834 -1.2510 -0.0595
 8257SOL     OW36403   3.467   0.516   7.130 -0.5675  0.2506 -0.4867
 8257SOL    HW136404   3.546   0.536   7.081  0.4529 -0.5070  0.8397
 8257SOL    HW236405   3.408   0.495   7.058 -1.7577 -2.2403  1.2107
 8258SOL     OW36406   2.544   1.683  11.239  0.4570  0.3638  0.2031
 8258SOL    HW136407   2.492   1.659  11.316  0.4780  1.4035  0.5389
 8258SOL    HW236408   2.612   1.742  11.269 -1.4724  2.7493 -0.1529
 8259SOL     OW36409   4.073   0.202   2.196  0.4215  0.2246  0.6887
 8259SOL    HW136410   4.142   0.137   2.209  1.1632  0.8344 -0.2155
 8259SOL    HW236411   4.057   0.187   2.103  1.8737 -0.1084  0.4952
 8260SOL     OW36412   4.325   0.734   6.575  0.4739  0.2012 -0.2343
 8260SOL    HW136413   4.259   0.669   6.550  0.8472 -0.3967  0.3383
 8260SOL    HW236414   4.323   0.728   6.670  0.6219 -0.8414 -0.2968
 8261SOL     OW36415   4.323   1.193   5.823  0.2900  0.1234 -0.2286
 8261SOL    HW136416   4.246   1.136   5.827  1.0575 -0.9281 -0.6084
 8261SOL    HW236417   4.348   1.175   5.732  0.4586 -1.6959  0.1737
 8262SOL     OW36418   0.955   2.541   8.337  0.3980  0.1498 -0.4123
 8262SOL    HW136419   0.979   2.625   8.298  1.8782  0.2687  0.7833
 8262SOL    HW236420   0.912   2.493   8.266  0.2317 -0.0676 -0.1653
 8263SOL     OW36421   3.340   4.569  17.370 -0.0165 -0.1713  0.2203
 8263SOL    HW136422   3.265   4.576  17.311  0.3970  0.9386 -0.1871
 8263SOL    HW236423   3.396   4.639  17.335  0.2061  0.3622  1.6272
 8264SOL     OW36424   3.959   1.507   0.941 -0.3357 -0.6054 -0.0506
 8264SOL    HW136425   3.925   1.419   0.957  2.4797 -1.9921 -1.6714
 8264SOL    HW236426   3.974   1.535   1.032  0.5062  2.3085 -1.0885
 8265SOL     OW36427   2.143   0.952   2.540 -0.0707  0.0226  0.0454
 8265SOL    HW136428   2.148   0.857   2.550  2.0911  0.3127  1.7998
 8265SOL    HW236429   2.207   0.977   2.473  0.1572 -1.5453 -0.3242
 8266SOL     OW36430   1.447   1.907  11.850 -0.3708 -0.1921 -0.4673
 8266SOL    HW136431   1.353   1.889  11.839 -1.2079  2.6497  2.0147
 8266SOL    HW236432   1.476   1.836  11.907  0.6847  0.1305 -0.6016
 8267SOL     OW36433   1.568   2.226   7.339 -0.0251 -0.0744  0.7045
 8267SOL    HW136434   1.605   2.207   7.425  2.4331  0.0182 -0.3500
 8267SOL    HW236435   1.619   2.172   7.279  4.2907  3.7510  1.0011
 8268SOL     OW36436   3.362   2.974  12.323  0.0883  0.4260  0.0788
 8268SOL    HW136437   3.447   3.017  12.318  0.9845 -1.4391 -0.9018
 8268SOL    HW236438   3.321   2.980  12.237  1.0669  0.3068 -0.3974
 8269SOL     OW36439   3.690   4.171  15.047 -0.5591  0.6589  0.2947
 8269SOL    HW136440   3.753   4.228  15.001  2.3026 -2.3305  0.5085
 8269SOL    HW236441   3.739   4.090  15.039  3.1495  2.6871  2.3322
 8270SOL     OW36442   3.925   1.791   2.859  0.0303  0.2415  0.1842
 8270SOL    HW136443   4.006   1.840   2.847 -0.3092  1.1268  1.5467
 8270SOL    HW236444   3.904   1.828   2.945 -0.2379 -0.1968  0.3119
 8271SOL     OW36445   3.742   4.322   5.742 -0.0154 -0.8426 -0.3831
 8271SOL    HW136446   3.829   4.283   5.741  0.7041  0.7766 -0.2563
 8271SOL    HW236447   3.766   4.410   5.770  1.2685 -1.9674  2.0547
 8272SOL     OW36448   0.160   0.769   2.618  0.5028  0.2305  0.1749
 8272SOL    HW136449   0.241   0.718   2.619  0.4845  0.1448 -1.5815
 8272SOL    HW236450   0.097   0.701   2.597  0.3108  0.8815 -1.4418
 8273SOL     OW36451   4.070   1.433  12.800 -0.5000  0.6604 -0.6462
 8273SOL    HW136452   3.984   1.427  12.758 -1.2996  1.6738  0.8347
 8273SOL    HW236453   4.117   1.500  12.750 -0.5598 -1.6831 -3.8555
 8274SOL     OW36454   0.135   2.660   3.329  0.1928 -0.5753  0.8754
 8274SOL    HW136455   0.162   2.683   3.239  1.3110  0.7770  1.5492
 8274SOL    HW236456   0.042   2.641   3.321  0.5476 -1.5467 -0.9547
 8275SOL     OW36457   4.177   3.642   7.756 -0.4705  0.7181 -0.2327
 8275SOL    HW136458   4.111   3.711   7.760 -1.5579 -0.1790 -2.8782
 8275SOL    HW236459   4.262   3.685   7.756 -0.1203  0.0378 -1.7273
 8276SOL     OW36460   2.075   0.178   2.487  0.2216  0.0271 -0.0134
 8276SOL    HW136461   2.142   0.232   2.446 -0.1857  1.0664  0.6670
 8276SOL    HW236462   2.001   0.179   2.427 -0.0321 -2.8535  0.2582
 8277SOL     OW36463   1.394   1.402  11.431  0.2379  0.5076 -0.1296
 8277SOL    HW136464   1.346   1.379  11.511 -2.1751  2.3856 -1.0267
 8277SOL    HW236465   1.418   1.318  11.392 -0.3394  0.3774 -0.2017
 8278SOL     OW36466   3.758   1.325   7.787 -0.0851  0.0143 -0.3277
 8278SOL    HW136467   3.704   1.323   7.865  1.1083 -0.3251  0.4991
 8278SOL    HW236468   3.845   1.354   7.815  1.0964 -1.6570 -2.1822
 8279SOL     OW36469   2.301   2.771   5.808  0.4687  0.0274  1.1054
 8279SOL    HW136470   2.213   2.738   5.793 -0.5822  3.7051 -0.8268
 8279SOL    HW236471   2.339   2.683   5.802  0.7447  0.4970 -3.3990
 8280SOL     OW36472   2.366   0.225   6.478  0.4085 -0.0507 -0.0455
 8280SOL    HW136473   2.383   0.138   6.513 -2.0012 -0.1542  0.8788
 8280SOL    HW236474   2.405   0.283   6.542 -0.9418 -1.1609  1.7776
 8281SOL     OW36475   0.525   2.084   6.607  0.0558  0.9869  0.0968
 8281SOL    HW136476   0.516   2.129   6.523 -0.2818  1.2314  0.2615
 8281SOL    HW236477   0.457   2.133   6.653  0.3228  1.2691  0.1903
 8282SOL     OW36478   2.378   0.720   9.917  0.0116 -0.2033 -0.2267
 8282SOL    HW136479   2.373   0.625   9.906  0.6600 -0.2889  0.2703
 8282SOL    HW236480   2.356   0.743  10.007 -1.0563  1.0919 -0.7997
 8283SOL     OW36481   1.366   4.660   7.814 -0.0865 -0.1472  0.1108
 8283SOL    HW136482   1.461   4.659   7.802 -0.2724 -4.0186 -0.8927
 8283SOL    HW236483   1.351   4.566   7.803  1.4817 -0.7147  2.7127
 8284SOL     OW36484   1.121   4.087  12.241 -0.2264 -0.1343  0.2454
 8284SOL    HW136485   1.117   4.156  12.308  1.5879 -1.2027  1.4896
 8284SOL    HW236486   1.170   4.134  12.175  1.0297  0.7651  1.8147
 8285SOL     OW36487   4.334   1.826   0.223  0.4505  0.5763  0.5870
 8285SOL    HW136488   4.320   1.741   0.265 -3.3754  0.5385 -0.7780
 8285SOL    HW236489   4.345   1.880   0.302 -0.5549  0.1302  1.0434
 8286SOL     OW36490   4.184   4.707  10.375  0.6709 -0.4563  0.2271
 8286SOL    HW136491   4.246   4.634  10.375  2.5156  1.1231  0.3452
 8286SOL    HW236492   4.245   0.042  10.374 -1.4861  1.3133 -2.4851
 8287SOL     OW36493   3.208   3.057   3.353 -0.2089  0.1405 -0.2037
 8287SOL    HW136494   3.137   3.043   3.416  0.7243 -0.4067  0.7241
 8287SOL    HW236495   3.264   2.981   3.372 -0.6166  0.6212  2.8614
 8288SOL     OW36496   3.411   4.029   3.501  0.4429 -0.3867  0.5735
 8288SOL    HW136497   3.337   4.034   3.441 -0.6386  0.1287  1.9682
 8288SOL    HW236498   3.376   3.953   3.548 -0.5340  1.2006  2.3649
 8289SOL     OW36499   0.000   1.642   4.500  0.0269  0.0987 -0.7846
 8289SOL    HW136500   0.021   1.736   4.506 -1.7900  0.2968  2.1509
 8289SOL    HW236501   4.727   1.637   4.595 -0.4695 -1.3838 -0.9342
 8290SOL     OW36502   4.506   0.622   3.050  0.1228 -0.0120 -0.6922
 8290SOL    HW136503   4.487   0.528   3.046  0.2200 -0.0998  0.9340
 8290SOL    HW236504   4.544   0.618   3.138 -1.2635 -1.0142 -0.1297
 8291SOL     OW36505   3.169   2.620   6.497 -0.4016 -0.1449 -0.2811
 8291SOL    HW136506   3.118   2.653   6.571  0.7713 -0.7832  0.7843
 8291SOL    HW236507   3.106   2.564   6.452  0.4557 -2.0358  0.9173
 8292SOL     OW36508   0.468   2.544   3.910 -0.1981 -0.1867  0.3404
 8292SOL    HW136509   0.540   2.590   3.953 -0.1999 -0.9909  1.1944
 8292SOL    HW236510   0.428   2.503   3.987 -1.6784  0.6547  0.0267
 8293SOL     OW36511   2.948   3.867  12.718 -0.3824 -0.2055  0.0711
 8293SOL    HW136512   2.987   3.785  12.690  0.4225  0.2434 -0.1244
 8293SOL    HW236513   2.910   3.906  12.640 -1.9976 -0.8728  0.5235
 8294SOL     OW36514   1.595   2.115   3.030  0.1490  0.2681  0.5938
 8294SOL    HW136515   1.665   2.137   3.093  0.7641 -2.2621  0.7997
 8294SOL    HW236516   1.551   2.200   3.033  0.1043  0.2338  0.9532
 8295SOL     OW36517   2.154   2.683   6.837 -0.2001 -0.8176  0.8624
 8295SOL    HW136518   2.090   2.747   6.867 -0.5254  0.1886 -2.0679
 8295SOL    HW236519   2.099   2.605   6.837  2.1106 -2.4568  0.6407
 8296SOL     OW36520   2.678   0.645   9.348  0.3684  0.4276  0.3105
 8296SOL    HW136521   2.703   0.622   9.259  2.5846  0.2966  0.9572
 8296SOL    HW236522   2.587   0.674   9.341  0.9011  1.7022 -1.1264
 8297SOL     OW36523   3.032   3.137   1.094  0.0462  0.0655  0.4638
 8297SOL    HW136524   2.956   3.190   1.070  0.6719  0.1314 -1.3560
 8297SOL    HW236525   3.096   3.208   1.097 -0.0336  0.2322 -1.6754
 8298SOL     OW36526   1.633   1.108   6.724  0.4334  0.2194  0.4937
 8298SOL    HW136527   1.659   1.144   6.809  1.7361  0.2386  0.0872
 8298SOL    HW236528   1.601   1.019   6.738  4.6301 -1.1659  1.3483
 8299SOL     OW36529   2.180   2.068   5.322  0.1980 -0.0897 -0.2626
 8299SOL    HW136530   2.148   1.985   5.287  0.2171  0.0729 -0.6668
 8299SOL    HW236531   2.270   2.042   5.342 -0.2863  0.3398  2.4931
 8300SOL     OW36532   2.558   4.369   8.288  0.5871 -0.7991  0.3158
 8300SOL    HW136533   2.636   4.425   8.291 -0.2179  0.2823  1.2563
 8300SOL    HW236534   2.589   4.310   8.357  2.7222 -2.4790 -2.1294
 8301SOL     OW36535   0.944   2.192  14.765  0.2933  0.1117  0.3217
 8301SOL    HW136536   0.849   2.182  14.771  0.1080  2.2624  0.8346
 8301SOL    HW236537   0.966   2.176  14.674 -1.5670 -0.6377 -0.0038
 8302SOL     OW36538   2.980   3.045  17.570 -0.2855  0.0978 -0.0405
 8302SOL    HW136539   2.911   3.041  17.637  0.5849  1.9337  0.9785
 8302SOL    HW236540   3.023   3.126  17.599 -1.0508 -0.0399  1.4855
 8303SOL     OW36541   1.610   0.500   7.756  0.6658  0.7853  0.2335
 8303SOL    HW136542   1.613   0.555   7.677 -0.5561 -0.4302 -0.6541
 8303SOL    HW236543   1.604   0.414   7.714 -0.4342  0.1272  1.7495
 8304SOL     OW36544   2.355   3.295  17.548 -0.1716 -0.0127 -0.1723
 8304SOL    HW136545   2.353   3.301  17.453  0.4949  0.4132 -0.1651
 8304SOL    HW236546   2.262   3.304  17.567  0.1467 -0.4097  1.6433
 8305SOL     OW36547   1.884   0.661  11.337  0.0961 -0.8315 -0.4059
 8305SOL    HW136548   1.827   0.584  11.335  0.8662 -1.4078 -0.3339
 8305SOL    HW236549   1.953   0.623  11.393  1.2042  0.2032 -1.0579
 8306SOL     OW36550   1.987   2.335  17.366  0.1656  0.0412 -0.5928
 8306SOL    HW136551   1.907   2.289  17.339  0.3565 -1.1392  0.8698
 8306SOL    HW236552   1.967   2.376  17.450 -0.7694  1.3350 -1.4296
 8307SOL     OW36553   3.766   1.158   9.116 -0.3448 -0.0665  0.1494
 8307SOL    HW136554   3.792   1.227   9.176 -0.3819 -0.2198  0.3421
 8307SOL    HW236555   3.696   1.212   9.081 -0.7796  0.4356  1.7874
 8308SOL     OW36556   4.137   4.523   5.675  0.0922 -0.2818  0.6439
 8308SOL    HW136557   4.168   4.452   5.619 -3.0526 -0.8051 -0.4587
 8308SOL    HW236558   4.205   4.528   5.742  2.0833 -1.9312 -1.2280
 8309SOL     OW36559   0.744   2.786   6.869  0.0130 -0.5688 -0.1577
 8309SOL    HW136560   0.749   2.750   6.780  0.6495 -0.8325 -0.0233
 8309SOL    HW236561   0.659   2.828   6.865  1.0895  1.5651 -0.5749
 8310SOL     OW36562   1.516   2.128   6.973  0.4558  0.1731  0.3154
 8310SOL    HW136563   1.455   2.201   6.973  0.3051  0.0402 -0.4372
 8310SOL    HW236564   1.473   2.074   6.907  1.1727 -0.1848  0.1365
 8311SOL     OW36565   3.548   1.883   6.642 -0.0438 -0.2300  0.2268
 8311SOL    HW136566   3.480   1.941   6.676 -0.5085  0.1347 -1.3181
 8311SOL    HW236567   3.595   1.856   6.721 -2.2348 -2.6277  0.7351
 8312SOL     OW36568   3.473   2.244   3.607  0.0114 -0.7163 -0.2614
 8312SOL    HW136569   3.488   2.161   3.651  3.2540  1.1913  2.2785
 8312SOL    HW236570   3.565   2.269   3.602 -0.7457  2.0382 -0.6397
 8313SOL     OW36571   0.554   1.049  16.452  0.1225  0.1035  0.0674
 8313SOL    HW136572   0.518   0.964  16.428 -0.5344  0.9628 -2.0814
 8313SOL    HW236573   0.553   1.069  16.545 -0.4432  1.2228 -0.1748
 8314SOL     OW36574   4.325   2.401  15.900 -0.0717  0.2849  0.5446
 8314SOL    HW136575   4.378   2.365  15.829  3.1968  1.2932  2.4615
 8314SOL    HW236576   4.327   2.323  15.955 -1.2998 -0.6766 -0.7673
 8315SOL     OW36577   3.293   2.928   6.648 -0.3305  0.6912  0.7129
 8315SOL    HW136578   3.264   2.845   6.685  4.1376 -1.5563 -0.7444
 8315SOL    HW236579   3.343   2.958   6.725  1.5805 -1.0956  0.1555
 8316SOL     OW36580   0.539   4.149   9.203  0.2014  1.0696 -0.7944
 8316SOL    HW136581   0.473   4.212   9.232 -1.5761 -1.3322  0.4045
 8316SOL    HW236582   0.582   4.121   9.285  1.9642  0.5973 -1.8780
 8317SOL     OW36583   0.693   2.115   4.645  0.2585 -0.2443  0.2619
 8317SOL    HW136584   0.632   2.062   4.695 -0.4919 -0.0231 -0.4184
 8317SOL    HW236585   0.663   2.202   4.671 -3.2671 -1.7584  1.2209
 8318SOL     OW36586   0.747   2.061   8.856  0.3287  0.7463 -0.3095
 8318SOL    HW136587   0.777   2.060   8.947 -1.2688  0.1037  0.2246
 8318SOL    HW236588   0.781   2.148   8.835  3.0136 -1.1976 -3.9609
 8319SOL     OW36589   1.152   4.544   7.550 -0.0729  0.0381  0.3039
 8319SOL    HW136590   1.088   4.615   7.553 -0.3747 -0.1521 -1.3132
 8319SOL    HW236591   1.101   4.466   7.571 -1.1657  0.1622 -1.8264
 8320SOL     OW36592   2.913   3.963   2.191  0.1787  0.0759  0.3874
 8320SOL    HW136593   3.005   3.986   2.177  0.2529  0.5359  1.6380
 8320SOL    HW236594   2.880   4.044   2.231  0.8862 -0.4522  2.0271
 8321SOL     OW36595   1.352   1.693   3.263 -0.1345  0.1655  0.4127
 8321SOL    HW136596   1.405   1.766   3.296 -1.7452  1.6755 -0.2797
 8321SOL    HW236597   1.261   1.714   3.284 -0.2098  1.2997 -1.0104
 8322SOL     OW36598   0.744   2.920   1.486 -0.6726 -0.6890 -0.2765
 8322SOL    HW136599   0.824   2.868   1.488 -0.5670 -0.5690 -1.6717
 8322SOL    HW236600   0.762   2.965   1.404 -0.6148  0.4630  0.3609
 8323SOL     OW36601   0.272   2.889   6.112  0.1933 -0.3228 -0.0442
 8323SOL    HW136602   0.305   2.919   6.027  2.0381  1.0561  1.1683
 8323SOL    HW236603   0.260   2.970   6.161 -1.2921  0.0717 -1.0622
 8324SOL     OW36604   2.098   3.811   9.986 -0.3977 -0.1243  0.1574
 8324SOL    HW136605   2.109   3.760  10.067 -1.0592 -0.8560 -0.2119
 8324SOL    HW236606   2.189   3.821   9.959 -0.5538  3.1020  0.7762
 8325SOL     OW36607   2.279   0.021  12.681  0.4422  0.6754 -0.3234
 8325SOL    HW136608   2.339   4.689  12.653  0.4657  0.0431  1.2932
 8325SOL    HW236609   2.350   0.082  12.701  1.6742 -0.9635  0.4099
 8326SOL     OW36610   0.856   3.067   4.184 -0.0653 -0.3790 -0.0328
 8326SOL    HW136611   0.868   3.066   4.089 -0.3054 -2.1610 -0.0524
 8326SOL    HW236612   0.811   2.983   4.196 -0.0593 -0.2867  0.6181
 8327SOL     OW36613   3.866   2.340   8.731  0.1752  0.0279 -0.0230
 8327SOL    HW136614   3.892   2.402   8.663  3.0850 -1.8207 -0.6021
 8327SOL    HW236615   3.920   2.365   8.806 -0.3393  0.6844  0.1186
 8328SOL     OW36616   3.282   4.405   1.917  0.2567 -0.3561 -0.5974
 8328SOL    HW136617   3.352   4.355   1.959  0.4055  1.1761  0.9897
 8328SOL    HW236618   3.316   4.411   1.828  0.0734  1.7552 -0.5364
 8329SOL     OW36619   0.824   3.900   4.032  0.0904  0.6217  0.1642
 8329SOL    HW136620   0.814   3.827   3.971  0.3156 -0.0636  0.9459
 8329SOL    HW236621   0.906   3.935   3.998  0.9422  0.1785  1.7626
 8330SOL     OW36622   4.123   1.872  16.309 -0.1583  0.0279  0.2765
 8330SOL    HW136623   4.105   1.898  16.400 -0.4010  0.7080  0.0270
 8330SOL    HW236624   4.031   1.860  16.286 -0.6130  2.6799  0.7754
 8331SOL     OW36625   1.567   1.757  16.736  0.5919  0.0129  0.6363
 8331SOL    HW136626   1.565   1.667  16.769  3.3241 -0.3229 -0.1362
 8331SOL    HW236627   1.587   1.738  16.644 -2.6542 -0.2213 -0.0077
 8332SOL     OW36628   3.389   4.326   3.083 -0.2429  0.0237 -0.1690
 8332SOL    HW136629   3.479   4.361   3.081  0.2697 -1.4317 -1.7573
 8332SOL    HW236630   3.346   4.381   3.018  2.0461 -0.2838 -1.9317
 8333SOL     OW36631   2.488   0.229  12.031 -0.1754  0.1505  0.6887
 8333SOL    HW136632   2.582   0.216  12.021  0.3528  4.1358  0.4609
 8333SOL    HW236633   2.480   0.256  12.122 -0.2210  0.9367  0.4528
 8334SOL     OW36634   2.443   1.420   2.010  0.5057  0.3121  0.3480
 8334SOL    HW136635   2.394   1.501   2.000 -0.4434 -0.0089  2.3493
 8334SOL    HW236636   2.519   1.462   2.050  0.6536 -0.0593  0.4599
 8335SOL     OW36637   1.663   2.463   3.273  0.4932  0.4957 -0.2834
 8335SOL    HW136638   1.730   2.518   3.312 -0.7536  3.1410 -1.8570
 8335SOL    HW236639   1.712   2.382   3.263 -0.5526 -0.2935  0.9976
 8336SOL     OW36640   1.003   3.293   8.584  0.2482  0.4095 -0.2413
 8336SOL    HW136641   0.923   3.285   8.533  1.1660  1.0216 -1.7998
 8336SOL    HW236642   0.997   3.387   8.603  2.1379  0.4091  0.4009
 8337SOL     OW36643   3.471   4.164   4.349  0.6343  0.0499  0.5363
 8337SOL    HW136644   3.377   4.161   4.370  0.0930 -1.4239 -2.1848
 8337SOL    HW236645   3.468   4.153   4.254  1.3734  1.0765  0.3911
 8338SOL     OW36646   1.299   2.446  10.932 -0.1417 -0.4800 -0.3196
 8338SOL    HW136647   1.280   2.444  11.025 -0.8542  0.9071 -0.4203
 8338SOL    HW236648   1.212   2.468  10.898  0.5338  0.8356 -1.2284
 8339SOL     OW36649   0.040   1.970   8.843 -0.5768 -0.3310 -0.7908
 8339SOL    HW136650   4.725   2.038   8.884  0.1164 -1.0772  1.3147
 8339SOL    HW236651   4.731   1.896   8.883  1.0581 -0.7435  0.3633
 8340SOL     OW36652   3.880   2.032  16.406  0.4653  0.2977  0.2645
 8340SOL    HW136653   3.909   2.026  16.497  0.4231  0.3779  0.2827
 8340SOL    HW236654   3.877   2.127  16.394  0.9434 -0.0091 -2.2686
 8341SOL     OW36655   3.568   4.156   2.657  0.1959  0.0509  0.3820
 8341SOL    HW136656   3.475   4.155   2.635  0.2029 -0.6695  0.4059
 8341SOL    HW236657   3.599   4.247   2.657  0.1528  0.0653  0.6907
 8342SOL     OW36658   2.135   2.136   8.392  0.1945  0.1656 -0.3023
 8342SOL    HW136659   2.220   2.092   8.403 -0.4123 -0.6858  1.0134
 8342SOL    HW236660   2.118   2.123   8.299  1.5697  0.2081 -0.5609
 8343SOL     OW36661   0.240   1.867   3.059  0.4401  0.2400 -1.0155
 8343SOL    HW136662   0.149   1.896   3.067 -0.0349 -1.4488 -0.3659
 8343SOL    HW236663   0.282   1.927   3.120 -0.4853 -0.3210  0.1542
 8344SOL     OW36664   0.271   3.316   7.286  0.2518  0.0875 -0.3599
 8344SOL    HW136665   0.253   3.270   7.369  0.9325  0.8540  0.2181
 8344SOL    HW236666   0.317   3.248   7.237 -0.0041  1.0699 -1.9495
 8345SOL     OW36667   3.950   2.923   9.592 -0.6926 -0.1297 -0.0998
 8345SOL    HW136668   3.900   3.004   9.581  2.5463  1.7495 -0.8652
 8345SOL    HW236669   4.037   2.962   9.595 -0.1501 -1.2632 -1.0472
 8346SOL     OW36670   2.835   2.281   1.731 -0.1362 -0.2581  0.5282
 8346SOL    HW136671   2.750   2.260   1.769  0.0441 -0.0800  1.0296
 8346SOL    HW236672   2.849   2.355   1.790 -0.5121  1.6434 -1.7563
 8347SOL     OW36673   1.191   1.747  15.179 -0.3967 -0.2703  0.0139
 8347SOL    HW136674   1.272   1.700  15.200  1.0792  2.1438 -0.3547
 8347SOL    HW236675   1.142   1.737  15.261 -3.4602 -2.4268 -2.0818
 8348SOL     OW36676   3.144   4.374  13.359  0.6395 -0.0366  0.3401
 8348SOL    HW136677   3.217   4.376  13.420 -0.6205 -0.5615  1.8702
 8348SOL    HW236678   3.160   4.438  13.289  2.2094  1.5297  2.1390
 8349SOL     OW36679   3.828   1.259  13.563  0.2023 -0.0858  0.0644
 8349SOL    HW136680   3.857   1.246  13.653 -1.3080  0.0335  0.5622
 8349SOL    HW236681   3.895   1.320  13.532 -0.1993 -0.5036 -1.6218
 8350SOL     OW36682   0.769   1.818   2.226  0.1284  0.1586 -0.4102
 8350SOL    HW136683   0.799   1.760   2.296 -1.7907 -1.0320 -0.6039
 8350SOL    HW236684   0.682   1.785   2.208 -0.5360  1.2679  0.7466
 8351SOL     OW36685   0.225   0.898   4.258  0.6617 -0.3293 -0.3288
 8351SOL    HW136686   0.177   0.887   4.340  0.0048 -0.6378 -0.7644
 8351SOL    HW236687   0.293   0.964   4.275 -0.5285  0.6592  0.6098
 8352SOL     OW36688   1.047   3.558   7.364  0.8716  0.6578 -0.1300
 8352SOL    HW136689   1.129   3.605   7.380 -0.3935  1.8303  2.8301
 8352SOL    HW236690   1.056   3.488   7.429 -1.5252 -0.3401 -0.8840
 8353SOL     OW36691   0.303   3.189   5.570 -0.0313 -0.3219 -0.1636
 8353SOL    HW136692   0.336   3.103   5.542 -1.5871 -1.9222  2.9387
 8353SOL    HW236693   0.214   3.183   5.606  0.2749  0.5769  0.7581
 8354SOL     OW36694   1.680   0.293   4.609 -0.0387  0.1412  0.1183
 8354SOL    HW136695   1.770   0.317   4.584 -0.3343  1.3504  0.1876
 8354SOL    HW236696   1.667   0.218   4.551 -3.7772  1.4205 -0.6900
 8355SOL     OW36697   1.119   1.580   1.197 -0.2704  1.1968  0.1667
 8355SOL    HW136698   1.076   1.565   1.113 -1.3274  0.8161  0.7801
 8355SOL    HW236699   1.045   1.578   1.257  1.6934 -1.5571  2.5290
 8356SOL     OW36700   4.230   0.424   2.327 -0.2684 -0.4132  0.4236
 8356SOL    HW136701   4.176   0.373   2.266 -1.7413  0.9277  0.6341
 8356SOL    HW236702   4.316   0.386   2.308  0.7113  2.6038 -1.1472
 8357SOL     OW36703   1.895   0.561  15.242  0.4933  0.8613 -0.2137
 8357SOL    HW136704   1.879   0.487  15.300 -0.6160  0.1867 -1.3812
 8357SOL    HW236705   1.956   0.519  15.181  2.0792  1.6127  0.8399
 8358SOL     OW36706   2.708   2.283  13.598 -0.6974 -0.2606  0.2349
 8358SOL    HW136707   2.649   2.298  13.524 -3.1876 -2.4889  1.7270
 8358SOL    HW236708   2.675   2.201  13.635  0.0290 -0.6657 -0.0151
 8359SOL     OW36709   2.678   3.598   7.006  0.0326  0.2423 -0.2157
 8359SOL    HW136710   2.774   3.601   7.000  0.1277  2.0315  2.3466
 8359SOL    HW236711   2.660   3.548   6.926 -1.0544  1.4148 -0.7023
 8360SOL     OW36712   0.400   3.479   0.054  0.3981 -0.9313 -0.5535
 8360SOL    HW136713   0.473   3.474   0.116 -2.8285 -0.1383  3.3224
 8360SOL    HW236714   0.428   3.424  17.731  0.5934 -2.2179  0.5044
 8361SOL     OW36715   0.295   1.202   5.043 -0.2926 -0.4248 -0.1105
 8361SOL    HW136716   0.247   1.133   5.088  0.9315 -0.8597  0.5402
 8361SOL    HW236717   0.377   1.206   5.093 -0.2915  0.4552 -0.1879
 8362SOL     OW36718   4.550   2.521   6.668  0.4945 -0.2579  0.0785
 8362SOL    HW136719   4.616   2.582   6.701 -0.7409  0.7078  0.7800
 8362SOL    HW236720   4.584   2.445   6.715 -1.0647 -0.7565  0.3853
 8363SOL     OW36721   1.226   2.140   1.698  0.1326  0.5212  0.0380
 8363SOL    HW136722   1.200   2.084   1.771  1.4081  1.5650  1.2862
 8363SOL    HW236723   1.258   2.076   1.635 -0.5765 -0.7788  1.0092
 8364SOL     OW36724   4.211   4.552   0.255 -0.0193 -0.1267  0.1921
 8364SOL    HW136725   4.223   4.640   0.219 -1.5291 -0.2002 -0.4619
 8364SOL    HW236726   4.290   4.535   0.307 -0.7894 -0.8962  1.0966
 8365SOL     OW36727   0.650   0.696   4.404  0.3294  0.7460  0.3777
 8365SOL    HW136728   0.634   0.603   4.383  2.2832  0.9288 -1.8754
 8365SOL    HW236729   0.742   0.695   4.429 -0.0090 -2.0114  1.5263
 8366SOL     OW36730   3.587   0.628  14.281 -0.4824 -0.1117 -0.5655
 8366SOL    HW136731   3.574   0.533  14.282 -1.0015 -0.0452 -1.3493
 8366SOL    HW236732   3.659   0.628  14.344 -1.3863  2.8745  0.5099
 8367SOL     OW36733   1.690   3.819   7.512  0.1824  0.0501 -0.2086
 8367SOL    HW136734   1.647   3.793   7.431 -0.2227  1.4731 -0.4414
 8367SOL    HW236735   1.662   3.910   7.515  1.3103  0.4457 -1.7830
 8368SOL     OW36736   3.698   4.175   6.304 -0.5365  0.4734  0.3036
 8368SOL    HW136737   3.709   4.197   6.211  2.1701 -2.9990 -0.1951
 8368SOL    HW236738   3.620   4.227   6.325  0.1922  2.4372 -1.8426
 8369SOL     OW36739   0.172   0.468  16.679 -0.4087 -0.3716  0.1570
 8369SOL    HW136740   0.085   0.487  16.644 -0.3258  0.0985  0.2157
 8369SOL    HW236741   0.142   0.430  16.762  0.6363 -0.6951  0.3903
 8370SOL     OW36742   2.063   3.742   0.260 -0.3498  0.0385 -0.2467
 8370SOL    HW136743   2.038   3.654   0.229  0.1046  0.7482 -2.5979
 8370SOL    HW236744   2.146   3.755   0.215  1.3113 -1.4758  2.3486
 8371SOL     OW36745   4.347   2.157   4.863 -0.0082  0.1410 -0.4242
 8371SOL    HW136746   4.428   2.207   4.855 -0.4081  0.9000  0.3787
 8371SOL    HW236747   4.309   2.206   4.790 -1.3237 -1.2038 -0.6268
 8372SOL     OW36748   4.372   0.035   5.659 -0.3287  0.3897  0.3573
 8372SOL    HW136749   4.357   4.725   5.578 -3.2459  0.7928  0.6601
 8372SOL    HW236750   4.280   0.046   5.683 -0.6212 -2.2932  0.4023
 8373SOL     OW36751   0.975   2.897   9.631  0.0002  0.4002 -0.1640
 8373SOL    HW136752   1.027   2.885   9.710 -2.0450  1.6273  1.3708
 8373SOL    HW236753   0.993   2.991   9.622 -0.9907  0.4762 -1.4474
 8374SOL     OW36754   3.857   0.897   5.308  0.4653 -0.2872  0.1242
 8374SOL    HW136755   3.931   0.954   5.287  1.9134 -2.1124  0.2554
 8374SOL    HW236756   3.787   0.945   5.264 -0.3492 -0.9876  0.6567
 8375SOL     OW36757   2.862   1.661   9.051 -1.2829 -0.0270 -0.0663
 8375SOL    HW136758   2.873   1.608   8.972 -0.6186 -0.2288  0.1633
 8375SOL    HW236759   2.797   1.601   9.089  0.8507 -2.2219  0.1376
 8376SOL     OW36760   4.042   3.624   3.315 -0.0721 -0.5687 -0.5666
 8376SOL    HW136761   4.105   3.612   3.386 -1.3857  3.3838  1.3012
 8376SOL    HW236762   4.081   3.693   3.261 -1.5934  2.5600  2.2811
 8377SOL     OW36763   2.022   1.008   6.452 -0.4069 -0.9639 -0.2960
 8377SOL    HW136764   1.993   1.070   6.519 -1.8610  0.4916 -2.2676
 8377SOL    HW236765   2.088   0.965   6.506  0.2450  0.8321  0.3035
 8378SOL     OW36766   1.579   2.746   8.203  0.3670 -0.0867  0.1502
 8378SOL    HW136767   1.569   2.651   8.196 -1.1950  0.2296 -2.0637
 8378SOL    HW236768   1.515   2.771   8.269  1.1536  0.1114  0.8341
 8379SOL     OW36769   2.649   3.980   5.190  0.1359  0.3023  0.2062
 8379SOL    HW136770   2.671   3.902   5.241 -1.3694  0.3780  0.9934
 8379SOL    HW236771   2.556   3.998   5.204  0.6494  0.7935  2.9863
 8380SOL     OW36772   2.020   3.088   4.791 -0.1380  0.1853 -0.0223
 8380SOL    HW136773   1.964   3.023   4.834 -0.4275  0.4739  0.0418
 8380SOL    HW236774   2.044   3.056   4.704 -0.9186 -1.7533  0.4571
 8381SOL     OW36775   0.131   3.954  14.726  0.4708  0.1501  0.6377
 8381SOL    HW136776   0.175   4.029  14.764 -0.3007  0.6043  0.6354
 8381SOL    HW236777   0.112   3.989  14.638  1.5894 -0.0795  0.3001
 8382SOL     OW36778   3.041   1.281   8.539 -0.3100 -0.1247 -0.3713
 8382SOL    HW136779   3.081   1.362   8.573 -1.2930  0.9949 -1.8906
 8382SOL    HW236780   3.116   1.253   8.486 -0.3467  1.4034 -1.2311
 8383SOL     OW36781   0.514   3.752   2.273 -0.0225 -0.0955  0.2269
 8383SOL    HW136782   0.590   3.746   2.215 -0.6471  0.3593 -0.6412
 8383SOL    HW236783   0.515   3.847   2.282 -0.3419  0.0795 -1.4994
 8384SOL     OW36784   4.042   1.241  13.043  0.7215 -0.2851  0.5630
 8384SOL    HW136785   4.080   1.307  13.100  1.7514 -0.0684 -0.3799
 8384SOL    HW236786   4.042   1.292  12.962  0.2559 -0.8931  0.1802
 8385SOL     OW36787   0.539   3.104   2.671 -0.4293  0.4454 -0.3129
 8385SOL    HW136788   0.525   3.189   2.713 -0.0957  1.0941 -1.4854
 8385SOL    HW236789   0.525   3.119   2.577 -2.4657  3.0076  0.4078
 8386SOL     OW36790   2.725   0.858  13.093  0.7520  0.1131 -0.1680
 8386SOL    HW136791   2.694   0.805  13.166  0.7941 -2.6630 -2.1447
 8386SOL    HW236792   2.692   0.947  13.102 -1.2067 -0.7179  0.9124
 8387SOL     OW36793   3.405   4.633   8.356 -0.5229  0.1865 -0.0742
 8387SOL    HW136794   3.365   4.713   8.322  1.6950  1.5915  0.6076
 8387SOL    HW236795   3.480   4.617   8.298 -2.7565  0.7877 -3.1448
 8388SOL     OW36796   3.113   2.825   7.488 -0.7023 -0.2617 -0.1223
 8388SOL    HW136797   3.067   2.837   7.572  0.8799  1.2968  0.5417
 8388SOL    HW236798   3.089   2.896   7.429  0.7985 -0.4222 -0.9358
 8389SOL     OW36799   1.969   3.024   3.399  0.0722 -0.0912 -0.4457
 8389SOL    HW136800   1.993   3.088   3.332  1.0586  1.3798  1.2879
 8389SOL    HW236801   1.985   3.071   3.481 -1.8086 -1.3952  0.6669
 8390SOL     OW36802   2.320   3.391   5.493  0.5210  0.3577 -0.0586
 8390SOL    HW136803   2.247   3.389   5.431  1.1669  1.5217 -0.8475
 8390SOL    HW236804   2.347   3.483   5.482  1.7366 -0.0869 -0.7890
 8391SOL     OW36805   1.031   4.222   7.829  0.6233 -0.0709 -0.3084
 8391SOL    HW136806   1.001   4.263   7.909 -0.2341  1.4758 -1.4342
 8391SOL    HW236807   1.071   4.144   7.869 -2.5779 -0.9035  1.2580
 8392SOL     OW36808   4.267   1.244   5.299  1.0989 -0.0315 -0.3856
 8392SOL    HW136809   4.180   1.228   5.338  0.5610  2.8454 -0.4539
 8392SOL    HW236810   4.286   1.156   5.265 -0.4996  0.2942 -2.1461
 8393SOL     OW36811   3.312   3.606   3.012  0.4374  0.2188  0.4755
 8393SOL    HW136812   3.313   3.693   2.972  1.2438 -0.0836 -0.1637
 8393SOL    HW236813   3.217   3.594   3.021  0.5116  0.0240  1.0040
 8394SOL     OW36814   0.234   1.965  17.123 -0.4283  0.5897 -0.0653
 8394SOL    HW136815   0.303   1.985  17.187 -0.8997  1.7094  0.0946
 8394SOL    HW236816   0.154   1.974  17.174  1.3328  1.5013  2.5682
 8395SOL     OW36817   3.161   1.705   6.508  0.6703  0.0928  0.3204
 8395SOL    HW136818   3.080   1.682   6.552  0.0917 -1.1449 -1.3635
 8395SOL    HW236819   3.237   1.687   6.564  1.6141  0.4050 -0.8585
 8396SOL     OW36820   1.814   2.898   8.780 -0.1410 -0.0518 -0.4532
 8396SOL    HW136821   1.804   2.993   8.780 -2.1791 -0.2697 -0.5508
 8396SOL    HW236822   1.845   2.887   8.869 -0.3811 -1.0037 -0.4809
 8397SOL     OW36823   0.605   1.452   1.414  0.1583 -0.3091  0.2634
 8397SOL    HW136824   0.581   1.528   1.361 -0.0292  0.5911  1.6431
 8397SOL    HW236825   0.674   1.409   1.363 -2.4888 -2.3456 -1.6713
 8398SOL     OW36826   0.545   1.369   8.216 -0.1900 -0.2027 -0.3189
 8398SOL    HW136827   0.457   1.380   8.253 -0.5011 -1.3364 -0.7286
 8398SOL    HW236828   0.548   1.281   8.180 -0.0336  0.3056 -1.5660
 8399SOL     OW36829   2.701   1.532   1.284 -0.0377 -0.2098  0.8910
 8399SOL    HW136830   2.733   1.442   1.286 -1.3835 -0.7405 -0.5726
 8399SOL    HW236831   2.668   1.545   1.373 -1.6877  1.1404  0.0870
 8400SOL     OW36832   0.497   3.828   7.841  0.6946  0.2609 -0.3827
 8400SOL    HW136833   0.471   3.872   7.760 -1.5233  1.8887  1.2190
 8400SOL    HW236834   0.482   3.735   7.823  0.3828  0.4088 -0.8953
 8401SOL     OW36835   0.201   4.456   9.436  0.6264  0.4411  0.0102
 8401SOL    HW136836   0.126   4.474   9.492 -0.3276  0.7387 -1.3866
 8401SOL    HW236837   0.254   4.534   9.451  0.2794 -0.0960  4.1093
 8402SOL     OW36838   0.812   3.212   6.121 -0.0164 -0.0219 -0.1695
 8402SOL    HW136839   0.815   3.157   6.199 -0.9299 -2.6777 -2.0018
 8402SOL    HW236840   0.719   3.230   6.110  0.2722  1.7966  0.3913
 8403SOL     OW36841   0.366   4.289  14.060 -0.0757  0.6286  0.1507
 8403SOL    HW136842   0.345   4.214  14.004  0.7461  1.2638 -1.0146
 8403SOL    HW236843   0.417   4.248  14.130  1.9460  1.4464 -0.8266
 8404SOL     OW36844   2.030   3.451   5.119  0.2521 -0.7345  0.0863
 8404SOL    HW136845   2.016   3.394   5.044 -3.0915  0.6334 -0.3556
 8404SOL    HW236846   2.125   3.462   5.116  0.3354 -1.0433  1.2702
 8405SOL     OW36847   2.237   0.257   8.333  0.2168 -0.1869  0.2153
 8405SOL    HW136848   2.232   0.161   8.333  1.4686 -0.2692 -2.1941
 8405SOL    HW236849   2.302   0.277   8.265  0.0086  0.9427  0.3651
 8406SOL     OW36850   2.110   0.769   1.791 -0.5156 -0.1055 -0.6411
 8406SOL    HW136851   2.023   0.740   1.817 -0.3420 -1.1674 -1.2501
 8406SOL    HW236852   2.091   0.859   1.764 -0.9094 -0.4226 -1.4041
 8407SOL     OW36853   3.108   3.017   4.843  0.2195 -0.1829  0.4166
 8407SOL    HW136854   3.044   2.994   4.910  0.3781 -0.4263  0.4838
 8407SOL    HW236855   3.056   3.033   4.764  0.8267  3.2322  0.7134
 8408SOL     OW36856   2.306   2.004   6.004  0.3868  0.0202  0.4852
 8408SOL    HW136857   2.254   2.082   6.021  0.9284  0.2697  0.9957
 8408SOL    HW236858   2.298   1.990   5.910 -0.3794  1.9599  0.2760
 8409SOL     OW36859   1.020   1.085   4.326 -0.7187 -0.2773 -0.3127
 8409SOL    HW136860   0.947   1.091   4.388  0.2971  1.8124  0.6690
 8409SOL    HW236861   1.053   1.174   4.333 -3.9738  0.7360  1.9952
 8410SOL     OW36862   4.213   1.349   8.510  0.0225 -0.4295 -0.2012
 8410SOL    HW136863   4.142   1.409   8.536 -0.3929 -1.3903  0.8571
 8410SOL    HW236864   4.184   1.314   8.426 -1.7509  0.1011  0.1774
 8411SOL     OW36865   0.859   3.365   1.930  0.3882  0.0259 -0.2339
 8411SOL    HW136866   0.839   3.272   1.936  1.8426 -0.1480  1.5907
 8411SOL    HW236867   0.828   3.383   1.841  0.4277  1.4174  0.0240
 8412SOL     OW36868   0.340   3.353  11.115  0.0923  0.2461  0.3519
 8412SOL    HW136869   0.421   3.325  11.159  0.5582  0.6922 -0.2228
 8412SOL    HW236870   0.275   3.366  11.184 -0.2362  0.1551  0.0627
 8413SOL     OW36871   1.390   2.022   6.765  0.1312  0.4320 -0.3503
 8413SOL    HW136872   1.446   1.945   6.755  0.2391  0.5220 -0.4314
 8413SOL    HW236873   1.306   1.978   6.751  1.6902 -3.3851  2.2701
 8414SOL     OW36874   1.555   2.183   5.341  0.5742  0.2830  0.6430
 8414SOL    HW136875   1.581   2.152   5.427 -3.3202 -0.3707  1.5716
 8414SOL    HW236876   1.473   2.230   5.356  0.1883 -0.1395 -0.1185
 8415SOL     OW36877   0.828   4.175   5.602 -0.2657  0.5390  0.1450
 8415SOL    HW136878   0.906   4.144   5.648 -0.4332  1.7491  1.2496
 8415SOL    HW236879   0.861   4.172   5.512  0.3577  2.3658  0.3057
 8416SOL     OW36880   3.120   3.769   1.114 -0.5596  0.1546  0.7563
 8416SOL    HW136881   3.050   3.830   1.090  0.6162  1.2042  0.0097
 8416SOL    HW236882   3.075   3.685   1.107  0.6756 -0.4637  0.2331
 8417SOL     OW36883   3.793   3.292   4.548  0.0429 -0.4143 -0.2563
 8417SOL    HW136884   3.888   3.306   4.552 -0.3347  1.8522  0.5749
 8417SOL    HW236885   3.785   3.363   4.485  1.0070 -0.0508  0.0283
 8418SOL     OW36886   1.868   3.339   1.207  0.0313  0.2709  0.3517
 8418SOL    HW136887   1.876   3.417   1.263 -0.7015 -0.0969  0.9711
 8418SOL    HW236888   1.838   3.280   1.276  0.2299  1.6423  1.6245
 8419SOL     OW36889   1.081   0.891   3.379 -0.0031  0.1020 -0.0213
 8419SOL    HW136890   0.999   0.846   3.360  0.5385 -0.1836 -1.6960
 8419SOL    HW236891   1.050   0.981   3.386  1.2233  0.5142  0.2310
 8420SOL     OW36892   4.700   0.350   9.006 -0.0645  0.9336 -0.2420
 8420SOL    HW136893   0.035   0.345   8.944  0.3119  1.2589  0.1646
 8420SOL    HW236894   4.679   0.259   9.025  1.6810  0.2575 -1.5935
 8421SOL     OW36895   0.541   2.029   8.367  0.4384 -0.4675  0.0094
 8421SOL    HW136896   0.600   1.999   8.298  0.7794 -2.5157  1.1947
 8421SOL    HW236897   0.522   2.122   8.354 -1.4888 -0.5619  2.1244
 8422SOL     OW36898   4.650   2.194  11.100 -0.5141 -0.2502 -0.0656
 8422SOL    HW136899   4.632   2.155  11.015 -1.0386  0.2969 -0.2041
 8422SOL    HW236900   4.636   2.123  11.163  1.1945 -1.0633 -0.5968
 8423SOL     OW36901   3.898   0.417   3.643  0.4027 -0.0179  0.2707
 8423SOL    HW136902   3.982   0.438   3.684  0.3840 -0.0192  0.3089
 8423SOL    HW236903   3.844   0.419   3.722 -0.0697 -0.9575 -0.0232
 8424SOL     OW36904   1.372   2.866   0.025  0.0138  0.4314 -0.0049
 8424SOL    HW136905   1.388   2.958   0.046  0.1968  0.1971  0.8555
 8424SOL    HW236906   1.285   2.851   0.061  0.0311 -1.1847 -0.6602
 8425SOL     OW36907   0.234   0.145   4.002 -0.5738  0.5266  0.0025
 8425SOL    HW136908   0.280   0.065   4.031  1.4484  0.9730 -1.9530
 8425SOL    HW236909   0.164   0.144   4.067 -0.3061 -0.0755  0.2831
 8426SOL     OW36910   0.308   3.073   4.360  0.2611  0.1786 -0.2403
 8426SOL    HW136911   0.258   3.130   4.301  2.5379  2.0097 -0.4230
 8426SOL    HW236912   0.325   3.000   4.301 -0.4982 -0.8264  0.7923
 8427SOL     OW36913   0.255   3.052   1.985 -0.5217  0.1073  0.1145
 8427SOL    HW136914   0.259   2.973   1.931  1.7989  0.0638  0.3616
 8427SOL    HW236915   0.340   3.088   1.958 -0.6299  0.9179  0.8344
 8428SOL     OW36916   2.924   1.064   5.617 -0.0587 -0.2212 -0.4995
 8428SOL    HW136917   2.987   1.068   5.546  0.9307  0.1421  0.3943
 8428SOL    HW236918   2.983   1.025   5.682 -0.3191  0.5481  0.2006
 8429SOL     OW36919   4.188   0.203  10.618 -0.5540 -0.0234 -0.3040
 8429SOL    HW136920   4.221   0.255  10.691  0.0448 -0.9073  0.0565
 8429SOL    HW236921   4.259   0.204  10.554 -1.3279  0.1977 -1.1488
 8430SOL     OW36922   0.152   4.503   6.380 -0.4041  0.7725 -0.5027
 8430SOL    HW136923   0.091   4.561   6.426 -0.0973  0.0112  0.8847
 8430SOL    HW236924   0.195   4.462   6.455  1.0246  0.5889 -1.4276
 8431SOL     OW36925   2.217   0.608   8.668 -0.0636  0.1145 -0.4130
 8431SOL    HW136926   2.133   0.594   8.712 -0.8802 -1.3947 -2.4804
 8431SOL    HW236927   2.200   0.575   8.580 -0.3162 -0.9289  0.0264
 8432SOL     OW36928   2.209   4.694   1.658 -0.2126 -0.2082  0.2421
 8432SOL    HW136929   2.127   0.001   1.679 -0.0309  0.4328 -0.3993
 8432SOL    HW236930   2.211   4.663   1.567 -1.3490 -1.1870  0.5469
 8433SOL     OW36931   2.233   0.417   9.166  0.0212  0.0751  0.3827
 8433SOL    HW136932   2.150   0.462   9.183 -1.1774 -1.1072 -2.2595
 8433SOL    HW236933   2.203   0.371   9.087  1.3881 -3.5017  1.9660
 8434SOL     OW36934   3.395   2.650   1.041  0.4572  0.1212 -0.0662
 8434SOL    HW136935   3.388   2.576   0.981 -0.3276  0.7519 -0.7417
 8434SOL    HW236936   3.481   2.682   1.014  0.4409 -0.6055 -0.9919
 8435SOL     OW36937   0.288   0.437   3.173  0.4034  0.4783 -0.1173
 8435SOL    HW136938   0.374   0.448   3.211  0.0399  0.8515  0.5915
 8435SOL    HW236939   0.239   0.509   3.213  1.0558  1.4454 -1.0494
 8436SOL     OW36940   0.377   0.892   1.853 -0.3641  0.2426 -0.0586
 8436SOL    HW136941   0.362   0.823   1.918 -3.3401  0.8825 -0.0607
 8436SOL    HW236942   0.414   0.847   1.777  0.6483  0.0238  0.5707
 8437SOL     OW36943   0.694   0.170   6.622  0.6519  0.1056 -0.7348
 8437SOL    HW136944   0.774   0.148   6.669  0.0638 -0.2222  0.1308
 8437SOL    HW236945   0.631   0.163   6.695  1.6734  3.6435  0.5145
 8438SOL     OW36946   0.668   2.572   8.673  0.1732  0.1175  0.5159
 8438SOL    HW136947   0.638   2.588   8.584 -2.0998  2.0293  1.6274
 8438SOL    HW236948   0.617   2.494   8.691 -0.0646 -0.1066 -1.1775
 8439SOL     OW36949   2.594   1.299   5.561 -0.2427 -0.2904  0.1752
 8439SOL    HW136950   2.513   1.338   5.529  0.7051  0.4669 -1.3141
 8439SOL    HW236951   2.606   1.232   5.493  0.6388  0.5625 -0.4940
 8440SOL     OW36952   3.284   0.729  15.110 -0.4555 -0.2172  0.4820
 8440SOL    HW136953   3.258   0.679  15.032 -0.9704 -0.1401  0.6025
 8440SOL    HW236954   3.213   0.699  15.167 -0.8783  1.4100  0.7947
 8441SOL     OW36955   0.155   2.549   2.224 -0.1508  0.1675 -0.4733
 8441SOL    HW136956   0.230   2.520   2.275  0.2352  1.9063 -0.0614
 8441SOL    HW236957   0.203   2.562   2.142 -1.4285  1.6101 -1.0001
 8442SOL     OW36958   3.545   0.394   1.544  0.3299  0.5024  0.0634
 8442SOL    HW136959   3.509   0.434   1.464 -1.9294 -1.0351  0.3238
 8442SOL    HW236960   3.510   0.305   1.538  1.5923 -0.0737  1.3951
 8443SOL     OW36961   3.741   0.090   9.725 -0.1344 -0.5594 -0.7223
 8443SOL    HW136962   3.663   0.130   9.764 -0.0986 -1.3464  0.1563
 8443SOL    HW236963   3.787   0.071   9.807  0.1287 -1.0858 -0.9887
 8444SOL     OW36964   0.587   2.889   7.764 -0.3429  0.2261  0.4504
 8444SOL    HW136965   0.610   2.981   7.773  0.6872  0.1393 -1.4243
 8444SOL    HW236966   0.628   2.850   7.841 -0.2360 -1.2701 -0.3623
 8445SOL     OW36967   3.424   2.607   9.065  0.0401  0.1331 -0.5794
 8445SOL    HW136968   3.365   2.587   8.992 -0.8143 -1.2193  0.4722
 8445SOL    HW236969   3.448   2.699   9.058 -1.2176  0.3533 -2.0332
 8446SOL     OW36970   1.257   2.930   3.552  0.0715  0.0273  0.2347
 8446SOL    HW136971   1.176   2.909   3.599 -0.3031  1.2182  0.1304
 8446SOL    HW236972   1.323   2.881   3.599  0.3340 -0.3031 -0.4733
 8447SOL     OW36973   0.186   2.917   9.785 -0.9743 -0.0431 -0.0216
 8447SOL    HW136974   0.097   2.912   9.821 -1.2955 -1.4074 -0.9847
 8447SOL    HW236975   0.237   2.935   9.863  0.0569  0.5099 -0.8177
 8448SOL     OW36976   2.550   2.321  15.378  0.2032  0.4773  0.0996
 8448SOL    HW136977   2.597   2.354  15.301 -0.6542  0.6738 -0.3357
 8448SOL    HW236978   2.599   2.240  15.390 -0.9174 -0.3131 -0.6919
 8449SOL     OW36979   3.930   4.241   1.827  0.2693 -0.4579 -0.6406
 8449SOL    HW136980   3.919   4.191   1.908  0.3433  1.0270  0.2747
 8449SOL    HW236981   3.987   4.312   1.856 -1.1897  0.3698  0.1520
 8450SOL     OW36982   4.545   1.390   3.591 -0.4030 -0.2318  0.2436
 8450SOL    HW136983   4.528   1.484   3.598  1.6828  0.0982  1.0029
 8450SOL    HW236984   4.457   1.357   3.574  0.6700 -1.3958 -2.8698
 8451SOL     OW36985   1.244   2.496   8.397  0.3899 -0.0537  0.2631
 8451SOL    HW136986   1.158   2.504   8.356 -0.3192  0.3630  1.8450
 8451SOL    HW236987   1.296   2.575   8.381  1.2197 -0.4509  0.9820
 8452SOL     OW36988   0.881   4.379   6.255  0.0204  0.4396 -0.1493
 8452SOL    HW136989   0.802   4.387   6.308 -0.3748 -0.9589 -0.5366
 8452SOL    HW236990   0.856   4.302   6.204 -1.0455  0.5546  0.2005
 8453SOL     OW36991   4.452   1.363   2.210 -0.2367 -0.1116  0.5207
 8453SOL    HW136992   4.439   1.270   2.191 -0.5559 -0.1397  0.8599
 8453SOL    HW236993   4.396   1.370   2.288 -1.1905  1.4815 -0.3297
 8454SOL     OW36994   3.459   2.524  13.138 -0.3669  0.1536 -0.0683
 8454SOL    HW136995   3.527   2.497  13.076  0.9312 -0.2823  1.5636
 8454SOL    HW236996   3.438   2.454  13.200  0.3693  1.9301  2.1965
 8455SOL     OW36997   2.607   2.149   1.851  0.8242  0.0747  0.1236
 8455SOL    HW136998   2.686   2.118   1.897  0.3334 -1.3901 -0.0216
 8455SOL    HW236999   2.550   2.162   1.926 -0.0458 -1.5553 -0.2578
 8456SOL     OW37000   4.664   4.395   8.827  0.1768 -0.2857  0.4666
 8456SOL    HW137001   4.651   4.300   8.824  0.0582 -0.2373 -0.5189
 8456SOL    HW237002   4.723   4.411   8.753 -0.3895 -3.1784 -0.6356
 8457SOL     OW37003   2.769   2.114   6.988  0.0756 -0.5572  0.1334
 8457SOL    HW137004   2.767   2.207   6.968  0.7138 -0.7858 -0.9942
 8457SOL    HW237005   2.853   2.089   6.949 -0.4279  0.1188 -1.3674
 8458SOL     OW37006   0.551   3.951   1.901  0.6146 -0.2800 -0.2127
 8458SOL    HW137007   0.561   3.912   1.814  2.4844  1.1392 -0.6529
 8458SOL    HW237008   0.640   3.973   1.929 -0.1048 -1.6506  3.0804
 8459SOL     OW37009   2.058   3.153   5.384  0.0979 -0.1712  0.6776
 8459SOL    HW137010   2.109   3.093   5.438  1.2727 -0.2414 -0.5191
 8459SOL    HW237011   2.089   3.118   5.300  2.3793 -1.1770  1.9325
 8460SOL     OW37012   1.900   3.594   2.436  0.2326  0.0708  0.3632
 8460SOL    HW137013   1.955   3.622   2.510 -0.7223  0.4014  0.9431
 8460SOL    HW237014   1.930   3.667   2.381 -2.1129 -0.6120 -1.7956
 8461SOL     OW37015   1.823   2.091   3.550  0.2142  0.2675 -0.5488
 8461SOL    HW137016   1.891   2.080   3.482  0.8176  0.9402 -0.0542
 8461SOL    HW237017   1.870   2.141   3.617  0.8610  0.4521 -1.1344
 8462SOL     OW37018   3.977   4.275   7.558 -0.3016  0.3130  0.5398
 8462SOL    HW137019   3.994   4.286   7.464  1.0524 -1.8557  0.5353
 8462SOL    HW237020   3.882   4.263   7.555 -0.0084 -2.1082  0.7524
 8463SOL     OW37021   2.737   3.485   6.541 -0.3661  0.2920 -0.3334
 8463SOL    HW137022   2.709   3.465   6.452  1.3427  2.4894 -1.3602
 8463SOL    HW237023   2.832   3.476   6.534 -0.2399  1.8911 -0.6570
 8464SOL     OW37024   1.277   4.151   4.074  0.3849  0.3727  0.5347
 8464SOL    HW137025   1.297   4.157   3.980 -0.3659  0.2039  0.3659
 8464SOL    HW237026   1.190   4.188   4.082  0.7536  1.4983 -0.5885
 8465SOL     OW37027   3.652   4.493   6.753 -0.1442 -0.3433  0.1008
 8465SOL    HW137028   3.678   4.412   6.798  2.7044  0.5378  0.0346
 8465SOL    HW237029   3.557   4.489   6.766 -0.2678 -0.1035 -0.7179
 8466SOL     OW37030   4.496   3.592   2.891  0.2517  0.4202 -0.2338
 8466SOL    HW137031   4.450   3.508   2.892 -1.1392  1.2174  3.5656
 8466SOL    HW237032   4.520   3.608   2.800 -1.1081 -0.5681 -0.7659
 8467SOL     OW37033   1.853   4.164   2.345 -0.2596  0.5481  0.2389
 8467SOL    HW137034   1.832   4.169   2.438 -0.2984  0.5513  0.2300
 8467SOL    HW237035   1.798   4.089   2.321  2.4699 -0.9628 -1.1904
 8468SOL     OW37036   1.998   0.407   5.640  0.5269 -0.5939  0.5073
 8468SOL    HW137037   2.004   0.372   5.552 -0.7932  0.7147 -0.1101
 8468SOL    HW237038   1.903   0.412   5.655  0.4272  1.6799 -0.8199
 8469SOL     OW37039   2.436   0.182   5.332  0.0550 -0.0474  0.2562
 8469SOL    HW137040   2.350   0.142   5.321  0.7898 -1.1899 -1.3194
 8469SOL    HW237041   2.418   0.244   5.261 -0.6903 -0.6144 -0.0455
 8470SOL     OW37042   4.371   4.111   0.089  0.5176  0.0940 -0.0925
 8470SOL    HW137043   4.442   4.145   0.145  2.2764 -0.9981 -1.6587
 8470SOL    HW237044   4.326   4.191   0.062 -0.8071 -0.5109  0.3667
 8471SOL     OW37045   1.981   4.488   8.389 -0.1804 -0.0999 -0.0360
 8471SOL    HW137046   1.945   4.460   8.305 -1.8626 -0.5737  0.8376
 8471SOL    HW237047   1.978   4.583   8.385  2.3537 -0.0112 -0.1779
 8472SOL     OW37048   0.877   4.645   5.875  0.1752  0.1252  0.5418
 8472SOL    HW137049   0.922   4.599   5.946  0.2541  1.0778  1.1011
 8472SOL    HW237050   0.828   4.712   5.921  0.0396  0.3795  0.0343
 8473SOL     OW37051   3.101   1.124   9.893 -0.1325 -0.1079 -0.3823
 8473SOL    HW137052   3.141   1.192   9.840  1.9552  1.1279  2.7440
 8473SOL    HW237053   3.058   1.066   9.830 -0.6099  1.8909 -1.8774
 8474SOL     OW37054   1.112   4.110   6.639 -0.4297 -0.7533  0.0577
 8474SOL    HW137055   1.186   4.076   6.589  1.2975  1.7290  0.9284
 8474SOL    HW237056   1.046   4.127   6.572 -0.7085  1.8716  1.0310
 8475SOL     OW37057   1.729   2.219   7.601 -0.2112 -0.3550 -0.1576
 8475SOL    HW137058   1.775   2.148   7.646 -0.8135 -0.0301  0.9869
 8475SOL    HW237059   1.774   2.227   7.517  0.5115  2.1714  0.4464
 8476SOL     OW37060   4.280   0.691   5.598  0.0287 -0.6651 -0.1327
 8476SOL    HW137061   4.283   0.668   5.691 -1.0413  3.6850  0.9836
 8476SOL    HW237062   4.202   0.641   5.573  0.3095  0.3185 -2.9468
 8477SOL     OW37063   1.283   2.680   1.265 -0.5927  0.3932 -0.3254
 8477SOL    HW137064   1.364   2.630   1.254 -0.3023  1.0015 -0.9257
 8477SOL    HW237065   1.268   2.689   1.171 -0.5413  0.3396 -0.3388
 8478SOL     OW37066   0.323   4.003  12.551  0.3643 -0.1859  0.3017
 8478SOL    HW137067   0.332   3.946  12.474 -0.3630  1.1771 -0.7971
 8478SOL    HW237068   0.413   4.027  12.574  0.2863 -0.5108  0.9436
 8479SOL     OW37069   2.546   3.920   1.395 -0.5340 -0.3212 -0.0467
 8479SOL    HW137070   2.529   4.014   1.385 -0.8261 -0.3731 -0.0304
 8479SOL    HW237071   2.569   3.907   1.486 -0.4741  3.1800  0.4489
 8480SOL     OW37072   2.900   2.782   9.145  0.0501 -0.3813 -0.0689
 8480SOL    HW137073   2.847   2.822   9.076  2.6224 -0.6471 -2.2051
 8480SOL    HW237074   2.899   2.854   9.208 -1.2721 -1.6455  1.3505
 8481SOL     OW37075   0.878   2.693  14.749 -0.0723  0.5423 -0.5707
 8481SOL    HW137076   0.808   2.753  14.724  0.4986  0.3639 -2.6483
 8481SOL    HW237077   0.953   2.745  14.777  0.7253 -0.5498 -0.6648
 8482SOL     OW37078   2.880   1.757   4.089  0.0782  0.4480 -0.1848
 8482SOL    HW137079   2.863   1.850   4.070 -3.0770 -0.6161 -2.5821
 8482SOL    HW237080   2.958   1.769   4.143 -0.4043 -0.7721  0.7757
 8483SOL     OW37081   3.889   3.898  12.316 -0.1335 -0.3121 -0.2867
 8483SOL    HW137082   3.910   3.859  12.231 -0.9544  0.5400 -0.8739
 8483SOL    HW237083   3.893   3.829  12.383  0.5307  1.6052  1.6555
 8484SOL     OW37084   2.486   0.765   4.136 -0.4634  0.1328 -0.2951
 8484SOL    HW137085   2.395   0.762   4.164 -0.0797 -1.2989  0.8044
 8484SOL    HW237086   2.497   0.859   4.149  2.2064 -0.0518 -1.1852
 8485SOL     OW37087   2.467   3.395   4.739 -0.1415 -0.5179  0.5602
 8485SOL    HW137088   2.520   3.317   4.725  1.5362  0.8818 -0.8554
 8485SOL    HW237089   2.477   3.442   4.656 -5.0227 -1.1015 -0.3484
 8486SOL     OW37090   2.319   0.920   4.912 -0.1755  0.0918 -0.4876
 8486SOL    HW137091   2.404   0.941   4.951 -0.4182  0.9686 -0.4267
 8486SOL    HW237092   2.337   0.896   4.821 -0.4165 -1.2970 -0.1631
 8487SOL     OW37093   2.076   1.572  14.617  0.7159 -0.2071 -0.1700
 8487SOL    HW137094   2.033   1.647  14.659  0.4497  0.2176 -1.2037
 8487SOL    HW237095   2.055   1.589  14.525 -0.3845  0.6940  0.2456
 8488SOL     OW37096   4.722   1.004   2.452 -0.0690 -0.3111  0.3850
 8488SOL    HW137097   4.695   0.913   2.461 -1.2696  0.2520  2.4420
 8488SOL    HW237098   0.043   1.021   2.525 -0.8202 -1.7797  1.3156
 8489SOL     OW37099   2.863   1.541   2.478  0.6402 -0.5001 -0.0859
 8489SOL    HW137100   2.894   1.556   2.389 -0.0395 -0.3510 -0.2940
 8489SOL    HW237101   2.909   1.458   2.492  0.3077 -0.8690 -1.2151
 8490SOL     OW37102   4.444   1.277   5.543 -0.2299 -0.3236 -0.4928
 8490SOL    HW137103   4.355   1.314   5.538 -0.8096 -1.8047 -0.9844
 8490SOL    HW237104   4.445   1.219   5.467 -2.4909  2.8052 -2.9101
 8491SOL     OW37105   2.160   2.222   4.441 -0.2456 -0.2811  0.4683
 8491SOL    HW137106   2.206   2.185   4.516 -0.3803  0.1574  0.7645
 8491SOL    HW237107   2.220   2.185   4.377 -1.1895 -0.1764 -0.4900
 8492SOL     OW37108   3.301   0.990   4.940 -0.5127  0.3604  0.2333
 8492SOL    HW137109   3.310   1.039   5.022 -3.9803  1.0521  0.2212
 8492SOL    HW237110   3.232   0.925   4.952  1.2302 -1.5928 -0.2899
 8493SOL     OW37111   3.037   3.712   9.513  0.3189  0.0938  0.2158
 8493SOL    HW137112   3.007   3.802   9.499 -2.1830 -0.8192 -0.4297
 8493SOL    HW237113   2.963   3.658   9.484  0.9371 -0.2918 -0.6185
 8494SOL     OW37114   3.272   3.387   8.297  0.7610  0.2718 -0.1677
 8494SOL    HW137115   3.223   3.307   8.316  2.1260 -0.5943 -0.2429
 8494SOL    HW237116   3.204   3.453   8.300  1.3288  0.8200  0.8572
 8495SOL     OW37117   3.372   2.832   3.393  0.2856 -0.0030  0.6052
 8495SOL    HW137118   3.454   2.833   3.345  0.6808 -0.8785  1.2605
 8495SOL    HW237119   3.386   2.780   3.472  1.0754 -0.8396 -0.0893
 8496SOL     OW37120   3.164   0.368   6.999  0.0153  0.2285 -0.1986
 8496SOL    HW137121   3.106   0.441   7.020 -1.9623 -0.7781 -2.1771
 8496SOL    HW237122   3.229   0.415   6.946 -0.5365 -0.5778 -1.5996
 8497SOL     OW37123   3.129   2.234  14.771 -0.0944 -0.1668  0.0316
 8497SOL    HW137124   3.183   2.289  14.714 -1.4544 -1.1887 -2.2435
 8497SOL    HW237125   3.173   2.224  14.856 -0.3817 -3.0297 -0.1624
 8498SOL     OW37126   1.137   3.817   3.143 -0.1611 -0.0201 -0.5929
 8498SOL    HW137127   1.063   3.876   3.154 -0.0198 -0.3951  2.3699
 8498SOL    HW237128   1.196   3.872   3.092 -0.8548  0.7647 -0.5327
 8499SOL     OW37129   0.729   2.971  13.591 -0.5363  0.1739  0.1278
 8499SOL    HW137130   0.774   2.958  13.674 -2.3264  0.2041  1.0970
 8499SOL    HW237131   0.738   3.065  13.581  0.8032  0.1826  1.3396
 8500SOL     OW37132   3.386   2.753   7.535  0.1246  0.2937 -0.4632
 8500SOL    HW137133   3.295   2.765   7.508 -0.1880 -1.0530  0.0154
 8500SOL    HW237134   3.430   2.764   7.452 -0.6044  0.4207 -0.8364
 8501SOL     OW37135   1.871   1.904   0.128 -0.0806  0.0546  0.0934
 8501SOL    HW137136   1.787   1.941   0.156 -0.7733 -1.3248 -0.1707
 8501SOL    HW237137   1.871   1.944   0.041  1.3720  1.2411  0.6416
 8502SOL     OW37138   3.485   3.854   7.008  0.4753  0.1902  0.7355
 8502SOL    HW137139   3.429   3.854   7.086  2.6322  1.7323  2.2873
 8502SOL    HW237140   3.498   3.947   6.993  2.3020  0.0481  1.4920
 8503SOL     OW37141   2.228   1.635  10.025 -0.4190  0.2062 -0.0602
 8503SOL    HW137142   2.263   1.646  10.113  1.5044 -0.0535 -0.7978
 8503SOL    HW237143   2.309   1.600   9.989  0.2375 -0.3605  1.9870
 8504SOL     OW37144   3.460   0.310   5.271 -0.5733  0.2403 -0.1597
 8504SOL    HW137145   3.456   0.365   5.193  1.8302  1.3219  0.4802
 8504SOL    HW237146   3.555   0.306   5.282 -0.4715  1.1566 -0.7536
 8505SOL     OW37147   3.452   1.225  11.523 -0.7586  0.1316 -0.2090
 8505SOL    HW137148   3.361   1.236  11.494 -1.2098 -0.7942  0.8821
 8505SOL    HW237149   3.493   1.256  11.442  1.2155  0.6246  0.9767
 8506SOL     OW37150   1.399   0.539   6.824 -0.1588  0.0430 -0.3776
 8506SOL    HW137151   1.310   0.557   6.793 -1.1387 -0.7901  1.9670
 8506SOL    HW237152   1.454   0.555   6.748  1.1844  1.6269  0.9317
 8507SOL     OW37153   2.701   3.279   3.837 -0.5791  0.1155 -0.0429
 8507SOL    HW137154   2.684   3.373   3.841 -3.7712 -0.4868  0.6492
 8507SOL    HW237155   2.691   3.252   3.928  1.4013  1.5331  0.5927
 8508SOL     OW37156   2.334   3.186   5.798  1.3180 -0.2087  0.0861
 8508SOL    HW137157   2.429   3.180   5.796  1.5895  4.0174  0.6155
 8508SOL    HW237158   2.315   3.237   5.876  0.8808 -0.7208  0.3105
 8509SOL     OW37159   1.910   0.062   2.741 -0.0065 -0.6527  0.4955
 8509SOL    HW137160   1.938   0.034   2.654 -2.1800  2.4813 -1.2344
 8509SOL    HW237161   1.905   4.716   2.787  0.0182 -0.6981  0.4147
 8510SOL     OW37162   3.114   1.162  10.838 -0.1808  0.6874  0.4687
 8510SOL    HW137163   3.177   1.207  10.895  1.0576 -0.2118 -0.1940
 8510SOL    HW237164   3.167   1.154  10.759 -0.3836  2.0934  0.1903
 8511SOL     OW37165   2.244   1.580  15.521 -0.4186 -0.7222 -0.4997
 8511SOL    HW137166   2.262   1.504  15.576  1.1117 -1.0564 -1.4540
 8511SOL    HW237167   2.331   1.619  15.512  0.3529 -2.3155  0.1848
 8512SOL     OW37168   0.476   3.693   8.845 -0.2399  0.1771  0.2451
 8512SOL    HW137169   0.536   3.767   8.858 -1.5015  0.8841  1.9663
 8512SOL    HW237170   0.442   3.674   8.932 -0.3213 -1.1974 -0.0860
 8513SOL     OW37171   0.340   0.828   7.018 -0.7490 -0.1021  0.7354
 8513SOL    HW137172   0.269   0.778   6.977  0.7913  1.6442 -3.9575
 8513SOL    HW237173   0.348   0.903   6.959  1.5984 -0.3298  0.7932
 8514SOL     OW37174   1.120   3.859   6.801 -0.4165  0.0350  0.4221
 8514SOL    HW137175   1.100   3.821   6.716  1.3622  0.8361 -0.3516
 8514SOL    HW237176   1.143   3.948   6.774  0.3864 -0.4108 -0.3764
 8515SOL     OW37177   4.057   2.699  16.027 -0.4330  0.2824 -0.5503
 8515SOL    HW137178   4.082   2.615  16.067  1.0656  1.1813  0.3922
 8515SOL    HW237179   3.991   2.673  15.962  0.1630  0.2456 -1.1359
 8516SOL     OW37180   0.026   1.410   8.106 -0.9347 -0.5498  0.8154
 8516SOL    HW137181   0.046   1.431   8.197 -2.5518 -1.2979  1.3530
 8516SOL    HW237182   0.068   1.324   8.098  1.6746  0.6545  1.7330
 8517SOL     OW37183   1.194   2.265  12.312 -0.3559 -0.4850 -0.6630
 8517SOL    HW137184   1.210   2.186  12.260  0.4230 -0.5890 -0.2625
 8517SOL    HW237185   1.219   2.235  12.399  2.2799 -0.7929 -1.5186
 8518SOL     OW37186   4.116   4.275   3.020  0.1142  0.1467 -1.3174
 8518SOL    HW137187   4.081   4.300   3.106  1.7004  1.7957 -1.1462
 8518SOL    HW237188   4.093   4.358   2.978  0.9205  1.8765  1.6487
 8519SOL     OW37189   2.182   2.140  14.154  0.3765  0.0571  0.0990
 8519SOL    HW137190   2.211   2.166  14.066  0.0663 -0.6422 -0.2105
 8519SOL    HW237191   2.139   2.059  14.127  2.6660 -1.5467  1.3894
 8520SOL     OW37192   2.059   1.497  16.230  0.6110  0.9151  0.0498
 8520SOL    HW137193   2.087   1.423  16.284 -0.8055  1.3903  1.4584
 8520SOL    HW237194   2.140   1.516  16.182 -0.0635  3.1687 -0.1765
 8521SOL     OW37195   3.681   4.488   8.423  0.0117  0.4273 -0.0227
 8521SOL    HW137196   3.623   4.437   8.366  2.2869 -2.2146  0.0534
 8521SOL    HW237197   3.764   4.440   8.420 -0.0177  0.1357  3.7141
 8522SOL     OW37198   1.437   0.843  14.904  0.7771  0.2171 -0.4390
 8522SOL    HW137199   1.373   0.908  14.873  0.5191  0.0640 -0.2213
 8522SOL    HW237200   1.450   0.854  14.998 -1.6551 -0.2956 -0.0414
 8523SOL     OW37201   1.947   3.278   8.745 -0.1755 -0.7860  0.1098
 8523SOL    HW137202   1.888   3.216   8.789 -1.2200 -0.8609 -1.4002
 8523SOL    HW237203   2.022   3.219   8.742  0.5387  0.1238  0.3611
 8524SOL     OW37204   0.224   0.724   5.794  0.4807 -0.3161 -0.0188
 8524SOL    HW137205   0.229   0.629   5.788 -0.4581 -0.2492 -1.7760
 8524SOL    HW237206   0.232   0.742   5.888 -2.0743  0.5604  0.0324
 8525SOL     OW37207   0.506   2.592   4.432  0.2632  0.3636  0.0614
 8525SOL    HW137208   0.532   2.505   4.463  2.3244  1.4084  1.2302
 8525SOL    HW237209   0.586   2.639   4.411 -0.7710  1.2325 -1.9114
 8526SOL     OW37210   0.167   1.215   4.654 -0.2281  0.2526 -0.3952
 8526SOL    HW137211   0.255   1.216   4.690  0.4804 -2.4436 -2.0923
 8526SOL    HW237212   0.176   1.298   4.606 -1.4290  0.2369 -0.6527
 8527SOL     OW37213   0.671   2.670   6.638 -0.5777  0.2919 -0.8493
 8527SOL    HW137214   0.609   2.618   6.588 -1.4210  0.2976  0.2011
 8527SOL    HW237215   0.691   2.745   6.581 -0.9319 -0.2290 -1.6454
 8528SOL     OW37216   0.554   2.279   1.453 -0.0434 -0.0060  0.1466
 8528SOL    HW137217   0.533   2.200   1.503  1.8484 -0.5444  0.1069
 8528SOL    HW237218   0.649   2.278   1.467  0.1142 -1.3471 -1.0025
 8529SOL     OW37219   0.804   4.616  11.480  0.2880 -0.3890 -0.2337
 8529SOL    HW137220   0.783   4.709  11.491  1.2343  0.0991 -2.4855
 8529SOL    HW237221   0.853   4.607  11.562 -0.1351  2.4494  0.3173
 8530SOL     OW37222   1.884   3.866   2.078 -0.8300  0.4116 -0.4862
 8530SOL    HW137223   1.884   3.786   2.026 -1.4067  0.1126 -0.0084
 8530SOL    HW237224   1.912   3.834   2.164  0.2871  0.3370 -0.8679
 8531SOL     OW37225   0.580   3.873   2.656 -0.0405  0.1149 -0.5455
 8531SOL    HW137226   0.500   3.830   2.626  0.2711  0.6650 -2.2011
 8531SOL    HW237227   0.624   3.852   2.573  1.7534  0.6985  0.2538
 8532SOL     OW37228   2.419   0.508  15.174 -0.6577 -0.0126  0.3693
 8532SOL    HW137229   2.357   0.439  15.153 -1.2294  1.3452 -2.3622
 8532SOL    HW237230   2.382   0.544  15.254  0.8739 -1.5269  1.7487
 8533SOL     OW37231   2.443   4.172  14.567  0.2982 -0.1976  0.0130
 8533SOL    HW137232   2.520   4.209  14.523  0.2019  0.5727  0.4989
 8533SOL    HW237233   2.418   4.113  14.495 -0.1374  0.2759 -0.2294
 8534SOL     OW37234   1.173   2.071  11.784  0.3381 -0.2754 -0.1785
 8534SOL    HW137235   1.145   1.999  11.840 -0.3638 -0.2768 -0.5297
 8534SOL    HW237236   1.166   2.032  11.696  2.4699 -3.7037  1.1691
 8535SOL     OW37237   3.152   2.322  16.679 -0.0099 -0.5946 -0.3064
 8535SOL    HW137238   3.062   2.340  16.654  0.4040  1.1075 -0.5652
 8535SOL    HW237239   3.132   2.282  16.763  0.7527 -1.5669 -0.5884
 8536SOL     OW37240   0.541   2.159   6.358  0.6624  0.2357 -0.4597
 8536SOL    HW137241   0.629   2.197   6.357  0.5139  0.5588 -1.8177
 8536SOL    HW237242   0.543   2.113   6.274 -1.3645  0.7961 -0.7922
 8537SOL     OW37243   4.123   0.565   6.591  0.4727  0.1931 -0.2852
 8537SOL    HW137244   4.032   0.582   6.570  0.2111 -1.4963 -0.5144
 8537SOL    HW237245   4.128   0.473   6.564 -1.4490 -0.5864  2.0597
 8538SOL     OW37246   2.042   0.027  15.023  0.0527 -0.0179  0.3593
 8538SOL    HW137247   1.957   0.036  15.066 -0.9910 -2.5709 -1.1829
 8538SOL    HW237248   2.030   0.052  14.931 -1.8287 -0.3279  0.5328
 8539SOL     OW37249   2.363   0.272   1.647 -0.1962 -0.0660 -0.1793
 8539SOL    HW137250   2.298   0.271   1.717 -0.1230 -2.2473 -0.1224
 8539SOL    HW237251   2.324   0.329   1.581  0.3516  0.4113 -0.0930
 8540SOL     OW37252   3.105   3.522   8.045  0.6225 -0.1967  0.1262
 8540SOL    HW137253   3.022   3.521   8.093  1.9126 -2.0873  2.3206
 8540SOL    HW237254   3.132   3.614   8.046 -1.1398  0.3280  0.1510
 8541SOL     OW37255   1.178   3.967  10.459  0.4220 -0.2340  0.1970
 8541SOL    HW137256   1.128   3.886  10.447  0.7462 -0.1814 -1.5888
 8541SOL    HW237257   1.163   3.985  10.552 -0.7011 -0.4592  0.0662
 8542SOL     OW37258   2.056   3.004   1.739 -0.8967  0.7101 -0.2648
 8542SOL    HW137259   2.055   3.099   1.726  0.8093  0.8136  0.2324
 8542SOL    HW237260   2.104   2.964   1.666 -1.8714  0.1961 -0.6172
 8543SOL     OW37261   0.916   4.264   4.218  0.2432 -0.4752  0.7777
 8543SOL    HW137262   0.853   4.230   4.281  0.3420 -1.3096  0.4315
 8543SOL    HW237263   0.854   4.307   4.159  0.3225 -1.4013  0.0196
 8544SOL     OW37264   1.665   3.095  15.600 -0.3765 -0.2990  0.0201
 8544SOL    HW137265   1.705   3.013  15.572  0.2755  0.0602 -0.0852
 8544SOL    HW237266   1.710   3.159  15.545  0.8046 -3.0111 -2.1633
 8545SOL     OW37267   0.726   2.841   6.110  0.0521  0.0951 -0.0503
 8545SOL    HW137268   0.790   2.782   6.070 -2.1120 -0.6634 -2.4623
 8545SOL    HW237269   0.645   2.789   6.109 -0.3417  0.7069  0.8398
 8546SOL     OW37270   1.516   2.039   1.951  0.3039  0.3822 -0.5363
 8546SOL    HW137271   1.478   2.123   1.927 -2.5093 -0.4369  0.8751
 8546SOL    HW237272   1.608   2.060   1.941  0.7582 -1.2378  0.3171
 8547SOL     OW37273   3.463   4.130   9.205  0.1574 -0.0528  0.9353
 8547SOL    HW137274   3.531   4.111   9.269  0.2765 -0.5983  0.6482
 8547SOL    HW237275   3.494   4.207   9.159 -1.4203 -0.3404 -0.6279
 8548SOL     OW37276   3.564   4.027   5.340  0.8553  0.8526 -0.2716
 8548SOL    HW137277   3.576   4.001   5.248  2.8116  0.3277  0.1306
 8548SOL    HW237278   3.574   4.122   5.344  0.5223  0.9256 -1.1045
 8549SOL     OW37279   4.653   2.838   1.302  0.0880  0.5165  0.0556
 8549SOL    HW137280   4.728   2.864   1.249 -1.2942  1.7824 -1.2967
 8549SOL    HW237281   4.694   2.766   1.349 -0.3589 -1.1052 -2.0435
 8550SOL     OW37282   2.358   2.705  17.567 -0.3719 -0.0534 -0.3384
 8550SOL    HW137283   2.278   2.664  17.600 -0.0063  0.4074  1.1269
 8550SOL    HW237284   2.416   2.638  17.531 -0.7001 -0.9337  0.7630
 8551SOL     OW37285   4.266   3.511   1.357 -0.2853 -0.5084 -0.2051
 8551SOL    HW137286   4.300   3.508   1.446  0.4182  1.1467 -0.4160
 8551SOL    HW237287   4.220   3.594   1.364  0.9594  0.2590 -1.2091
 8552SOL     OW37288   1.493   0.186  14.302  0.4888  0.2683 -0.2210
 8552SOL    HW137289   1.464   0.268  14.343  1.7493  0.0924  1.0295
 8552SOL    HW237290   1.479   0.211  14.210 -1.2209  1.8322  0.4757
 8553SOL     OW37291   0.060   3.268   6.911  0.5110 -0.1236  0.4461
 8553SOL    HW137292   0.064   3.214   6.990 -2.2393 -1.3625 -0.2434
 8553SOL    HW237293   0.089   3.206   6.844 -0.4528  0.0696 -0.1495
 8554SOL     OW37294   2.991   4.561   3.275  0.3945 -0.0051  0.2092
 8554SOL    HW137295   2.905   4.577   3.313  0.0375  1.7171 -1.3024
 8554SOL    HW237296   3.019   4.651   3.262 -1.7600  0.4665 -1.3304
 8555SOL     OW37297   1.000   1.552  14.557 -0.1900  0.3251 -0.1711
 8555SOL    HW137298   0.986   1.590  14.644  0.6343 -1.4642  0.7360
 8555SOL    HW237299   0.968   1.464  14.575  1.7451 -0.4421 -0.5571
 8556SOL     OW37300   1.238   1.118   7.728 -0.1753  0.1411 -0.5162
 8556SOL    HW137301   1.163   1.169   7.698  0.1681  0.1570 -1.3361
 8556SOL    HW237302   1.196   1.033   7.722  0.0681 -0.0187  0.0596
 8557SOL     OW37303   0.466   0.288   3.881 -0.1411 -0.1590 -0.0157
 8557SOL    HW137304   0.371   0.280   3.885 -0.1711  0.5438  0.8272
 8557SOL    HW237305   0.470   0.305   3.975  0.5324  0.5626 -0.1775
 8558SOL     OW37306   1.741   0.478   5.706 -0.4197 -0.3567  0.2901
 8558SOL    HW137307   1.675   0.421   5.745 -0.7338 -0.0056  0.2776
 8558SOL    HW237308   1.694   0.480   5.622 -0.1000  1.1828  0.1409
 8559SOL     OW37309   1.869   0.851   4.139  0.2772  0.4696 -0.0392
 8559SOL    HW137310   1.907   0.846   4.226 -0.8855 -0.7795  0.4098
 8559SOL    HW237311   1.791   0.902   4.161  0.2252  0.3678  0.0132
 8560SOL     OW37312   2.750   2.128   7.693  0.2437 -0.1158 -0.2936
 8560SOL    HW137313   2.810   2.192   7.654 -0.0647  0.4398  0.1428
 8560SOL    HW237314   2.669   2.176   7.679  0.0248 -1.2208 -2.8448
 8561SOL     OW37315   4.308   0.438   8.168 -0.1931  0.6513 -0.2587
 8561SOL    HW137316   4.268   0.376   8.229  1.5963  0.0579  0.3186
 8561SOL    HW237317   4.353   0.379   8.107 -2.1605 -1.8112  0.6558
 8562SOL     OW37318   1.104   3.798  11.626 -0.5538 -0.5889  0.2510
 8562SOL    HW137319   1.116   3.731  11.558 -0.0372  0.5461 -0.7639
 8562SOL    HW237320   1.087   3.749  11.707 -1.0712  0.0910  0.5507
 8563SOL     OW37321   0.481   4.291  14.823  0.0001 -0.6237 -0.9682
 8563SOL    HW137322   0.553   4.354  14.818 -0.1243 -0.4773 -0.9312
 8563SOL    HW237323   0.504   4.262  14.911 -0.7982  1.8025  0.0465
 8564SOL     OW37324   4.511   3.712  11.524  0.5435 -0.6279 -0.5051
 8564SOL    HW137325   4.561   3.721  11.606 -1.1703 -2.4662  0.7326
 8564SOL    HW237326   4.490   3.804  11.509 -2.7137 -1.0369  1.5000
 8565SOL     OW37327   0.863   0.635   5.455  0.3553 -0.2659 -0.0049
 8565SOL    HW137328   0.891   0.621   5.365 -1.3061  0.1204 -0.5828
 8565SOL    HW237329   0.941   0.679   5.489 -0.5457  1.7451 -0.5766
 8566SOL     OW37330   4.606   2.004   6.802 -0.0590  0.0447 -0.2846
 8566SOL    HW137331   4.599   1.912   6.826  1.1830  0.0271  0.0330
 8566SOL    HW237332   4.517   2.022   6.772  0.3336 -0.8773 -2.0052
 8567SOL     OW37333   0.958   2.611   9.013  0.4090  0.1236  0.5582
 8567SOL    HW137334   0.866   2.621   9.040  0.2279  0.5733 -0.2395
 8567SOL    HW237335   0.954   2.662   8.932  0.3651  1.5414  1.4598
 8568SOL     OW37336   0.534   4.391  11.958 -0.3336  0.1435 -0.0023
 8568SOL    HW137337   0.577   4.437  12.030  0.8128  1.2621 -1.3938
 8568SOL    HW237338   0.560   4.446  11.884 -0.4413 -0.7350 -0.6998
 8569SOL     OW37339   1.370   4.302  10.376  0.5773  0.6442  0.0035
 8569SOL    HW137340   1.364   4.275  10.284 -0.8465 -1.3404  0.6802
 8569SOL    HW237341   1.326   4.385  10.361 -1.1484 -0.7613 -2.7019
 8570SOL     OW37342   2.024   3.641   3.203 -0.3153 -0.0032  0.9193
 8570SOL    HW137343   2.051   3.730   3.181  3.7568 -1.6534 -0.7465
 8570SOL    HW237344   2.087   3.583   3.161  0.0678  0.2977  1.0756
 8571SOL     OW37345   0.100   0.024   2.696 -0.1101 -0.0995 -0.5494
 8571SOL    HW137346   0.161   0.049   2.626 -0.0658  0.4296 -0.3209
 8571SOL    HW237347   0.162   4.735   2.764 -0.7674  0.4068  0.2456
 8572SOL     OW37348   4.421   4.177  15.025 -0.1179  0.0590  0.7005
 8572SOL    HW137349   4.470   4.107  15.068  2.0565  1.1706 -0.0231
 8572SOL    HW237350   4.485   4.241  14.996  1.5620 -2.0760 -0.3412
 8573SOL     OW37351   0.868   3.368  10.479  0.3443 -0.1503  0.3503
 8573SOL    HW137352   0.844   3.310  10.552 -1.3974 -0.4201 -0.4533
 8573SOL    HW237353   0.782   3.409  10.474  0.8430  0.7102 -1.2585
 8574SOL     OW37354   1.328   0.540   6.048 -0.3762 -0.2703  0.2638
 8574SOL    HW137355   1.297   0.579   6.129  1.5892 -0.1790  0.9754
 8574SOL    HW237356   1.378   0.466   6.084  2.6842  1.0342 -1.2710
 8575SOL     OW37357   3.671   1.135   3.036 -0.2246 -0.1165 -0.2714
 8575SOL    HW137358   3.620   1.087   3.101  0.7051 -0.2093  0.4005
 8575SOL    HW237359   3.620   1.127   2.956 -1.4226  1.1448  0.3711
 8576SOL     OW37360   4.361   4.579  10.100  0.3490  0.4534  0.1098
 8576SOL    HW137361   4.406   4.661  10.080 -2.3226  2.3400  1.8414
 8576SOL    HW237362   4.386   4.570  10.192 -0.2757  1.9843  0.4217
 8577SOL     OW37363   2.580   2.549   9.438  0.1038  0.2720 -0.3094
 8577SOL    HW137364   2.571   2.471   9.384  0.6373  0.4447 -0.6396
 8577SOL    HW237365   2.568   2.507   9.523 -0.7578  1.4463  0.1516
 8578SOL     OW37366   0.704   3.421   5.783  0.1565  0.3663  0.1891
 8578SOL    HW137367   0.638   3.373   5.733  0.2679  1.3381 -0.8682
 8578SOL    HW237368   0.665   3.421   5.871  1.9442  1.2231  0.9674
 8579SOL     OW37369   3.373   0.986   3.530  0.2458  0.0050  0.6309
 8579SOL    HW137370   3.369   1.081   3.519  2.3669 -0.2822 -2.7125
 8579SOL    HW237371   3.295   0.967   3.582  0.2172  0.6011  0.7997
 8580SOL     OW37372   4.507   1.390   8.046 -0.7815 -0.4606 -0.0708
 8580SOL    HW137373   4.600   1.389   8.066 -1.0663 -2.8755  1.1809
 8580SOL    HW237374   4.487   1.308   8.092  0.6354  0.2620  1.7965
 8581SOL     OW37375   0.912   1.073   4.987 -0.0677  0.8495  0.1170
 8581SOL    HW137376   0.880   0.991   5.024 -0.8293  0.9748 -0.2647
 8581SOL    HW237377   0.934   1.051   4.897  1.1475 -0.6970  0.7932
 8582SOL     OW37378   2.852   0.603  11.940  0.2986  0.0328 -0.7411
 8582SOL    HW137379   2.773   0.549  11.944 -0.0881  0.8525  2.4657
 8582SOL    HW237380   2.897   0.558  11.869  0.9342 -1.3525  0.5479
 8583SOL     OW37381   4.323   1.372  10.952 -0.2850  0.3812  0.1089
 8583SOL    HW137382   4.240   1.324  10.943 -1.0899  1.6975  0.4539
 8583SOL    HW237383   4.303   1.444  11.012  1.5672  0.8713  0.1217
 8584SOL     OW37384   0.678   2.972  14.883 -0.1600 -0.4724 -0.8929
 8584SOL    HW137385   0.714   2.944  14.799  2.8222 -1.0142  0.5501
 8584SOL    HW237386   0.754   2.989  14.939 -0.6426 -1.3393  0.0131
 8585SOL     OW37387   2.449   1.712   3.735  0.1613 -0.2993  0.4173
 8585SOL    HW137388   2.439   1.788   3.677  0.4997  0.9075  1.9382
 8585SOL    HW237389   2.476   1.644   3.674 -4.4698 -0.6040 -1.2686
 8586SOL     OW37390   2.394   0.726   8.978 -0.9082  0.0064 -0.0917
 8586SOL    HW137391   2.383   0.721   8.883  1.0175 -1.2030 -0.2498
 8586SOL    HW237392   2.431   0.811   9.002 -0.2766 -0.3510  0.1767
 8587SOL     OW37393   0.805   2.803   0.219  0.6682  0.2176  0.0330
 8587SOL    HW137394   0.771   2.791   0.131 -0.1739  1.3166  0.2151
 8587SOL    HW237395   0.770   2.722   0.257 -0.7587  0.6103 -0.4741
 8588SOL     OW37396   1.679   3.780   8.738  0.1869 -0.3572 -0.0186
 8588SOL    HW137397   1.669   3.686   8.718  0.0979 -0.6928  1.6106
 8588SOL    HW237398   1.661   3.809   8.648 -1.4418 -0.6460  0.2061
 8589SOL     OW37399   3.440   0.868   8.044  0.8775 -0.2674  0.1353
 8589SOL    HW137400   3.532   0.847   8.028  0.0649 -2.5918 -1.5345
 8589SOL    HW237401   3.432   0.825   8.130 -0.5113 -0.1074  0.0750
 8590SOL     OW37402   3.430   2.510   2.228  0.2417  0.3884  0.3655
 8590SOL    HW137403   3.442   2.604   2.245  1.5055  0.2243  0.4240
 8590SOL    HW237404   3.513   2.466   2.248  0.3519  0.9113  1.0490
 8591SOL     OW37405   4.710   2.243   4.931 -0.1319 -0.5780 -0.1032
 8591SOL    HW137406   4.703   2.334   4.960  2.8270  0.0009 -1.1326
 8591SOL    HW237407   4.702   2.196   5.014 -0.9611  0.5530  0.4635
 8592SOL     OW37408   2.063   3.677  14.987  0.8368 -0.2301  0.8476
 8592SOL    HW137409   2.092   3.763  15.019 -1.7954  1.5740 -1.5983
 8592SOL    HW237410   2.146   3.633  15.005 -0.2509 -0.7508  4.6033
 8593SOL     OW37411   2.994   0.269   1.677 -0.1337  0.5703  0.2475
 8593SOL    HW137412   3.083   0.237   1.691 -0.2582 -0.5614 -1.6142
 8593SOL    HW237413   2.953   0.183   1.664  0.6564  0.1997  0.2259
 8594SOL     OW37414   3.879   2.757   3.733 -0.5563  0.3658  0.3251
 8594SOL    HW137415   3.808   2.736   3.672 -0.5095 -0.6659  0.6208
 8594SOL    HW237416   3.922   2.830   3.688  0.9532 -1.4947 -1.2044
 8595SOL     OW37417   1.198   0.613  10.950 -0.0967 -0.7284 -0.1330
 8595SOL    HW137418   1.230   0.700  10.927  3.4353 -1.9566  0.0734
 8595SOL    HW237419   1.281   0.585  10.989  0.3793  0.8613  0.0081
 8596SOL     OW37420   2.451   2.365  10.582  0.2581 -0.1479 -0.1432
 8596SOL    HW137421   2.481   2.352  10.492  2.4643 -0.4435  0.6203
 8596SOL    HW237422   2.456   2.457  10.608  0.1750 -0.0870 -0.3469
 8597SOL     OW37423   4.070   1.316   4.065  0.0535 -0.4910 -0.1293
 8597SOL    HW137424   3.987   1.351   4.032  1.1938  2.2000 -0.0873
 8597SOL    HW237425   4.053   1.222   4.058 -0.1240 -0.5251  0.8036
 8598SOL     OW37426   0.710   0.706   3.568  0.8053 -0.1208 -0.5195
 8598SOL    HW137427   0.696   0.677   3.658  0.6716 -2.6326 -1.3653
 8598SOL    HW237428   0.742   0.795   3.587 -2.1242  0.7798  0.2217
 8599SOL     OW37429   3.582   4.010  16.945  0.5626 -0.9057  0.0245
 8599SOL    HW137430   3.544   4.034  16.861  0.9596  1.6862  0.5647
 8599SOL    HW237431   3.506   3.977  16.992 -0.4344 -0.3895 -1.2275
 8600SOL     OW37432   3.016   4.584   6.429  0.0051 -0.1354  0.0110
 8600SOL    HW137433   2.951   4.536   6.378 -3.0784  3.9079  0.1642
 8600SOL    HW237434   2.967   4.665   6.440  0.4413  0.1864 -0.4490
 8601SOL     OW37435   2.701   0.125   2.377  0.4979  0.2892  0.2930
 8601SOL    HW137436   2.756   0.184   2.428  0.7451 -1.9894  2.6429
 8601SOL    HW237437   2.768   0.100   2.313 -0.6869 -1.4595 -0.2543
 8602SOL     OW37438   0.052   4.246  11.600  0.1327 -0.9632 -0.4715
 8602SOL    HW137439   0.002   4.271  11.678 -0.0854  2.7098 -1.7762
 8602SOL    HW237440   0.084   4.159  11.622  1.3324 -1.0110 -2.3515
 8603SOL     OW37441   4.417   4.480   0.420 -0.5653  0.0619 -0.1084
 8603SOL    HW137442   4.436   4.475   0.514 -1.0435 -1.7471 -0.0960
 8603SOL    HW237443   4.398   4.386   0.413 -1.6013  0.1825  1.0511
 8604SOL     OW37444   2.383   1.418  17.341 -0.1289  0.2998  0.1548
 8604SOL    HW137445   2.300   1.388  17.378  0.1494  0.4962  0.9431
 8604SOL    HW237446   2.377   1.386  17.251  0.3759  1.1590 -0.1819
 8605SOL     OW37447   4.519   4.032   2.782  0.2229  0.4086  0.0902
 8605SOL    HW137448   4.433   4.063   2.812  0.4860  1.7608 -0.5467
 8605SOL    HW237449   4.573   4.010   2.857 -0.0593  2.5854  0.9319
 8606SOL     OW37450   2.152   0.532   9.494 -0.5745 -0.9503 -0.2051
 8606SOL    HW137451   2.098   0.456   9.512  0.5566 -1.6917  0.0442
 8606SOL    HW237452   2.085   0.598   9.476 -1.5795 -1.6778  0.8780
 8607SOL     OW37453   2.843   4.531   5.660  0.4546 -0.2157  0.3439
 8607SOL    HW137454   2.882   4.523   5.573  0.0328  0.4832  0.0870
 8607SOL    HW237455   2.923   4.543   5.711 -0.6266  2.0530  1.4989
 8608SOL     OW37456   1.675   0.022  11.795 -0.0001  0.0142  0.6037
 8608SOL    HW137457   1.671   4.673  11.756  0.2838  1.2961 -2.3379
 8608SOL    HW237458   1.632   0.079  11.731 -0.1328 -1.4407 -0.6088
 8609SOL     OW37459   0.460   0.311   8.464 -0.0008  0.0925 -0.0562
 8609SOL    HW137460   0.408   0.366   8.407 -1.1296  0.0532  0.9196
 8609SOL    HW237461   0.422   0.223   8.464 -0.4507  0.2825  1.3188
 8610SOL     OW37462   4.502   0.534   8.957 -0.2046  0.0111 -0.3256
 8610SOL    HW137463   4.489   0.542   8.862  0.3973 -1.1998 -0.5193
 8610SOL    HW237464   4.568   0.465   8.962 -1.1084 -0.7377  1.1181
 8611SOL     OW37465   2.232   0.902   3.092  0.5426  0.8609  0.4089
 8611SOL    HW137466   2.233   0.910   2.997 -0.4990 -0.4034  0.2959
 8611SOL    HW237467   2.320   0.868   3.109  0.8891  2.3354  1.5629
 8612SOL     OW37468   2.159   1.404   7.487 -0.1669 -0.7114  0.5977
 8612SOL    HW137469   2.237   1.409   7.543 -0.0621  2.1355  0.1931
 8612SOL    HW237470   2.198   1.392   7.400 -2.0982 -2.0526 -0.0790
 8613SOL     OW37471   1.337   4.633   7.053 -0.0263 -0.3128 -0.2027
 8613SOL    HW137472   1.353   4.607   7.143 -2.0604 -0.6963  0.0483
 8613SOL    HW237473   1.427   4.633   7.019  0.0862  0.5913  0.0839
 8614SOL     OW37474   3.371   0.812  16.782  0.0040 -0.0831  0.4098
 8614SOL    HW137475   3.378   0.907  16.793 -1.2085 -0.0756  1.0699
 8614SOL    HW237476   3.393   0.798  16.690 -1.1688  0.5835  0.0357
 8615SOL     OW37477   2.782   3.491   4.241  0.6162  0.1451  0.4883
 8615SOL    HW137478   2.861   3.543   4.253 -1.2064  2.7802  0.9622
 8615SOL    HW237479   2.802   3.438   4.164 -2.6665 -1.6739  0.9033
 8616SOL     OW37480   0.699   4.269   0.667  0.5141  0.4502  0.0839
 8616SOL    HW137481   0.706   4.179   0.636  0.7888  0.2048  0.8622
 8616SOL    HW237482   0.676   4.312   0.585  1.7895  2.1646  0.6218
 8617SOL     OW37483   0.236   1.681   6.700  0.1387  0.6292  0.4714
 8617SOL    HW137484   0.222   1.672   6.606  0.6302 -0.4949  0.5145
 8617SOL    HW237485   0.257   1.594   6.733 -0.9056 -0.0038 -0.5088
 8618SOL     OW37486   3.755   2.497   8.006 -0.1884  0.3194  0.3782
 8618SOL    HW137487   3.848   2.513   8.019  0.0181 -2.0195  1.6789
 8618SOL    HW237488   3.748   2.414   8.054  2.4437  0.3573  0.7961
 8619SOL     OW37489   1.799   4.125   2.004 -0.0581 -0.2897  0.1929
 8619SOL    HW137490   1.821   4.040   2.042 -0.4838 -0.8808 -0.8894
 8619SOL    HW237491   1.819   4.107   1.913 -2.7060 -1.8434 -0.0935
 8620SOL     OW37492   3.407   2.833   8.067 -0.1024  0.1221 -0.2214
 8620SOL    HW137493   3.313   2.827   8.047 -0.5888  1.2893  1.6637
 8620SOL    HW237494   3.429   2.900   8.002  2.0514  0.3741  0.7690
 8621SOL     OW37495   3.310   0.079  16.561  0.3196 -0.0327  0.5404
 8621SOL    HW137496   3.308   0.174  16.571  1.2786 -0.0570  0.9116
 8621SOL    HW237497   3.392   0.070  16.513  0.4996 -2.7110  1.3242
 8622SOL     OW37498   4.138   4.457   2.395 -0.2693  0.3327 -0.0010
 8622SOL    HW137499   4.141   4.545   2.433 -1.3832  0.7533 -0.8969
 8622SOL    HW237500   4.232   4.437   2.402 -0.4768 -0.9885 -0.9790
 8623SOL     OW37501   2.724   3.217   3.580  0.0588  0.0925  0.2106
 8623SOL    HW137502   2.744   3.246   3.668  1.2816 -1.1815  0.3587
 8623SOL    HW237503   2.791   3.259   3.526 -0.4508  1.0049  0.2891
 8624SOL     OW37504   0.193   1.814   1.284 -0.1158  0.0031  0.1924
 8624SOL    HW137505   0.205   1.801   1.191 -1.1355  1.5156 -0.1598
 8624SOL    HW237506   0.203   1.908   1.300 -0.7929  0.2504 -0.8993
 8625SOL     OW37507   3.059   1.697   5.203  0.0271  0.4167 -0.0447
 8625SOL    HW137508   2.980   1.715   5.254  1.5217 -1.9626  3.0972
 8625SOL    HW237509   3.112   1.686   5.281 -1.0116 -3.3612  0.1594
 8626SOL     OW37510   0.115   3.597   4.630 -0.3719  0.0971  0.3163
 8626SOL    HW137511   0.083   3.570   4.717 -1.7905  1.2400  0.1593
 8626SOL    HW237512   0.034   3.625   4.586  0.0506  0.6964 -0.0699
 8627SOL     OW37513   1.703   3.412   4.297 -0.3161 -0.7121 -0.0540
 8627SOL    HW137514   1.663   3.462   4.226 -2.3746 -1.2435  0.7379
 8627SOL    HW237515   1.697   3.325   4.258 -1.8693 -0.9857  0.8034
 8628SOL     OW37516   3.567   0.722   4.352 -0.0832 -0.5726 -0.4531
 8628SOL    HW137517   3.573   0.663   4.427 -0.2730 -0.5053 -0.3856
 8628SOL    HW237518   3.558   0.808   4.393  0.1600 -1.8783  2.3438
 8629SOL     OW37519   3.484   2.351   8.561 -0.1673  0.3450 -0.1419
 8629SOL    HW137520   3.549   2.361   8.491 -0.2363  0.3482 -0.2066
 8629SOL    HW237521   3.529   2.409   8.621 -1.0373  1.7000 -0.7951
 8630SOL     OW37522   2.781   0.595   5.351  0.6464 -0.2617  0.1416
 8630SOL    HW137523   2.722   0.570   5.422  1.1217  0.0211  0.6380
 8630SOL    HW237524   2.863   0.595   5.401  0.3979 -1.6237  0.5689
 8631SOL     OW37525   3.864   4.123   7.861  0.1053 -0.7939  0.9667
 8631SOL    HW137526   3.911   4.197   7.899  0.8430 -0.0683 -1.3623
 8631SOL    HW237527   3.772   4.132   7.887 -0.3417  1.5429 -1.4337
 8632SOL     OW37528   3.627   2.293   8.866 -0.3022  0.2759  0.5838
 8632SOL    HW137529   3.625   2.351   8.942 -0.5679  0.0566  0.7410
 8632SOL    HW237530   3.715   2.310   8.831 -0.0173 -0.4346  0.9638
 8633SOL     OW37531   1.305   2.456  17.024 -0.1190 -0.2066  0.0011
 8633SOL    HW137532   1.219   2.418  17.005  0.9733 -2.8368  0.2438
 8633SOL    HW237533   1.286   2.547  17.000 -0.0987 -0.4586 -1.0054
 8634SOL     OW37534   1.433   1.198   3.844  0.0971 -0.1764 -0.4650
 8634SOL    HW137535   1.370   1.235   3.782  0.1142 -2.8732 -2.0684
 8634SOL    HW237536   1.499   1.267   3.852 -1.8300  1.6306 -0.0964
 8635SOL     OW37537   3.910   4.310   8.407 -0.0306  0.3974  0.2768
 8635SOL    HW137538   3.906   4.242   8.340  2.5343 -0.7437  1.3081
 8635SOL    HW237539   4.004   4.323   8.413  0.1413  0.3810 -2.2722
 8636SOL     OW37540   0.157   4.027   5.804  0.0792  0.5144 -0.3063
 8636SOL    HW137541   0.150   4.063   5.716 -1.7718  0.5385 -0.1530
 8636SOL    HW237542   0.212   4.096   5.842  1.1804 -0.9049  0.6709
 8637SOL     OW37543   3.028   3.627   6.634  0.3769 -0.1027 -0.0590
 8637SOL    HW137544   3.014   3.533   6.625 -0.5234  0.0433 -0.1881
 8637SOL    HW237545   3.123   3.622   6.624  0.6247 -0.9016  2.4881
 8638SOL     OW37546   0.217   0.606   4.801 -0.1268  0.5860  0.2051
 8638SOL    HW137547   0.279   0.603   4.729  1.2543  3.1930  1.2587
 8638SOL    HW237548   0.263   0.573   4.879 -0.3642  1.7091  0.8280
 8639SOL     OW37549   2.914   1.900   7.909  0.1382 -0.4126  0.3315
 8639SOL    HW137550   2.922   1.921   8.002 -0.4144  1.2642 -0.0063
 8639SOL    HW237551   2.821   1.915   7.896  0.4348  2.7581  1.8987
 8640SOL     OW37552   2.316   1.596   7.209  0.3171  0.2268 -0.1370
 8640SOL    HW137553   2.352   1.578   7.296 -0.4274  0.5742  0.2459
 8640SOL    HW237554   2.300   1.509   7.174  0.6705 -0.1426  0.6230
 8641SOL     OW37555   2.755   2.900  11.659  0.2103 -0.6507  0.4464
 8641SOL    HW137556   2.802   2.844  11.721  2.1490  1.3779  0.8155
 8641SOL    HW237557   2.717   2.845  11.590  0.1588 -0.2113  0.1262
 8642SOL     OW37558   2.108   2.526   1.023  0.3488 -0.5012  0.3304
 8642SOL    HW137559   2.018   2.538   1.053  0.2988  1.7584 -0.7727
 8642SOL    HW237560   2.112   2.579   0.944 -0.8780 -0.8580  0.0215
 8643SOL     OW37561   4.632   3.489   7.861 -0.2882  0.4566 -0.3460
 8643SOL    HW137562   4.600   3.579   7.862  0.0838  0.5984 -1.0105
 8643SOL    HW237563   4.566   3.439   7.812  2.4031 -1.1222 -2.3908
 8644SOL     OW37564   0.436   2.249  14.856  0.3571  0.0351 -0.0700
 8644SOL    HW137565   0.427   2.282  14.946 -1.8608  1.1099 -0.7078
 8644SOL    HW237566   0.345   2.237  14.830 -0.2223  0.4976  1.7432
 8645SOL     OW37567   2.363   4.133   7.286  0.4872 -0.1039 -0.6418
 8645SOL    HW137568   2.381   4.163   7.376 -1.2772 -0.5625 -0.1399
 8645SOL    HW237569   2.280   4.089   7.302 -0.4592  3.0788  3.2212
 8646SOL     OW37570   3.008   2.007   2.464 -0.6968 -0.5380  0.2604
 8646SOL    HW137571   3.044   1.926   2.426  2.1743  1.6782 -1.7599
 8646SOL    HW237572   2.915   1.995   2.448 -0.5755  0.1372 -1.0083
 8647SOL     OW37573   2.851   4.147  13.650 -0.2640 -0.0309  0.4351
 8647SOL    HW137574   2.846   4.220  13.588 -1.1051 -0.9332 -0.5668
 8647SOL    HW237575   2.846   4.072  13.591 -0.3001  0.4724 -0.1963
 8648SOL     OW37576   1.735   0.947   7.533 -0.6732  0.5098  0.4893
 8648SOL    HW137577   1.800   0.920   7.468 -0.8046 -2.6618  1.6542
 8648SOL    HW237578   1.670   0.987   7.475  0.4145  0.1231 -0.9989
 8649SOL     OW37579   1.917   2.243   4.798  0.8138  0.3203 -0.2344
 8649SOL    HW137580   1.867   2.198   4.865  0.9833 -0.0449 -0.3545
 8649SOL    HW237581   1.988   2.280   4.852  0.8337 -2.2129  1.4496
 8650SOL     OW37582   2.535   2.499   0.275 -0.8042 -0.1072  0.1382
 8650SOL    HW137583   2.549   2.474   0.183 -0.7609 -0.7883  0.3257
 8650SOL    HW237584   2.609   2.455   0.317 -0.5424  0.4518  0.2559
 8651SOL     OW37585   2.971   0.724   6.580 -0.4688 -0.3007  0.0405
 8651SOL    HW137586   2.879   0.738   6.604 -0.0121  1.0230  0.9925
 8651SOL    HW237587   3.002   0.710   6.670  0.8854 -2.3575 -0.7611
 8652SOL     OW37588   0.751   3.597  10.199  0.1567 -0.2517  0.2290
 8652SOL    HW137589   0.782   3.646  10.123  0.8322  0.2445  0.8193
 8652SOL    HW237590   0.824   3.536  10.209 -0.4272 -0.8363  0.9385
 8653SOL     OW37591   2.670   2.648   2.286 -0.1172  0.0044  0.0452
 8653SOL    HW137592   2.739   2.591   2.253 -1.9355 -1.3190 -1.4327
 8653SOL    HW237593   2.646   2.613   2.371  2.1562 -0.6468  0.4292
 8654SOL     OW37594   4.674   2.225  14.881  0.0361  0.3079 -0.4876
 8654SOL    HW137595   0.009   2.191  14.933 -1.6703  0.6931  2.1500
 8654SOL    HW237596   4.700   2.315  14.861  2.6007 -0.0481  1.2383
 8655SOL     OW37597   2.117   1.978   0.560 -0.0438  0.4487  0.1735
 8655SOL    HW137598   2.084   1.938   0.480 -0.7801  0.6736  0.3582
 8655SOL    HW237599   2.042   2.025   0.597  0.5966  0.5306  1.3768
 8656SOL     OW37600   2.120   3.440  17.161  0.1725 -0.0012 -0.0703
 8656SOL    HW137601   2.163   3.509  17.111 -0.0376 -0.4266 -0.8417
 8656SOL    HW237602   2.037   3.431  17.113  0.7505  0.0693 -1.0781
 8657SOL     OW37603   1.550   0.464  15.940 -0.0621  0.2732  0.0268
 8657SOL    HW137604   1.507   0.476  15.855 -0.4909  0.0385  0.2128
 8657SOL    HW237605   1.555   0.554  15.974 -1.6025  1.5508 -3.1135
 8658SOL     OW37606   0.606   4.035   1.309 -0.0538 -0.3230 -0.2950
 8658SOL    HW137607   0.574   4.072   1.391  0.0450 -0.6119 -0.1248
 8658SOL    HW237608   0.530   4.062   1.256  0.0533 -1.0255 -0.8068
 8659SOL     OW37609   1.017   4.380  10.287 -0.1011  0.3822 -0.2709
 8659SOL    HW137610   0.930   4.355  10.317 -0.3389  4.2139  2.1965
 8659SOL    HW237611   1.049   4.296  10.254 -0.8891 -0.9340  2.2615
 8660SOL     OW37612   2.343   3.920   4.369  0.4271 -0.0155  0.2509
 8660SOL    HW137613   2.404   3.990   4.345 -0.7874  1.0510  0.2509
 8660SOL    HW237614   2.263   3.971   4.381  0.0263 -0.9741  1.5857
 8661SOL     OW37615   0.187   1.328   4.046 -0.1192 -0.1601 -0.2126
 8661SOL    HW137616   0.179   1.274   3.967  1.5875  1.7329 -1.6532
 8661SOL    HW237617   0.179   1.411   3.999  0.5653  1.6289  2.8138
 8662SOL     OW37618   0.358   4.529  10.391  0.5467 -0.1028  0.7756
 8662SOL    HW137619   0.290   4.521  10.458 -0.6106  0.4950 -0.3262
 8662SOL    HW237620   0.395   4.441  10.389  0.3353 -0.2291  2.2204
 8663SOL     OW37621   0.790   1.214  15.876  0.0488 -0.3066 -0.1057
 8663SOL    HW137622   0.756   1.137  15.832  0.7742 -1.8052  1.9578
 8663SOL    HW237623   0.723   1.281  15.864  0.5605  0.2132 -0.0736
 8664SOL     OW37624   3.625   3.173   8.430  0.1678 -0.0880  0.2398
 8664SOL    HW137625   3.709   3.128   8.423  0.4953  0.3453  1.4621
 8664SOL    HW237626   3.573   3.116   8.374  0.6454 -0.7606  0.4804
 8665SOL     OW37627   2.749   4.725   4.796 -0.8361  0.2962  0.1622
 8665SOL    HW137628   2.782   4.712   4.707 -0.5491 -0.1476  0.3340
 8665SOL    HW237629   2.661   4.689   4.792  0.3138 -2.5177  0.4818
 8666SOL     OW37630   3.000   2.943   3.096 -0.2041  0.6719  0.0691
 8666SOL    HW137631   3.075   2.914   3.148  0.5974  2.0543 -0.3069
 8666SOL    HW237632   3.015   2.887   3.020  0.5330  0.4063  0.4086
 8667SOL     OW37633   1.053   0.176   8.700 -0.1349  0.2552  0.0122
 8667SOL    HW137634   1.053   0.123   8.620 -0.3229  0.9725 -0.4676
 8667SOL    HW237635   0.967   0.171   8.741 -0.7112  3.8107 -0.7614
 8668SOL     OW37636   1.722   3.205   1.469 -0.0785  0.4485  0.3802
 8668SOL    HW137637   1.700   3.277   1.529 -1.6969  2.2892 -2.4118
 8668SOL    HW237638   1.694   3.129   1.519 -0.4984  0.4379  0.1272
 8669SOL     OW37639   2.736   1.339   2.286 -0.0006 -0.2358 -0.8255
 8669SOL    HW137640   2.735   1.251   2.248 -0.0899 -0.1747 -0.9688
 8669SOL    HW237641   2.692   1.387   2.215  0.2999 -0.7897 -1.3804
 8670SOL     OW37642   2.096   2.207   1.015  0.2690 -0.2549  0.1360
 8670SOL    HW137643   2.028   2.271   0.994  1.0169  0.0797 -1.2811
 8670SOL    HW237644   2.163   2.232   0.951  2.0746  1.1434  2.5557
 8671SOL     OW37645   3.455   0.624  11.518 -0.0765  0.2157 -0.2808
 8671SOL    HW137646   3.458   0.529  11.507 -1.0628  0.2241 -0.5927
 8671SOL    HW237647   3.523   0.643  11.582 -0.5731 -0.9359  0.5829
 8672SOL     OW37648   4.143   4.482   1.851 -0.3473  0.0010  0.0426
 8672SOL    HW137649   4.167   4.556   1.794  3.3460 -1.2857 -0.1024
 8672SOL    HW237650   4.216   4.420   1.849 -2.3585 -2.3223 -0.7210
 8673SOL     OW37651   0.218   0.352   1.754  0.6750  0.5270  0.8012
 8673SOL    HW137652   0.170   0.294   1.694  0.1107  2.2044 -0.3748
 8673SOL    HW237653   0.152   0.420   1.735 -0.4389 -1.5741 -2.9828
 8674SOL     OW37654   2.447   4.268   5.395 -0.2501 -0.0518 -0.4567
 8674SOL    HW137655   2.514   4.276   5.464 -0.6903  3.1358 -0.3919
 8674SOL    HW237656   2.378   4.328   5.425 -0.0313 -0.5041  0.9727
 8675SOL     OW37657   4.498   0.543   9.588  0.4152 -0.2101 -0.1258
 8675SOL    HW137658   4.415   0.580   9.618  1.3905  1.5326  0.4171
 8675SOL    HW237659   4.554   0.619   9.597  0.0508 -0.3690  3.5474
 8676SOL     OW37660   3.231   4.511  12.125  0.5944 -0.4871  0.2584
 8676SOL    HW137661   3.236   4.420  12.097  1.0032 -0.0406 -1.1223
 8676SOL    HW237662   3.298   4.513  12.194 -0.3479 -1.3264  1.2000
 8677SOL     OW37663   3.399   3.702   8.733  0.0431 -0.1665 -0.0043
 8677SOL    HW137664   3.356   3.616   8.736  0.8553 -0.5281  1.2436
 8677SOL    HW237665   3.477   3.701   8.787 -0.3987  2.0780  0.6550
 8678SOL     OW37666   1.442   3.025   2.865  0.5745  0.0444 -0.1280
 8678SOL    HW137667   1.534   3.036   2.887 -0.0124  0.4387  2.1005
 8678SOL    HW237668   1.445   2.934   2.896  2.9703  0.7886  1.8244
 8679SOL     OW37669   3.973   3.811   2.343 -0.2899  0.1819  0.7013
 8679SOL    HW137670   3.994   3.769   2.260 -0.6763 -1.2456  1.3337
 8679SOL    HW237671   3.965   3.730   2.393 -1.9172 -0.2597 -0.2912
 8680SOL     OW37672   4.564   4.110   7.319  0.3156  0.1020  0.3165
 8680SOL    HW137673   4.519   4.116   7.235  1.9339  3.0443 -0.3457
 8680SOL    HW237674   4.598   4.024   7.297  2.1928  1.0373 -0.4198
 8681SOL     OW37675   2.468   0.833   7.136 -0.0895 -0.0656  0.1531
 8681SOL    HW137676   2.502   0.858   7.222  0.5304  1.2835 -0.4842
 8681SOL    HW237677   2.406   0.904   7.116 -1.9342 -1.6748  0.2262
 8682SOL     OW37678   1.359   4.514   2.198  0.3458 -0.2460 -0.2338
 8682SOL    HW137679   1.371   4.492   2.106  0.8939 -0.6171 -0.0708
 8682SOL    HW237680   1.444   4.485   2.231 -0.0186  1.1480  1.9816
 8683SOL     OW37681   4.203   1.188  12.527  0.3979  0.2897  0.2855
 8683SOL    HW137682   4.205   1.113  12.468 -1.3316  1.5576 -1.4263
 8683SOL    HW237683   4.174   1.143  12.606 -0.1621 -1.3489 -0.8581
 8684SOL     OW37684   0.710   3.283   4.315 -0.5627 -0.1119  0.4409
 8684SOL    HW137685   0.618   3.285   4.341 -1.0391 -1.4221 -1.1103
 8684SOL    HW237686   0.714   3.194   4.280 -0.8205  0.0318  0.0492
 8685SOL     OW37687   0.823   3.796   2.198  0.6277  0.4464 -0.6028
 8685SOL    HW137688   0.917   3.813   2.186  1.0806 -0.4913  1.6695
 8685SOL    HW237689   0.812   3.714   2.150  0.3042 -0.3980  0.9096
 8686SOL     OW37690   3.197   0.033   3.515  0.2603  0.0294  0.3109
 8686SOL    HW137691   3.225   0.121   3.540  0.2797  0.9727 -3.0360
 8686SOL    HW237692   3.172   0.037   3.422  2.4324  0.3785 -0.2686
 8687SOL     OW37693   0.067   3.813  16.737  0.0784 -0.5087 -0.0698
 8687SOL    HW137694   0.132   3.752  16.703  0.5560  0.3157 -0.6248
 8687SOL    HW237695   0.018   3.840  16.659  1.2177  0.1070 -0.5689
 8688SOL     OW37696   1.552   1.606   1.155  0.2728  0.0160  0.6130
 8688SOL    HW137697   1.609   1.605   1.079 -1.4409 -0.2278 -0.6590
 8688SOL    HW237698   1.570   1.690   1.198 -0.6599  2.3436 -3.6116
 8689SOL     OW37699   3.203   3.661   6.932  0.2697 -0.3468 -0.2738
 8689SOL    HW137700   3.271   3.594   6.936 -0.9173 -1.4612  1.0669
 8689SOL    HW237701   3.230   3.703   6.850 -0.0944  1.5417  0.5561
 8690SOL     OW37702   0.511   2.891  15.273  0.1524 -0.6776  0.6584
 8690SOL    HW137703   0.522   2.802  15.308 -0.1688 -0.5056  1.1910
 8690SOL    HW237704   0.598   2.895  15.233 -0.8808 -0.7035 -1.6069
 8691SOL     OW37705   4.483   1.873   5.218  0.1394 -0.1409 -0.0766
 8691SOL    HW137706   4.414   1.824   5.265 -2.0680  2.7364 -0.3185
 8691SOL    HW237707   4.539   1.796   5.209  0.2548 -0.3162  2.1773
 8692SOL     OW37708   0.151   3.675  12.105 -0.5953 -0.2697 -0.0319
 8692SOL    HW137709   0.192   3.613  12.166  2.5891  1.6239 -0.2584
 8692SOL    HW237710   0.224   3.715  12.058 -2.2832  0.6595 -1.8884
 8693SOL     OW37711   2.000   2.732   3.724  0.3577 -0.0057  0.4094
 8693SOL    HW137712   1.940   2.663   3.696 -0.0278  0.9993 -1.2324
 8693SOL    HW237713   1.942   2.804   3.748  0.6274  0.5420 -0.5666
 8694SOL     OW37714   0.723   2.628   2.388 -0.2460  0.0911 -0.1965
 8694SOL    HW137715   0.748   2.705   2.439  0.8039 -2.1801  2.6625
 8694SOL    HW237716   0.706   2.578   2.467  0.4258 -0.4193 -0.3813
 8695SOL     OW37717   2.928   0.164   4.876 -0.1663  0.8761 -0.2231
 8695SOL    HW137718   2.840   0.131   4.892  0.1391 -0.8245 -2.0511
 8695SOL    HW237719   2.974   0.084   4.902  1.5274  0.9931 -2.8699
 8696SOL     OW37720   0.483   4.616   7.026 -0.4833 -0.0005  0.0526
 8696SOL    HW137721   0.389   4.613   7.009 -0.3498  0.1052 -0.6999
 8696SOL    HW237722   0.474   4.629   7.121  2.0122 -0.9538  0.4247
 8697SOL     OW37723   3.184   3.227   6.814 -0.9809 -0.2585 -0.4491
 8697SOL    HW137724   3.222   3.210   6.728 -1.6631  0.7777 -0.9485
 8697SOL    HW237725   3.245   3.294   6.845  1.1718 -3.0269  1.4127
 8698SOL     OW37726   1.362   4.596   5.111 -0.0244 -0.1061 -0.5457
 8698SOL    HW137727   1.309   4.529   5.155  0.9238  0.1336  0.9896
 8698SOL    HW237728   1.441   4.581   5.164  0.8910 -0.0104 -1.8880
 8699SOL     OW37729   2.702   0.104   8.270 -0.0298  0.2518  0.5819
 8699SOL    HW137730   2.644   0.094   8.345 -1.6829  1.3780 -0.5621
 8699SOL    HW237731   2.734   0.014   8.261 -0.1395  0.2462  0.2513
 8700SOL     OW37732   0.976   3.309   0.154 -0.5503 -0.0102  0.4731
 8700SOL    HW137733   0.946   3.225   0.189  1.4553 -0.1948  1.7595
 8700SOL    HW237734   0.894   3.357   0.149  0.6989  1.9711 -0.8290
 8701SOL     OW37735   1.979   0.157   7.383 -0.3955  0.1565 -0.1790
 8701SOL    HW137736   1.955   0.069   7.356 -1.2629  0.2491  0.3183
 8701SOL    HW237737   1.949   0.207   7.307 -0.7888  0.1589 -0.0227
 8702SOL     OW37738   3.651   1.001   7.028  0.0732  0.1620  0.0253
 8702SOL    HW137739   3.592   0.976   6.957  1.6593 -0.0564 -1.2108
 8702SOL    HW237740   3.733   1.015   6.981 -0.2804  0.0810 -0.6077
 8703SOL     OW37741   4.538   2.956   3.801 -0.0490  0.9206 -0.0166
 8703SOL    HW137742   4.596   3.030   3.818  1.4117 -0.1712 -0.3358
 8703SOL    HW237743   4.602   2.891   3.775 -0.1742  1.0292 -0.6194
 8704SOL     OW37744   2.718   4.269  14.520  0.5567 -0.4415 -0.0042
 8704SOL    HW137745   2.788   4.206  14.502  1.1162 -0.0537  0.7978
 8704SOL    HW237746   2.719   4.275  14.615 -1.7859 -3.7428  0.2467
 8705SOL     OW37747   4.592   0.726   8.015  0.0408 -0.6285  0.2550
 8705SOL    HW137748   4.499   0.713   7.998  0.3328 -1.4768 -0.7068
 8705SOL    HW237749   4.577   0.757   8.104 -2.1008 -1.2965  0.1212
 8706SOL     OW37750   4.185   0.425   0.409  0.1513 -0.2872  0.2915
 8706SOL    HW137751   4.257   0.470   0.366  0.6259 -1.4643 -0.1650
 8706SOL    HW237752   4.137   0.500   0.444 -0.9119 -0.5643 -0.5522
 8707SOL     OW37753   4.169   0.283   7.485  0.1960 -0.0054  0.1855
 8707SOL    HW137754   4.217   0.231   7.550  1.4133 -0.4015 -1.0110
 8707SOL    HW237755   4.106   0.321   7.546  0.3558  0.9736 -0.2663
 8708SOL     OW37756   3.261   3.018   1.016  0.0146  0.4060  0.4525
 8708SOL    HW137757   3.336   3.027   1.075  1.6570  1.6707 -1.8263
 8708SOL    HW237758   3.194   3.062   1.069 -2.3009 -1.0139 -1.2686
 8709SOL     OW37759   1.524   0.957   4.487  0.2199 -0.0597 -0.3741
 8709SOL    HW137760   1.475   1.025   4.441 -0.1524  1.6035  2.5039
 8709SOL    HW237761   1.568   0.929   4.407 -1.1865  0.4342 -1.3087
 8710SOL     OW37762   4.137   2.765   4.161  0.0478 -0.5635 -0.6266
 8710SOL    HW137763   4.115   2.766   4.254 -0.0718  0.0727 -0.6610
 8710SOL    HW237764   4.050   2.776   4.123  0.9023 -1.8318 -2.9333
 8711SOL     OW37765   1.116   2.951  13.489  0.5928 -0.1244  0.4790
 8711SOL    HW137766   1.068   3.032  13.473 -1.8115 -1.1704  2.4371
 8711SOL    HW237767   1.197   2.957  13.438  0.7869  1.5211  0.9717
 8712SOL     OW37768   0.479   2.215   2.824 -0.1529 -1.0414  0.2813
 8712SOL    HW137769   0.559   2.223   2.876  1.1940 -2.6646 -1.5382
 8712SOL    HW237770   0.417   2.201   2.896 -0.7414  0.3471  0.0623
 8713SOL     OW37771   3.947   3.924   3.395  0.2346  0.2527 -0.0185
 8713SOL    HW137772   3.974   3.881   3.476  1.6844  1.4307  0.1250
 8713SOL    HW237773   4.016   3.897   3.333 -1.7579  1.8602 -2.9388
 8714SOL     OW37774   0.981   1.657   6.663 -0.4470  0.1355  0.5986
 8714SOL    HW137775   0.905   1.664   6.606 -1.0195 -0.8576  1.2424
 8714SOL    HW237776   1.053   1.667   6.600 -0.3526 -0.9551  0.5239
 8715SOL     OW37777   0.599   2.603  11.845  0.2347  0.2674 -0.1936
 8715SOL    HW137778   0.662   2.629  11.778  0.3671  1.0022  0.2211
 8715SOL    HW237779   0.538   2.542  11.803 -0.4939  1.5757 -1.0526
 8716SOL     OW37780   3.577   4.659   9.602  0.3704 -0.0114 -0.3202
 8716SOL    HW137781   3.658   4.701   9.631  0.5065 -1.2644  1.0978
 8716SOL    HW237782   3.507   4.722   9.621  1.1144  1.2125 -1.6443
 8717SOL     OW37783   0.746   2.308  13.323 -0.3539 -0.0814  0.1347
 8717SOL    HW137784   0.720   2.242  13.387  2.1650  0.4909  1.7255
 8717SOL    HW237785   0.742   2.389  13.372  0.4344  0.6556 -1.0071
 8718SOL     OW37786   1.442   3.323   6.338  0.1760 -0.6902  0.7789
 8718SOL    HW137787   1.412   3.362   6.420 -1.0589 -0.4037  0.1812
 8718SOL    HW237788   1.530   3.288   6.353 -0.4027 -3.3101 -1.7734
 8719SOL     OW37789   0.143   0.307   6.692 -0.1153  0.5094 -0.0133
 8719SOL    HW137790   0.182   0.228   6.655 -0.0870  0.4666  0.1060
 8719SOL    HW237791   0.218   0.322   6.749  0.8129  2.9942 -1.8645
 8720SOL     OW37792   0.336   4.673   9.766  0.1602  0.3996  0.3784
 8720SOL    HW137793   0.299   4.614   9.831  0.8085 -0.7848 -0.3170
 8720SOL    HW237794   0.327   0.022   9.804  2.7110 -0.1809  2.2574
 8721SOL     OW37795   2.505   2.764   4.491 -0.2002 -0.3967 -0.0336
 8721SOL    HW137796   2.429   2.750   4.435  1.8697 -1.2963 -2.6148
 8721SOL    HW237797   2.578   2.723   4.445  2.0376  3.0520  0.4270
 8722SOL     OW37798   3.261   2.370   3.776  0.1732  0.5586 -0.0096
 8722SOL    HW137799   3.341   2.343   3.732  0.3822  0.6764  0.2987
 8722SOL    HW237800   3.227   2.435   3.715  0.3499 -0.4729 -1.2019
 8723SOL     OW37801   1.737   0.173   3.405  0.7192  0.0225 -0.1646
 8723SOL    HW137802   1.721   0.173   3.499  1.8421  0.6040  0.0231
 8723SOL    HW237803   1.691   0.254   3.381  0.1724  0.2156  1.5616
 8724SOL     OW37804   3.972   4.288   9.476 -0.4040 -0.0522 -0.1195
 8724SOL    HW137805   4.055   4.335   9.468 -0.7579  0.5033 -0.5520
 8724SOL    HW237806   4.005   4.236   9.550  3.5566  1.7802 -0.5881
 8725SOL     OW37807   2.259   2.387   1.229  0.5783 -0.1797  0.7228
 8725SOL    HW137808   2.249   2.463   1.286  1.7837  0.5258  0.0116
 8725SOL    HW237809   2.234   2.430   1.147 -0.8120 -1.4988  0.4440
 8726SOL     OW37810   2.206   2.359   3.134  0.3249 -0.0066 -0.1559
 8726SOL    HW137811   2.215   2.273   3.091  1.1022 -0.6829  1.3517
 8726SOL    HW237812   2.118   2.353   3.170  0.0565  0.8809 -0.6948
 8727SOL     OW37813   0.598   4.077  12.552 -0.1164 -0.2210 -0.1382
 8727SOL    HW137814   0.639   4.117  12.629  0.4865 -1.1095 -0.0024
 8727SOL    HW237815   0.658   4.002  12.553  0.1235 -0.0394 -1.0582
 8728SOL     OW37816   2.186   2.459   9.420  0.1613 -0.3554 -0.0100
 8728SOL    HW137817   2.255   2.515   9.455  0.4624  0.0935 -1.2980
 8728SOL    HW237818   2.228   2.375   9.435  1.9184  0.4052 -0.6034
 8729SOL     OW37819   1.740   1.747   2.966  0.2944 -0.2063  0.1474
 8729SOL    HW137820   1.762   1.835   2.935 -0.6023  0.3763  1.1343
 8729SOL    HW237821   1.667   1.728   2.908  0.2967 -0.2243  0.1504
 8730SOL     OW37822   1.458   4.152   4.275  0.4779 -0.2841  0.1738
 8730SOL    HW137823   1.547   4.156   4.241  0.6427 -0.4097  0.5803
 8730SOL    HW237824   1.407   4.172   4.197 -1.6164 -0.4310  1.4814
 8731SOL     OW37825   1.083   4.729   8.460 -0.1541  0.2874  0.1273
 8731SOL    HW137826   1.080   4.635   8.446 -1.2243  0.4435 -0.7694
 8731SOL    HW237827   0.988   0.005   8.456 -0.1583  0.5227  1.1144
 8732SOL     OW37828   4.656   0.627   2.186 -0.0463  0.3670  0.0298
 8732SOL    HW137829   4.704   0.553   2.223 -3.3159 -1.3620  0.8033
 8732SOL    HW237830   4.640   0.684   2.261  0.3630  0.0280  0.3739
 8733SOL     OW37831   0.264   4.434   3.211  0.2193 -0.6692 -0.0626
 8733SOL    HW137832   0.291   4.526   3.206 -0.7947 -0.3312  0.8364
 8733SOL    HW237833   0.251   4.411   3.119  0.2955 -0.5287 -0.1089
 8734SOL     OW37834   1.931   2.842  10.075 -0.2925 -1.1879  0.5784
 8734SOL    HW137835   1.896   2.754  10.090 -3.1518 -0.3676 -1.4742
 8734SOL    HW237836   1.966   2.861  10.162 -2.5106  1.6984  0.8008
 8735SOL     OW37837   2.151   3.012   0.181 -0.4494  0.2799  0.0926
 8735SOL    HW137838   2.213   2.996   0.109  0.3666  1.2821  0.5650
 8735SOL    HW237839   2.169   3.105   0.186 -1.8425  0.6285 -1.3577
 8736SOL     OW37840   3.050   2.494   5.624  0.0500 -0.3272  0.2863
 8736SOL    HW137841   3.044   2.458   5.713 -1.3126  1.8036  1.0417
 8736SOL    HW237842   3.143   2.478   5.606 -0.3572 -0.3287 -1.8906
 8737SOL     OW37843   0.841   2.568   3.802  0.2968 -0.7551 -0.1467
 8737SOL    HW137844   0.797   2.583   3.718  0.2027  1.3187  0.2815
 8737SOL    HW237845   0.824   2.474   3.805 -1.2070 -0.4782  0.2326
 8738SOL     OW37846   4.311   4.524  11.770  0.3408 -0.0156 -0.5198
 8738SOL    HW137847   4.395   4.570  11.779  0.7282 -1.0539  1.3658
 8738SOL    HW237848   4.322   4.502  11.678 -1.9104  0.3614 -0.8767
 8739SOL     OW37849   4.643   1.249   1.762  0.3267  0.5489  0.0370
 8739SOL    HW137850   4.628   1.193   1.686  0.3156  1.7723 -0.8612
 8739SOL    HW237851   4.568   1.240   1.819  1.4405 -1.4102  1.1712
 8740SOL     OW37852   2.868   2.110   3.495  0.8703  0.3323 -0.4662
 8740SOL    HW137853   2.894   2.054   3.568 -3.3225 -3.3338 -1.7670
 8740SOL    HW237854   2.936   2.096   3.429 -0.4237  1.0678 -1.9727
 8741SOL     OW37855   2.437   1.932   2.817  0.0721 -0.2032  0.3026
 8741SOL    HW137856   2.417   1.929   2.911  1.2807  0.0217  0.5634
 8741SOL    HW237857   2.525   1.968   2.811  1.1702 -2.4304  2.8292
 8742SOL     OW37858   3.314   3.820   9.345 -0.2235  0.1552 -0.4647
 8742SOL    HW137859   3.237   3.763   9.356  1.1386 -1.7108 -0.5944
 8742SOL    HW237860   3.368   3.762   9.292 -0.3072  0.7706 -1.2215
 8743SOL     OW37861   4.666   4.293   6.210 -0.7671 -0.6288 -0.6718
 8743SOL    HW137862   4.717   4.248   6.277  0.5202  0.2841 -1.0350
 8743SOL    HW237863   4.709   4.378   6.198 -2.2662  0.0816 -1.0202
 8744SOL     OW37864   3.008   0.797   8.695 -0.6586 -0.0799  0.4570
 8744SOL    HW137865   2.959   0.867   8.652  1.0464  0.3517 -0.7486
 8744SOL    HW237866   3.031   0.838   8.778 -1.8089  0.3746  0.5557
 8745SOL     OW37867   2.686   3.477   5.947  0.2761  0.3788 -0.1208
 8745SOL    HW137868   2.778   3.461   5.969  0.3745 -2.7616 -2.8980
 8745SOL    HW237869   2.664   3.388   5.922 -1.2389  1.0232 -1.1299
 8746SOL     OW37870   0.262   4.311  12.068  0.2577  0.3254  0.2224
 8746SOL    HW137871   0.190   4.369  12.043  3.2027  2.9579 -2.2114
 8746SOL    HW237872   0.336   4.371  12.057  2.7614 -2.6637  0.9293
 8747SOL     OW37873   2.917   2.342   7.577  0.6276 -0.1205 -0.3427
 8747SOL    HW137874   2.959   2.398   7.642 -1.3255  0.0614  0.7586
 8747SOL    HW237875   2.876   2.411   7.526  0.4697  2.0201  2.6514
 8748SOL     OW37876   0.018   3.429  11.509 -0.2202  1.0146 -0.1151
 8748SOL    HW137877   4.717   3.351  11.546 -0.0317  1.7988  1.7150
 8748SOL    HW237878   4.674   3.474  11.488 -0.1841  0.8715 -0.5777
 8749SOL     OW37879   2.984   3.085   1.757  0.7695 -0.0444  0.1725
 8749SOL    HW137880   3.048   3.037   1.706  0.6794 -0.7359  0.7043
 8749SOL    HW237881   2.938   3.008   1.790  0.4063 -0.3797 -1.1329
 8750SOL     OW37882   3.075   2.478   3.230 -0.2382  0.5800 -0.2915
 8750SOL    HW137883   3.161   2.504   3.263 -0.2244 -1.0548  0.9873
 8750SOL    HW237884   3.009   2.517   3.287 -1.6432 -3.1817  0.6672
 8751SOL     OW37885   4.291   2.440  16.542  0.4620 -0.2188  0.2065
 8751SOL    HW137886   4.333   2.500  16.604  1.4821  0.9424 -1.6030
 8751SOL    HW237887   4.206   2.481  16.559 -0.3889 -1.4554 -1.0783
 8752SOL     OW37888   1.263   3.745  14.090 -0.1848  0.1027 -0.3560
 8752SOL    HW137889   1.198   3.808  14.121  1.0128  0.0895  2.2249
 8752SOL    HW237890   1.304   3.796  14.020  1.7132  1.9386  2.0640
 8753SOL     OW37891   2.916   2.125  10.168  0.3409  0.3610 -0.3785
 8753SOL    HW137892   2.927   2.072  10.246  1.2763 -1.1685 -1.5484
 8753SOL    HW237893   3.008   2.138  10.147  0.2243  1.8616  0.0086
 8754SOL     OW37894   3.258   3.310   3.462  0.0046  0.5896 -0.4863
 8754SOL    HW137895   3.267   3.240   3.398 -1.5823  0.3434 -0.4383
 8754SOL    HW237896   3.345   3.347   3.478 -0.2354  0.4904  1.0692
 8755SOL     OW37897   2.500   2.893  14.416 -0.1689 -0.5731  0.1791
 8755SOL    HW137898   2.432   2.827  14.397  1.2956 -1.7349 -1.0849
 8755SOL    HW237899   2.549   2.896  14.334 -0.8785  1.6828 -0.1439
 8756SOL     OW37900   0.160   4.656   4.200  0.2870 -0.2115  0.1886
 8756SOL    HW137901   0.239   4.647   4.147 -0.7328  3.5270 -1.9726
 8756SOL    HW237902   0.119   4.571   4.185 -0.5276  0.2668 -0.3416
 8757SOL     OW37903   4.595   0.634  10.476 -0.9837 -0.1177 -0.5520
 8757SOL    HW137904   4.533   0.705  10.488 -0.0055  0.7843 -0.7671
 8757SOL    HW237905   4.672   0.682  10.506 -0.3813 -2.5187  1.7458
 8758SOL     OW37906   1.153   2.946   5.053  0.5809  0.2094  0.1905
 8758SOL    HW137907   1.117   3.029   5.021 -0.3872 -0.1217  0.4359
 8758SOL    HW237908   1.113   2.885   4.992  1.7302 -0.8911  0.5427
 8759SOL     OW37909   0.990   1.376   6.384  0.4170  0.4432  0.0692
 8759SOL    HW137910   1.004   1.307   6.319 -1.1822  0.0391  0.1734
 8759SOL    HW237911   0.957   1.323   6.456 -1.1904  0.9478 -0.3101
 8760SOL     OW37912   1.560   3.986   5.551 -0.3616  0.6166 -0.3403
 8760SOL    HW137913   1.507   3.910   5.577 -0.8905  1.0920 -0.0244
 8760SOL    HW237914   1.507   4.060   5.581 -0.1250  2.4547 -4.5399
 8761SOL     OW37915   3.654   2.583   0.414 -0.2674 -0.1577 -0.2904
 8761SOL    HW137916   3.616   2.500   0.389 -0.0755  0.0424 -1.2464
 8761SOL    HW237917   3.608   2.655   0.371  1.1261  0.2277 -1.1282
 8762SOL     OW37918   4.038   0.567   8.189  0.5050  0.1066 -0.0626
 8762SOL    HW137919   4.067   0.608   8.271 -0.6187 -1.4716  1.1177
 8762SOL    HW237920   4.113   0.510   8.171 -0.0270 -0.7508  0.4530
 8763SOL     OW37921   3.940   4.471   4.793  0.1038 -0.6511 -0.2134
 8763SOL    HW137922   4.035   4.463   4.784 -0.0727 -0.1075 -2.5127
 8763SOL    HW237923   3.921   4.377   4.791  1.4563 -0.9209 -0.0739
 8764SOL     OW37924   2.751   4.296  14.795 -0.2278 -1.1017  0.5740
 8764SOL    HW137925   2.838   4.324  14.824 -0.1907 -1.4861  0.8327
 8764SOL    HW237926   2.750   4.208  14.832  1.1000 -0.1920  2.7893
 8765SOL     OW37927   1.416   0.849   6.430 -0.0580  0.3909  0.5935
 8765SOL    HW137928   1.460   0.926   6.395  0.3167  0.0295  0.2728
 8765SOL    HW237929   1.351   0.898   6.479  1.1224  0.4871  2.0693
 8766SOL     OW37930   0.434   3.362   9.586  0.3453  0.2375  0.4436
 8766SOL    HW137931   0.425   3.293   9.652 -1.3399  0.1226  0.1140
 8766SOL    HW237932   0.424   3.442   9.637  0.4164  1.4123 -1.3595
 8767SOL     OW37933   1.093   0.436   6.694 -0.0035  0.0631  0.3266
 8767SOL    HW137934   1.057   0.524   6.703  0.9535  0.4440  0.4355
 8767SOL    HW237935   1.145   0.439   6.613  0.0857  2.8036  0.4940
 8768SOL     OW37936   1.790   0.702   6.588  0.5515 -0.0381 -0.2149
 8768SOL    HW137937   1.800   0.607   6.595  0.1550  0.0472  1.5698
 8768SOL    HW237938   1.837   0.705   6.504 -0.8885 -2.6723 -1.1206
 8769SOL     OW37939   0.869   3.276  10.094 -1.0829  0.7937 -0.2641
 8769SOL    HW137940   0.889   3.204  10.153 -4.5048  0.9369  1.0743
 8769SOL    HW237941   0.806   3.241  10.030  0.8442 -1.2325 -1.0516
 8770SOL     OW37942   2.647   3.595   4.826 -0.9615  0.0957 -0.3759
 8770SOL    HW137943   2.711   3.552   4.883  0.4555 -0.6642 -2.5399
 8770SOL    HW237944   2.567   3.543   4.830 -0.0354 -1.3229 -0.6196
 8771SOL     OW37945   1.000   2.919   7.277  0.0571 -0.0053 -0.2476
 8771SOL    HW137946   1.010   2.961   7.363  0.6267 -0.9081  0.1248
 8771SOL    HW237947   0.916   2.875   7.291  0.8230 -1.5128 -0.3878
 8772SOL     OW37948   4.382   2.178  16.824 -0.1783  0.6291  0.2662
 8772SOL    HW137949   4.340   2.092  16.811  0.6463  0.4614 -1.2498
 8772SOL    HW237950   4.303   2.225  16.849 -0.0844  1.5528 -1.1756
 8773SOL     OW37951   0.970   3.648   5.562 -0.1371 -0.1633 -0.2842
 8773SOL    HW137952   0.885   3.637   5.519 -0.5844 -1.1588  0.8612
 8773SOL    HW237953   0.965   3.588   5.637 -1.1011 -0.4431 -0.5658
 8774SOL     OW37954   1.400   2.315   2.400  0.3786 -0.0121  0.7685
 8774SOL    HW137955   1.464   2.244   2.397 -0.5192 -0.7909 -0.1598
 8774SOL    HW237956   1.456   2.388   2.426  1.0780 -0.2013 -0.2009
 8775SOL     OW37957   4.276   3.833   4.049  0.0090  0.0664  0.3040
 8775SOL    HW137958   4.292   3.755   4.101  0.5779  0.1476  0.2427
 8775SOL    HW237959   4.180   3.825   4.049  0.1175 -1.1544  1.2744
 8776SOL     OW37960   0.010   4.248   8.414 -0.0879 -0.1124 -0.2311
 8776SOL    HW137961   0.086   4.306   8.409 -1.3327  1.4831 -0.7092
 8776SOL    HW237962   0.041   4.177   8.470 -0.6880 -0.8476 -0.8367
 8777SOL     OW37963   4.426   1.730  15.830  0.0633  0.2970  0.4440
 8777SOL    HW137964   4.404   1.698  15.917  0.1091 -1.3502 -0.1573
 8777SOL    HW237965   4.402   1.653  15.778  0.2820  0.0156  0.7642
 8778SOL     OW37966   3.035   3.260   4.056 -0.1373 -0.7809 -0.4293
 8778SOL    HW137967   3.092   3.200   4.103 -1.9699 -1.2506  1.1467
 8778SOL    HW237968   2.948   3.233   4.086  0.1282  1.3627  2.2476
 8779SOL     OW37969   3.076   2.494   7.742 -0.4504  0.2845  0.0643
 8779SOL    HW137970   3.162   2.535   7.753 -1.0725  1.2355  1.3525
 8779SOL    HW237971   3.072   2.422   7.805  0.7647 -0.7418 -1.0261
 8780SOL     OW37972   1.303   2.058   1.373  0.2032 -0.1765 -0.1982
 8780SOL    HW137973   1.268   2.113   1.303 -1.1892  0.1842  0.7551
 8780SOL    HW237974   1.219   2.021   1.402  0.9461  0.2696  2.5207
 8781SOL     OW37975   0.466   4.155   2.559  0.0787 -0.0387 -0.1645
 8781SOL    HW137976   0.434   4.110   2.636 -0.6261  1.4614  0.4338
 8781SOL    HW237977   0.560   4.170   2.572  0.2607 -0.1980 -1.2519
 8782SOL     OW37978   4.057   3.430   3.952 -0.3907 -0.1193  0.2970
 8782SOL    HW137979   4.003   3.357   3.985  0.6399 -1.2725 -0.5695
 8782SOL    HW237980   3.983   3.490   3.948 -0.4060 -0.2709 -1.4496
 8783SOL     OW37981   3.736   0.880   8.222  0.3790 -0.4725 -0.3343
 8783SOL    HW137982   3.779   0.832   8.151  0.4448  0.0597 -0.6495
 8783SOL    HW237983   3.795   0.937   8.272 -0.7495  0.7163 -0.3644
 8784SOL     OW37984   0.484   4.685   6.738 -0.3249  0.3638 -0.0041
 8784SOL    HW137985   0.566   4.638   6.718 -1.0622 -1.0627  0.3291
 8784SOL    HW237986   0.497   4.702   6.832  1.5192  1.6448 -0.4677
 8785SOL     OW37987   2.582   3.182  17.284  0.1688 -0.0901  0.0018
 8785SOL    HW137988   2.567   3.095  17.247  0.4713 -0.9732  1.9980
 8785SOL    HW237989   2.657   3.210  17.232 -2.5383  1.7408 -2.9120
 8786SOL     OW37990   2.645   3.206   5.032 -0.3251 -0.3770 -0.2413
 8786SOL    HW137991   2.603   3.135   5.080  2.3832 -1.8492 -0.0298
 8786SOL    HW237992   2.625   3.197   4.939 -0.8394  0.8296 -0.2572
 8787SOL     OW37993   0.963   2.767   1.495 -0.8494  0.7847  0.7176
 8787SOL    HW137994   1.013   2.755   1.576 -0.5379 -0.3532  0.3492
 8787SOL    HW237995   1.008   2.699   1.445  0.7202  3.1420 -1.1080
 8788SOL     OW37996   1.544   1.624   4.099 -0.1452 -0.1597  0.4913
 8788SOL    HW137997   1.518   1.696   4.041 -2.2600 -0.3602  1.1766
 8788SOL    HW237998   1.463   1.604   4.146  0.7697  0.5534  2.3867
 8789SOL     OW37999   0.006   4.278   7.112  0.2197 -0.0428 -0.2587
 8789SOL    HW138000   4.680   4.213   7.143 -0.1504  0.0013 -0.9202
 8789SOL    HW238001   0.056   4.297   7.191 -0.0947  2.8184 -0.7503
 8790SOL     OW38002   2.558   3.183   7.102 -0.1363  0.3710  0.3398
 8790SOL    HW138003   2.616   3.159   7.029 -1.4821 -0.4003 -0.4873
 8790SOL    HW238004   2.475   3.140   7.079  0.6681 -1.0963  0.1799
 8791SOL     OW38005   4.485   3.451   8.840 -0.1446  0.2231  0.0332
 8791SOL    HW138006   4.535   3.470   8.760 -0.5003 -1.7125 -0.6551
 8791SOL    HW238007   4.551   3.428   8.906 -0.0436  0.5902  0.0597
 8792SOL     OW38008   2.105   4.487  14.764  0.3818 -0.0808  0.0355
 8792SOL    HW138009   2.109   4.515  14.673  2.7827 -0.5288  0.0134
 8792SOL    HW238010   2.169   4.416  14.765  0.8854  0.3272 -2.2385
 8793SOL     OW38011   2.510   2.632   6.897  0.2390 -0.4816  0.3945
 8793SOL    HW138012   2.451   2.707   6.894  1.7730  0.7404  0.8864
 8793SOL    HW238013   2.454   2.575   6.949 -1.1933  0.7204  0.1389
 8794SOL     OW38014   0.155   4.135  12.712  0.0548  0.3810  0.3904
 8794SOL    HW138015   0.230   4.102  12.662  0.6479 -0.6762  1.9888
 8794SOL    HW238016   0.138   4.218  12.667  0.9717  1.0738  1.3250
 8795SOL     OW38017   3.992   3.689   2.999  0.4066  0.1703 -0.1567
 8795SOL    HW138018   4.054   3.685   2.927 -1.0163 -1.1815 -1.3047
 8795SOL    HW238019   3.921   3.743   2.963 -1.6606 -2.3785  0.1123
 8796SOL     OW38020   1.462   0.881   9.163 -0.1884  0.3717 -0.2292
 8796SOL    HW138021   1.384   0.916   9.206  0.2455 -2.0870  2.5532
 8796SOL    HW238022   1.438   0.791   9.184  0.0324  0.7162  1.4664
 8797SOL     OW38023   0.256   2.758  16.574  0.1447 -0.2302 -0.0939
 8797SOL    HW138024   0.257   2.852  16.559  1.3740 -0.4726 -1.6076
 8797SOL    HW238025   0.176   2.727  16.531  0.7598 -0.5331 -1.0407
 8798SOL     OW38026   1.030   0.580  11.731  0.0269 -0.2119  0.2809
 8798SOL    HW138027   1.001   0.498  11.690 -0.5038  0.1393 -0.0448
 8798SOL    HW238028   0.987   0.644  11.675 -0.9620 -2.0954 -1.1364
 8799SOL     OW38029   3.302   4.061  16.529 -0.2927  0.4857 -0.1426
 8799SOL    HW138030   3.257   4.058  16.444 -0.2165  1.9080 -0.2248
 8799SOL    HW238031   3.249   3.997  16.576 -0.6721  2.5174  2.1764
 8800SOL     OW38032   1.544   1.583  10.270  0.4950 -0.2252  0.5883
 8800SOL    HW138033   1.525   1.514  10.207 -0.6241  1.8753 -1.3808
 8800SOL    HW238034   1.597   1.544  10.340 -0.0510  0.3149  1.3138
 8801SOL     OW38035   4.473   4.622  10.396 -0.4151  0.7295 -0.6270
 8801SOL    HW138036   4.465   4.532  10.429 -0.5701 -0.0459 -2.7252
 8801SOL    HW238037   4.536   4.664  10.455 -0.0305 -0.5708 -0.1064
 8802SOL     OW38038   3.661   2.497   3.434 -0.3299  0.6689 -0.5523
 8802SOL    HW138039   3.715   2.483   3.356 -0.4103  0.1331 -0.5114
 8802SOL    HW238040   3.724   2.456   3.493 -0.5665  1.2149  0.0880
 8803SOL     OW38041   1.094   2.606   6.693 -0.8717 -0.2552 -0.5792
 8803SOL    HW138042   1.043   2.591   6.772 -0.7447  2.0281 -0.0698
 8803SOL    HW238043   1.138   2.525   6.667 -0.3177 -0.8206  2.1302
 8804SOL     OW38044   0.392   2.770  16.835  0.2868 -0.6414  0.9208
 8804SOL    HW138045   0.393   2.776  16.739  0.5143 -1.9523  0.8361
 8804SOL    HW238046   0.298   2.758  16.852  0.2174 -0.6278  0.5586
 8805SOL     OW38047   3.904   1.176   7.303 -0.4116  0.5610 -0.1654
 8805SOL    HW138048   3.907   1.211   7.392  3.4976 -1.7736  0.6326
 8805SOL    HW238049   3.812   1.183   7.277 -0.3554 -0.6042 -0.7123
 8806SOL     OW38050   0.837   3.425   0.778  0.3486 -0.0783  0.1893
 8806SOL    HW138051   0.761   3.420   0.835 -0.7629  1.6893 -1.1487
 8806SOL    HW238052   0.907   3.432   0.843 -1.7234  1.2805  2.2596
 8807SOL     OW38053   1.012   2.381  16.974 -0.6787  1.0420 -0.5692
 8807SOL    HW138054   0.986   2.404  16.885  0.3237  1.7380 -0.6849
 8807SOL    HW238055   0.968   2.296  16.985 -1.1168  1.5129  1.2324
 8808SOL     OW38056   4.392   3.511   2.242  0.2053  0.3803  0.1494
 8808SOL    HW138057   4.423   3.590   2.198  1.2820  1.6071  3.1117
 8808SOL    HW238058   4.466   3.499   2.302 -0.3069  0.6458  0.8313
 8809SOL     OW38059   1.483   3.055   2.592  0.2963 -0.1492 -0.2526
 8809SOL    HW138060   1.426   2.994   2.545 -0.7431  0.3888  0.3085
 8809SOL    HW238061   1.446   3.040   2.679  1.6048  0.5574  0.4240
 8810SOL     OW38062   4.543   2.881   4.166 -0.4279  0.0804  0.1290
 8810SOL    HW138063   4.515   2.966   4.131 -0.3709  0.5933  1.3174
 8810SOL    HW238064   4.634   2.875   4.136 -0.3755  0.3785  0.2251
 8811SOL     OW38065   4.104   1.895   3.451 -0.2192 -0.2139  0.0534
 8811SOL    HW138066   4.193   1.865   3.430 -0.4431 -1.1145  0.3871
 8811SOL    HW238067   4.086   1.860   3.538  2.4807 -1.1696  0.2176
 8812SOL     OW38068   0.474   2.045   1.591  0.0023 -0.0430 -0.4269
 8812SOL    HW138069   0.408   2.005   1.649  1.4436 -0.7799  0.6954
 8812SOL    HW238070   0.510   1.966   1.551 -0.5951 -0.0378 -0.9862
 8813SOL     OW38071   2.450   2.109   9.691  0.3382 -0.0485  0.0654
 8813SOL    HW138072   2.469   2.071   9.605  2.9882 -0.4829  0.8370
 8813SOL    HW238073   2.401   2.037   9.732 -1.8915  1.2742 -0.2630
 8814SOL     OW38074   1.038   3.685   8.276 -0.0247  0.4345 -0.6051
 8814SOL    HW138075   1.044   3.697   8.182 -0.1231  0.7775 -0.5657
 8814SOL    HW238076   0.957   3.633   8.275 -0.4947  1.1431  0.0208
 8815SOL     OW38077   2.329   2.717   3.029  0.5349 -0.4890 -0.2026
 8815SOL    HW138078   2.308   2.743   3.118  3.1042 -0.2068  0.3163
 8815SOL    HW238079   2.416   2.756   3.016 -0.0325  1.5408  2.2189
 8816SOL     OW38080   4.647   0.409   4.650  0.4817  0.4104 -0.0822
 8816SOL    HW138081   4.645   0.478   4.584  2.7710 -0.5522 -1.1581
 8816SOL    HW238082   4.583   0.446   4.711 -2.1581 -1.6922 -1.5847
 8817SOL     OW38083   0.971   3.618   9.000  0.1881 -0.0369  0.3584
 8817SOL    HW138084   0.883   3.648   9.024  0.6881  1.9358 -0.2980
 8817SOL    HW238085   0.966   3.524   9.012  2.7425  0.1341  2.6746
 8818SOL     OW38086   2.496   0.187   4.955  0.4233 -0.0580 -0.6591
 8818SOL    HW138087   2.526   0.109   5.002  0.0122  0.0469 -0.2303
 8818SOL    HW238088   2.457   0.148   4.877 -0.0898 -0.8706 -0.0012
 8819SOL     OW38089   2.965   2.065  17.445  0.0932  0.0670 -0.1676
 8819SOL    HW138090   2.899   2.134  17.436  2.5396  2.1343 -2.3919
 8819SOL    HW238091   2.930   1.997  17.389  0.2802 -1.2522  1.3175
 8820SOL     OW38092   2.211   4.227   6.394 -0.3379  0.5086  0.0349
 8820SOL    HW138093   2.240   4.228   6.485 -1.2725  3.0259  0.2904
 8820SOL    HW238094   2.195   4.133   6.382  0.7811  0.2424  0.6003
 8821SOL     OW38095   0.275   2.512   5.835  0.0493  0.2120  0.6316
 8821SOL    HW138096   0.284   2.424   5.873  0.3345  0.0189  0.1259
 8821SOL    HW238097   0.369   2.528   5.848 -0.2737  0.4923  2.5391
 8822SOL     OW38098   3.207   2.746   9.250 -0.4245 -0.1365 -0.3678
 8822SOL    HW138099   3.168   2.764   9.164 -1.6297 -3.5194 -0.5580
 8822SOL    HW238100   3.278   2.687   9.224 -1.7146 -1.0528 -1.8485
 8823SOL     OW38101   0.136   3.909   2.495  0.0145 -0.0632 -0.3250
 8823SOL    HW138102   0.057   3.855   2.502 -0.4066  0.3887 -1.7757
 8823SOL    HW238103   0.113   3.997   2.466  0.7232  0.3304  0.3041
 8824SOL     OW38104   0.519   4.316   4.888  0.5304 -0.2433 -0.7324
 8824SOL    HW138105   0.457   4.369   4.838  0.8886  0.2809 -0.6078
 8824SOL    HW238106   0.472   4.300   4.971 -0.9415 -0.2739 -1.5692
 8825SOL     OW38107   3.296   0.205   2.297  0.1117 -0.4120 -0.1579
 8825SOL    HW138108   3.322   0.289   2.335  2.5672 -1.1073 -0.2825
 8825SOL    HW238109   3.269   0.161   2.378  0.7584 -3.0695 -1.3784
 8826SOL     OW38110   3.288   3.304   5.231  0.2138  0.3714  0.3397
 8826SOL    HW138111   3.326   3.387   5.259  0.6993  0.8681 -1.7668
 8826SOL    HW238112   3.363   3.245   5.228 -0.9103 -1.0212 -0.6278
 8827SOL     OW38113   2.191   1.083  13.951  0.2036 -0.1652  0.5502
 8827SOL    HW138114   2.182   1.064  13.858 -2.0719 -0.3219  0.8048
 8827SOL    HW238115   2.175   1.177  13.962  0.2990 -0.0206 -0.5988
 8828SOL     OW38116   0.023   1.298   6.513  0.4833 -0.4482 -0.0021
 8828SOL    HW138117   0.042   1.349   6.434  3.7522 -2.7412 -0.6969
 8828SOL    HW238118   0.013   1.368   6.578  0.4799 -0.3991 -0.0555
 8829SOL     OW38119   3.905   3.512   8.278  0.1620  0.1303  0.1735
 8829SOL    HW138120   3.984   3.563   8.260  0.2753 -0.6753 -1.5213
 8829SOL    HW238121   3.909   3.448   8.207 -1.9379  0.3889 -0.1730
 8830SOL     OW38122   1.092   0.123   1.697  0.2985 -0.2023  0.3746
 8830SOL    HW138123   1.037   0.116   1.619  0.7194  0.5493  0.0099
 8830SOL    HW238124   1.147   0.198   1.676 -0.2232  1.1045  3.6056
 8831SOL     OW38125   3.277   4.288   8.243 -0.1324  0.5897 -0.2585
 8831SOL    HW138126   3.261   4.252   8.331 -1.4217  1.0733 -0.2854
 8831SOL    HW238127   3.372   4.299   8.239 -0.0886 -0.1020 -1.1564
 8832SOL     OW38128   1.762   0.054   6.225  0.0469 -0.3413  0.1342
 8832SOL    HW138129   1.721   0.096   6.149  0.0171 -2.1492 -0.8720
 8832SOL    HW238130   1.695   0.058   6.293  0.1287  1.5451  0.1051
 8833SOL     OW38131   0.372   2.358   8.228 -0.1947 -0.0799 -0.3328
 8833SOL    HW138132   0.419   2.309   8.160  2.0972  3.3889 -1.2606
 8833SOL    HW238133   0.425   2.342   8.306 -2.7684 -0.2854  1.3448
 8834SOL     OW38134   3.818   2.278   0.201 -0.4383 -0.0915  0.0278
 8834SOL    HW138135   3.814   2.226   0.281 -1.5616  1.3057  0.8694
 8834SOL    HW238136   3.789   2.207   0.144 -1.1730  0.2770 -0.0511
 8835SOL     OW38137   3.461   3.491  16.559 -0.1220  0.3656  0.0994
 8835SOL    HW138138   3.398   3.536  16.503  0.6588  2.2791  0.7634
 8835SOL    HW238139   3.437   3.529  16.644 -0.6048 -0.9328  0.5458
 8836SOL     OW38140   2.451   2.983   2.552 -0.1675  0.1948  0.0681
 8836SOL    HW138141   2.447   2.915   2.618 -2.5796  0.0425 -0.2243
 8836SOL    HW238142   2.536   3.023   2.569  0.4804 -0.3951 -1.7965
 8837SOL     OW38143   3.265   1.623   8.184 -0.0152 -0.4498  0.2166
 8837SOL    HW138144   3.275   1.633   8.089  0.3365 -0.8029  0.2153
 8837SOL    HW238145   3.282   1.714   8.207  0.6448 -0.4347 -0.3157
 8838SOL     OW38146   1.837   3.363  17.406  0.0121 -0.0695 -0.3601
 8838SOL    HW138147   1.883   3.446  17.423 -2.4106  1.7718 -2.8131
 8838SOL    HW238148   1.756   3.384  17.360  0.0737 -1.4444 -1.0714
 8839SOL     OW38149   0.485   4.218  11.037  0.4465 -0.0559  0.3222
 8839SOL    HW138150   0.413   4.190  10.980 -0.5917  2.2408  0.4660
 8839SOL    HW238151   0.473   4.162  11.114  0.4741 -0.4049  0.0705
 8840SOL     OW38152   4.700   4.571  16.841 -0.0566  0.1002  0.2698
 8840SOL    HW138153   4.699   4.666  16.825 -1.4102  0.3639  1.9321
 8840SOL    HW238154   0.019   4.545  16.768 -1.1582 -1.8328  0.1128
 8841SOL     OW38155   0.273   2.737   9.491 -0.5639  0.8751 -0.3128
 8841SOL    HW138156   0.220   2.658   9.493  4.0413 -2.3159 -2.5170
 8841SOL    HW238157   0.311   2.726   9.578  2.6807  0.5587 -1.7816
 8842SOL     OW38158   0.647   2.873   2.749 -0.4471  0.2411  0.0954
 8842SOL    HW138159   0.599   2.946   2.709 -1.4013  0.8366  2.3302
 8842SOL    HW238160   0.728   2.912   2.782  0.1884 -0.2428 -0.8964
 8843SOL     OW38161   2.471   2.136   5.299  0.1803  0.8022 -0.2734
 8843SOL    HW138162   2.558   2.139   5.337 -0.0304 -1.9348  0.3886
 8843SOL    HW238163   2.478   2.051   5.257  0.7662  0.4980  0.4311
 8844SOL     OW38164   1.799   3.920   7.255 -0.7356 -0.4012 -0.4262
 8844SOL    HW138165   1.757   3.846   7.298 -2.0490 -0.6018 -2.0449
 8844SOL    HW238166   1.866   3.871   7.208  1.3480  0.7809  1.3136
 8845SOL     OW38167   3.550   2.119   2.153 -0.4814  0.0216 -0.1930
 8845SOL    HW138168   3.536   2.178   2.079 -2.5803 -0.0112  0.1929
 8845SOL    HW238169   3.580   2.035   2.118  0.9183  0.4002  0.0934
 8846SOL     OW38170   2.079   1.056   9.240 -0.1347  0.0700 -0.1352
 8846SOL    HW138171   2.043   1.144   9.235 -2.7621 -0.9194  1.4579
 8846SOL    HW238172   1.998   1.008   9.256 -0.0301  0.1771  0.7390
 8847SOL     OW38173   1.399   4.475  10.026 -0.8649 -0.1146 -0.0776
 8847SOL    HW138174   1.443   4.536  10.085  0.8229 -1.9202  0.5418
 8847SOL    HW238175   1.401   4.389  10.068  2.0571  0.0672  0.1879
 8848SOL     OW38176   2.948   2.970   5.064 -0.4080 -0.0803 -0.0316
 8848SOL    HW138177   2.859   2.967   5.030 -1.0296  1.8897  1.3947
 8848SOL    HW238178   2.945   3.013   5.149 -0.8445 -1.1476  0.4870
 8849SOL     OW38179   4.072   2.147   6.825  0.1367 -0.3495 -0.5737
 8849SOL    HW138180   4.099   2.234   6.855 -0.5016 -0.0794 -0.7690
 8849SOL    HW238181   4.098   2.092   6.898  0.7665  0.5603 -0.1082
 8850SOL     OW38182   0.193   3.511   5.899  0.4970 -0.5027  0.2868
 8850SOL    HW138183   0.272   3.511   5.844 -0.0852 -0.5139 -0.5401
 8850SOL    HW238184   0.163   3.595   5.863  1.0435 -0.0248  0.9327
 8851SOL     OW38185   1.561   2.283  15.633  0.3870  0.0699  0.4029
 8851SOL    HW138186   1.560   2.310  15.725  1.5498 -1.5186  0.8863
 8851SOL    HW238187   1.645   2.237  15.634  0.3347 -0.0262  0.4898
 8852SOL     OW38188   0.301   2.961   2.258 -0.5360 -0.0751 -0.0795
 8852SOL    HW138189   0.356   2.882   2.255  1.1710  1.0920  0.2905
 8852SOL    HW238190   0.282   2.980   2.166  0.6326  1.6993  0.0553
 8853SOL     OW38191   2.045   1.093   5.592 -0.0991  0.5827  0.5059
 8853SOL    HW138192   2.093   1.089   5.510 -0.7226  1.3204  0.1080
 8853SOL    HW238193   2.098   1.148   5.651  0.7213 -0.5557  0.8397
 8854SOL     OW38194   1.251   0.423   4.255  0.3534 -0.3781  0.0783
 8854SOL    HW138195   1.240   0.509   4.295  1.2519 -0.5230  0.6470
 8854SOL    HW238196   1.246   0.452   4.164 -0.0814 -0.6603  0.0134
 8855SOL     OW38197   2.576   3.190   9.190 -0.3531 -0.2964 -0.4557
 8855SOL    HW138198   2.633   3.185   9.267 -2.7224  1.9336  1.4543
 8855SOL    HW238199   2.640   3.162   9.124  0.6695  0.7796  0.0613
 8856SOL     OW38200   1.228   1.521   5.647 -0.3731 -0.0522  0.1931
 8856SOL    HW138201   1.280   1.491   5.721 -3.7543 -1.1586  2.0976
 8856SOL    HW238202   1.295   1.541   5.581  0.4009 -1.9087  0.4120
 8857SOL     OW38203   2.433   0.826   5.452  0.2146  0.4853  0.2236
 8857SOL    HW138204   2.414   0.769   5.526 -2.8603 -0.0073 -0.9341
 8857SOL    HW238205   2.523   0.850   5.473  0.2912 -0.9409  1.5286
 8858SOL     OW38206   2.858   0.028   8.695 -0.2262 -0.0953 -0.3489
 8858SOL    HW138207   2.880   0.118   8.669  0.9485 -0.3086 -0.0650
 8858SOL    HW238208   2.909   4.716   8.632 -2.1923 -1.4097 -0.9050
 8859SOL     OW38209   1.900   1.775  14.717  0.1501  0.0477 -0.3752
 8859SOL    HW138210   1.931   1.739  14.800  0.5826 -1.9849 -1.4298
 8859SOL    HW238211   1.861   1.859  14.743 -0.8555 -0.6281  0.3128
 8860SOL     OW38212   3.478   1.726  14.475  0.4505 -0.0162 -0.7928
 8860SOL    HW138213   3.570   1.715  14.453 -0.0294 -0.3280 -2.6837
 8860SOL    HW238214   3.447   1.677  14.399  0.3569 -0.3676 -0.5229
 8861SOL     OW38215   2.105   1.480  14.143 -0.2027 -0.0011 -0.5289
 8861SOL    HW138216   2.037   1.431  14.096  0.8940  0.6064 -2.7315
 8861SOL    HW238217   2.166   1.505  14.074  0.4139  2.3671  0.8482
 8862SOL     OW38218   0.070   1.842   0.542  0.2318 -0.0555  0.3134
 8862SOL    HW138219   0.126   1.919   0.550 -0.6563  0.6682 -0.4750
 8862SOL    HW238220   0.063   1.837   0.447 -3.7786 -0.5374  0.5991
 8863SOL     OW38221   3.470   1.381  17.398 -0.4470 -0.1119 -0.3913
 8863SOL    HW138222   3.520   1.308  17.435 -0.0821 -0.1235 -0.9121
 8863SOL    HW238223   3.537   1.448  17.393  0.3053 -0.6967  1.7020
 8864SOL     OW38224   0.065   0.788   1.650 -0.4013 -0.1930  0.1812
 8864SOL    HW138225   0.059   0.718   1.715  0.3043 -1.4568 -1.1106
 8864SOL    HW238226   0.067   0.868   1.702 -1.4681 -0.8936  1.2838
 8865SOL     OW38227   2.659   3.519   8.349  0.3854  1.0484 -0.3004
 8865SOL    HW138228   2.661   3.555   8.438 -0.4842  2.1947 -0.7472
 8865SOL    HW238229   2.568   3.498   8.331 -0.1397  2.8441  0.2546
 8866SOL     OW38230   3.724   4.081   3.389 -0.4462 -0.2434  0.4812
 8866SOL    HW138231   3.798   4.023   3.402  0.4449  0.8484  0.2697
 8866SOL    HW238232   3.653   4.026   3.420  1.6938 -3.3556 -0.2038
 8867SOL     OW38233   0.523   3.487  15.025  0.1680 -0.5745  0.0081
 8867SOL    HW138234   0.583   3.476  15.100  0.4064 -0.2205 -0.1336
 8867SOL    HW238235   0.546   3.404  14.983  0.8750 -0.5542  0.3407
 8868SOL     OW38236   3.354   3.188   8.762  0.1842 -0.2249  0.2923
 8868SOL    HW138237   3.291   3.198   8.692  1.2214 -0.8996 -0.7383
 8868SOL    HW238238   3.425   3.132   8.730 -0.4164 -1.6880  1.5265
 8869SOL     OW38239   4.645   1.570   1.847 -0.1956 -0.6185 -0.3354
 8869SOL    HW138240   4.696   1.492   1.868 -0.2361 -0.7019 -0.5446
 8869SOL    HW238241   4.556   1.535   1.849  0.3771 -1.9795  1.5043
 8870SOL     OW38242   3.752   1.410   3.741  0.0193  0.5016 -0.1745
 8870SOL    HW138243   3.775   1.422   3.833 -1.0498 -1.8524  0.3900
 8870SOL    HW238244   3.831   1.433   3.692 -0.6755  1.3190 -0.8989
 8871SOL     OW38245   2.132   0.757   1.241 -0.5134 -0.8098  0.0038
 8871SOL    HW138246   2.222   0.748   1.209 -0.3110  2.8514 -0.4399
 8871SOL    HW238247   2.142   0.760   1.337 -1.1796 -0.1297  0.0448
 8872SOL     OW38248   1.070   0.391  13.923 -0.4202  0.0374 -0.1138
 8872SOL    HW138249   1.019   0.353  13.995  1.0729 -1.9318 -0.0903
 8872SOL    HW238250   1.099   0.317  13.869 -0.8177 -1.5075  1.8104
 8873SOL     OW38251   4.314   2.258  14.029  0.2130  0.4465 -0.2441
 8873SOL    HW138252   4.310   2.335  14.086  1.1324  0.7901 -0.6451
 8873SOL    HW238253   4.371   2.297  13.963 -1.0962  1.8454 -0.5537
 8874SOL     OW38254   4.541   2.636   3.099 -0.3536 -0.6491  0.3181
 8874SOL    HW138255   4.582   2.712   3.058  0.8414  0.2859  3.2323
 8874SOL    HW238256   4.550   2.578   3.023  0.8884 -0.1876  0.1128
 8875SOL     OW38257   3.205   1.621   5.445 -0.1319  0.5867  0.1922
 8875SOL    HW138258   3.250   1.654   5.523 -0.0830  0.1560  0.3475
 8875SOL    HW238259   3.135   1.570   5.485  0.4851 -0.5427 -0.1416
 8876SOL     OW38260   2.200   2.939   2.852 -0.1426  0.3990 -0.0372
 8876SOL    HW138261   2.250   3.019   2.866  0.6370 -0.0540 -0.2215
 8876SOL    HW238262   2.262   2.880   2.808 -1.3393 -0.5323 -0.4755
 8877SOL     OW38263   1.911   0.657   3.701 -0.2941  0.2545 -0.3013
 8877SOL    HW138264   1.959   0.710   3.765 -3.7893  0.5281  2.0617
 8877SOL    HW238265   1.965   0.661   3.622 -0.2256  1.5981 -0.1950
 8878SOL     OW38266   1.195   1.442  17.205  0.1283 -0.2026  0.3477
 8878SOL    HW138267   1.161   1.354  17.222 -0.9712  0.5955  2.2652
 8878SOL    HW238268   1.112   1.489  17.195 -1.2329 -2.7537 -0.5514
 8879SOL     OW38269   1.202   1.491  14.793 -0.6947 -0.5237  0.1164
 8879SOL    HW138270   1.180   1.581  14.817  0.3343 -0.6185  1.4221
 8879SOL    HW238271   1.201   1.492  14.697 -1.4269  0.5352  0.1280
 8880SOL     OW38272   0.430   0.684   2.024  0.0964  0.1852 -0.3765
 8880SOL    HW138273   0.366   0.642   2.082  1.0473  0.4921  0.8933
 8880SOL    HW238274   0.431   0.614   1.959 -3.2401 -0.0754 -0.1488
 8881SOL     OW38275   2.018   1.103   3.895  0.1635 -0.2131 -0.4580
 8881SOL    HW138276   1.933   1.115   3.937 -1.0949 -0.8633 -2.8385
 8881SOL    HW238277   2.046   1.192   3.872  1.7403 -0.9982 -1.5452
 8882SOL     OW38278   3.978   4.300  11.651  0.1764 -0.0178 -0.0568
 8882SOL    HW138279   4.027   4.308  11.570 -0.5777 -1.4919 -0.6554
 8882SOL    HW238280   3.905   4.240  11.633 -0.7056  0.5354  1.6260
 8883SOL     OW38281   3.751   1.602   5.643 -0.1851 -0.5747 -0.0303
 8883SOL    HW138282   3.740   1.532   5.707  0.8184 -0.1119  0.6698
 8883SOL    HW238283   3.813   1.656   5.693 -1.3505  0.0331  0.7759
 8884SOL     OW38284   3.024   2.609   6.069  0.3510  0.1474 -0.1553
 8884SOL    HW138285   3.117   2.630   6.063  0.3059  0.3704 -0.0643
 8884SOL    HW238286   2.989   2.672   6.131 -1.9847  0.8446 -2.1517
 8885SOL     OW38287   0.963   4.546  10.046 -0.0003  0.3626 -0.0613
 8885SOL    HW138288   0.972   4.473  10.108 -0.4517  0.2559 -0.1166
 8885SOL    HW238289   0.881   4.531   9.999  0.7865  0.8348 -1.5689
 8886SOL     OW38290   2.496   2.633  13.502  0.4448 -0.6150  0.1902
 8886SOL    HW138291   2.473   2.674  13.419  2.4821  0.3867  0.1221
 8886SOL    HW238292   2.589   2.620  13.483  0.9227  1.1488  1.3371
 8887SOL     OW38293   2.873   0.745   7.705  0.3819 -0.0617 -0.0168
 8887SOL    HW138294   2.957   0.758   7.750  0.3367 -0.6802  0.2420
 8887SOL    HW238295   2.881   0.802   7.628 -0.4723 -2.1745 -1.6907
 8888SOL     OW38296   2.816   3.744   6.530  0.2337 -0.4152  0.2048
 8888SOL    HW138297   2.896   3.715   6.572 -0.2618 -0.9346  0.7816
 8888SOL    HW238298   2.747   3.687   6.563  0.9114 -1.3904 -0.0484
 8889SOL     OW38299   4.583   3.194  13.119 -0.1033  0.4319  0.5146
 8889SOL    HW138300   4.549   3.257  13.183 -1.3899 -0.3208  0.5829
 8889SOL    HW238301   4.665   3.235  13.093  0.2027 -1.6333 -1.7014
 8890SOL     OW38302   4.695   3.567   7.576  0.1216 -0.0903  0.0824
 8890SOL    HW138303   4.733   3.483   7.604 -0.1837  0.5720  2.5101
 8890SOL    HW238304   4.621   3.519   7.539  0.7356  1.1137 -2.6427
 8891SOL     OW38305   2.786   0.195  12.649  0.4302 -0.1792  0.6200
 8891SOL    HW138306   2.764   0.270  12.594  0.3621 -0.8465 -0.2709
 8891SOL    HW238307   2.703   0.157  12.677  0.5216 -0.3149  0.7085
 8892SOL     OW38308   3.367   1.184   5.984  0.0458 -0.5882 -0.0791
 8892SOL    HW138309   3.353   1.275   6.010 -1.9877 -0.7276 -0.7254
 8892SOL    HW238310   3.318   1.138   6.052 -1.5734 -3.0254 -2.9193
 8893SOL     OW38311   3.254   2.356  14.293 -0.4956  0.0083 -0.2951
 8893SOL    HW138312   3.323   2.369  14.228  0.8283 -1.1694  0.8923
 8893SOL    HW238313   3.201   2.290  14.248 -2.7854  1.6535 -0.0491
 8894SOL     OW38314   1.734   2.184  16.802 -0.1758  0.4751  0.3146
 8894SOL    HW138315   1.652   2.192  16.851 -0.1783 -0.1036  0.4038
 8894SOL    HW238316   1.706   2.195  16.711  0.2432 -0.3299  0.0797
 8895SOL     OW38317   0.015   4.197   7.742 -0.0484  0.3849  0.2315
 8895SOL    HW138318   4.721   4.242   7.664 -0.9183 -0.2919  0.1955
 8895SOL    HW238319   0.109   4.214   7.744  0.1827 -0.9333  0.4540
 8896SOL     OW38320   0.318   2.168   3.022  0.3218 -0.4642 -0.6994
 8896SOL    HW138321   0.354   2.132   3.103  1.1178  1.8601 -0.0493
 8896SOL    HW238322   0.233   2.127   3.035 -0.2310  0.1337 -2.4228
 8897SOL     OW38323   4.051   1.379  13.507 -0.0509 -0.1982  0.0781
 8897SOL    HW138324   4.095   1.333  13.578  0.7104  0.5144  0.0555
 8897SOL    HW238325   4.112   1.369  13.433 -0.1552  1.5672 -0.2313
 8898SOL     OW38326   0.190   0.974   9.437 -0.1885  0.0891 -0.2839
 8898SOL    HW138327   0.232   0.918   9.502 -0.7844 -1.9686 -1.6664
 8898SOL    HW238328   0.188   1.049   9.497  0.7050 -1.2142  1.3762
 8899SOL     OW38329   2.715   1.034  11.912 -0.2442 -0.0477  0.2697
 8899SOL    HW138330   2.713   1.083  11.830  1.9260  0.6175  0.6155
 8899SOL    HW238331   2.661   1.093  11.965 -0.8090 -0.1093 -0.2436
 8900SOL     OW38332   0.634   1.263   9.642  0.1298  0.0850  0.3204
 8900SOL    HW138333   0.568   1.331   9.640  0.5480  0.4617 -0.6126
 8900SOL    HW238334   0.711   1.303   9.601  0.6127 -0.6065  0.5398
 8901SOL     OW38335   3.875   1.504  13.279 -0.1971 -0.3553  0.0836
 8901SOL    HW138336   3.837   1.416  13.280  1.4215 -1.0517  1.2499
 8901SOL    HW238337   3.968   1.488  13.299 -0.0370 -0.9845 -1.2063
 8902SOL     OW38338   4.005   4.377   2.142  0.4673  0.0620  0.1587
 8902SOL    HW138339   4.064   4.412   2.210  0.4127  2.1471 -0.8963
 8902SOL    HW238340   3.958   4.300   2.174  2.2694 -1.3393 -0.5166
 8903SOL     OW38341   1.822   0.904   2.772 -0.2653  0.4735 -0.3050
 8903SOL    HW138342   1.776   0.824   2.746  1.0393 -0.3670 -0.0084
 8903SOL    HW238343   1.843   0.952   2.692 -1.2410 -3.1105 -2.7259
 8904SOL     OW38344   0.019   1.060   4.469 -0.1313 -0.2547 -0.2218
 8904SOL    HW138345   0.063   1.106   4.397  0.0629  0.0644  0.1044
 8904SOL    HW238346   0.069   1.109   4.534  1.7918 -0.5657 -1.4782
 8905SOL     OW38347   1.360   1.831   0.490 -0.1674  0.2616 -0.1936
 8905SOL    HW138348   1.325   1.783   0.565  0.7879 -1.8780 -1.1198
 8905SOL    HW238349   1.330   1.921   0.506 -2.5205 -0.5909  0.1984
 8906SOL     OW38350   2.060   3.750   5.066 -0.1324 -0.2971  0.3086
 8906SOL    HW138351   2.114   3.734   4.989 -2.6625 -1.2227 -1.3049
 8906SOL    HW238352   2.050   3.662   5.104 -1.6614  0.2062  1.0808
 8907SOL     OW38353   4.224   4.633  17.674  0.5484  0.2679  0.0677
 8907SOL    HW138354   4.244   4.699  17.608  1.5078 -0.1504 -0.0606
 8907SOL    HW238355   4.168   4.694  17.724 -1.4825 -1.2192 -0.3828
 8908SOL     OW38356   3.706   2.918   1.843  0.5335  0.2847 -0.8901
 8908SOL    HW138357   3.616   2.883   1.844  0.6136  0.1322  0.3453
 8908SOL    HW238358   3.713   2.942   1.750 -0.2067 -0.6931 -1.2010
 8909SOL     OW38359   3.173   1.512   0.622 -0.1443 -0.2096  0.3648
 8909SOL    HW138360   3.180   1.434   0.678 -1.1327 -1.1814 -0.8616
 8909SOL    HW238361   3.080   1.533   0.632 -0.9277 -3.9124  0.7865
 8910SOL     OW38362   1.126   2.166   7.463 -0.2812 -0.3591  0.1569
 8910SOL    HW138363   1.086   2.150   7.378 -1.7413 -0.1620  0.8015
 8910SOL    HW238364   1.113   2.088   7.517 -1.0535 -0.7065 -0.5495
 8911SOL     OW38365   0.442   1.093   4.350  0.3153  0.4513 -0.1117
 8911SOL    HW138366   0.386   1.096   4.427 -0.5403 -0.9385 -0.6779
 8911SOL    HW238367   0.447   1.182   4.315 -1.7252  0.4985 -0.2811
 8912SOL     OW38368   2.395   0.525   2.067 -0.9616  0.2350  0.3698
 8912SOL    HW138369   2.386   0.434   2.036  1.3780 -0.2517  1.1231
 8912SOL    HW238370   2.310   0.566   2.055  0.7052  3.0423 -1.8474
 8913SOL     OW38371   2.913   2.626   8.822 -0.5715  0.2097 -0.3685
 8913SOL    HW138372   2.824   2.629   8.786 -0.7344 -0.5322 -0.0165
 8913SOL    HW238373   2.915   2.545   8.873  1.7779  0.0809 -0.7002
 8914SOL     OW38374   3.863   3.639   3.966 -0.1039 -0.2506  0.0475
 8914SOL    HW138375   3.771   3.632   3.991 -0.0917  0.1653  0.2063
 8914SOL    HW238376   3.850   3.640   3.872 -3.4551 -0.8700  0.4856
 8915SOL     OW38377   4.716   1.457   6.711  0.0995 -0.0463 -0.1895
 8915SOL    HW138378   0.005   1.458   6.803  1.6792 -0.3927 -0.6505
 8915SOL    HW238379   4.670   1.540   6.700  0.6836  0.1938 -0.8021
 8916SOL     OW38380   2.177   2.565   2.612  0.0342 -0.3823 -0.4130
 8916SOL    HW138381   2.270   2.544   2.611 -0.2576 -1.4589 -5.2989
 8916SOL    HW238382   2.155   2.546   2.703 -0.6569 -0.4216 -0.5843
 8917SOL     OW38383   3.728   3.129   3.155  0.3178 -0.1205 -0.1846
 8917SOL    HW138384   3.694   3.218   3.162 -3.1363 -1.1117 -3.7700
 8917SOL    HW238385   3.668   3.101   3.085  2.8673  1.5647 -3.0367
 8918SOL     OW38386   0.589   4.321   5.985 -0.0993 -0.1380  0.3913
 8918SOL    HW138387   0.560   4.231   5.970  0.5136  0.1052 -2.1050
 8918SOL    HW238388   0.682   4.326   5.964  0.0050  0.2731  0.9470
 8919SOL     OW38389   3.593   0.090   7.216  0.1037 -0.2371 -0.0289
 8919SOL    HW138390   3.675   0.138   7.224 -0.3013  0.3831  0.3872
 8919SOL    HW238391   3.633   0.007   7.190 -0.8125 -0.3557 -1.0841
 8920SOL     OW38392   3.652   3.451   1.151 -0.0216 -0.7118  0.4850
 8920SOL    HW138393   3.599   3.447   1.230  0.4314 -1.6535  0.7520
 8920SOL    HW238394   3.732   3.453   1.205 -0.1540  0.0728  0.6532
 8921SOL     OW38395   3.048   4.682   1.631 -0.6130 -0.5652 -0.6924
 8921SOL    HW138396   3.100   4.684   1.711 -1.0551 -1.6897 -0.3806
 8921SOL    HW238397   3.109   4.700   1.559 -0.1342 -2.2186 -0.7075
 8922SOL     OW38398   3.301   3.565  16.361  0.3915 -0.1739 -0.1553
 8922SOL    HW138399   3.209   3.594  16.364  0.4397 -0.1611  1.0552
 8922SOL    HW238400   3.331   3.655  16.347  3.2032 -0.7789  2.0587
 8923SOL     OW38401   0.275   2.336   8.566  0.2134  0.1923 -0.4862
 8923SOL    HW138402   0.201   2.341   8.625  0.9687  3.8410  0.1394
 8923SOL    HW238403   0.246   2.269   8.504  0.3610 -0.3543  0.0402
 8924SOL     OW38404   1.900   1.270  16.468  0.3749 -0.2048  0.2486
 8924SOL    HW138405   1.810   1.240  16.475  0.2246  0.5192  1.3410
 8924SOL    HW238406   1.896   1.310  16.380 -0.7031 -1.0150 -0.0643
 8925SOL     OW38407   0.995   2.052   4.151  0.2962  0.4045 -0.2566
 8925SOL    HW138408   0.918   2.041   4.095 -0.5778 -0.2947  1.0941
 8925SOL    HW238409   0.958   2.044   4.239 -0.2848  1.2362 -0.4216
 8926SOL     OW38410   1.979   3.666   8.418  0.1162  0.3356  0.1402
 8926SOL    HW138411   1.936   3.719   8.351 -0.7898 -0.5664  0.0038
 8926SOL    HW238412   1.901   3.614   8.440 -0.9989  1.0232 -2.1652
 8927SOL     OW38413   3.541   1.291   9.074 -0.4881 -0.4200  0.1989
 8927SOL    HW138414   3.459   1.253   9.106  0.0758 -0.5992  1.4580
 8927SOL    HW238415   3.518   1.382   9.058 -2.1162 -1.2748 -2.2849
 8928SOL     OW38416   1.250   3.906   3.663  0.0541  0.1307 -0.2164
 8928SOL    HW138417   1.340   3.923   3.691  0.6571 -2.6424 -0.4351
 8928SOL    HW238418   1.266   3.813   3.647  0.6631 -0.3836  3.3019
 8929SOL     OW38419   1.037   0.322   4.070 -0.5627 -0.3906 -0.4541
 8929SOL    HW138420   1.110   0.364   4.026 -0.3817  0.1626  0.3725
 8929SOL    HW238421   1.027   0.254   4.003  1.5110 -1.3726  0.2492
 8930SOL     OW38422   1.833   0.882   9.059 -0.3880  0.8327  0.1599
 8930SOL    HW138423   1.810   0.901   8.968  0.7130 -0.3460 -0.3601
 8930SOL    HW238424   1.918   0.841   9.040  0.6782  2.4849  1.3064
 8931SOL     OW38425   1.052   4.595   1.107  0.2056  0.3041 -0.3184
 8931SOL    HW138426   0.960   4.590   1.129  0.0818 -0.3031 -0.9670
 8931SOL    HW238427   1.066   4.500   1.115  2.3977  0.5966 -0.6949
 8932SOL     OW38428   3.788   0.178   5.632 -0.4426  0.0887  0.0304
 8932SOL    HW138429   3.873   0.192   5.591 -1.0601 -0.2220 -1.3646
 8932SOL    HW238430   3.770   0.085   5.618  1.7093 -0.2198 -0.6094
 8933SOL     OW38431   1.079   2.132   3.880 -0.2813 -0.2297 -0.3054
 8933SOL    HW138432   1.065   2.052   3.931 -0.7399 -0.5577 -0.9502
 8933SOL    HW238433   1.162   2.162   3.916  0.6778 -1.4918 -1.4933
 8934SOL     OW38434   1.642   2.377   4.185 -0.0485 -0.3538  0.4882
 8934SOL    HW138435   1.683   2.400   4.268 -1.1898  0.3613  0.8459
 8934SOL    HW238436   1.617   2.285   4.199  0.5113 -0.3887  1.2617
 8935SOL     OW38437   2.587   2.799   7.842 -0.2600  0.3337 -0.4654
 8935SOL    HW138438   2.541   2.814   7.925 -1.8681  0.7968 -1.4317
 8935SOL    HW238439   2.529   2.847   7.783 -1.6593 -0.7671  0.0272
 8936SOL     OW38440   0.136   4.313   4.442  0.4955 -0.2433 -0.6607
 8936SOL    HW138441   0.219   4.357   4.458  0.7018 -0.6891 -0.4819
 8936SOL    HW238442   0.175   4.245   4.387 -0.3996 -0.9210 -0.4712
 8937SOL     OW38443   1.616   0.647   4.305  0.3427  0.5520  0.2681
 8937SOL    HW138444   1.657   0.644   4.392 -0.2544  1.5046  0.5807
 8937SOL    HW238445   1.600   0.739   4.284  1.2859  0.7048  0.2151
 8938SOL     OW38446   0.990   1.252   7.634 -0.2750 -0.2962  0.5623
 8938SOL    HW138447   1.005   1.341   7.603 -0.7825 -0.5107 -0.2884
 8938SOL    HW238448   0.905   1.232   7.595 -0.2732  1.8929 -0.5548
 8939SOL     OW38449   2.800   3.338  14.828 -0.4966 -0.3117 -0.3432
 8939SOL    HW138450   2.719   3.353  14.778 -0.1930 -0.5738 -0.9112
 8939SOL    HW238451   2.800   3.242  14.824  1.9267 -0.3609  1.0159
 8940SOL     OW38452   4.611   0.303  15.344 -0.4243  0.5229  0.2863
 8940SOL    HW138453   4.559   0.383  15.335  0.9560  1.2266 -1.1847
 8940SOL    HW238454   4.542   0.237  15.350  2.3165 -2.5495 -2.3783
 8941SOL     OW38455   3.778   1.268  15.260  0.2856  0.1816  0.0312
 8941SOL    HW138456   3.767   1.350  15.308 -1.3196  0.4404 -0.7889
 8941SOL    HW238457   3.758   1.204  15.328  2.1400  0.0898  0.5060
 8942SOL     OW38458   0.784   2.746   9.360 -0.4072  0.3931  0.3652
 8942SOL    HW138459   0.872   2.732   9.395 -0.2954 -3.7384 -1.5090
 8942SOL    HW238460   0.789   2.683   9.288  0.9839 -0.0111  0.8099
 8943SOL     OW38461   2.092   4.011   4.399  0.0554  0.5640  0.2769
 8943SOL    HW138462   2.039   4.076   4.352 -0.7102  1.1528  1.9376
 8943SOL    HW238463   2.023   3.965   4.447  2.2262 -2.9626 -0.0035
 8944SOL     OW38464   1.438   0.321   4.445 -0.2087 -0.6737  0.5692
 8944SOL    HW138465   1.388   0.350   4.369  1.2265 -2.7189 -1.1185
 8944SOL    HW238466   1.424   0.384   4.516  1.9033  1.1576 -0.6400
 8945SOL     OW38467   0.557   4.226   4.618  0.2933 -0.2213 -0.1279
 8945SOL    HW138468   0.541   4.236   4.712  0.7116  4.0354 -0.4791
 8945SOL    HW238469   0.571   4.132   4.606  1.9393  0.1598 -1.1908
 8946SOL     OW38470   3.570   4.738  12.261 -0.0302 -0.5781  0.2645
 8946SOL    HW138471   3.514   4.661  12.269 -1.2155  0.2624 -0.1431
 8946SOL    HW238472   3.536   0.056  12.331 -0.2311  0.4029 -0.6351
 8947SOL     OW38473   0.131   4.605  11.446  0.2358 -0.4193 -0.3335
 8947SOL    HW138474   0.138   4.588  11.540 -2.0896 -1.6843 -0.3989
 8947SOL    HW238475   0.218   4.574  11.420  1.5901  3.0954 -0.1286
 8948SOL     OW38476   0.853   1.129  10.821  0.1726  0.8105 -0.4050
 8948SOL    HW138477   0.901   1.066  10.874 -0.4451 -0.4571 -1.3421
 8948SOL    HW238478   0.778   1.139  10.879  1.7061 -0.1407  1.7131
 8949SOL     OW38479   2.500   0.303   9.591  0.0936 -0.0784 -0.2897
 8949SOL    HW138480   2.439   0.340   9.656  0.5717 -0.6533  0.4816
 8949SOL    HW238481   2.446   0.327   9.515  0.3273  1.1129 -0.0767
 8950SOL     OW38482   2.111   2.091  13.175 -0.5161  0.2371  0.1245
 8950SOL    HW138483   2.119   2.185  13.189 -1.3174  0.4137 -0.5978
 8950SOL    HW238484   2.057   2.072  13.099 -0.1071  0.3341 -0.1924
 8951SOL     OW38485   1.351   0.844  14.568 -0.1377  0.0974 -0.4134
 8951SOL    HW138486   1.427   0.893  14.536 -0.6359  0.3030 -1.2872
 8951SOL    HW238487   1.379   0.752  14.562 -0.0422  0.0093  1.4354
 8952SOL     OW38488   1.411   2.293   8.373 -0.3668 -0.1450 -0.1487
 8952SOL    HW138489   1.341   2.348   8.407  0.4607  0.4688  0.5661
 8952SOL    HW238490   1.410   2.226   8.442 -0.6174 -0.1650 -0.1717
 8953SOL     OW38491   2.491   4.173   1.416 -0.0746 -0.5566  0.0623
 8953SOL    HW138492   2.404   4.161   1.379 -1.1380  1.8145  1.8019
 8953SOL    HW238493   2.481   4.268   1.414 -1.4221 -0.7613 -2.5627
 8954SOL     OW38494   0.282   3.041   6.485 -0.0261 -0.2117 -0.0407
 8954SOL    HW138495   0.288   3.085   6.400  3.0210  2.5491  1.5791
 8954SOL    HW238496   0.338   2.965   6.473 -0.0983 -0.3046  0.2231
 8955SOL     OW38497   4.196   2.526  10.336  0.0446 -0.4599 -0.4911
 8955SOL    HW138498   4.268   2.471  10.367 -0.1368 -0.1208  0.5437
 8955SOL    HW238499   4.191   2.597  10.400  0.6819  0.4772 -1.4886
 8956SOL     OW38500   4.057   3.248   3.447 -0.0906 -0.2201  0.2524
 8956SOL    HW138501   4.018   3.199   3.375 -0.5530  0.1182  0.2763
 8956SOL    HW238502   4.136   3.276   3.400  0.4856 -0.1468  1.2601
 8957SOL     OW38503   4.615   1.528   3.239 -0.4626  0.4298 -0.4452
 8957SOL    HW138504   4.639   1.439   3.264  1.9896  1.3261  0.3705
 8957SOL    HW238505   4.704   1.562   3.238 -0.6054  0.8275  0.7527
 8958SOL     OW38506   2.803   1.945   8.731 -0.7420  0.1770 -0.0974
 8958SOL    HW138507   2.728   1.920   8.676  0.2074 -1.2914 -0.7244
 8958SOL    HW238508   2.873   1.927   8.668 -1.3763  1.3603 -1.1344
 8959SOL     OW38509   3.347   3.014  13.891 -0.3183 -0.0126  0.0445
 8959SOL    HW138510   3.335   3.103  13.858  1.5757  0.6779  1.2322
 8959SOL    HW238511   3.419   3.023  13.954 -0.4919  2.8074 -0.1450
 8960SOL     OW38512   2.962   3.121  14.586  0.2179  0.1616  0.3399
 8960SOL    HW138513   2.906   3.083  14.653  0.1956  2.8584  1.8335
 8960SOL    HW238514   2.909   3.118  14.507 -0.3629  0.8914  0.7078
 8961SOL     OW38515   3.142   2.400   9.366  0.4449 -0.4119 -0.0537
 8961SOL    HW138516   3.072   2.450   9.322  1.5304  3.4329  2.5594
 8961SOL    HW238517   3.097   2.316   9.362 -2.6580  1.2600 -0.1628
 8962SOL     OW38518   4.137   2.279  13.266  0.3796 -0.9932 -0.6522
 8962SOL    HW138519   4.046   2.277  13.235  0.2117  0.4196 -0.3034
 8962SOL    HW238520   4.153   2.369  13.295  2.4925 -1.4711 -0.3895
 8963SOL     OW38521   0.660   2.760   3.933 -0.2611  0.5247 -0.5532
 8963SOL    HW138522   0.714   2.688   3.900 -0.9034 -1.1362  1.9946
 8963SOL    HW238523   0.703   2.794   4.011  0.5383  1.1405 -1.2651
 8964SOL     OW38524   0.439   0.547   1.286  0.6260  0.3185 -0.1543
 8964SOL    HW138525   0.471   0.528   1.375  0.7367 -0.7383 -0.4118
 8964SOL    HW238526   0.457   0.466   1.238 -0.3480  0.6152 -1.0071
 8965SOL     OW38527   4.214   3.198   7.631  0.3941 -0.0249  0.1795
 8965SOL    HW138528   4.136   3.145   7.614  2.3246 -1.9813 -2.3797
 8965SOL    HW238529   4.173   3.280   7.659 -0.5471  0.2633 -2.0327
 8966SOL     OW38530   1.243   3.065  13.688 -0.1352 -0.1934  0.0619
 8966SOL    HW138531   1.163   3.111  13.714 -0.8150 -0.9120 -0.7744
 8966SOL    HW238532   1.215   3.018  13.610  2.0502 -0.4292 -0.5773
 8967SOL     OW38533   0.418   1.536   5.172 -0.2372 -0.1470 -0.0444
 8967SOL    HW138534   0.510   1.550   5.147  0.3017 -0.0520  1.9711
 8967SOL    HW238535   0.423   1.443   5.196  2.0073 -0.1268 -0.3628
 8968SOL     OW38536   4.586   0.167  11.094 -0.0411  0.2287 -0.3283
 8968SOL    HW138537   4.509   0.209  11.056 -0.4243  1.3368  1.6489
 8968SOL    HW238538   4.585   0.079  11.056  1.9461 -0.1598  0.5413
 8969SOL     OW38539   2.330   2.382  17.170  0.2172 -0.0542 -0.3466
 8969SOL    HW138540   2.277   2.323  17.224 -1.3516 -0.4646 -2.3392
 8969SOL    HW238541   2.404   2.401  17.227 -0.2338 -1.0297  0.5601
 8970SOL     OW38542   3.477   2.981   3.793  0.0953  0.1510  0.2456
 8970SOL    HW138543   3.566   3.002   3.764 -0.0976  1.7913  0.8358
 8970SOL    HW238544   3.453   3.070   3.817  1.2492  0.5957 -0.2328
 8971SOL     OW38545   3.027   4.471  15.707  0.0053  0.3621  0.3780
 8971SOL    HW138546   3.021   4.382  15.674  0.6390  0.6110 -0.4234
 8971SOL    HW238547   2.993   4.523  15.634 -0.4444  3.0717  2.5043
 8972SOL     OW38548   4.053   3.884   8.816 -0.3787  0.3743  0.1079
 8972SOL    HW138549   3.995   3.840   8.754  0.1522 -1.8055  1.1614
 8972SOL    HW238550   3.991   3.908   8.885 -1.1967 -0.9459 -0.1635
 8973SOL     OW38551   4.204   0.780  16.890  0.2888 -0.2260 -0.4070
 8973SOL    HW138552   4.142   0.776  16.817 -0.2940  0.0124  0.0758
 8973SOL    HW238553   4.263   0.838  16.841  0.4407  1.5614  1.9234
 8974SOL     OW38554   0.056   3.481   1.817  0.2512  0.0235  0.2461
 8974SOL    HW138555   0.030   3.448   1.731  0.9392 -0.3561  0.1771
 8974SOL    HW238556   0.145   3.445   1.817  0.5897  0.8728  0.7162
 8975SOL     OW38557   3.658   3.837   9.246  0.4692  0.6064 -0.0171
 8975SOL    HW138558   3.671   3.929   9.270 -2.6104  1.0197  0.0363
 8975SOL    HW238559   3.676   3.793   9.328 -0.1643  2.4874  1.1271
 8976SOL     OW38560   2.927   2.339  12.157 -0.3366 -0.2261  0.4294
 8976SOL    HW138561   2.947   2.247  12.137  0.4137  0.0110  0.0913
 8976SOL    HW238562   2.887   2.329  12.243 -2.0227  0.8499 -0.2417
 8977SOL     OW38563   2.628   1.253   3.562 -0.2284 -0.3112 -0.4668
 8977SOL    HW138564   2.700   1.201   3.526  0.0048 -1.9723  2.4050
 8977SOL    HW238565   2.670   1.282   3.643 -0.6902  0.4964 -0.5187
 8978SOL     OW38566   3.267   0.279   1.775  0.4937 -0.0657  0.0527
 8978SOL    HW138567   3.328   0.351   1.769  0.7414 -0.2760  0.0561
 8978SOL    HW238568   3.281   0.238   1.860  2.5888 -0.3972 -0.4715
 8979SOL     OW38569   2.035   3.163   9.474  0.1463 -0.3932  0.4970
 8979SOL    HW138570   1.968   3.151   9.541  0.1549 -1.0081  0.3957
 8979SOL    HW238571   2.049   3.257   9.479 -2.3384 -0.0990  1.6944
 8980SOL     OW38572   3.345   0.007   4.554 -0.1734 -0.4831  0.1363
 8980SOL    HW138573   3.391   0.090   4.566  0.0704 -0.5612 -0.2542
 8980SOL    HW238574   3.393   4.683   4.609  0.0376  0.6423  1.2127
 8981SOL     OW38575   4.641   0.459  16.641  0.4735  0.4964 -0.1122
 8981SOL    HW138576   4.608   0.404  16.711  0.6861  0.9203  0.3245
 8981SOL    HW238577   4.564   0.514  16.624  0.4391  0.5966  0.3728
 8982SOL     OW38578   1.471   2.330   4.443  0.2978  0.8055 -0.2003
 8982SOL    HW138579   1.450   2.423   4.432 -0.0766  0.9026  1.2926
 8982SOL    HW238580   1.449   2.320   4.536 -0.1403 -1.2956 -0.5280
 8983SOL     OW38581   2.484   2.154   8.771  0.1611 -0.2999  0.1124
 8983SOL    HW138582   2.512   2.226   8.827 -1.0660  1.8232 -2.0327
 8983SOL    HW238583   2.530   2.164   8.688  1.3331 -1.3056  0.6347
 8984SOL     OW38584   0.682   4.051  11.784 -0.1219  0.1004 -0.0871
 8984SOL    HW138585   0.747   3.995  11.741  0.3082  0.2304  0.3927
 8984SOL    HW238586   0.659   4.099  11.705  0.8240 -3.4673 -2.5216
 8985SOL     OW38587   1.082   2.888   9.878  0.1832  0.4771  0.2105
 8985SOL    HW138588   1.156   2.914   9.933  0.6283 -0.1293 -0.1079
 8985SOL    HW238589   1.016   2.863   9.943  1.6504  0.1595  1.5596
 8986SOL     OW38590   1.487   1.063   6.289 -0.3825 -0.1816 -0.1652
 8986SOL    HW138591   1.579   1.069   6.263  0.0449  2.2013  1.8908
 8986SOL    HW238592   1.452   1.149   6.269  1.6737  0.7473  0.2251
 8987SOL     OW38593   1.359   4.578   4.314  0.2034  0.2725  0.7715
 8987SOL    HW138594   1.384   4.504   4.369 -0.2172 -0.7732 -0.4457
 8987SOL    HW238595   1.268   4.550   4.304 -0.5873  2.6500  1.4232
 8988SOL     OW38596   3.787   1.682   2.285 -0.5660  0.6497  0.1911
 8988SOL    HW138597   3.734   1.692   2.364 -2.7402 -0.6261 -1.1217
 8988SOL    HW238598   3.849   1.611   2.302 -0.0577  1.2859  1.0192
 8989SOL     OW38599   1.258   0.523  13.025 -0.1682  0.4222 -0.1321
 8989SOL    HW138600   1.330   0.461  13.016 -0.4642  0.3233 -1.9425
 8989SOL    HW238601   1.188   0.476  13.069  0.9301 -2.2090 -1.1884
 8990SOL     OW38602   4.705   4.093  14.929  0.5147  0.2671  0.3502
 8990SOL    HW138603   4.656   4.030  14.981 -0.7596  0.2720 -0.8320
 8990SOL    HW238604   0.025   4.031  14.885 -0.9649  0.0546 -1.2794
 8991SOL     OW38605   3.414   0.636   3.877  0.2129  0.4293  0.2165
 8991SOL    HW138606   3.439   0.724   3.849  1.3443 -0.4213 -1.4087
 8991SOL    HW238607   3.383   0.644   3.967  0.0024  1.7779  0.0242
 8992SOL     OW38608   2.035   3.938   1.033 -0.0291  0.0156  0.0789
 8992SOL    HW138609   2.074   3.862   0.991  1.2164  0.9394 -0.4296
 8992SOL    HW238610   2.043   4.007   0.967 -1.7009  1.0068  0.9217
 8993SOL     OW38611   3.954   2.884   8.802 -0.5523 -0.2623 -1.3358
 8993SOL    HW138612   4.005   2.922   8.730  0.9243 -0.0078 -0.1329
 8993SOL    HW238613   3.898   2.958   8.825 -0.8889 -0.8680 -0.1971
 8994SOL     OW38614   3.569   4.603  14.748  0.5196 -0.2939 -0.3785
 8994SOL    HW138615   3.547   4.606  14.655 -0.7152  0.2010 -0.0692
 8994SOL    HW238616   3.542   4.515  14.775 -0.7218 -0.0577 -0.8491
 8995SOL     OW38617   3.167   0.440   3.711 -0.0149 -0.4950  0.3972
 8995SOL    HW138618   3.103   0.395   3.655  1.3498 -1.0010 -0.7608
 8995SOL    HW238619   3.189   0.515   3.656 -0.5542  0.0099  0.8693
 8996SOL     OW38620   1.843   2.320   9.657 -0.1395 -0.2337 -0.4727
 8996SOL    HW138621   1.760   2.276   9.641 -1.7848  1.7337  2.5573
 8996SOL    HW238622   1.800   2.405   9.654  0.2812  0.0509  1.3164
 8997SOL     OW38623   3.639   3.545   4.113 -0.1371 -0.2424 -0.0931
 8997SOL    HW138624   3.673   3.525   4.200  0.1964 -1.9191 -0.6134
 8997SOL    HW238625   3.628   3.456   4.081  0.8142 -0.2318 -0.4396
 8998SOL     OW38626   1.851   4.225   3.264  0.9337 -0.2851  0.3351
 8998SOL    HW138627   1.769   4.274   3.264  2.2036  1.8740  0.8577
 8998SOL    HW238628   1.837   4.143   3.311 -0.3768 -0.7377 -0.8579
 8999SOL     OW38629   3.081   0.803   5.907 -0.3267 -0.3475  0.3730
 8999SOL    HW138630   3.030   0.766   5.836 -0.2911 -2.8738  1.6747
 8999SOL    HW238631   3.073   0.893   5.875 -0.5428 -0.3747  0.3503
 9000SOL     OW38632   1.225   4.449   2.753  0.2259  0.0919 -0.3238
 9000SOL    HW138633   1.180   4.431   2.670  0.2247  1.7728 -0.6888
 9000SOL    HW238634   1.147   4.465   2.807  0.3035  1.5891 -0.6553
 9001SOL     OW38635   1.891   2.171   7.334  0.0472 -0.2460  0.3775
 9001SOL    HW138636   1.941   2.090   7.339  1.6893  0.7058 -0.1717
 9001SOL    HW238637   1.925   2.221   7.260  0.6769 -0.2023  0.6935
 9002SOL     OW38638   0.553   2.299   8.408  0.3249 -0.4770 -0.6288
 9002SOL    HW138639   0.518   2.323   8.494 -0.2691  0.1406 -1.0419
 9002SOL    HW238640   0.639   2.340   8.417 -0.1173  0.8457 -2.6082
 9003SOL     OW38641   0.514   0.607   4.043  0.2501  0.2252  0.4093
 9003SOL    HW138642   0.483   0.522   4.073  0.9376 -0.3870 -0.6116
 9003SOL    HW238643   0.426   0.641   4.027  0.4261  0.8628  0.7992
 9004SOL     OW38644   3.606   4.710   8.573  0.4345  0.1812  0.3030
 9004SOL    HW138645   3.625   4.627   8.529 -0.4141  1.6228 -2.8485
 9004SOL    HW238646   3.604   0.030   8.496  1.6061  2.0207  1.6654
 9005SOL     OW38647   3.978   1.897  11.667 -0.0812  0.1663  0.2672
 9005SOL    HW138648   3.989   1.802  11.669 -2.4008 -0.1209 -0.3527
 9005SOL    HW238649   4.068   1.921  11.691  0.4398 -0.4743 -1.0521
 9006SOL     OW38650   3.163   3.323   6.258  0.2933 -0.1481  0.3809
 9006SOL    HW138651   3.223   3.323   6.183 -1.4590 -1.1315 -1.0200
 9006SOL    HW238652   3.149   3.230   6.277 -1.5564 -0.0982 -0.6925
 9007SOL     OW38653   0.120   0.076   2.266  0.2468 -0.0815 -0.3037
 9007SOL    HW138654   0.065   0.019   2.214  0.9922  0.5438 -1.7778
 9007SOL    HW238655   0.049   0.135   2.293  1.7784  1.7561 -0.2721
 9008SOL     OW38656   4.488   2.802  10.968 -0.4028 -0.3238  0.1214
 9008SOL    HW138657   4.569   2.794  10.919 -0.1967  1.4995  0.1821
 9008SOL    HW238658   4.496   2.748  11.047 -0.3914 -1.8688 -0.9430
 9009SOL     OW38659   3.545   0.324  14.240 -0.2242  0.0112 -0.5987
 9009SOL    HW138660   3.537   0.272  14.160  0.7047 -0.5271 -0.3343
 9009SOL    HW238661   3.577   0.260  14.303 -1.1557 -0.7561 -0.8949
 9010SOL     OW38662   1.340   3.174   4.630  0.4258  0.4327  0.5955
 9010SOL    HW138663   1.292   3.207   4.706 -0.8517  0.5243 -0.2455
 9010SOL    HW238664   1.426   3.163   4.671  1.9345 -2.2444 -3.3078
 9011SOL     OW38665   4.285   1.025   5.129  0.0516 -0.0803 -0.0527
 9011SOL    HW138666   4.362   1.022   5.185 -0.9826 -0.3144  1.3573
 9011SOL    HW238667   4.325   1.012   5.043  1.2887 -4.0438  1.1136
 9012SOL     OW38668   3.192   3.028   3.980  0.5667  0.2422 -0.4655
 9012SOL    HW138669   3.156   2.973   3.911  1.2355 -1.3137  0.4017
 9012SOL    HW238670   3.232   2.961   4.036 -1.5067 -0.3050  0.3595
 9013SOL     OW38671   4.121   0.652   8.434  0.3026 -0.1782 -0.0793
 9013SOL    HW138672   4.179   0.598   8.488  2.6642  2.3680 -0.0943
 9013SOL    HW238673   4.167   0.735   8.448 -1.9566  1.1710 -0.6781
 9014SOL     OW38674   4.256   4.060   2.441  0.6227  0.1011  0.2651
 9014SOL    HW138675   4.269   4.150   2.471 -1.1315  0.2302  0.6102
 9014SOL    HW238676   4.272   4.002   2.516  1.5654 -0.6859 -0.5540
 9015SOL     OW38677   2.352   4.429   5.771 -0.0671  0.2448 -0.4335
 9015SOL    HW138678   2.362   4.521   5.747  1.3348  1.1278  3.5272
 9015SOL    HW238679   2.442   4.406   5.795 -0.5246  0.5038  1.5782
 9016SOL     OW38680   0.111   3.351  11.262  0.4250 -0.2183  0.0100
 9016SOL    HW138681   0.080   3.375  11.349 -0.4143 -0.9853 -0.0662
 9016SOL    HW238682   0.066   3.419  11.211 -0.0310 -0.2269  0.4005
 9017SOL     OW38683   0.964   0.082   2.935  0.3316  0.1639 -0.1494
 9017SOL    HW138684   0.881   0.050   2.900 -0.3686 -0.0904  1.7327
 9017SOL    HW238685   1.012   0.115   2.859 -1.2020 -0.1052 -1.2207
 9018SOL     OW38686   2.322   3.640   5.743  0.4964  0.3120 -0.2098
 9018SOL    HW138687   2.270   3.560   5.744  2.7016 -1.1563 -1.0327
 9018SOL    HW238688   2.255   3.707   5.756 -0.5385 -0.3957 -1.7886
 9019SOL     OW38689   1.322   0.428  11.473 -0.2885  0.4795 -0.2419
 9019SOL    HW138690   1.313   0.336  11.448  0.7908  0.7740 -1.7283
 9019SOL    HW238691   1.235   0.468  11.473 -0.4103  0.2107  0.2742
 9020SOL     OW38692   2.254   3.251   4.524 -0.2160  0.2829  0.0173
 9020SOL    HW138693   2.229   3.168   4.483 -2.3256  1.6022 -1.4295
 9020SOL    HW238694   2.194   3.257   4.598 -0.9295  0.0859 -0.5431
 9021SOL     OW38695   1.645   2.986   4.441  0.0959 -0.3246  0.2234
 9021SOL    HW138696   1.703   2.973   4.516 -1.1794 -1.2282  1.0485
 9021SOL    HW238697   1.615   2.896   4.431 -0.1802 -0.3476  1.2107
 9022SOL     OW38698   0.316   0.916  13.887  0.1020 -0.1041 -0.6384
 9022SOL    HW138699   0.373   0.864  13.944 -0.2790 -0.9040 -0.9769
 9022SOL    HW238700   0.257   0.963  13.946  2.0592 -0.2387  1.4212
 9023SOL     OW38701   3.620   1.813   6.373  0.5923 -0.6509  0.0332
 9023SOL    HW138702   3.608   1.838   6.464  1.1537  1.1154 -0.3832
 9023SOL    HW238703   3.612   1.894   6.323 -0.8602 -1.0363 -0.3525
 9024SOL     OW38704   2.399   2.256   5.757  0.2213 -0.1706 -0.2071
 9024SOL    HW138705   2.378   2.344   5.725 -3.4747 -1.0198 -0.1305
 9024SOL    HW238706   2.388   2.268   5.851 -0.5187  0.4460 -0.3730
 9025SOL     OW38707   0.327   3.474   2.007  0.4521  0.6137 -0.1396
 9025SOL    HW138708   0.280   3.393   1.986  0.1946  1.3364 -2.3602
 9025SOL    HW238709   0.384   3.447   2.079 -0.1788  0.0631  0.1453
 9026SOL     OW38710   3.882   0.745   8.058  0.2879  0.1131 -0.5272
 9026SOL    HW138711   3.872   0.684   7.985 -0.4284  1.8225 -1.8656
 9026SOL    HW238712   3.934   0.692   8.117  0.6848  1.8201  0.6259
 9027SOL     OW38713   1.827   2.901   3.884  0.2851  0.0102  0.3736
 9027SOL    HW138714   1.794   2.892   3.974 -1.8142  1.7183 -0.2266
 9027SOL    HW238715   1.814   2.994   3.865  2.3315  0.5492  1.5971
 9028SOL     OW38716   3.726   2.210   9.190  0.4911  0.0571 -0.1372
 9028SOL    HW138717   3.719   2.301   9.159  0.4469  0.2151  0.3407
 9028SOL    HW238718   3.639   2.198   9.228 -0.0388 -0.3096 -1.4648
 9029SOL     OW38719   0.025   3.155   4.232 -0.4591  0.2765 -0.4616
 9029SOL    HW138720   4.704   3.195   4.167  1.2174 -0.1977 -2.2724
 9029SOL    HW238721   0.105   3.199   4.203  1.0465 -1.8289  0.5950
 9030SOL     OW38722   3.936   3.033   6.217 -0.0660 -0.3308 -0.4364
 9030SOL    HW138723   3.866   3.009   6.156 -0.5216  0.8473 -0.3923
 9030SOL    HW238724   4.000   3.080   6.163  1.5905 -0.2704  1.5996
 9031SOL     OW38725   1.300   2.880   4.643 -0.0763 -0.1098 -0.2553
 9031SOL    HW138726   1.264   2.968   4.651  0.7224  0.1487  0.5092
 9031SOL    HW238727   1.346   2.872   4.727  1.8338 -0.5932 -1.3547
 9032SOL     OW38728   0.395   3.399  14.632 -0.0060 -0.1534  0.0420
 9032SOL    HW138729   0.485   3.377  14.655  0.5292  1.5037 -0.4306
 9032SOL    HW238730   0.358   3.396  14.720 -0.5139  0.1960 -0.1573
 9033SOL     OW38731   4.533   3.209   1.983  0.4785 -0.0825  0.2010
 9033SOL    HW138732   4.546   3.301   2.008  0.1720 -0.3339  1.2451
 9033SOL    HW238733   4.619   3.178   2.011  0.6076  0.8542  0.8706
 9034SOL     OW38734   0.610   0.129   5.932  0.3793 -0.1038 -0.3558
 9034SOL    HW138735   0.619   0.064   6.001  0.2591 -1.1707 -1.3381
 9034SOL    HW238736   0.614   0.208   5.985  0.3166  0.9510 -1.9268
 9035SOL     OW38737   2.017   3.448   7.550 -0.3184  0.0038 -0.0046
 9035SOL    HW138738   1.940   3.393   7.540 -0.0987 -0.7944  2.6347
 9035SOL    HW238739   1.996   3.518   7.488  0.7255  0.2458 -0.0836
 9036SOL     OW38740   3.909   4.623  10.516  0.2745  0.3463  0.0294
 9036SOL    HW138741   3.823   4.613  10.473  0.5636  2.3617 -1.0438
 9036SOL    HW238742   3.951   4.550  10.471 -0.4212  0.2936 -0.5447
 9037SOL     OW38743   4.217   1.441  16.026  0.2096 -1.0315 -0.1065
 9037SOL    HW138744   4.284   1.379  15.998  1.0361  0.4374 -1.4014
 9037SOL    HW238745   4.250   1.464  16.113 -3.4023 -1.1211  1.2791
 9038SOL     OW38746   4.680   0.270   2.717  0.1821  0.2943  0.2404
 9038SOL    HW138747   0.025   0.281   2.672  1.5439 -1.9805  2.2132
 9038SOL    HW238748   4.678   0.176   2.734  4.2809  0.1417 -0.2364
 9039SOL     OW38749   1.298   1.128   3.483  0.1554  0.5015  0.1641
 9039SOL    HW138750   1.372   1.072   3.462 -1.8717 -1.4320 -1.7330
 9039SOL    HW238751   1.248   1.128   3.402  2.6216 -0.6778 -1.3659
 9040SOL     OW38752   2.605   4.410   3.067  0.1237 -1.0557 -0.1464
 9040SOL    HW138753   2.577   4.320   3.077  1.4310 -1.0941  2.9141
 9040SOL    HW238754   2.636   4.398   2.977  1.3696  2.9907 -0.2931
 9041SOL     OW38755   4.166   4.416   8.447  0.2837  0.3758  0.3574
 9041SOL    HW138756   4.194   4.440   8.535 -1.2396  0.4943  0.8242
 9041SOL    HW238757   4.148   4.502   8.409 -1.1973 -0.5266 -1.0029
 9042SOL     OW38758   2.621   3.567   6.307 -0.0767 -0.0795 -0.2314
 9042SOL    HW138759   2.528   3.546   6.298  0.2774 -1.0424 -1.6939
 9042SOL    HW238760   2.637   3.636   6.242  1.8634 -0.8155 -0.5466
 9043SOL     OW38761   3.413   2.395   4.477 -0.0707 -0.1598 -0.1263
 9043SOL    HW138762   3.331   2.349   4.493  0.1868 -0.2772  0.8655
 9043SOL    HW238763   3.467   2.318   4.497  1.4746  1.2076  0.8956
 9044SOL     OW38764   1.424   2.070   7.780  0.1619 -0.2057 -0.1606
 9044SOL    HW138765   1.425   1.986   7.826  2.4068  0.5891  1.2393
 9044SOL    HW238766   1.415   2.034   7.692 -1.2225  2.7183 -1.2165
 9045SOL     OW38767   1.565   0.812   8.797 -1.1681  0.1067 -0.7638
 9045SOL    HW138768   1.651   0.784   8.766 -0.4169  0.8736  0.6292
 9045SOL    HW238769   1.530   0.725   8.815  2.2907 -1.2236 -0.4311
 9046SOL     OW38770   0.277   4.292   5.305  0.3605 -0.8192 -0.1665
 9046SOL    HW138771   0.209   4.330   5.360  2.3448 -0.9785  2.3941
 9046SOL    HW238772   0.338   4.365   5.293  0.6341 -1.4661 -2.7361
 9047SOL     OW38773   1.369   1.947   9.443 -0.3340 -0.2107  0.1944
 9047SOL    HW138774   1.351   1.856   9.468 -0.2944 -0.6170 -1.2251
 9047SOL    HW238775   1.435   1.961   9.510 -3.7058 -1.6045  3.7850
 9048SOL     OW38776   4.429   2.363   6.927 -0.0830  0.0445  0.0201
 9048SOL    HW138777   4.493   2.319   6.871  0.2885 -0.0221  0.5008
 9048SOL    HW238778   4.461   2.355   7.017 -0.6981  1.7633  0.3957
 9049SOL     OW38779   3.225   4.111   9.308  0.5651  0.3154  0.6552
 9049SOL    HW138780   3.252   4.031   9.353  0.3591 -1.2553 -2.0185
 9049SOL    HW238781   3.308   4.144   9.274 -0.8610  0.0841 -2.9594
 9050SOL     OW38782   0.724   3.301  10.713 -0.7777  0.9079  0.7294
 9050SOL    HW138783   0.739   3.222  10.764  1.2671  0.4331 -0.5886
 9050SOL    HW238784   0.687   3.362  10.777 -0.3280  0.4050  1.4642
 9051SOL     OW38785   1.332   0.513   3.466 -0.0081  0.2917  0.4383
 9051SOL    HW138786   1.368   0.587   3.516 -1.9846  1.4391  0.1751
 9051SOL    HW238787   1.294   0.560   3.392  0.2311  1.7279  1.2079
 9052SOL     OW38788   2.407   4.053   6.850  0.1224  0.0245 -0.3624
 9052SOL    HW138789   2.356   3.990   6.901  2.3877  0.8014  2.8306
 9052SOL    HW238790   2.461   4.093   6.918 -0.2124 -1.5568  0.8421
 9053SOL     OW38791   1.513   1.183   3.172  0.6841 -0.0499 -0.3283
 9053SOL    HW138792   1.544   1.195   3.082 -1.3713 -1.2047 -1.1925
 9053SOL    HW238793   1.587   1.221   3.218  0.4850 -0.2992  0.1981
 9054SOL     OW38794   0.776   1.135   7.459 -0.4561 -1.1145  0.1876
 9054SOL    HW138795   0.714   1.072   7.422 -2.4093  1.0993 -0.3035
 9054SOL    HW238796   0.824   1.167   7.383 -0.3654  0.1644  0.7837
 9055SOL     OW38797   3.608   0.983   4.954 -0.5135 -0.5484 -0.0406
 9055SOL    HW138798   3.583   0.974   4.862 -0.6106 -2.1055  0.1455
 9055SOL    HW238799   3.532   0.949   5.002  0.3241 -0.3850  1.4054
 9056SOL     OW38800   4.383   3.249   9.056  0.2664  0.0617 -0.2746
 9056SOL    HW138801   4.425   3.182   9.110  1.8877  0.3156 -1.2313
 9056SOL    HW238802   4.453   3.312   9.041  0.9854 -1.1783 -2.1805
 9057SOL     OW38803   2.435   1.185  17.702  0.5510 -0.5001  0.2035
 9057SOL    HW138804   2.401   1.274  17.691  1.8392 -0.3800 -2.7436
 9057SOL    HW238805   2.509   1.178  17.642  0.8587  0.0796  0.5110
 9058SOL     OW38806   4.616   2.449  10.778 -0.1541  0.4477  0.0539
 9058SOL    HW138807   4.527   2.420  10.795  0.4119 -0.6087  1.2045
 9058SOL    HW238808   4.616   2.543  10.763  0.0484  0.3953 -0.2968
 9059SOL     OW38809   3.261   2.155   4.100  0.2360  0.4150  0.6387
 9059SOL    HW138810   3.346   2.127   4.133 -0.5308 -1.1416  1.2442
 9059SOL    HW238811   3.255   2.111   4.015 -1.4980  0.2890  0.8410
 9060SOL     OW38812   1.960   0.693   8.359 -0.7022  0.1634 -0.7113
 9060SOL    HW138813   2.027   0.751   8.321 -0.4464  0.7758  0.6697
 9060SOL    HW238814   2.019   0.625   8.390 -1.0596  0.2152  0.0888
 9061SOL     OW38815   0.345   0.696  13.419  0.1057  0.2747  0.1526
 9061SOL    HW138816   0.376   0.611  13.451  1.2095  0.5246 -0.2678
 9061SOL    HW238817   0.314   0.736  13.500  1.4489  0.7321  0.4452
 9062SOL     OW38818   1.522   0.748  10.855  0.0589  0.2809 -0.3050
 9062SOL    HW138819   1.608   0.771  10.890 -0.0927 -1.0277  0.9288
 9062SOL    HW238820   1.476   0.829  10.879  1.1716 -0.0894  3.1296
 9063SOL     OW38821   1.437   0.553  14.190 -0.1179 -0.5495  0.4940
 9063SOL    HW138822   1.412   0.498  14.116  0.2142  0.6415 -0.4895
 9063SOL    HW238823   1.431   0.489  14.262 -1.0774 -0.1480  0.7683
 9064SOL     OW38824   2.847   1.236   5.168  0.2514  0.1995  0.1089
 9064SOL    HW138825   2.927   1.270   5.208 -0.1179  1.1169  0.0829
 9064SOL    HW238826   2.886   1.228   5.081 -1.2941 -0.5960 -0.5171
 9065SOL     OW38827   0.473   4.037   2.284 -0.2004 -0.3387  0.3085
 9065SOL    HW138828   0.540   4.098   2.252  0.8134 -1.0395  1.1070
 9065SOL    HW238829   0.450   4.081   2.365  0.8752 -0.8119  0.8714
 9066SOL     OW38830   2.670   1.847   0.351 -0.4031  0.2702 -0.3869
 9066SOL    HW138831   2.640   1.765   0.390  0.4682  0.2686  0.2715
 9066SOL    HW238832   2.722   1.828   0.274  0.8362  0.0324  0.5181
 9067SOL     OW38833   4.585   2.215   7.950 -0.2293 -0.1851  0.3465
 9067SOL    HW138834   4.620   2.155   7.884  0.8642 -0.0211  0.7709
 9067SOL    HW238835   4.647   2.288   7.948 -0.8170  0.2811 -0.4104
 9068SOL     OW38836   0.679   3.190  15.359 -0.7031  0.4142 -0.0421
 9068SOL    HW138837   0.593   3.150  15.378  0.3034 -1.7026  0.0888
 9068SOL    HW238838   0.743   3.129  15.396 -1.9672 -0.0257  1.4503
 9069SOL     OW38839   0.243   0.668  12.515  0.2410 -0.1235 -0.4629
 9069SOL    HW138840   0.337   0.671  12.533 -0.3333  1.7363  2.1972
 9069SOL    HW238841   0.226   0.577  12.490 -0.9032  0.2914 -1.1920
 9070SOL     OW38842   0.634   0.651  12.255  0.1986 -0.1170  0.5044
 9070SOL    HW138843   0.730   0.645  12.260  0.3641  2.1682  0.1694
 9070SOL    HW238844   0.628   0.746  12.266 -0.0818  0.1626 -2.2281
 9071SOL     OW38845   4.258   0.164   8.222 -0.2245  0.3044 -0.0356
 9071SOL    HW138846   4.291   0.086   8.178 -0.5558 -0.1897  0.5935
 9071SOL    HW238847   4.259   0.132   8.312  2.9604  1.9151  0.5106
 9072SOL     OW38848   2.114   3.993   1.932  0.0612 -0.2548  0.2769
 9072SOL    HW138849   2.041   3.969   1.989  0.5121 -2.2046  0.0289
 9072SOL    HW238850   2.143   4.068   1.984  0.6170 -0.2021 -0.1137
 9073SOL     OW38851   1.582   0.330   0.378 -0.3692  0.2359 -0.1709
 9073SOL    HW138852   1.636   0.289   0.445 -0.4075  0.6942  0.1387
 9073SOL    HW238853   1.626   0.413   0.366  0.6161 -0.3008 -0.2420
 9074SOL     OW38854   1.103   3.878   5.165  0.2906  0.0334  0.5338
 9074SOL    HW138855   1.134   3.909   5.080 -1.4668  0.8358  0.1946
 9074SOL    HW238856   1.093   3.786   5.140  1.5481  0.8221 -2.7866
 9075SOL     OW38857   0.944   2.088   0.335 -0.0533 -0.1195  0.5523
 9075SOL    HW138858   0.934   2.181   0.313 -1.9308 -0.2073  1.0387
 9075SOL    HW238859   1.040   2.084   0.340 -0.1075 -0.2413  1.4677
 9076SOL     OW38860   2.522   1.260   0.210 -0.0941  0.2524  0.0232
 9076SOL    HW138861   2.607   1.235   0.173 -0.7232 -1.3574 -0.3189
 9076SOL    HW238862   2.480   1.277   0.126  0.7196 -2.1421 -0.8716
 9077SOL     OW38863   2.701   0.391   3.800 -0.0153 -0.1317 -0.1684
 9077SOL    HW138864   2.718   0.462   3.738  1.3025 -0.0411  0.3078
 9077SOL    HW238865   2.607   0.406   3.811 -0.1487 -0.1210 -1.3155
 9078SOL     OW38866   2.462   4.585   3.476  0.2665 -0.0205 -0.0323
 9078SOL    HW138867   2.477   4.532   3.398  2.5399 -0.3316  0.6108
 9078SOL    HW238868   2.368   4.605   3.473 -0.5519 -3.6675  2.1624
 9079SOL     OW38869   1.067   0.360   2.599 -0.5738  0.0994 -0.2244
 9079SOL    HW138870   1.139   0.423   2.593 -1.0274  0.3963 -2.6676
 9079SOL    HW238871   1.040   0.372   2.508 -0.8166  0.3254 -0.1220
 9080SOL     OW38872   1.414   1.340   4.980 -0.3228  0.2990  0.2838
 9080SOL    HW138873   1.498   1.382   4.962 -0.0965 -1.2651 -2.3504
 9080SOL    HW238874   1.353   1.378   4.916 -0.8121  0.0978  0.6273
 9081SOL     OW38875   2.031   4.151   6.196 -0.0490  0.1499  0.6735
 9081SOL    HW138876   2.016   4.062   6.164  0.1156  0.3317  0.0998
 9081SOL    HW238877   2.119   4.145   6.232 -0.3101 -2.2382  0.9451
 9082SOL     OW38878   4.055   1.151   2.591  0.1988  0.2587 -0.0063
 9082SOL    HW138879   4.054   1.065   2.548  1.7105 -0.8387  2.1585
 9082SOL    HW238880   3.975   1.191   2.556  0.1752  0.4812  0.3055
 9083SOL     OW38881   4.148   0.391   6.364 -0.1515 -0.3141 -0.5682
 9083SOL    HW138882   4.069   0.353   6.325  0.2085  0.0671 -1.6560
 9083SOL    HW238883   4.144   0.469   6.310 -1.4634  0.4991  0.6886
 9084SOL     OW38884   3.494   1.255  15.828 -0.0072  0.1203  0.3824
 9084SOL    HW138885   3.405   1.244  15.860 -0.8242  0.9232 -1.6076
 9084SOL    HW238886   3.478   1.254  15.733  1.5750  2.3783  0.0815
 9085SOL     OW38887   3.184   2.563   4.010  0.7243  0.2149 -0.3228
 9085SOL    HW138888   3.236   2.512   3.947 -0.4352  0.6388 -1.6179
 9085SOL    HW238889   3.170   2.497   4.078  1.4321  0.4025  0.0022
 9086SOL     OW38890   2.462   1.360   0.504 -0.3887  0.1634 -0.0904
 9086SOL    HW138891   2.370   1.378   0.523 -0.0782  0.7041  0.8924
 9086SOL    HW238892   2.466   1.325   0.415  0.1803  1.5004 -0.5947
 9087SOL     OW38893   1.875   1.518   2.089  0.4710 -0.0958  0.0607
 9087SOL    HW138894   1.963   1.534   2.125  1.1719  0.4408 -1.8857
 9087SOL    HW238895   1.862   1.603   2.046 -3.4514 -1.9668 -2.3643
 9088SOL     OW38896   3.547   1.846   3.520 -0.2137  0.0412 -0.0048
 9088SOL    HW138897   3.622   1.788   3.525 -0.4950 -0.3317 -0.0907
 9088SOL    HW238898   3.477   1.802   3.569  0.3902  1.0647  1.7559
 9089SOL     OW38899   3.446   1.912   7.535 -0.2873 -0.0158  0.3421
 9089SOL    HW138900   3.430   1.822   7.564  0.6398 -0.4539 -0.5112
 9089SOL    HW238901   3.539   1.921   7.555 -0.5958 -3.3521  3.2873
 9090SOL     OW38902   0.309   4.047   6.986  0.1904  0.4640  0.7411
 9090SOL    HW138903   0.387   4.046   7.041 -0.0868  1.1728  1.1461
 9090SOL    HW238904   0.255   3.982   7.032  1.4217 -1.2646 -0.2365
 9091SOL     OW38905   0.191   0.294  11.419 -0.1344 -0.2683  0.5148
 9091SOL    HW138906   0.153   0.210  11.392 -1.1096  1.2123 -2.6132
 9091SOL    HW238907   0.121   0.353  11.394  0.2595  0.3376  0.8420
 9092SOL     OW38908   1.789   0.906  12.859 -0.0770  0.0649 -0.2003
 9092SOL    HW138909   1.806   0.833  12.920 -1.3894 -0.1577 -0.0932
 9092SOL    HW238910   1.799   0.860  12.776 -0.6337  0.2679 -0.3734
 9093SOL     OW38911   4.717   3.456   2.695 -0.2753 -0.5159  0.1070
 9093SOL    HW138912   0.061   3.424   2.734 -0.9174 -2.3261 -0.0032
 9093SOL    HW238913   4.652   3.409   2.748 -0.3694  0.6145  0.9900
 9094SOL     OW38914   0.194   3.641   7.131  0.6542 -0.1871  0.1428
 9094SOL    HW138915   0.181   3.555   7.171 -0.7838  0.0080  0.0815
 9094SOL    HW238916   0.134   3.635   7.056 -1.0604 -1.3323  1.6180
 9095SOL     OW38917   0.150   1.647   6.440  0.2005  0.1435 -0.0190
 9095SOL    HW138918   0.138   1.562   6.396  3.7281  0.4123 -1.5518
 9095SOL    HW238919   0.205   1.699   6.381  1.3211 -2.3812 -1.2418
 9096SOL     OW38920   3.652   1.010   2.091 -0.2371 -0.1762  0.5813
 9096SOL    HW138921   3.613   1.026   2.177 -0.9101 -0.5935  0.3562
 9096SOL    HW238922   3.710   0.937   2.112 -2.5088 -2.0107  0.4845
 9097SOL     OW38923   2.955   3.401   8.720 -0.0836  0.4603 -0.0421
 9097SOL    HW138924   2.866   3.434   8.703 -0.8751 -1.7878 -0.2753
 9097SOL    HW238925   2.934   3.316   8.759 -0.3843  1.5266  2.1225
 9098SOL     OW38926   2.906   4.366   8.352 -0.2440  0.0548 -0.2442
 9098SOL    HW138927   2.997   4.374   8.382 -1.2489  1.2335  2.4613
 9098SOL    HW238928   2.886   4.278   8.383 -0.1028 -0.0185 -0.3643
 9099SOL     OW38929   3.536   1.056   8.525  0.0727  0.3766 -0.3876
 9099SOL    HW138930   3.585   0.976   8.542  0.0352  0.8837  2.0548
 9099SOL    HW238931   3.570   1.097   8.445  2.1491 -1.6233 -0.5302
 9100SOL     OW38932   0.273   0.651   5.405  0.2513  0.2166 -0.2769
 9100SOL    HW138933   0.239   0.568   5.438  0.9118 -0.8800 -2.3586
 9100SOL    HW238934   0.362   0.629   5.379 -0.0672 -1.6599  0.2642
 9101SOL     OW38935   1.055   4.031   3.538 -0.3654  0.7736  0.1537
 9101SOL    HW138936   0.983   3.974   3.566 -1.1689  2.0103  0.5866
 9101SOL    HW238937   1.138   3.988   3.558  0.1476  1.1579 -1.1597
 9102SOL     OW38938   1.117   1.023   5.951 -0.1680  0.1888  0.0999
 9102SOL    HW138939   1.042   1.071   5.916 -1.4435 -0.6629  1.7096
 9102SOL    HW238940   1.184   1.065   5.897 -0.0837 -0.6765 -0.4717
 9103SOL     OW38941   3.389   2.025   5.467 -0.0957  0.7503 -0.2150
 9103SOL    HW138942   3.438   1.959   5.515  1.2437  3.2871  1.8743
 9103SOL    HW238943   3.443   2.103   5.467 -1.6365  1.8191  1.2340
 9104SOL     OW38944   0.256   0.140   6.354  0.4165  0.6990 -0.3400
 9104SOL    HW138945   0.307   0.089   6.291 -0.2936 -0.6750  0.1730
 9104SOL    HW238946   0.282   0.101   6.438 -0.9350 -2.0754 -1.2159
 9105SOL     OW38947   4.080   2.686   5.741 -0.1539  0.1539 -0.6575
 9105SOL    HW138948   4.144   2.659   5.674 -2.0394 -0.2710 -2.3013
 9105SOL    HW238949   4.014   2.623   5.712  0.4455 -1.6941  1.9601
 9106SOL     OW38950   3.822   1.212   4.948  0.0127 -0.3915 -0.1065
 9106SOL    HW138951   3.755   1.147   4.924  1.6670 -1.9486 -0.4956
 9106SOL    HW238952   3.876   1.166   5.012 -0.1735 -0.0210  0.3169
 9107SOL     OW38953   2.354   3.546   6.951 -0.3376  0.6249 -0.2584
 9107SOL    HW138954   2.390   3.503   6.874 -0.2050 -0.7643  0.5813
 9107SOL    HW238955   2.434   3.539   7.003 -1.0138 -1.5348  0.4798
 9108SOL     OW38956   1.794   1.578   6.123 -0.0458  0.0433 -0.5745
 9108SOL    HW138957   1.825   1.532   6.045  1.3711 -0.4585  0.2826
 9108SOL    HW238958   1.858   1.649   6.129 -0.3769  0.2149  0.9559
 9109SOL     OW38959   0.894   0.343  15.250 -0.2978  0.0914 -0.0547
 9109SOL    HW138960   0.988   0.361  15.250  0.0484 -1.7576  1.2118
 9109SOL    HW238961   0.893   0.248  15.255 -0.4125  0.0419 -1.0604
 9110SOL     OW38962   0.100   3.848   9.760  0.2578 -0.5507  0.2170
 9110SOL    HW138963   0.058   3.834   9.845 -0.1293 -1.2355 -0.0847
 9110SOL    HW238964   0.033   3.885   9.703 -1.2044  0.4917  2.5886
 9111SOL     OW38965   3.302   1.357   0.065 -0.6978 -0.0581  0.4759
 9111SOL    HW138966   3.348   1.381   0.145  0.0852 -0.9697  0.2987
 9111SOL    HW238967   3.354   1.418   0.014  2.1804 -1.5376  1.6702
 9112SOL     OW38968   1.148   3.145   6.786  0.8062  0.0043 -0.1693
 9112SOL    HW138969   1.134   3.053   6.764  2.2020 -0.0797 -0.6652
 9112SOL    HW238970   1.068   3.166   6.836  1.0206  0.6232 -0.0813
 9113SOL     OW38971   3.059   2.656   1.006  0.2187  0.0597  0.0849
 9113SOL    HW138972   3.026   2.740   1.038 -0.8336 -0.2540 -0.1613
 9113SOL    HW238973   3.142   2.652   1.053  0.1002  2.6281  0.5265
 9114SOL     OW38974   2.323   2.687   7.559  0.3370  0.1812 -0.3906
 9114SOL    HW138975   2.307   2.721   7.647  3.3629 -3.0493  1.4035
 9114SOL    HW238976   2.381   2.756   7.528  1.7257 -1.5576 -1.6649
 9115SOL     OW38977   0.627   3.170   7.771  0.1672  0.4655 -0.1500
 9115SOL    HW138978   0.647   3.201   7.859  1.1946 -1.7061  0.3678
 9115SOL    HW238979   0.592   3.252   7.736  0.7394  0.7963  0.0437
 9116SOL     OW38980   4.169   3.275   8.299 -0.6662 -0.0419 -0.0632
 9116SOL    HW138981   4.099   3.293   8.237  1.7366 -1.8149 -3.3143
 9116SOL    HW238982   4.153   3.344   8.364  1.9649  0.3514  0.1694
 9117SOL     OW38983   1.918   3.600   6.100 -0.3651 -0.4474  0.0821
 9117SOL    HW138984   1.878   3.561   6.178  0.4167 -0.1224  0.6412
 9117SOL    HW238985   1.948   3.522   6.053  1.4361 -0.3477  1.0900
 9118SOL     OW38986   1.938   4.731   5.927 -0.0431 -0.5878  0.4853
 9118SOL    HW138987   1.976   0.065   5.875  1.5457 -0.9515  1.1632
 9118SOL    HW238988   1.848   0.025   5.930  0.0585 -0.2694  0.2533
 9119SOL     OW38989   4.371   4.585   2.055  0.0471  0.0453 -0.0088
 9119SOL    HW138990   4.397   4.499   2.021 -0.2232 -0.6663  1.5609
 9119SOL    HW238991   4.429   4.649   2.015  0.3946  0.6697  1.5182
 9120SOL     OW38992   4.485   4.272   8.379 -1.0160  0.0186  0.0490
 9120SOL    HW138993   4.467   4.178   8.377  0.4779 -0.2484 -1.0836
 9120SOL    HW238994   4.573   4.267   8.416 -1.3316  1.1955  0.9765
 9121SOL     OW38995   3.905   0.864   5.778  0.3100 -0.3487  0.0306
 9121SOL    HW138996   3.840   0.930   5.753 -0.1782 -1.0183 -0.4981
 9121SOL    HW238997   3.958   0.869   5.698 -0.7543 -2.3773 -0.8219
 9122SOL     OW38998   0.099   4.443   4.029 -0.4149  0.3308  0.6994
 9122SOL    HW138999   0.044   4.367   4.009 -1.4600  1.0550  0.8273
 9122SOL    HW239000   0.178   4.399   4.062 -0.0950  0.2934 -0.1081
 9123SOL     OW39001   3.840   3.439   8.722 -0.3650  0.1450 -0.1138
 9123SOL    HW139002   3.806   3.495   8.652 -2.2477  0.2002  0.8418
 9123SOL    HW239003   3.902   3.506   8.752  2.3162 -1.7471 -1.4336
 9124SOL     OW39004   1.901   3.311   4.910  0.1961  0.2622 -0.4239
 9124SOL    HW139005   1.936   3.233   4.867  1.4292 -0.7394  2.4161
 9124SOL    HW239006   1.837   3.281   4.975  0.7545 -1.4363 -0.6494
 9125SOL     OW39007   2.824   3.088   7.338 -0.3419 -0.4909 -0.2635
 9125SOL    HW139008   2.807   3.120   7.426  1.6153 -0.8474  0.2475
 9125SOL    HW239009   2.917   3.067   7.326  0.3156  2.5415 -0.6127
 9126SOL     OW39010   3.501   4.141   7.626 -0.1928  0.0320  0.1145
 9126SOL    HW139011   3.442   4.072   7.654  0.0318 -0.8962 -1.7019
 9126SOL    HW239012   3.585   4.095   7.633 -0.0720  0.5043  1.8457
 9127SOL     OW39013   3.618   0.548   4.570  0.0601 -0.0732 -0.1542
 9127SOL    HW139014   3.563   0.492   4.514  0.3132  0.3866 -0.8686
 9127SOL    HW239015   3.706   0.513   4.563  0.1419 -0.4030  2.6068
 9128SOL     OW39016   1.615   4.104   7.596  0.1101  0.1401  0.1314
 9128SOL    HW139017   1.705   4.078   7.615  1.2429  3.3327 -0.9075
 9128SOL    HW239018   1.615   4.188   7.641  0.0597  0.4247 -0.4013
 9129SOL     OW39019   1.546   3.009  16.333 -0.3687  0.3117  0.4766
 9129SOL    HW139020   1.598   3.067  16.278  1.1213  0.6876  2.3049
 9129SOL    HW239021   1.534   2.931  16.278  0.3561  0.6427 -0.1412
 9130SOL     OW39022   3.088   3.621  15.169  0.4825  0.0678 -0.0724
 9130SOL    HW139023   3.070   3.627  15.075  0.9159 -0.4721 -0.1932
 9130SOL    HW239024   3.046   3.535  15.173  2.7118 -1.0452 -0.2825
 9131SOL     OW39025   1.634   4.441   5.811  0.4787  0.2198 -0.1102
 9131SOL    HW139026   1.715   4.399   5.779  0.3608 -1.1739  1.4612
 9131SOL    HW239027   1.643   4.442   5.906 -0.2578  3.5469 -0.0931
 9132SOL     OW39028   2.224   0.305  13.155  0.2914 -0.0338 -0.3288
 9132SOL    HW139029   2.212   0.213  13.177 -2.5046  0.3566 -0.2559
 9132SOL    HW239030   2.136   0.325  13.124  1.2191  0.5344 -2.6255
 9133SOL     OW39031   4.725   3.856   8.001  0.0450 -0.1562 -0.3151
 9133SOL    HW139032   4.715   3.943   8.039 -1.9587 -0.4668 -0.1696
 9133SOL    HW239033   4.718   3.867   7.906 -1.6250 -2.7981 -0.4858
 9134SOL     OW39034   3.535   1.985   2.721  0.0111  0.0162 -0.6262
 9134SOL    HW139035   3.566   2.067   2.682 -0.0632 -0.7836 -2.3369
 9134SOL    HW239036   3.546   2.003   2.814 -3.0043  0.6986 -0.3802
 9135SOL     OW39037   3.092   4.188   3.784  0.8102  0.3142  0.1891
 9135SOL    HW139038   3.071   4.277   3.812 -1.2941  0.2489 -1.1669
 9135SOL    HW239039   3.187   4.194   3.791  0.5173  2.6049  2.0003
 9136SOL     OW39040   3.625   1.921   4.688  0.4183 -0.0964 -0.4016
 9136SOL    HW139041   3.633   1.865   4.611 -0.8963 -0.9116  0.0411
 9136SOL    HW239042   3.707   1.904   4.734  0.4907 -1.7869 -1.1487
 9137SOL     OW39043   0.722   1.689   6.507  0.1711 -0.0801  0.0740
 9137SOL    HW139044   0.667   1.642   6.444 -0.2584  1.4582 -0.6974
 9137SOL    HW239045   0.646   1.711   6.560 -0.4676  1.6177 -1.5679
 9138SOL     OW39046   0.775   3.786   2.839  0.1329  0.3087  0.0061
 9138SOL    HW139047   0.854   3.784   2.785  0.2353 -2.0869  0.2282
 9138SOL    HW239048   0.713   3.823   2.776  0.7439 -0.6972 -1.1981
 9139SOL     OW39049   3.118   2.774   1.496  0.3371 -0.6247 -0.3430
 9139SOL    HW139050   3.108   2.864   1.528 -0.2160 -0.2817 -1.5090
 9139SOL    HW239051   3.050   2.766   1.430 -0.0214  0.3767 -0.0956
 9140SOL     OW39052   3.258   3.311   5.579  0.2972 -0.4640  0.0094
 9140SOL    HW139053   3.188   3.357   5.532  0.2071 -1.2096 -0.5799
 9140SOL    HW239054   3.223   3.224   5.599 -0.6354 -0.2646 -0.7778
 9141SOL     OW39055   1.591   1.263   5.988 -0.4144  0.4078 -0.7141
 9141SOL    HW139056   1.571   1.179   5.947  1.9273 -0.7967  0.5572
 9141SOL    HW239057   1.547   1.266   6.073 -1.4247  0.4525 -1.2510
 9142SOL     OW39058   0.712   1.666  11.214  0.2317  0.3414  0.0862
 9142SOL    HW139059   0.729   1.730  11.145 -1.4402 -0.5868 -1.2039
 9142SOL    HW239060   0.747   1.714  11.288  2.0854 -3.4388  1.6320
 9143SOL     OW39061   3.667   3.366   8.977 -0.5680  0.1756  0.2384
 9143SOL    HW139062   3.646   3.455   9.005 -2.1987 -0.8431  2.2561
 9143SOL    HW239063   3.719   3.397   8.903 -1.1473 -1.0200 -0.6771
 9144SOL     OW39064   1.643   3.096   6.175 -0.1355 -0.2191  0.2350
 9144SOL    HW139065   1.587   3.148   6.117  1.2711  2.0669  0.9141
 9144SOL    HW239066   1.728   3.139   6.184 -1.2290  1.7922  1.0386
 9145SOL     OW39067   3.113   1.929  13.041  0.1266 -0.4913  0.4230
 9145SOL    HW139068   3.019   1.912  13.034  0.2736 -1.9249  1.8587
 9145SOL    HW239069   3.144   1.869  13.108 -0.2798  0.6095  1.5904
 9146SOL     OW39070   0.004   2.811  16.248 -0.6074  0.3502 -0.1355
 9146SOL    HW139071   4.720   2.845  16.335  2.8761  1.0657  0.4676
 9146SOL    HW239072   4.669   2.852  16.200 -1.6716 -0.0561  1.1471
 9147SOL     OW39073   3.085   2.797   4.606 -0.2075  0.3128 -0.1735
 9147SOL    HW139074   3.148   2.766   4.671 -2.1677  0.1455  1.6471
 9147SOL    HW239075   3.009   2.800   4.663 -1.1851  0.7276 -1.4806
 9148SOL     OW39076   3.750   1.601   8.175  0.3153 -0.0922  0.5516
 9148SOL    HW139077   3.697   1.574   8.250  0.8549 -0.7484  0.6962
 9148SOL    HW239078   3.714   1.686   8.150 -0.3188 -1.3200 -2.6226
 9149SOL     OW39079   4.533   0.152   8.806 -0.2512 -0.2883  0.9391
 9149SOL    HW139080   4.533   0.061   8.836 -2.4847 -1.2442 -1.9714
 9149SOL    HW239081   4.468   0.190   8.864  1.6224 -0.5705  3.2389
 9150SOL     OW39082   4.326   0.724   3.541 -0.4020  0.2472 -0.4530
 9150SOL    HW139083   4.303   0.674   3.619  0.1384 -0.8803 -1.0207
 9150SOL    HW239084   4.243   0.733   3.495 -0.3490 -0.1169 -0.6163
 9151SOL     OW39085   4.614   2.431  15.237  0.1124 -0.2021  0.2529
 9151SOL    HW139086   4.695   2.438  15.186  1.3690  0.4604  2.3414
 9151SOL    HW239087   4.563   2.384  15.170 -0.2947 -1.6577  1.5860
 9152SOL     OW39088   4.294   4.676  10.729  0.2651  0.4832 -0.2732
 9152SOL    HW139089   4.247   0.016  10.700 -0.7876 -0.6416 -1.5450
 9152SOL    HW239090   4.235   4.601  10.723  0.3816  0.3633  0.0677
 9153SOL     OW39091   4.634   4.291   9.427  0.0910  0.0758  0.3623
 9153SOL    HW139092   4.669   4.241   9.500  1.4944 -0.2031 -0.4973
 9153SOL    HW239093   4.649   4.378   9.465  1.7901  0.1484 -0.4593
 9154SOL     OW39094   0.808   3.643  14.957  0.6722 -0.1583  0.0151
 9154SOL    HW139095   0.769   3.646  14.870 -1.0370  0.0369  0.7835
 9154SOL    HW239096   0.752   3.705  15.004 -3.5508 -1.5490 -3.1642
 9155SOL     OW39097   4.284   3.050  14.751 -0.2884 -0.2105 -0.3704
 9155SOL    HW139098   4.345   3.080  14.683 -0.0325 -0.5384 -0.2844
 9155SOL    HW239099   4.233   3.131  14.762 -0.4005 -0.5212  1.4588
 9156SOL     OW39100   0.724   2.575   3.556  0.3231  0.3574 -0.3220
 9156SOL    HW139101   0.781   2.638   3.512 -0.5388  0.7181 -0.9125
 9156SOL    HW239102   0.744   2.489   3.520  0.1000 -0.9396  2.6051
 9157SOL     OW39103   3.892   3.943   7.033  0.2159  0.0634  0.3234
 9157SOL    HW139104   3.901   3.853   7.001 -2.0218 -0.7944  2.0778
 9157SOL    HW239105   3.977   3.985   7.019  0.4343 -0.2205  0.7731
 9158SOL     OW39106   0.207   3.748   5.752 -0.0928 -0.2767 -0.2629
 9158SOL    HW139107   0.183   3.840   5.742 -1.7603 -0.6254  0.4343
 9158SOL    HW239108   0.166   3.720   5.670 -0.2988  2.8681 -1.2470
 9159SOL     OW39109   0.663   4.330   7.967  0.3200 -0.2664  0.0538
 9159SOL    HW139110   0.640   4.245   8.004  0.4202  0.8911  2.7594
 9159SOL    HW239111   0.758   4.322   7.975  0.2658  0.2332  1.1680
 9160SOL     OW39112   0.226   3.934  11.117 -0.2075 -0.7407 -0.1566
 9160SOL    HW139113   0.316   3.957  11.141 -0.9017  1.2055  0.6232
 9160SOL    HW239114   0.229   3.839  11.109 -1.4039 -0.8617  0.8273
 9161SOL     OW39115   2.029   3.546   1.619 -0.0189  0.4588  0.3581
 9161SOL    HW139116   2.043   3.639   1.639  1.6439 -0.0389  1.4266
 9161SOL    HW239117   2.119   3.520   1.634  0.0016  1.1609  1.4671
 9162SOL     OW39118   4.692   1.370   2.096 -0.3779  0.0594 -0.2716
 9162SOL    HW139119   4.601   1.369   2.125 -0.4512  1.9269 -0.4788
 9162SOL    HW239120   4.700   1.274   2.099 -2.9702 -0.1910 -1.6094
 9163SOL     OW39121   3.155   0.590  14.937  0.6664 -0.3865  0.3557
 9163SOL    HW139122   3.181   0.508  14.896 -2.3960 -0.4432 -1.4797
 9163SOL    HW239123   3.178   0.655  14.871 -1.8477  1.3394  1.1546
 9164SOL     OW39124   2.034   0.171   0.092  0.1861 -0.1119  0.5595
 9164SOL    HW139125   2.121   0.135   0.111  0.3807  0.0076 -0.0935
 9164SOL    HW239126   2.055   0.211   0.007 -0.1199 -1.8255 -0.3286
 9165SOL     OW39127   3.784   4.252   6.875  0.1106  0.1716 -0.7651
 9165SOL    HW139128   3.755   4.184   6.935  4.8893 -0.7572  0.4761
 9165SOL    HW239129   3.878   4.234   6.880 -0.6528 -2.9752  2.2810
 9166SOL     OW39130   3.706   1.444   6.117  0.0180  0.5175 -0.3689
 9166SOL    HW139131   3.621   1.467   6.154  0.0226  0.3124 -0.2310
 9166SOL    HW239132   3.766   1.508   6.157  0.6401 -0.1489 -0.2308
 9167SOL     OW39133   1.437   4.229  10.123 -0.0307 -0.1601  0.6136
 9167SOL    HW139134   1.532   4.239  10.132 -0.2997  0.7317  2.6090
 9167SOL    HW239135   1.434   4.139  10.092  3.3002  0.1118 -0.4663
 9168SOL     OW39136   0.708   1.124   6.341 -0.6680  0.4445 -0.3534
 9168SOL    HW139137   0.699   1.220   6.338 -0.1557  0.4929 -0.3758
 9168SOL    HW239138   0.704   1.100   6.248 -1.1182  0.9611 -0.4657
 9169SOL     OW39139   0.502   0.997   9.651  0.3215  0.1708 -0.0287
 9169SOL    HW139140   0.527   1.087   9.673  0.0587  0.3404 -0.4276
 9169SOL    HW239141   0.534   0.985   9.562 -1.3852 -0.7548 -0.5228
 9170SOL     OW39142   2.877   3.822  15.168 -0.1642  0.4957 -0.1425
 9170SOL    HW139143   2.947   3.768  15.204 -0.0094  0.4108 -0.5717
 9170SOL    HW239144   2.927   3.856  15.094  1.5572 -1.5296  0.0747
 9171SOL     OW39145   1.487   1.667  11.997  0.3161  0.3356 -0.4900
 9171SOL    HW139146   1.458   1.603  12.061 -1.2935 -0.8136 -2.3917
 9171SOL    HW239147   1.574   1.628  11.984 -0.4615 -0.4860 -3.0650
 9172SOL     OW39148   3.918   2.023  15.416  0.2552  0.0171 -0.3652
 9172SOL    HW139149   3.900   2.105  15.462  2.9559  1.2510 -1.4868
 9172SOL    HW239150   3.896   1.952  15.477  0.7064  0.0339 -0.1853
 9173SOL     OW39151   0.410   4.538  12.211 -0.1637  0.4787 -0.9992
 9173SOL    HW139152   0.413   4.461  12.268  1.7720  0.9719 -0.4197
 9173SOL    HW239153   0.389   4.610  12.270  3.6991  1.8643 -1.2977
 9174SOL     OW39154   2.585   2.694   4.089  0.3448 -0.3472  0.3798
 9174SOL    HW139155   2.639   2.616   4.078  1.0609  0.3291 -0.8128
 9174SOL    HW239156   2.517   2.662   4.149  1.9720 -2.5413  1.0655
 9175SOL     OW39157   0.961   1.730  14.752  0.3799 -0.3548  0.5018
 9175SOL    HW139158   0.968   1.815  14.795  0.1447 -0.6103  1.0432
 9175SOL    HW239159   0.890   1.681  14.793  0.6097 -0.3964  0.8585
 9176SOL     OW39160   2.598   2.323   6.792 -0.1203  0.0123 -0.5230
 9176SOL    HW139161   2.625   2.335   6.882 -3.1186 -0.1717  0.3967
 9176SOL    HW239162   2.663   2.259   6.764 -0.7583 -0.7060 -0.3859
 9177SOL     OW39163   2.253   4.448   5.524  0.2992 -0.0024 -0.2434
 9177SOL    HW139164   2.175   4.500   5.544  0.4770 -0.5871  1.9804
 9177SOL    HW239165   2.280   4.415   5.610  1.3065 -1.5118 -1.1352
 9178SOL     OW39166   4.043   3.857   6.240 -0.1836  0.8237  0.3055
 9178SOL    HW139167   3.961   3.837   6.286  1.1383  0.0228  2.2825
 9178SOL    HW239168   4.055   3.947   6.268  1.7228  0.9267 -0.8312
 9179SOL     OW39169   1.887   0.299   7.937  0.7355 -0.5585  0.4376
 9179SOL    HW139170   1.937   0.303   8.018 -0.9966 -0.0831  1.4687
 9179SOL    HW239171   1.843   0.383   7.929  0.9316 -0.7132 -2.3293
 9180SOL     OW39172   0.951   1.453   5.759  0.3779 -0.1319  0.4288
 9180SOL    HW139173   1.012   1.478   5.689 -1.2757  2.3998 -0.1447
 9180SOL    HW239174   0.898   1.382   5.724  2.7358 -1.5390 -0.2253
 9181SOL     OW39175   3.198   0.152  10.786  0.2173 -0.3983 -0.5847
 9181SOL    HW139176   3.120   0.101  10.809  0.2665 -0.3674 -0.3483
 9181SOL    HW239177   3.196   0.142  10.691  2.9905 -0.0800 -0.6915
 9182SOL     OW39178   2.908   0.795   9.374  0.0527  0.1475 -0.2955
 9182SOL    HW139179   2.911   0.853   9.450 -0.8558  1.6623 -1.4020
 9182SOL    HW239180   2.820   0.758   9.378 -0.0510  0.1746 -2.1138
 9183SOL     OW39181   2.201   3.034   4.060 -0.5487  0.0646 -0.4222
 9183SOL    HW139182   2.256   3.106   4.091  0.1559 -0.5824 -0.1386
 9183SOL    HW239183   2.167   3.073   3.980  3.7915  1.3879 -1.6108
 9184SOL     OW39184   0.599   3.814   9.179 -0.0761  0.8004 -0.1797
 9184SOL    HW139185   0.515   3.835   9.138 -0.0455  0.2689 -0.5214
 9184SOL    HW239186   0.574   3.737   9.230 -0.6305  0.5629 -0.8065
 9185SOL     OW39187   2.906   1.218   9.152 -0.0920  0.2615  0.8466
 9185SOL    HW139188   2.839   1.186   9.212 -1.6393 -1.4151 -1.8058
 9185SOL    HW239189   2.978   1.158   9.171 -1.0305 -1.0861  0.1141
 9186SOL     OW39190   4.715   4.552   7.673  0.0069 -0.5273 -0.3628
 9186SOL    HW139191   0.049   4.516   7.726  0.2128 -0.5146 -0.6301
 9186SOL    HW239192   4.712   4.485   7.605 -1.2347 -1.6144  0.7627
 9187SOL     OW39193   3.615   4.442   4.283  0.4186  0.3600 -0.0980
 9187SOL    HW139194   3.638   4.435   4.191  3.7670  0.8224  0.7085
 9187SOL    HW239195   3.519   4.443   4.277  0.3373 -0.6275  0.8558
 9188SOL     OW39196   3.172   2.562   3.563 -0.2878  0.6320 -0.4915
 9188SOL    HW139197   3.234   2.552   3.490  2.8841  0.9443  2.1999
 9188SOL    HW239198   3.205   2.643   3.601  2.3357 -0.6367 -0.0742
 9189SOL     OW39199   0.050   0.177   1.537 -0.4164  0.2548 -0.5348
 9189SOL    HW139200   0.034   0.086   1.562  0.4235 -0.1716 -1.5560
 9189SOL    HW239201   0.068   0.167   1.443  1.0736 -1.7940 -0.0360
 9190SOL     OW39202   0.819   3.083   1.932 -0.4748  0.2650  0.1306
 9190SOL    HW139203   0.818   3.023   2.006  1.9804 -0.7846 -0.6872
 9190SOL    HW239204   0.881   3.039   1.874  0.1839  0.4898  0.6675
 9191SOL     OW39205   2.947   3.835  14.905  0.3024  0.0660 -0.3636
 9191SOL    HW139206   3.020   3.775  14.921  0.8165  0.5894 -0.7854
 9191SOL    HW239207   2.888   3.786  14.848 -0.1065  0.2240 -0.0764
 9192SOL     OW39208   2.979   0.909   9.768 -0.5359 -0.0657  0.1626
 9192SOL    HW139209   3.050   0.855   9.733 -0.3180  0.5878 -0.4157
 9192SOL    HW239210   2.919   0.836   9.780 -0.8527  0.0841 -0.5006
 9193SOL     OW39211   0.595   2.482   2.587 -0.5596 -0.1675  0.4628
 9193SOL    HW139212   0.637   2.437   2.660  0.2364  0.0624  0.1511
 9193SOL    HW239213   0.537   2.413   2.555 -0.4310 -0.4322  0.8041
 9194SOL     OW39214   4.126   1.716   8.244  0.3335  0.0119  0.2116
 9194SOL    HW139215   4.082   1.647   8.195  1.7776 -0.2628 -0.6646
 9194SOL    HW239216   4.106   1.687   8.333  1.3513 -0.3200  0.3261
 9195SOL     OW39217   0.835   0.461   7.138  0.5666  0.2260  0.0940
 9195SOL    HW139218   0.909   0.468   7.198  0.0052 -1.6615  1.0085
 9195SOL    HW239219   0.846   0.373   7.102  0.0881 -0.0830  0.7019
 9196SOL     OW39220   2.513   2.725   5.131  0.1869  0.6302 -1.0052
 9196SOL    HW139221   2.604   2.718   5.162 -0.1622  2.3775  0.4346
 9196SOL    HW239222   2.512   2.661   5.061 -0.0849  0.5820 -0.9577
 9197SOL     OW39223   3.103   2.931  10.686 -0.4729 -0.2420  0.4342
 9197SOL    HW139224   3.138   2.984  10.614  1.9034 -0.0901  1.6757
 9197SOL    HW239225   3.175   2.944  10.749  0.0041 -2.1080  0.2800
 9198SOL     OW39226   2.170   4.250   4.624  0.0133 -0.1994  0.3261
 9198SOL    HW139227   2.098   4.215   4.572  0.1518  0.0157 -0.0112
 9198SOL    HW239228   2.250   4.225   4.577  0.0947  0.2031  0.2503
 9199SOL     OW39229   0.127   3.180   6.171  0.2938 -0.5743  0.7145
 9199SOL    HW139230   0.150   3.145   6.085 -0.1764  1.6904 -0.3381
 9199SOL    HW239231   0.212   3.180   6.215  0.1850 -0.2557  0.9284
 9200SOL     OW39232   2.703   2.873   8.559 -0.1621 -0.5138 -0.1082
 9200SOL    HW139233   2.705   2.778   8.548  0.6030 -0.6780  1.2929
 9200SOL    HW239234   2.793   2.897   8.537  0.3568 -0.4549  1.9976
 9201SOL     OW39235   0.718   0.037   7.401  0.2338  0.3396  0.1370
 9201SOL    HW139236   0.657   4.708   7.435 -1.4310  1.5664 -0.4656
 9201SOL    HW239237   0.784   4.726   7.352 -0.1594  0.4431 -0.4937
 9202SOL     OW39238   0.289   1.260   9.336 -0.2660 -0.6215  0.1789
 9202SOL    HW139239   0.300   1.168   9.312  0.7112 -0.6592  0.7955
 9202SOL    HW239240   0.202   1.270   9.297  0.5911 -0.5781 -1.7262
 9203SOL     OW39241   3.526   2.936   8.304 -0.1666 -0.6184 -0.0593
 9203SOL    HW139242   3.478   2.889   8.372  1.7619 -2.0040  0.3614
 9203SOL    HW239243   3.471   2.914   8.229  1.4806 -0.6435 -1.2669
 9204SOL     OW39244   3.874   2.734  16.381  0.1760 -0.0911 -0.1859
 9204SOL    HW139245   3.942   2.779  16.330 -1.3884  3.8453  1.1875
 9204SOL    HW239246   3.921   2.710  16.461  0.1786 -0.7007 -0.3717
 9205SOL     OW39247   3.478   2.290   6.200  0.4741 -0.4871 -0.0504
 9205SOL    HW139248   3.496   2.344   6.123 -1.4482  1.7159  1.0192
 9205SOL    HW239249   3.398   2.327   6.238 -0.0978 -1.6493 -0.1145
 9206SOL     OW39250   2.276   0.394   5.826 -0.0437 -0.1073  0.3817
 9206SOL    HW139251   2.360   0.409   5.782 -1.2435 -1.9837 -2.4749
 9206SOL    HW239252   2.216   0.436   5.764 -2.2731 -1.9275  1.3349
 9207SOL     OW39253   3.232   2.005  14.591  0.0171 -0.2916  0.4489
 9207SOL    HW139254   3.223   2.076  14.654 -0.1620  1.4196 -1.5002
 9207SOL    HW239255   3.143   2.006  14.554 -0.0505 -2.4702  0.5796
 9208SOL     OW39256   3.427   0.678   4.818  0.2907  0.3004 -0.2975
 9208SOL    HW139257   3.394   0.754   4.866  1.0568  0.8656 -0.6665
 9208SOL    HW239258   3.377   0.679   4.736 -0.3351  0.7882  0.0936
 9209SOL     OW39259   3.780   1.816   9.632  0.3022 -0.1895 -0.1158
 9209SOL    HW139260   3.856   1.770   9.598  1.6437  2.0881 -0.2325
 9209SOL    HW239261   3.775   1.806   9.727  1.3413  0.1893 -0.0300
 9210SOL     OW39262   0.102   2.231   4.221  0.9448 -0.2870 -0.3691
 9210SOL    HW139263   0.092   2.296   4.291  1.1655 -1.1007  0.4137
 9210SOL    HW239264   0.149   2.162   4.267  1.8893  1.7575  1.7307
 9211SOL     OW39265   2.925   2.596   3.656  0.0708 -0.2033  0.1611
 9211SOL    HW139266   3.007   2.584   3.609  1.5760  2.8436  2.0387
 9211SOL    HW239267   2.867   2.640   3.594  1.4967  2.9644  1.1002
 9212SOL     OW39268   3.760   0.542  15.843 -0.3584 -0.4090  0.0406
 9212SOL    HW139269   3.706   0.620  15.857 -2.6398 -1.4725 -2.7090
 9212SOL    HW239270   3.827   0.588  15.793 -1.3544  0.6220 -0.3607
 9213SOL     OW39271   1.226   1.170   3.199  0.2606  0.1161 -0.0135
 9213SOL    HW139272   1.230   1.088   3.148 -1.4948 -0.5418  0.9218
 9213SOL    HW239273   1.316   1.200   3.183  0.4135  0.2658  1.1362
 9214SOL     OW39274   2.498   4.136   4.892  0.2453  0.0259  0.2813
 9214SOL    HW139275   2.457   4.051   4.906 -1.6017  0.8867  0.1552
 9214SOL    HW239276   2.426   4.198   4.903 -1.3339 -1.9364  0.9684
 9215SOL     OW39277   3.693   4.722   1.979  0.6744  0.2026  0.2292
 9215SOL    HW139278   3.653   4.648   2.026  1.5597 -0.1986  0.3457
 9215SOL    HW239279   3.773   4.682   1.947 -0.4778 -1.5573 -0.4715
 9216SOL     OW39280   4.051   3.400   7.716  0.3879  0.2313 -0.0703
 9216SOL    HW139281   3.976   3.451   7.687  0.6512 -0.0163 -1.2044
 9216SOL    HW239282   4.117   3.466   7.734  0.2733  0.6960 -1.3423
 9217SOL     OW39283   3.776   3.825   2.858 -0.0613  0.2906 -0.2342
 9217SOL    HW139284   3.794   3.890   2.789  0.7691  1.7175  1.3225
 9217SOL    HW239285   3.681   3.816   2.854  0.1163 -0.5146 -2.5129
 9218SOL     OW39286   0.375   1.267   3.539 -0.2544  0.3496  0.1937
 9218SOL    HW139287   0.353   1.250   3.447 -1.7177 -3.0925  1.1876
 9218SOL    HW239288   0.298   1.324   3.548  0.5688  1.2510  1.6240
 9219SOL     OW39289   1.090   1.913  15.515 -0.3086  0.0056 -0.2487
 9219SOL    HW139290   1.065   1.998  15.553 -1.3628 -1.4168  2.2487
 9219SOL    HW239291   1.153   1.936  15.447 -0.8847  1.5289 -0.2791
 9220SOL     OW39292   1.790   4.555   7.078  0.1335  0.3641 -0.4718
 9220SOL    HW139293   1.734   4.618   7.034 -0.9685  0.8590  1.6492
 9220SOL    HW239294   1.725   4.492   7.108  1.7064 -0.3323  1.4453
 9221SOL     OW39295   2.915   3.670  17.224  0.7256  0.2884 -0.2920
 9221SOL    HW139296   2.911   3.575  17.235 -0.4213  0.3838  0.1227
 9221SOL    HW239297   2.851   3.703  17.287  0.4820 -0.1109 -0.3335
 9222SOL     OW39298   1.887   1.988   4.214  0.0650  0.0878  0.1232
 9222SOL    HW139299   1.902   2.082   4.210  0.7058  0.0361  1.1060
 9222SOL    HW239300   1.970   1.946   4.190 -0.8074 -0.4583 -1.9409
 9223SOL     OW39301   4.016   0.188   3.221 -0.0307  0.4577  0.7974
 9223SOL    HW139302   3.930   0.208   3.260 -1.5254  1.3321 -2.8947
 9223SOL    HW239303   4.033   0.107   3.269  0.0909  0.8803  1.4723
 9224SOL     OW39304   0.258   0.202   9.893  0.5744 -0.3313 -0.1413
 9224SOL    HW139305   0.194   0.199   9.964 -0.4050 -1.1750 -1.0547
 9224SOL    HW239306   0.322   0.264   9.928 -2.1238  0.8045  2.7786
 9225SOL     OW39307   2.919   2.802   1.341  0.6030 -0.1744 -0.4900
 9225SOL    HW139308   2.933   2.813   1.247 -0.4406  2.9221 -0.2964
 9225SOL    HW239309   2.825   2.783   1.338  0.3954  0.7783  0.2867
 9226SOL     OW39310   1.870   4.604   4.185  0.6823 -0.4165  0.4533
 9226SOL    HW139311   1.891   4.688   4.144  1.2738 -0.4667  0.6546
 9226SOL    HW239312   1.781   4.623   4.217  0.7485 -1.0912  1.0430
 9227SOL     OW39313   2.562   3.020   7.677 -0.1841  0.1154 -0.4570
 9227SOL    HW139314   2.489   2.994   7.621  0.2347 -1.6639 -0.1550
 9227SOL    HW239315   2.513   3.064   7.746 -0.6196  0.4732 -0.9939
 9228SOL     OW39316   2.745   4.118   3.937  0.3860 -0.0051 -0.3385
 9228SOL    HW139317   2.667   4.098   3.885  0.5462  0.1420 -0.6346
 9228SOL    HW239318   2.762   4.206   3.904 -1.7211 -0.4843 -2.7637
 9229SOL     OW39319   2.493   2.895   4.737  0.0534  0.1961  0.1690
 9229SOL    HW139320   2.406   2.855   4.744 -0.5141  1.6402  1.1523
 9229SOL    HW239321   2.504   2.872   4.644 -0.2246 -0.8234  0.3908
 9230SOL     OW39322   4.589   3.464   2.448 -0.7875  0.5149 -0.0982
 9230SOL    HW139323   4.546   3.387   2.486 -1.3884 -0.9913 -3.8052
 9230SOL    HW239324   4.648   3.464   2.524 -1.7140 -1.1074  0.6180
 9231SOL     OW39325   1.403   2.428   5.110 -0.3047 -0.0218  0.0235
 9231SOL    HW139326   1.312   2.410   5.130  0.0276 -1.5694  0.1804
 9231SOL    HW239327   1.424   2.475   5.190 -0.6950  1.2499 -0.6274
 9232SOL     OW39328   4.249   1.305  13.711  0.3076  0.2987 -0.3496
 9232SOL    HW139329   4.342   1.323  13.700  0.8401 -1.9542  0.5711
 9232SOL    HW239330   4.231   1.360  13.787 -1.8827 -3.0935  1.5935
 9233SOL     OW39331   3.319   4.488  14.365 -0.5482  0.5772  0.1472
 9233SOL    HW139332   3.237   4.475  14.316  0.9373 -0.0128 -2.2126
 9233SOL    HW239333   3.298   4.437  14.443 -2.7048  1.0985 -0.1101
 9234SOL     OW39334   1.486   0.530  10.998  0.2211  0.0016  0.3935
 9234SOL    HW139335   1.513   0.605  10.944  1.4978 -1.2567 -0.7158
 9234SOL    HW239336   1.496   0.455  10.939  0.4975  0.5884 -0.3030
 9235SOL     OW39337   1.852   1.458   1.480  0.0172 -0.0063  0.4908
 9235SOL    HW139338   1.764   1.493   1.494  0.7351  2.4308 -1.0136
 9235SOL    HW239339   1.879   1.501   1.399 -1.3080 -0.6795 -0.3082
 9236SOL     OW39340   2.307   1.036   2.353  0.7293  0.4600 -0.5333
 9236SOL    HW139341   2.371   0.968   2.336 -0.0997 -0.1881 -1.0364
 9236SOL    HW239342   2.308   1.086   2.271  0.9418  0.9745 -0.2197
 9237SOL     OW39343   4.071   4.009   1.377  0.1462  0.1460  0.0004
 9237SOL    HW139344   3.984   3.979   1.351 -0.1558 -1.7844  3.2242
 9237SOL    HW239345   4.044   4.073   1.443 -0.7975 -0.5760  0.3197
 9238SOL     OW39346   1.584   1.634   9.026 -0.5354 -0.1206  0.0326
 9238SOL    HW139347   1.608   1.670   8.940 -1.1445 -0.6301 -0.3506
 9238SOL    HW239348   1.628   1.549   9.032 -0.0339  0.1378  0.0487
 9239SOL     OW39349   4.167   4.417  16.194 -0.5204 -0.2102 -0.2618
 9239SOL    HW139350   4.199   4.460  16.115  1.6009 -1.3156 -0.0227
 9239SOL    HW239351   4.076   4.443  16.179 -0.4549  0.1999  0.0729
 9240SOL     OW39352   0.465   3.962  11.235  0.0410  0.1969  0.3927
 9240SOL    HW139353   0.554   3.995  11.249 -0.5489  1.4876  1.0543
 9240SOL    HW239354   0.449   3.928  11.323 -0.2131 -0.1782  0.2037
 9241SOL     OW39355   3.781   0.093  17.161 -0.2557  0.3968 -0.1759
 9241SOL    HW139356   3.759   0.038  17.085 -1.4496  1.3935 -0.5588
 9241SOL    HW239357   3.791   0.180  17.122 -1.5018  0.7539  0.3057
 9242SOL     OW39358   4.711   3.384  13.722 -0.1853  0.1265 -0.3575
 9242SOL    HW139359   4.707   3.425  13.636  3.3643 -0.3349 -0.7483
 9242SOL    HW239360   4.662   3.302  13.712 -1.3454  0.8839 -0.7981
 9243SOL     OW39361   0.226   3.613  11.400  0.4492 -0.2882  0.5256
 9243SOL    HW139362   0.176   3.690  11.426 -0.2468 -1.2044  1.9278
 9243SOL    HW239363   0.178   3.548  11.452 -0.4795 -0.3322 -0.3789
 9244SOL     OW39364   2.681   2.035  15.300  0.4335 -0.5850 -0.4635
 9244SOL    HW139365   2.761   1.982  15.303  0.3956 -0.7158 -1.5629
 9244SOL    HW239366   2.662   2.047  15.393 -1.0193 -0.4873 -0.7871
 9245SOL     OW39367   4.074   2.370   2.158 -0.2077 -0.0333  0.2506
 9245SOL    HW139368   4.072   2.287   2.110  0.7182 -0.5903  1.1858
 9245SOL    HW239369   3.980   2.373   2.177  0.0036  1.0416  1.1244
 9246SOL     OW39370   3.994   0.684   2.158  0.3413  0.4741 -0.0161
 9246SOL    HW139371   4.040   0.606   2.125  2.5588  1.6780  0.1967
 9246SOL    HW239372   4.046   0.710   2.233  1.8388  2.6413 -1.7871
 9247SOL     OW39373   2.406   1.209   1.480 -0.1405  0.1663  0.1542
 9247SOL    HW139374   2.385   1.297   1.450 -1.1053 -0.2511 -0.3932
 9247SOL    HW239375   2.422   1.155   1.402 -0.3819 -0.8233  0.7945
 9248SOL     OW39376   0.376   3.181  15.319 -0.1054  0.5503 -0.2724
 9248SOL    HW139377   0.313   3.159  15.388  0.7067  0.1644  0.3606
 9248SOL    HW239378   0.309   3.233  15.277 -1.9858 -0.8788  0.9453
 9249SOL     OW39379   1.779   0.234   9.464 -0.5194  0.2965 -0.1147
 9249SOL    HW139380   1.729   0.193   9.535  0.8093 -1.6680 -0.3013
 9249SOL    HW239381   1.870   0.212   9.485 -0.1906  2.3355  0.6500
 9250SOL     OW39382   3.230   0.692  16.051  0.5765  0.2705  0.2010
 9250SOL    HW139383   3.308   0.641  16.030 -0.0821 -0.7326  0.2084
 9250SOL    HW239384   3.158   0.629  16.043 -1.7032  2.7627  1.0796
 9251SOL     OW39385   2.198   0.241   4.439 -0.0037 -0.2865 -0.1202
 9251SOL    HW139386   2.171   0.188   4.515 -0.7268  2.6557  1.6591
 9251SOL    HW239387   2.256   0.306   4.478 -2.1074  1.8854 -0.6496
 9252SOL     OW39388   1.610   4.332   7.719  0.0638 -0.1130  0.0683
 9252SOL    HW139389   1.616   4.426   7.703 -0.6658 -0.3109 -1.4424
 9252SOL    HW239390   1.549   4.340   7.792  0.4579  1.5909  0.2079
 9253SOL     OW39391   2.608   1.796   2.235 -0.5983 -0.2390 -0.3295
 9253SOL    HW139392   2.521   1.819   2.202 -0.8066 -0.1634  0.2733
 9253SOL    HW239393   2.575   1.764   2.319  1.0301 -0.7458  0.1064
 9254SOL     OW39394   2.105   1.487   8.775  0.7299 -0.2771  0.0509
 9254SOL    HW139395   2.191   1.499   8.736  0.5001 -0.6941 -0.5775
 9254SOL    HW239396   2.106   1.395   8.804  3.2556 -0.1162  0.4621
 9255SOL     OW39397   1.914   1.039   8.799  0.2151 -0.5370 -0.5024
 9255SOL    HW139398   1.988   1.095   8.821  0.1580 -0.4722 -0.4758
 9255SOL    HW239399   1.856   1.085   8.738 -1.2055 -0.7162  0.7106
 9256SOL     OW39400   1.021   2.754  11.187 -0.7716  0.0516 -0.6506
 9256SOL    HW139401   1.026   2.732  11.280  2.2641  1.6943 -0.4512
 9256SOL    HW239402   1.112   2.774  11.167 -0.2841 -3.6007 -2.1143
 9257SOL     OW39403   4.402   4.071   8.071 -0.0273 -0.1355  0.2079
 9257SOL    HW139404   4.468   4.090   8.004  0.3934 -0.6055  0.4875
 9257SOL    HW239405   4.460   4.027   8.133 -0.3008 -1.3607 -0.4058
 9258SOL     OW39406   4.028   0.843   5.530  0.0943  0.5245  0.7254
 9258SOL    HW139407   3.975   0.851   5.451  1.8350  2.2071 -0.3012
 9258SOL    HW239408   4.051   0.751   5.516  0.7263  0.4714  2.1504
 9259SOL     OW39409   1.277   0.154  11.304  0.6011  0.0604 -0.3766
 9259SOL    HW139410   1.201   0.096  11.301  1.2733 -0.8056 -0.7356
 9259SOL    HW239411   1.251   0.201  11.225  2.2120  1.6558  0.0616
 9260SOL     OW39412   4.539   3.188   6.001 -0.3633  0.3890 -0.4126
 9260SOL    HW139413   4.569   3.103   5.967  1.0210  0.5844  0.3183
 9260SOL    HW239414   4.480   3.155   6.069  0.7647  1.0624  0.8960
 9261SOL     OW39415   3.681   3.623  12.701 -0.5411  0.1194  0.1992
 9261SOL    HW139416   3.717   3.661  12.780  0.8244 -0.2294 -0.2583
 9261SOL    HW239417   3.722   3.538  12.681  0.1745  0.9856 -2.0144
 9262SOL     OW39418   4.277   3.913  17.192 -0.3630  0.0351  0.1482
 9262SOL    HW139419   4.275   3.861  17.111  0.0396  0.4017 -0.0932
 9262SOL    HW239420   4.335   3.984  17.166  2.5983 -1.6587  2.2007
 9263SOL     OW39421   1.775   1.545   9.871  0.6178  0.0488 -0.0330
 9263SOL    HW139422   1.773   1.637   9.898  0.2524 -0.0036  0.1225
 9263SOL    HW239423   1.739   1.502   9.949  0.9191 -2.7703 -1.4239
 9264SOL     OW39424   0.921   1.618   1.392 -0.4910 -0.4287  0.0249
 9264SOL    HW139425   0.881   1.533   1.372  0.8764 -1.4501  1.7491
 9264SOL    HW239426   0.934   1.615   1.486 -1.0724  0.6164  0.1453
 9265SOL     OW39427   1.014   0.088   6.485 -0.1670  0.6539 -0.3230
 9265SOL    HW139428   1.045   0.150   6.419  1.9023 -1.1401 -1.0423
 9265SOL    HW239429   0.940   0.047   6.441  0.1305 -1.1055  0.7769
 9266SOL     OW39430   4.731   1.504   8.785 -0.0128 -0.0757  0.3986
 9266SOL    HW139431   0.069   1.489   8.727 -0.3039  1.4551 -0.3770
 9266SOL    HW239432   4.725   1.427   8.841 -1.8512  0.0958  0.4193
 9267SOL     OW39433   3.051   3.922   4.667 -0.0206 -0.2717 -0.1497
 9267SOL    HW139434   3.122   3.890   4.611 -0.7257 -0.6818 -0.7900
 9267SOL    HW239435   3.004   3.840   4.678 -1.5784  0.3887 -1.9587
 9268SOL     OW39436   3.133   2.720  12.863 -0.0769 -0.5459 -0.7046
 9268SOL    HW139437   3.224   2.699  12.883 -0.0982  0.9394  0.9807
 9268SOL    HW239438   3.092   2.635  12.848  1.3890 -0.7791 -3.4107
 9269SOL     OW39439   3.873   3.005  12.089 -0.2373 -0.2745 -0.4303
 9269SOL    HW139440   3.788   2.961  12.087 -1.0616  1.3502 -1.0995
 9269SOL    HW239441   3.929   2.939  12.048  0.9889 -0.6217  1.8594
 9270SOL     OW39442   1.922   1.586   7.509 -0.0178 -0.2313 -0.1402
 9270SOL    HW139443   2.000   1.538   7.537 -0.1810 -0.2052  0.3757
 9270SOL    HW239444   1.859   1.522   7.543  1.5286 -1.0328  1.2617
 9271SOL     OW39445   1.202   0.868   8.276 -0.3471 -0.3900  0.8488
 9271SOL    HW139446   1.174   0.914   8.197 -2.0351  1.1884  2.3724
 9271SOL    HW239447   1.294   0.849   8.259 -1.0641 -1.2730 -2.2056
 9272SOL     OW39448   3.723   1.853   7.552  0.1007  0.4684  0.6390
 9272SOL    HW139449   3.700   1.855   7.645 -2.1241  0.4237  0.0956
 9272SOL    HW239450   3.796   1.793   7.560  1.0102  1.8412  2.5991
 9273SOL     OW39451   1.787   0.431  16.095  0.1390  0.4016 -0.0193
 9273SOL    HW139452   1.750   0.410  16.180  0.5349  0.6736  0.2230
 9273SOL    HW239453   1.709   0.453  16.044 -0.1538 -1.3353 -0.3058
 9274SOL     OW39454   2.842   2.328  12.870 -0.3442  0.7239 -0.0335
 9274SOL    HW139455   2.923   2.278  12.865  0.3365  1.9867 -1.4918
 9274SOL    HW239456   2.770   2.264  12.868 -0.6056  0.9962  0.8377
 9275SOL     OW39457   3.803   2.362   2.145  0.4603  0.3182 -0.3262
 9275SOL    HW139458   3.806   2.273   2.111 -0.4391  0.3747 -0.5643
 9275SOL    HW239459   3.739   2.355   2.216  1.8221 -1.7577  0.6955
 9276SOL     OW39460   1.297   2.365   7.348  0.0331 -0.5654  0.2896
 9276SOL    HW139461   1.254   2.311   7.415 -0.5582 -0.1861  0.2097
 9276SOL    HW239462   1.387   2.332   7.349  0.7346  1.3473  0.4302
 9277SOL     OW39463   1.406   3.258   4.007  0.3130 -0.1754  0.0785
 9277SOL    HW139464   1.404   3.212   3.924 -2.1119  0.3019 -0.1218
 9277SOL    HW239465   1.468   3.209   4.061  0.0342 -1.5269 -0.8338
 9278SOL     OW39466   2.943   3.929   2.863  0.2548 -0.2256 -0.3295
 9278SOL    HW139467   2.868   3.982   2.893  0.6446  0.4051 -0.4780
 9278SOL    HW239468   3.020   3.964   2.907  1.1670  0.1126 -2.2206
 9279SOL     OW39469   0.191   0.373   2.934  0.5291  0.2568  0.3971
 9279SOL    HW139470   0.143   0.453   2.911  0.9636  0.4989  0.3323
 9279SOL    HW239471   0.213   0.390   3.026 -0.2562  1.7457  0.3125
 9280SOL     OW39472   3.139   2.578   0.287 -0.5807  0.1005 -0.9166
 9280SOL    HW139473   3.055   2.571   0.242 -2.8599  3.7402  2.7914
 9280SOL    HW239474   3.192   2.612   0.215  0.7934 -0.2546 -0.0850
 9281SOL     OW39475   1.087   3.491  10.390  0.2122 -0.2417  0.1264
 9281SOL    HW139476   1.156   3.473  10.454  0.9150  1.2312 -0.2299
 9281SOL    HW239477   1.020   3.435  10.431 -1.1805  2.0950  1.0620
 9282SOL     OW39478   0.238   1.654   8.952  0.0352 -0.1967  0.5624
 9282SOL    HW139479   0.184   1.637   9.029  0.0183  1.5724  0.9472
 9282SOL    HW239480   0.243   1.568   8.910 -0.6028 -0.6684  1.4649
 9283SOL     OW39481   1.697   1.803   8.350  0.8389 -0.3531  0.1824
 9283SOL    HW139482   1.788   1.826   8.373  1.2914 -1.6195 -0.3769
 9283SOL    HW239483   1.690   1.888   8.305 -1.6571 -0.0254  1.1999
 9284SOL     OW39484   3.332   3.901  11.011  0.0695 -0.2451 -0.0480
 9284SOL    HW139485   3.315   3.897  10.917  1.0990  3.0772 -0.3688
 9284SOL    HW239486   3.394   3.973  11.009 -0.9882  0.6588  0.0396
 9285SOL     OW39487   4.485   4.698   2.450 -0.0883  0.5402  0.1990
 9285SOL    HW139488   4.433   4.622   2.473 -1.0744  1.6231  1.5155
 9285SOL    HW239489   4.574   4.671   2.472 -0.0865  0.6057  0.2725
 9286SOL     OW39490   0.794   0.989  13.525  0.5286  0.0538 -0.0941
 9286SOL    HW139491   0.734   0.920  13.553  0.7275 -0.3627 -0.6805
 9286SOL    HW239492   0.774   1.055  13.591  1.9291 -0.4379  0.8480
 9287SOL     OW39493   4.420   1.429   2.473  0.1284  0.3872 -0.0520
 9287SOL    HW139494   4.391   1.381   2.550  0.5759 -0.2720 -0.3022
 9287SOL    HW239495   4.375   1.513   2.485  0.6958  0.9682 -1.9184
 9288SOL     OW39496   1.149   3.196   5.379  0.0729  0.2190  0.0626
 9288SOL    HW139497   1.164   3.105   5.351  0.3216  0.3812 -0.3263
 9288SOL    HW239498   1.242   3.206   5.400  0.9040 -0.0330 -3.5274
 9289SOL     OW39499   3.915   0.253   9.408 -1.0877 -0.9550 -0.3106
 9289SOL    HW139500   3.821   0.254   9.390 -1.0489  1.2556 -0.3579
 9289SOL    HW239501   3.928   0.160   9.427 -0.3217 -1.0264 -1.2338
 9290SOL     OW39502   1.878   0.598   9.382 -0.2042  0.7176  0.0074
 9290SOL    HW139503   1.828   0.572   9.459  0.4206 -2.8543 -0.7739
 9290SOL    HW239504   1.821   0.666   9.346 -1.4347  0.3380  1.2572
 9291SOL     OW39505   3.557   4.397  14.256  0.1640 -0.3492 -0.1608
 9291SOL    HW139506   3.589   4.460  14.192 -1.3564 -0.0510 -0.6297
 9291SOL    HW239507   3.494   4.452  14.302 -1.0472 -1.3432 -0.6124
 9292SOL     OW39508   4.129   1.169   3.726 -0.1807 -0.1801 -0.6644
 9292SOL    HW139509   4.061   1.200   3.666  1.3200 -0.2260 -2.3646
 9292SOL    HW239510   4.209   1.210   3.694 -0.4015  0.3536 -0.5370
 9293SOL     OW39511   2.001   0.961   1.120  0.5129 -0.2801 -0.5115
 9293SOL    HW139512   2.057   0.900   1.168  0.9119  0.4117 -0.1040
 9293SOL    HW239513   1.961   1.010   1.192 -0.5040 -0.7405 -0.7607
 9294SOL     OW39514   4.208   3.770  11.626 -0.1419 -0.3175 -0.2548
 9294SOL    HW139515   4.239   3.684  11.596 -0.4150 -1.2711  2.1860
 9294SOL    HW239516   4.293   3.811  11.615 -1.5100  1.9050 -2.5768
 9295SOL     OW39517   1.047   2.205   6.011  0.0321  0.4970 -0.4033
 9295SOL    HW139518   1.112   2.270   6.038  0.3107 -0.2296  0.6758
 9295SOL    HW239519   0.967   2.231   6.058 -0.0963  0.3882 -0.5640
 9296SOL     OW39520   0.789   1.956   3.978  0.2677 -0.4431  0.3857
 9296SOL    HW139521   0.763   1.949   3.886  1.5411  1.4596 -0.1265
 9296SOL    HW239522   0.752   1.874   4.010  0.9726 -1.2158 -0.7840
 9297SOL     OW39523   1.650   3.196   7.119 -0.3860  0.2203 -0.0937
 9297SOL    HW139524   1.598   3.126   7.081 -4.5574  3.7807 -0.8644
 9297SOL    HW239525   1.699   3.152   7.189  0.3076  2.8804  1.1018
 9298SOL     OW39526   2.655   4.630   1.888  0.0195 -0.0394 -0.1132
 9298SOL    HW139527   2.568   4.662   1.862 -1.4009 -1.4779  2.8720
 9298SOL    HW239528   2.631   4.567   1.956 -0.5862  1.8763  1.4548
 9299SOL     OW39529   0.825   0.026  16.892  0.4367 -0.3984 -0.2762
 9299SOL    HW139530   0.851   0.071  16.812 -0.6390 -1.7830 -1.4045
 9299SOL    HW239531   0.909   4.731  16.924  0.3780  1.2873  1.5495
 9300SOL     OW39532   3.910   2.097   2.521 -0.7567  0.8318  0.1917
 9300SOL    HW139533   3.883   2.089   2.430 -0.9412  0.3000  0.2937
 9300SOL    HW239534   3.888   2.013   2.561 -1.0759  0.3960 -0.9277
 9301SOL     OW39535   1.575   0.291   2.526 -0.0280 -0.2791 -0.3485
 9301SOL    HW139536   1.570   0.256   2.436  0.8679  0.7814 -0.8078
 9301SOL    HW239537   1.521   0.369   2.512  2.6075  2.0762  2.8544
 9302SOL     OW39538   1.956   0.274  13.028  0.3730  0.4171  0.2961
 9302SOL    HW139539   1.920   0.219  13.098 -4.3091  1.4530 -1.3278
 9302SOL    HW239540   1.949   0.219  12.950 -1.8836  0.3549  0.5414
 9303SOL     OW39541   4.053   1.227   7.098  0.4337 -0.0568  0.1170
 9303SOL    HW139542   4.042   1.322   7.104 -1.1170 -0.1483 -1.2589
 9303SOL    HW239543   3.984   1.196   7.157  2.1730 -0.6323  1.8601
 9304SOL     OW39544   3.962   3.879   6.704 -0.2975  0.0905 -0.3352
 9304SOL    HW139545   3.943   3.794   6.665 -1.4184  0.6443 -1.0165
 9304SOL    HW239546   4.046   3.862   6.746 -0.4428 -0.0087 -0.0878
 9305SOL     OW39547   0.450   1.808   7.029 -0.2327 -0.3908 -0.6802
 9305SOL    HW139548   0.532   1.809   6.981 -0.1885  1.3431 -0.5867
 9305SOL    HW239549   0.440   1.724   7.073 -0.6088 -1.6112 -3.1302
 9306SOL     OW39550   0.641   1.256   2.191 -0.2167  0.1270  0.4255
 9306SOL    HW139551   0.601   1.325   2.138 -0.0364 -0.7044 -0.8180
 9306SOL    HW239552   0.683   1.209   2.119  1.7950  1.5705  0.6766
 9307SOL     OW39553   4.732   4.531   2.593  0.0908  0.2334 -0.7662
 9307SOL    HW139554   0.035   4.612   2.624  0.7751 -0.9687  1.5044
 9307SOL    HW239555   4.684   4.503   2.671  1.5661 -0.0750  0.0224
 9308SOL     OW39556   1.775   2.682   5.006  0.1613 -0.1157  0.1102
 9308SOL    HW139557   1.682   2.663   4.993  0.6606  0.9447 -5.0041
 9308SOL    HW239558   1.791   2.634   5.087 -0.4072 -1.4713 -0.5743
 9309SOL     OW39559   2.551   1.365   2.488 -0.2726  0.2542  0.3831
 9309SOL    HW139560   2.596   1.295   2.535  1.5940  1.0019 -0.3046
 9309SOL    HW239561   2.624   1.384   2.429  0.5487  1.7736  1.8805
 9310SOL     OW39562   0.335   0.857   5.585  0.0448 -0.1185 -0.5269
 9310SOL    HW139563   0.311   0.809   5.665 -0.4132  1.0236  0.0312
 9310SOL    HW239564   0.314   0.790   5.520 -1.9260  0.3554 -0.3766
 9311SOL     OW39565   2.655   3.232  13.100  0.4392  0.2909 -0.2531
 9311SOL    HW139566   2.730   3.283  13.071  0.7688  1.5106  2.7404
 9311SOL    HW239567   2.583   3.279  13.058  0.4715 -0.8729 -1.6067
 9312SOL     OW39568   1.557   1.876   3.619  0.2407  0.3767 -0.1092
 9312SOL    HW139569   1.542   1.969   3.637  0.5854  0.4231 -0.0509
 9312SOL    HW239570   1.589   1.887   3.529  1.6342  0.7765  0.4337
 9313SOL     OW39571   3.962   1.473   8.519 -0.0408  0.5550 -0.6468
 9313SOL    HW139572   3.940   1.442   8.607 -1.0548  0.6570 -0.8564
 9313SOL    HW239573   3.877   1.501   8.484 -0.0599 -0.5937 -1.5208
 9314SOL     OW39574   2.285   4.079   2.860 -0.0617 -0.8116 -0.4255
 9314SOL    HW139575   2.203   4.042   2.827  0.1605 -1.3657 -0.3469
 9314SOL    HW239576   2.252   4.165   2.888 -1.0373 -0.9124 -1.2226
 9315SOL     OW39577   2.814   0.461   1.457 -0.0794 -0.2097 -0.0856
 9315SOL    HW139578   2.749   0.469   1.526 -0.6698  0.0183 -0.6718
 9315SOL    HW239579   2.753   0.413   1.400 -1.1811 -0.2023  1.0931
 9316SOL     OW39580   0.828   1.235   5.602 -0.2282  0.2794 -0.1839
 9316SOL    HW139581   0.922   1.228   5.584  0.2108  0.3303  2.1611
 9316SOL    HW239582   0.797   1.197   5.520 -1.7404  0.6707  0.2050
 9317SOL     OW39583   0.765   0.303   3.518  0.2720 -0.4945  0.1050
 9317SOL    HW139584   0.828   0.351   3.464  0.8728 -2.1980 -0.7244
 9317SOL    HW239585   0.699   0.366   3.546  0.0204 -0.9937  0.6290
 9318SOL     OW39586   2.146   0.175   3.611  0.1177 -0.4078 -0.4117
 9318SOL    HW139587   2.083   0.220   3.665  1.0339 -1.0364  1.1724
 9318SOL    HW239588   2.098   0.174   3.528  0.0141 -0.6428 -0.3482
 9319SOL     OW39589   4.475   0.654   3.957  0.7767 -0.3535 -0.5273
 9319SOL    HW139590   4.533   0.720   3.920  1.1566  0.5177  1.6417
 9319SOL    HW239591   4.523   0.609   4.026 -0.1860  0.4383  0.6678
 9320SOL     OW39592   4.527   3.723   6.680 -0.5756 -0.4185 -0.7706
 9320SOL    HW139593   4.512   3.811   6.645 -0.8849 -0.4412 -0.6946
 9320SOL    HW239594   4.507   3.735   6.773 -0.6944 -4.4096 -0.2794
 9321SOL     OW39595   2.577   1.523   8.888  0.7248 -0.1159 -0.2161
 9321SOL    HW139596   2.576   1.568   8.803 -1.6079 -0.3864 -0.3098
 9321SOL    HW239597   2.493   1.550   8.923  0.1900 -0.6808 -1.0720
 9322SOL     OW39598   0.598   2.800   9.540 -0.0181  0.0472 -0.1224
 9322SOL    HW139599   0.675   2.787   9.485 -0.6308  0.1042 -0.9991
 9322SOL    HW239600   0.573   2.714   9.574 -0.2323 -0.7615 -2.3135
 9323SOL     OW39601   0.900   2.455   1.905 -0.2106  0.1705 -0.1223
 9323SOL    HW139602   0.897   2.414   1.991  1.8107 -0.7411 -0.4727
 9323SOL    HW239603   0.824   2.423   1.858 -0.4405  0.4893  0.0347
 9324SOL     OW39604   3.523   4.253   2.334 -0.4211 -0.1664 -0.0365
 9324SOL    HW139605   3.508   4.159   2.322  1.5444 -0.6279  1.0761
 9324SOL    HW239606   3.451   4.296   2.289  0.2028 -0.7683 -1.6144
 9325SOL     OW39607   4.639   0.254   6.234  0.0761 -0.1916  0.3643
 9325SOL    HW139608   4.548   0.264   6.261  0.4559  0.2339  1.4791
 9325SOL    HW239609   4.645   0.168   6.275 -0.8894 -0.5983 -0.3626
 9326SOL     OW39610   0.342   0.641   6.656  0.5181  0.1885 -0.3033
 9326SOL    HW139611   0.339   0.716   6.596  0.2209  0.9658  0.6867
 9326SOL    HW239612   0.361   0.577   6.588 -0.3751  1.9184 -2.1736
 9327SOL     OW39613   0.154   0.046   7.326 -0.4872  0.1657  0.1851
 9327SOL    HW139614   0.093   0.109   7.287 -1.7329 -1.6454 -0.7947
 9327SOL    HW239615   0.096   4.709   7.333  0.4096 -0.4299  1.2439
 9328SOL     OW39616   0.465   2.359   6.683  0.1410 -0.3006  0.3549
 9328SOL    HW139617   0.436   2.439   6.639  2.0395  0.0461 -0.2603
 9328SOL    HW239618   0.389   2.301   6.674 -1.6145  1.9645  0.3210
 9329SOL     OW39619   0.491   2.372   8.731 -0.1951  0.0030  0.0405
 9329SOL    HW139620   0.405   2.392   8.695 -0.2588  0.2577  0.3407
 9329SOL    HW239621   0.501   2.277   8.716 -4.2037 -0.1433 -1.7251
 9330SOL     OW39622   1.558   3.766   2.134  0.2940  0.2654  0.3319
 9330SOL    HW139623   1.468   3.738   2.118  0.5847 -0.4817 -0.0113
 9330SOL    HW239624   1.612   3.690   2.111  0.3386 -0.0305  1.4025
 9331SOL     OW39625   2.668   3.209   5.860 -0.0764  0.1148  0.0255
 9331SOL    HW139626   2.613   3.134   5.879  2.6149 -1.9907 -0.3569
 9331SOL    HW239627   2.751   3.167   5.836 -0.4096  1.5744 -3.7156
 9332SOL     OW39628   1.471   2.769   2.968  0.0764 -0.6305  0.2136
 9332SOL    HW139629   1.504   2.693   2.922 -0.9912 -1.0111  0.0768
 9332SOL    HW239630   1.450   2.730   3.053  0.8130  2.1655  1.7008
 9333SOL     OW39631   3.642   1.004  11.465  0.3493  0.0076 -0.1524
 9333SOL    HW139632   3.590   1.083  11.479  1.5252  0.6332  0.7131
 9333SOL    HW239633   3.575   0.940  11.441  0.1831  0.5681 -1.1745
 9334SOL     OW39634   3.654   4.056   8.897 -0.1651  0.0252  0.0157
 9334SOL    HW139635   3.623   4.139   8.861 -1.6903  0.0305  1.3512
 9334SOL    HW239636   3.714   4.087   8.965  0.0183 -1.1534  0.3774
 9335SOL     OW39637   3.001   3.879   4.149  0.2908  0.2727 -0.5203
 9335SOL    HW139638   3.082   3.880   4.097 -0.5357  2.1038 -1.7759
 9335SOL    HW239639   2.986   3.785   4.157  0.7548  0.2325 -0.0783
 9336SOL     OW39640   1.692   3.005   9.355  0.3646  0.8456  0.0000
 9336SOL    HW139641   1.680   2.919   9.316  1.1776  0.4153  0.6947
 9336SOL    HW239642   1.786   3.024   9.350  0.1609  2.0566  0.7055
 9337SOL     OW39643   3.103   4.692   4.932 -0.4338 -0.4407  0.0980
 9337SOL    HW139644   3.166   0.026   4.937  0.5788 -1.4430  1.8539
 9337SOL    HW239645   3.139   4.626   4.874 -1.5905 -0.9493 -0.0465
 9338SOL     OW39646   3.945   1.520  15.612 -0.0537 -0.2935  0.1063
 9338SOL    HW139647   3.896   1.444  15.578 -1.0188 -0.3209  1.5458
 9338SOL    HW239648   3.965   1.543  15.521  0.7009 -0.9850  0.1019
 9339SOL     OW39649   1.851   3.442  12.083 -0.6911 -0.2273 -0.3311
 9339SOL    HW139650   1.928   3.467  12.032  0.4750 -0.9664  1.0632
 9339SOL    HW239651   1.840   3.528  12.124 -1.3807 -0.2367 -0.4940
 9340SOL     OW39652   4.686   2.038   5.165  0.2115  0.3673  0.9014
 9340SOL    HW139653   0.014   1.983   5.122  3.4801  2.3437  3.3288
 9340SOL    HW239654   4.610   1.983   5.181  0.1483  0.6892  1.6744
 9341SOL     OW39655   4.357   2.870   5.949  0.0386 -0.2690  0.6033
 9341SOL    HW139656   4.396   2.811   5.885  0.0734  0.1379  0.2450
 9341SOL    HW239657   4.424   2.883   6.016  0.7302 -0.3043 -0.0811
 9342SOL     OW39658   3.703   2.747   1.458  0.0566  0.1918  0.3479
 9342SOL    HW139659   3.607   2.743   1.454  0.0958 -1.5822  1.1312
 9342SOL    HW239660   3.713   2.693   1.537 -0.5580  0.9199  0.9227
 9343SOL     OW39661   3.617   0.484   2.612  0.0034 -0.0383  0.2439
 9343SOL    HW139662   3.565   0.551   2.658  1.4998  0.2592  1.5132
 9343SOL    HW239663   3.700   0.531   2.608  1.4512 -2.5780  0.7785
 9344SOL     OW39664   2.239   0.444  14.758  0.1436 -0.4842  0.1399
 9344SOL    HW139665   2.171   0.446  14.690 -1.2527  1.7253  1.5890
 9344SOL    HW239666   2.262   0.353  14.774 -0.3887 -0.7389 -0.5626
 9345SOL     OW39667   4.242   1.885   6.054  0.9476 -0.4399 -0.1126
 9345SOL    HW139668   4.231   1.902   6.147  0.9507 -1.1954  0.0244
 9345SOL    HW239669   4.160   1.837   6.042 -0.4627  1.6314  1.2776
 9346SOL     OW39670   0.406   0.050   1.548  0.3846  0.1726 -0.4921
 9346SOL    HW139671   0.387   0.046   1.641 -0.5038 -1.4110 -0.7411
 9346SOL    HW239672   0.485   4.733   1.544 -0.5391 -1.2053  0.2625
 9347SOL     OW39673   4.664   4.673   2.174 -0.1427 -0.4705  0.4376
 9347SOL    HW139674   4.606   4.598   2.186 -0.6259 -0.1908 -0.1406
 9347SOL    HW239675   4.621   4.718   2.101  0.7257  0.6156  0.5856
 9348SOL     OW39676   0.841   1.811  11.411  0.6502 -0.3090 -0.0598
 9348SOL    HW139677   0.828   1.722  11.444  0.7269  0.0848  1.0165
 9348SOL    HW239678   0.908   1.848  11.468 -2.6413  0.6566  3.2104
 9349SOL     OW39679   3.251   0.415   6.546  0.1727 -0.1549 -0.2616
 9349SOL    HW139680   3.193   0.373   6.611  0.9069 -1.4034 -0.4144
 9349SOL    HW239681   3.328   0.371   6.582 -0.1167 -2.0066 -1.8819
 9350SOL     OW39682   2.695   1.124   2.107  0.4671  0.1135 -0.4165
 9350SOL    HW139683   2.654   1.126   2.020 -1.6913  1.1683  0.6156
 9350SOL    HW239684   2.731   1.036   2.105  0.3456  0.1214 -2.7307
 9351SOL     OW39685   4.231   3.552   7.363  0.1597  0.1100 -0.4192
 9351SOL    HW139686   4.288   3.622   7.395  0.9762 -1.5464  1.7731
 9351SOL    HW239687   4.298   3.497   7.322  1.5784  1.8550 -0.4479
 9352SOL     OW39688   1.781   4.038   1.742  0.1194  0.2292  0.2980
 9352SOL    HW139689   1.712   4.086   1.697 -1.2427 -2.2098 -0.1933
 9352SOL    HW239690   1.834   4.017   1.665  1.8640  2.0348  0.9920
 9353SOL     OW39691   2.897   1.258   6.406 -0.2635  0.3624 -0.3885
 9353SOL    HW139692   2.967   1.198   6.433 -1.5453 -0.8285  0.2912
 9353SOL    HW239693   2.860   1.205   6.335 -0.2012  1.8197 -1.5200
 9354SOL     OW39694   0.523   0.050   3.755 -0.2597  0.1947  0.4405
 9354SOL    HW139695   0.565   0.011   3.832 -0.5803  1.2635  1.1559
 9354SOL    HW239696   0.513   0.140   3.787  1.2752  0.4756  0.1551
 9355SOL     OW39697   2.027   3.140  12.764 -0.0346  0.4127  0.2284
 9355SOL    HW139698   2.003   3.089  12.841  0.3848 -2.2739 -1.4237
 9355SOL    HW239699   2.065   3.075  12.704  1.0731 -0.1696  1.5758
 9356SOL     OW39700   2.125   0.909   8.317  0.1679  0.5765 -0.0113
 9356SOL    HW139701   2.074   0.965   8.258  1.4041  1.9448  0.2085
 9356SOL    HW239702   2.101   0.952   8.400 -0.4917  1.4154 -0.6281
 9357SOL     OW39703   3.752   1.850  13.063 -0.3244  1.0038 -0.5688
 9357SOL    HW139704   3.682   1.792  13.034 -0.1549  0.6345 -0.2469
 9357SOL    HW239705   3.825   1.814  13.013  0.9024 -0.6701  2.4140
 9358SOL     OW39706   3.959   1.692  17.032 -0.5295 -0.6712  0.1478
 9358SOL    HW139707   3.941   1.785  17.023  1.8344 -0.2298  0.0060
 9358SOL    HW239708   3.952   1.676  17.126 -0.8652  0.6084  0.3364
 9359SOL     OW39709   0.233   4.512   2.433  0.8803  0.0323 -0.0889
 9359SOL    HW139710   0.266   4.590   2.388 -1.5769  0.6726 -0.7661
 9359SOL    HW239711   0.138   4.521   2.441  0.8622 -2.5907  2.5226
 9360SOL     OW39712   4.436   2.972   7.378  0.2704 -0.4223  0.2153
 9360SOL    HW139713   4.391   2.912   7.438 -0.7514  0.2097  0.0833
 9360SOL    HW239714   4.444   2.925   7.294  0.1871  1.0984 -0.6363
 9361SOL     OW39715   1.836   3.176   5.919  0.2520  0.5619 -0.2328
 9361SOL    HW139716   1.922   3.191   5.880  0.1020 -1.2554 -1.2387
 9361SOL    HW239717   1.858   3.171   6.012  1.1968 -0.7582 -0.5286
 9362SOL     OW39718   1.554   0.609   1.012  0.3405 -0.1403  0.7035
 9362SOL    HW139719   1.491   0.657   0.959  0.9899  0.5548  0.5526
 9362SOL    HW239720   1.623   0.673   1.029  0.7746 -0.2183 -0.7759
 9363SOL     OW39721   4.230   2.674   8.228 -0.0435 -0.0532 -0.1856
 9363SOL    HW139722   4.291   2.658   8.156 -0.4722 -0.8625 -0.3670
 9363SOL    HW239723   4.186   2.754   8.200 -3.1179 -1.0787  1.6763
 9364SOL     OW39724   3.852   3.649  14.170  0.1201  0.3518  0.2970
 9364SOL    HW139725   3.919   3.612  14.113  1.5755  2.1248  0.8610
 9364SOL    HW239726   3.868   3.592  14.245 -0.2166 -0.6224 -0.3769
 9365SOL     OW39727   4.623   2.004  11.285 -0.0390  0.1424 -0.7199
 9365SOL    HW139728   4.625   1.913  11.257  2.4099  0.3183 -1.1467
 9365SOL    HW239729   4.658   2.001  11.374 -0.4625  0.0106 -0.5569
 9366SOL     OW39730   3.336   3.322   3.058  0.1036  0.2745  0.1119
 9366SOL    HW139731   3.309   3.412   3.074  0.7033  0.6405 -0.9184
 9366SOL    HW239732   3.423   3.336   3.095  0.8170  1.0787 -1.8542
 9367SOL     OW39733   1.418   1.498   3.533 -0.6120 -0.8112  0.5910
 9367SOL    HW139734   1.406   1.562   3.463  0.7187 -1.1178  0.0812
 9367SOL    HW239735   1.464   1.431   3.482 -0.2915  0.8371 -1.2993
 9368SOL     OW39736   2.874   1.012   3.650 -0.3668  0.0102 -0.2509
 9368SOL    HW139737   2.843   1.079   3.710  0.4260 -0.2197  0.4247
 9368SOL    HW239738   2.926   0.963   3.714  1.1880 -0.0590 -1.5792
 9369SOL     OW39739   4.650   1.619   7.920 -0.2179 -0.5067  0.1489
 9369SOL    HW139740   4.680   1.689   7.978 -2.2274 -0.2593  0.8861
 9369SOL    HW239741   4.689   1.542   7.960 -0.5653 -0.0172  1.4138
 9370SOL     OW39742   0.801   4.286  13.041  0.0594 -0.4316  0.3380
 9370SOL    HW139743   0.868   4.326  13.095 -1.3867  2.2913  0.0913
 9370SOL    HW239744   0.731   4.307  13.103  0.8184 -0.3435  1.1483
 9371SOL     OW39745   1.287   3.009   0.334  0.0399  0.1331  0.2030
 9371SOL    HW139746   1.321   3.078   0.276 -0.9259  1.4265  1.1660
 9371SOL    HW239747   1.234   3.063   0.392 -1.7756  0.8534 -2.1097
 9372SOL     OW39748   0.200   3.449   8.210  0.0694 -0.0189 -0.6483
 9372SOL    HW139749   0.273   3.391   8.189  0.6625  0.5116 -0.0596
 9372SOL    HW239750   0.134   3.383   8.232  0.5844 -0.7226 -1.2301
 9373SOL     OW39751   3.050   2.955   6.516 -0.8495  0.0063 -0.7668
 9373SOL    HW139752   3.131   2.973   6.564 -0.0726 -2.0677 -1.2705
 9373SOL    HW239753   3.018   2.887   6.575 -0.1911  0.7347  0.4380
 9374SOL     OW39754   2.995   1.841   8.543  0.4045  0.2331  0.2301
 9374SOL    HW139755   3.078   1.888   8.534  1.5244 -1.7644 -0.0138
 9374SOL    HW239756   3.028   1.751   8.539 -0.5010 -0.1430  1.2475
 9375SOL     OW39757   4.327   4.428   3.826 -0.7208 -0.3695  0.8732
 9375SOL    HW139758   4.392   4.475   3.773 -0.2023  0.4570  2.2604
 9375SOL    HW239759   4.278   4.501   3.865  0.3968 -0.3812  2.2791
 9376SOL     OW39760   1.445   4.172   1.795 -0.4630 -0.4844  0.5057
 9376SOL    HW139761   1.436   4.167   1.890 -3.1102  0.8317  0.3032
 9376SOL    HW239762   1.435   4.078   1.781  0.3157 -0.1020 -2.4774
 9377SOL     OW39763   4.233   3.422   8.782 -0.8821 -0.2244 -0.0090
 9377SOL    HW139764   4.194   3.386   8.861 -0.7280  2.4363  1.2737
 9377SOL    HW239765   4.325   3.426   8.806 -0.9166 -1.6999  0.3882
 9378SOL     OW39766   3.506   0.946   9.769  0.4761 -0.3666  0.0540
 9378SOL    HW139767   3.529   0.878   9.707 -0.4172 -1.8612  1.3659
 9378SOL    HW239768   3.423   0.911   9.801 -0.7349  1.5611 -0.9570
 9379SOL     OW39769   0.859   0.416  17.640  0.1910  0.1301  0.2480
 9379SOL    HW139770   0.875   0.393  17.731  1.1154 -2.1017 -0.4535
 9379SOL    HW239771   0.792   0.349  17.631 -0.6337  0.9927 -0.0293
 9380SOL     OW39772   1.988   2.596   9.312  0.4069  0.2645  0.6663
 9380SOL    HW139773   2.030   2.520   9.352 -1.3695 -1.1306 -0.1040
 9380SOL    HW239774   2.007   2.667   9.373  3.0718  2.4871 -2.7753
 9381SOL     OW39775   3.119   3.253   5.897  0.4886 -0.1914 -0.5836
 9381SOL    HW139776   3.198   3.292   5.935  0.6905  0.1453 -1.3420
 9381SOL    HW239777   3.147   3.202   5.821  3.3277  0.8004 -0.2138
 9382SOL     OW39778   2.337   0.680   3.523  0.3440  0.4071 -0.0219
 9382SOL    HW139779   2.243   0.664   3.510  0.6960 -2.3007  0.5877
 9382SOL    HW239780   2.339   0.713   3.613  1.4326  2.8417 -0.9430
 9383SOL     OW39781   2.685   2.801   9.449  0.1922 -0.2290  0.3194
 9383SOL    HW139782   2.680   2.706   9.446 -1.5582 -0.1522  0.8844
 9383SOL    HW239783   2.599   2.821   9.412 -0.1029 -0.8654  0.6698
 9384SOL     OW39784   3.348   3.498   6.380  0.4327  0.3261 -0.3165
 9384SOL    HW139785   3.277   3.497   6.317  1.0444 -1.1161 -1.0019
 9384SOL    HW239786   3.424   3.483   6.323  0.6277 -3.5758  0.9196
 9385SOL     OW39787   0.524   1.640   6.317 -0.3138 -0.7660 -0.4680
 9385SOL    HW139788   0.512   1.545   6.316  0.5262 -0.8950  1.1492
 9385SOL    HW239789   0.450   1.663   6.261  1.0360 -0.6314 -2.1729
 9386SOL     OW39790   2.729   3.210   9.401  0.0099  0.2159  0.0109
 9386SOL    HW139791   2.668   3.199   9.474 -0.3419  0.3191 -0.2655
 9386SOL    HW239792   2.797   3.261   9.444  0.2785  1.0167 -1.3512
 9387SOL     OW39793   0.288   3.743   2.110  0.1367 -0.1108  0.3294
 9387SOL    HW139794   0.365   3.750   2.166  0.2004  3.6629 -0.2279
 9387SOL    HW239795   0.287   3.649   2.093  1.7923 -0.0995  0.1789
 9388SOL     OW39796   2.029   3.784   4.195  0.4358  0.8041  0.0499
 9388SOL    HW139797   2.086   3.837   4.251 -0.9197  2.2016  0.0770
 9388SOL    HW239798   1.959   3.764   4.256 -1.6301  1.6853 -2.0434
 9389SOL     OW39799   0.802   3.703   9.369 -0.2317  0.2449  0.1856
 9389SOL    HW139800   0.843   3.706   9.455  2.2435 -3.0081 -0.8572
 9389SOL    HW239801   0.710   3.674   9.372 -0.4765  1.0121  0.2225
 9390SOL     OW39802   3.360   0.168  13.449 -0.0868  0.0785 -0.1485
 9390SOL    HW139803   3.431   0.232  13.461  0.1712 -0.3514  0.6675
 9390SOL    HW239804   3.317   0.167  13.535  0.3972 -1.4077  0.0715
 9391SOL     OW39805   2.929   0.294   3.962  0.0433  0.6956  0.3662
 9391SOL    HW139806   2.870   0.224   3.992 -0.4369  0.6512 -0.6813
 9391SOL    HW239807   2.866   0.333   3.902  0.8370 -0.1384 -1.0100
 9392SOL     OW39808   1.984   3.736   6.424  0.1539 -0.4378 -0.3273
 9392SOL    HW139809   2.007   3.704   6.511  0.0082  4.9634  1.6986
 9392SOL    HW239810   1.921   3.678   6.382 -0.9576  0.4127  0.1754
 9393SOL     OW39811   2.896   4.052   4.412  0.5960 -0.2467 -0.6915
 9393SOL    HW139812   2.813   4.006   4.415 -0.3259  1.4095 -0.8314
 9393SOL    HW239813   2.923   4.031   4.501  1.3011  2.1021 -0.3268
 9394SOL     OW39814   3.967   0.538  10.254  0.1949 -0.1061 -0.4871
 9394SOL    HW139815   4.015   0.477  10.310 -0.0632  0.1849  0.0497
 9394SOL    HW239816   3.931   0.486  10.182  0.0368 -1.2613  0.4228
 9395SOL     OW39817   1.114   3.716   2.366 -0.1347  0.7741  0.0034
 9395SOL    HW139818   1.150   3.693   2.451 -0.3585 -0.8250 -0.3328
 9395SOL    HW239819   1.054   3.646   2.340  0.7479  0.4917 -1.3109
 9396SOL     OW39820   1.722   2.422   0.075 -0.0443 -0.1753  0.1673
 9396SOL    HW139821   1.648   2.457   0.125 -0.1539 -2.6078  1.7092
 9396SOL    HW239822   1.765   2.506   0.059 -0.1235 -0.2324 -0.3346
 9397SOL     OW39823   3.294   1.732  17.134  0.0769  0.4425  0.6895
 9397SOL    HW139824   3.218   1.692  17.091  0.4170  0.5634 -0.0115
 9397SOL    HW239825   3.313   1.664  17.199 -0.2175 -0.6720 -0.3790
 9398SOL     OW39826   3.520   0.447   3.002  0.2430 -0.0377 -0.1199
 9398SOL    HW139827   3.512   0.418   3.093  2.1124  0.6577  0.2524
 9398SOL    HW239828   3.545   0.370   2.952 -0.6674  0.8668 -1.9822
 9399SOL     OW39829   0.536   1.429   2.024 -0.2318  0.5862  0.7750
 9399SOL    HW139830   0.483   1.385   1.958  0.6247  1.8236 -0.7211
 9399SOL    HW239831   0.527   1.521   2.000  3.7254  0.4769 -1.0920
 9400SOL     OW39832   3.066   4.683   6.144  0.0536 -0.4018 -0.4504
 9400SOL    HW139833   3.146   4.702   6.192 -0.5709  2.8099 -0.6459
 9400SOL    HW239834   3.045   4.590   6.152  2.5408 -0.7697  1.5653
 9401SOL     OW39835   2.375   4.317   4.434  0.0622 -0.0646 -0.3111
 9401SOL    HW139836   2.451   4.267   4.465  0.3729 -0.3225 -1.4948
 9401SOL    HW239837   2.392   4.324   4.340 -0.5719  0.3251 -0.4020
 9402SOL     OW39838   4.281   1.820  10.278  0.3122  0.0520  0.5609
 9402SOL    HW139839   4.360   1.852  10.234  0.1033 -0.7860 -0.4189
 9402SOL    HW239840   4.319   1.797  10.363 -1.5921 -1.0720  1.0903
 9403SOL     OW39841   3.942   0.740   3.328 -0.5604 -0.2566  0.2575
 9403SOL    HW139842   3.877   0.765   3.262  0.0334  1.2912  0.2579
 9403SOL    HW239843   3.977   0.826   3.349 -1.3953  0.4028 -1.1230
 9404SOL     OW39844   4.356   3.602   9.225 -0.3952 -0.4475  0.1534
 9404SOL    HW139845   4.383   3.510   9.227  0.3335 -0.1965  1.7943
 9404SOL    HW239846   4.350   3.616   9.130 -1.1892  0.2975  0.3183
 9405SOL     OW39847   2.153   0.053  10.629 -0.2067 -0.1101  0.5079
 9405SOL    HW139848   2.066   0.034  10.663  0.0808 -2.8467 -0.3275
 9405SOL    HW239849   2.203   4.713  10.655 -1.2127 -0.6583  0.8116
 9406SOL     OW39850   2.976   0.699   3.384 -0.2225 -0.0202 -0.6140
 9406SOL    HW139851   2.882   0.690   3.403 -0.3353  0.0740 -1.1373
 9406SOL    HW239852   2.980   0.741   3.298  1.1037  1.9680  0.4294
 9407SOL     OW39853   3.080   4.256  11.030  0.0739 -0.3635 -0.3920
 9407SOL    HW139854   3.173   4.237  11.041  0.1749  2.0226  2.7426
 9407SOL    HW239855   3.081   4.309  10.950 -2.0504 -4.2784 -3.0711
 9408SOL     OW39856   1.138   0.528   3.745 -0.3992  0.4616 -0.3854
 9408SOL    HW139857   1.105   0.595   3.684  1.3194  1.0643 -0.6773
 9408SOL    HW239858   1.058   0.505   3.791 -1.2001  0.7706 -1.6072
 9409SOL     OW39859   2.190   1.238   5.763  0.8102 -0.2576  0.1377
 9409SOL    HW139860   2.160   1.325   5.738 -1.4070 -1.0177  0.0522
 9409SOL    HW239861   2.269   1.264   5.810  1.1387  0.4749 -0.8427
 9410SOL     OW39862   4.494   4.612  11.045 -0.0202 -0.4824  0.5002
 9410SOL    HW139863   4.440   4.562  10.983 -1.0075 -0.3428  1.2592
 9410SOL    HW239864   4.581   4.590  11.011  0.4525  0.5261  1.0750
 9411SOL     OW39865   2.435   0.773   8.682 -0.2978 -0.3819 -0.1107
 9411SOL    HW139866   2.350   0.732   8.668 -0.4645  0.2448 -0.9674
 9411SOL    HW239867   2.491   0.702   8.650  0.4784  0.2032 -0.0604
 9412SOL     OW39868   3.931   2.609   7.599 -0.8955 -0.7147  0.2143
 9412SOL    HW139869   3.898   2.530   7.557 -1.0460 -0.1665 -0.7136
 9412SOL    HW239870   4.020   2.593   7.630  0.1081  1.9612 -1.2413
 9413SOL     OW39871   3.852   1.787   5.846 -0.2045 -0.1276  0.0975
 9413SOL    HW139872   3.924   1.849   5.855 -0.1378 -0.1711 -0.1603
 9413SOL    HW239873   3.827   1.762   5.935 -1.2166 -2.5501 -0.8657
 9414SOL     OW39874   3.566   0.007   6.198  0.3808 -0.4283  0.5451
 9414SOL    HW139875   3.611   0.037   6.119 -1.3738  0.7300 -0.0148
 9414SOL    HW239876   3.628   0.033   6.266  0.5481  0.7595 -0.0665
 9415SOL     OW39877   3.470   1.840  11.728  0.0884  0.3494 -0.0252
 9415SOL    HW139878   3.414   1.895  11.784 -0.7429 -1.2820  0.7353
 9415SOL    HW239879   3.425   1.852  11.645 -1.3126 -0.8702  0.5554
 9416SOL     OW39880   3.036   1.324   4.414 -0.1426  0.2788  0.4677
 9416SOL    HW139881   2.954   1.344   4.369 -1.0254 -0.8095  1.5937
 9416SOL    HW239882   3.003   1.322   4.504  0.3748 -1.0352  0.6364
 9417SOL     OW39883   3.186   3.049   6.278  0.2976 -0.1869  0.4507
 9417SOL    HW139884   3.274   3.056   6.315  1.0870 -0.8386 -1.3140
 9417SOL    HW239885   3.140   3.022   6.358 -2.6362 -0.7271 -1.3951
 9418SOL     OW39886   1.018   1.806   9.555 -0.5068  0.0332  0.6426
 9418SOL    HW139887   0.963   1.852   9.619 -1.8716 -0.6370 -0.0558
 9418SOL    HW239888   0.952   1.770   9.496 -0.0105 -0.1381  0.2016
 9419SOL     OW39889   4.598   1.905  16.272 -0.1862  0.0646  0.4798
 9419SOL    HW139890   4.589   1.810  16.278  0.2296  0.1242  1.9194
 9419SOL    HW239891   4.572   1.935  16.184  1.2047  1.1296  0.4404
 9420SOL     OW39892   2.255   2.342   1.891 -0.5157 -0.1648 -0.4589
 9420SOL    HW139893   2.180   2.305   1.846 -0.5743 -2.0244  1.1561
 9420SOL    HW239894   2.227   2.331   1.982 -0.2435  1.6760 -0.1569
 9421SOL     OW39895   1.705   4.492  16.845  0.3373  0.0248  0.0605
 9421SOL    HW139896   1.698   4.397  16.829 -0.2647  0.1958 -0.6895
 9421SOL    HW239897   1.611   4.512  16.853 -0.3245 -3.1348  0.2371
 9422SOL     OW39898   0.973   2.628  17.548  0.2920  0.1915  0.2433
 9422SOL    HW139899   1.028   2.578  17.488  0.8508  0.3387  0.6376
 9422SOL    HW239900   0.909   2.559  17.567  3.4183 -2.2534  1.7105
 9423SOL     OW39901   3.565   1.433   4.156 -0.0616  0.3979 -0.0484
 9423SOL    HW139902   3.499   1.374   4.192 -1.6167  1.9933 -0.3049
 9423SOL    HW239903   3.618   1.452   4.234 -0.7509 -1.6359  0.9163
 9424SOL     OW39904   4.326   1.605   5.802 -0.1425  0.2941 -0.1848
 9424SOL    HW139905   4.249   1.584   5.854 -1.7060  2.4852 -1.6551
 9424SOL    HW239906   4.368   1.649   5.877  0.5517  0.5745 -0.7410
 9425SOL     OW39907   2.084   4.360  15.756  0.0686  0.4561  0.9478
 9425SOL    HW139908   2.164   4.310  15.773 -0.5658 -1.0309 -0.4995
 9425SOL    HW239909   2.123   4.447  15.762 -0.9247  0.9759 -0.1198
 9426SOL     OW39910   0.569   2.323   9.735 -0.1286 -0.1335 -0.1505
 9426SOL    HW139911   0.612   2.311   9.820 -1.1612 -0.2704  0.3583
 9426SOL    HW239912   0.591   2.247   9.682 -2.0372  0.5680 -1.9507
 9427SOL     OW39913   0.539   1.963   2.732  0.0876  0.0380 -0.1977
 9427SOL    HW139914   0.610   1.953   2.795  1.3965  0.9579 -1.5275
 9427SOL    HW239915   0.517   2.054   2.751 -0.8903 -0.5057  1.3238
 9428SOL     OW39916   0.155   1.249   1.891  0.1936 -0.5122  0.1005
 9428SOL    HW139917   0.064   1.276   1.875 -0.3366 -2.2897  0.1315
 9428SOL    HW239918   0.208   1.319   1.854 -0.5891  0.1697  0.2627
 9429SOL     OW39919   2.611   1.679   9.923 -0.2257 -0.2947  0.4929
 9429SOL    HW139920   2.542   1.614   9.909 -1.3287  0.9470  0.1274
 9429SOL    HW239921   2.681   1.623   9.957 -0.6875 -2.6634 -2.4055
 9430SOL     OW39922   4.431   0.396   9.262 -0.4544  0.4521 -0.4472
 9430SOL    HW139923   4.441   0.466   9.327  1.1646  0.2481 -0.4793
 9430SOL    HW239924   4.366   0.424   9.198 -0.4294  0.0164 -0.6648
 9431SOL     OW39925   2.847   1.489   8.446  0.0833  0.2032 -0.0475
 9431SOL    HW139926   2.851   1.393   8.447  0.1436  0.2098  0.3766
 9431SOL    HW239927   2.939   1.514   8.445  0.4573 -1.1330  0.2970
 9432SOL     OW39928   2.704   2.648   4.349 -0.2994 -0.1600  0.0791
 9432SOL    HW139929   2.695   2.688   4.262 -2.3693  3.3248  1.9004
 9432SOL    HW239930   2.799   2.637   4.351 -0.2340  0.3054 -0.3148
 9433SOL     OW39931   0.682   2.523   2.135  0.1467 -0.5056 -0.0524
 9433SOL    HW139932   0.667   2.524   2.229 -1.0027  0.2995 -0.2421
 9433SOL    HW239933   0.768   2.481   2.127  0.9503  1.1179 -0.1472
 9434SOL     OW39934   0.899   0.689   4.474 -0.1033  0.0113  0.1615
 9434SOL    HW139935   0.974   0.746   4.457 -1.1566  1.7333  1.3372
 9434SOL    HW239936   0.917   0.655   4.561 -1.6250  0.2980  0.5889
 9435SOL     OW39937   2.290   0.448   1.433 -1.0511  0.5396 -0.1778
 9435SOL    HW139938   2.227   0.516   1.460  1.7786  3.3527 -0.6085
 9435SOL    HW239939   2.256   0.443   1.344 -1.3819 -0.7463  0.0191
 9436SOL     OW39940   0.546   2.112   6.071  0.4349 -0.1757 -0.8500
 9436SOL    HW139941   0.559   2.082   5.981  1.0771 -0.1310 -0.7726
 9436SOL    HW239942   0.450   2.114   6.072  0.4121 -1.7679  0.1183
 9437SOL     OW39943   2.259   1.072   5.379 -0.1136 -0.2360  0.7640
 9437SOL    HW139944   2.308   1.097   5.300 -1.1314 -1.8423 -0.3715
 9437SOL    HW239945   2.325   1.023   5.427  0.1392  0.5112  1.1773
 9438SOL     OW39946   0.545   3.087   8.576  0.2394  0.3040  0.1361
 9438SOL    HW139947   0.516   3.004   8.615  3.9036 -1.2636 -0.4457
 9438SOL    HW239948   0.543   3.144   8.653  0.6803 -0.6150  0.8375
 9439SOL     OW39949   0.245   3.822  10.811  0.0737  0.0993  0.2272
 9439SOL    HW139950   0.235   3.890  10.878  0.6427 -0.4257  0.8421
 9439SOL    HW239951   0.304   3.872  10.754 -0.4591 -0.1166 -0.5122
 9440SOL     OW39952   1.967   3.269   1.603 -0.2888  0.0587 -0.4108
 9440SOL    HW139953   1.979   3.357   1.639  0.2733  0.0885 -0.6686
 9440SOL    HW239954   1.895   3.237   1.657  0.4409 -1.3239 -0.2554
 9441SOL     OW39955   0.744   0.022   4.809  0.4858 -0.0205  0.1823
 9441SOL    HW139956   0.718   4.683   4.758 -0.6813  0.5836 -0.1404
 9441SOL    HW239957   0.823   4.723   4.848  2.1377  1.6046 -1.5937
 9442SOL     OW39958   3.635   1.720  17.039 -0.0384 -0.0702  0.4060
 9442SOL    HW139959   3.603   1.631  17.054  0.0862 -0.3366 -0.9637
 9442SOL    HW239960   3.725   1.696  17.020  0.9311  2.5684  1.7060
 9443SOL     OW39961   3.327   2.207   5.808  0.4172 -0.4999 -0.2911
 9443SOL    HW139962   3.422   2.212   5.803  0.4280  0.0252  0.4422
 9443SOL    HW239963   3.300   2.250   5.889 -1.0598  1.8450 -2.0289
 9444SOL     OW39964   3.389   3.796   5.231  0.7667 -0.4320  0.9378
 9444SOL    HW139965   3.474   3.752   5.234  0.8307 -0.2983  1.1377
 9444SOL    HW239966   3.374   3.825   5.321 -1.5401  0.0121  0.4176
 9445SOL     OW39967   3.752   3.710  11.029 -0.1196 -0.2579  0.1935
 9445SOL    HW139968   3.828   3.683  10.978 -0.2481  3.7900 -2.1829
 9445SOL    HW239969   3.785   3.711  11.118 -0.8998 -1.0179  0.4942
 9446SOL     OW39970   3.965   4.439   3.248 -0.2784 -0.5621 -0.0372
 9446SOL    HW139971   3.904   4.373   3.215 -0.8061  1.1472 -2.4253
 9446SOL    HW239972   3.996   4.486   3.171 -1.0462  0.8022  0.4832
 9447SOL     OW39973   4.322   1.896   7.309 -0.0987  0.2324  0.1991
 9447SOL    HW139974   4.278   1.811   7.302  2.5399 -1.1412  0.0805
 9447SOL    HW239975   4.284   1.921   7.393  0.3206 -0.1840  0.5124
 9448SOL     OW39976   3.825   2.014   3.835  0.2593  0.2757 -0.2573
 9448SOL    HW139977   3.869   2.096   3.860  1.3005 -0.2468 -0.3852
 9448SOL    HW239978   3.896   1.966   3.794 -0.4019 -0.2638 -0.7683
 9449SOL     OW39979   2.853   0.304  13.710  0.5121  0.3783 -0.1375
 9449SOL    HW139980   2.772   0.252  13.718  0.6831  0.0689 -0.3766
 9449SOL    HW239981   2.821   0.391  13.732  1.2702  1.1146 -1.9356
 9450SOL     OW39982   0.757   2.981   4.515  0.5010  0.0680  0.8531
 9450SOL    HW139983   0.703   2.971   4.593  0.7224  0.5879  1.0721
 9450SOL    HW239984   0.840   2.934   4.525  0.4662 -0.0519  0.5774
 9451SOL     OW39985   3.509   4.308  16.483 -0.0210 -0.2675  0.0099
 9451SOL    HW139986   3.547   4.386  16.522  1.7493 -0.3964 -1.4288
 9451SOL    HW239987   3.488   4.242  16.549  0.0285 -0.0478  0.2478
 9452SOL     OW39988   3.106   1.059   5.390 -0.2287  0.5995 -0.1742
 9452SOL    HW139989   3.100   1.141   5.340 -2.7267  1.0733  0.8920
 9452SOL    HW239990   3.196   1.031   5.378 -0.0521  0.6666  1.0385
 9453SOL     OW39991   3.292   0.859   6.850 -0.1827 -0.3033 -0.0133
 9453SOL    HW139992   3.271   0.901   6.934  1.3581  2.0918 -0.8276
 9453SOL    HW239993   3.381   0.890   6.831  0.1380 -0.6931  0.8545
 9454SOL     OW39994   4.439   2.713   8.955 -0.3758  0.0994 -0.1236
 9454SOL    HW139995   4.369   2.774   8.930  0.0275  0.5608 -0.1251
 9454SOL    HW239996   4.477   2.752   9.034 -0.8791  1.9217 -0.7583
 9455SOL     OW39997   4.198   1.438  11.510 -0.7085  0.4062 -0.1832
 9455SOL    HW139998   4.273   1.488  11.543  1.2809 -2.4393 -0.4424
 9455SOL    HW239999   4.138   1.426  11.583 -1.6704  0.6066 -0.9489
 9456SOL     OW40000   1.460   0.935   3.303  0.1257 -0.0654  0.4057
 9456SOL    HW140001   1.464   1.013   3.248 -0.7501 -1.1035 -1.1117
 9456SOL    HW240002   1.490   0.864   3.246 -1.0151 -0.6310  0.4936
 9457SOL     OW40003   2.282   3.237   6.286 -0.2994  0.3283 -0.5766
 9457SOL    HW140004   2.287   3.202   6.375 -1.6817  1.3337 -0.1045
 9457SOL    HW240005   2.312   3.328   6.295  0.5284  0.0848 -0.8151
 9458SOL     OW40006   1.233   2.772  11.711 -0.2946  0.1346 -0.3025
 9458SOL    HW140007   1.259   2.718  11.786 -0.0546  0.4583 -0.1518
 9458SOL    HW240008   1.220   2.858  11.751 -1.4311  1.0172 -2.5840
 9459SOL     OW40009   3.739   1.717   4.883  0.1757  0.2627 -0.6996
 9459SOL    HW140010   3.697   1.662   4.949  0.6419  1.2663  0.4351
 9459SOL    HW240011   3.762   1.799   4.926 -0.4288  0.4998 -0.8236
 9460SOL     OW40012   2.192   1.842   5.169  0.4252  0.1408 -0.4786
 9460SOL    HW140013   2.286   1.858   5.166  0.6105 -0.7169  0.5871
 9460SOL    HW240014   2.171   1.808   5.082 -0.1353  0.3024 -0.4049
 9461SOL     OW40015   3.205   0.120   3.930 -0.0998  0.1526 -0.5258
 9461SOL    HW140016   3.141   0.063   3.888  0.1137 -0.8208  0.4462
 9461SOL    HW240017   3.158   0.185   3.982 -0.5305  0.2713 -1.0621
 9462SOL     OW40018   0.855   4.241   9.006 -0.2995 -0.0520 -0.6591
 9462SOL    HW140019   0.764   4.209   9.009  0.3134 -1.6024  1.4679
 9462SOL    HW240020   0.882   4.242   9.098 -0.9105  0.2466 -0.4839
 9463SOL     OW40021   2.654   0.714   4.766 -0.4454 -0.4478  0.1466
 9463SOL    HW140022   2.708   0.789   4.743 -0.8087 -0.4433 -0.7153
 9463SOL    HW240023   2.612   0.699   4.681 -1.2503 -0.2176  0.5093
 9464SOL     OW40024   2.472   1.867   5.219  0.0833 -0.3888 -0.4029
 9464SOL    HW140025   2.538   1.820   5.169 -1.1543 -0.6276 -1.8032
 9464SOL    HW240026   2.492   1.825   5.303  3.4175 -0.4060 -1.2119
 9465SOL     OW40027   0.161   1.578   2.056 -0.1446 -0.3023  0.1170
 9465SOL    HW140028   0.118   1.663   2.066 -1.3047 -0.6165 -2.1289
 9465SOL    HW240029   0.090   1.517   2.077 -0.5189  0.7527  1.9560
 9466SOL     OW40030   1.797   1.750  12.446  0.3489 -0.7446  0.1671
 9466SOL    HW140031   1.733   1.773  12.379  0.0857  0.2197  0.7564
 9466SOL    HW240032   1.730   1.732  12.512 -1.4174 -0.3064 -1.5033
 9467SOL     OW40033   2.515   1.346   9.388 -0.0017  0.1301 -0.3237
 9467SOL    HW140034   2.517   1.407   9.462  0.8603  2.3573 -2.1733
 9467SOL    HW240035   2.463   1.389   9.321 -0.1073  1.3040  0.5139
 9468SOL     OW40036   4.306   3.480   5.109  0.0508  0.2092  0.2720
 9468SOL    HW140037   4.257   3.402   5.135  0.1020  0.1333  0.1388
 9468SOL    HW240038   4.360   3.509   5.183 -1.4368  0.1329  1.3970
 9469SOL     OW40039   3.294   4.489   8.938 -0.0537 -0.5106  0.0540
 9469SOL    HW140040   3.297   4.428   8.865  2.8946 -1.1495  0.7101
 9469SOL    HW240041   3.327   4.565   8.889 -2.3391  0.3048 -0.2194
 9470SOL     OW40042   1.579   1.395   2.486  0.0511 -0.1541  0.0540
 9470SOL    HW140043   1.636   1.428   2.554 -3.1537  0.6391  2.3664
 9470SOL    HW240044   1.637   1.324   2.458 -1.1009 -1.0566 -0.0753
 9471SOL     OW40045   4.513   2.247  12.322  0.0105  0.0256  0.5330
 9471SOL    HW140046   4.580   2.299  12.367 -0.3152  2.3662 -1.7199
 9471SOL    HW240047   4.486   2.205  12.404  2.5689 -1.6425  0.5291
 9472SOL     OW40048   3.721   2.897   2.664 -0.2147 -0.0558  0.5701
 9472SOL    HW140049   3.721   2.962   2.734  1.3206 -0.7029  1.1739
 9472SOL    HW240050   3.669   2.937   2.595 -1.7367 -1.4801  0.8892
 9473SOL     OW40051   0.206   1.318  17.028 -0.3185  0.2164 -0.3917
 9473SOL    HW140052   0.197   1.320  16.932 -0.7599  1.7163 -0.3245
 9473SOL    HW240053   0.296   1.285  17.030 -0.2507  0.5035  1.2882
 9474SOL     OW40054   3.917   3.714  17.245 -0.5817 -0.1507  0.1552
 9474SOL    HW140055   3.854   3.750  17.307  0.6283  1.0358  0.6694
 9474SOL    HW240056   3.921   3.786  17.183 -0.5783 -0.3951 -0.1299
 9475SOL     OW40057   4.724   1.116   2.188  0.3859  0.8740  0.0101
 9475SOL    HW140058   4.657   1.080   2.246 -0.2374  0.0311 -1.2323
 9475SOL    HW240059   0.035   1.160   2.257 -0.7672  0.7033  0.9301
 9476SOL     OW40060   1.861   3.944  13.378 -0.2480 -0.0888  0.4676
 9476SOL    HW140061   1.882   3.853  13.354  3.0421 -0.1146  3.3513
 9476SOL    HW240062   1.869   3.980  13.289 -2.5075 -1.4558 -0.2768
 9477SOL     OW40063   3.138   4.042   8.907  0.1887  0.2362  0.1744
 9477SOL    HW140064   3.122   3.982   8.833 -1.7207  0.0071  0.7791
 9477SOL    HW240065   3.221   4.008   8.941  0.5430  1.5047  0.5800
 9478SOL     OW40066   0.726   3.305   5.266  0.2414 -0.4084  0.0528
 9478SOL    HW140067   0.793   3.325   5.331  0.0066 -1.3026  0.5645
 9478SOL    HW240068   0.680   3.235   5.311 -1.9086  1.5014  0.8276
 9479SOL     OW40069   4.292   4.268   1.217  0.5782 -0.1372 -0.2276
 9479SOL    HW140070   4.346   4.223   1.153  0.4797 -1.0062  0.3016
 9479SOL    HW240071   4.295   4.217   1.298  1.4498  0.6393  0.2342
 9480SOL     OW40072   2.427   4.659   5.645 -0.9296 -0.1591  0.1459
 9480SOL    HW140073   2.339   4.680   5.615 -1.7539 -1.9586  1.2729
 9480SOL    HW240074   2.442   4.738   5.697 -2.2978 -0.2315  0.6563
 9481SOL     OW40075   3.344   3.772   3.933  0.3061 -0.8220 -0.5312
 9481SOL    HW140076   3.312   3.813   4.013  2.0059  0.0327 -0.2968
 9481SOL    HW240077   3.409   3.835   3.903 -1.9106  3.1795  3.1635
 9482SOL     OW40078   1.762   3.348   7.562 -0.3640 -0.4093 -0.1425
 9482SOL    HW140079   1.692   3.345   7.497 -0.2867  1.5590 -0.2978
 9482SOL    HW240080   1.786   3.256   7.572 -0.6284 -0.4129  0.4681
 9483SOL     OW40081   2.535   4.398   4.935 -0.1548  0.3068  0.3173
 9483SOL    HW140082   2.542   4.313   4.891 -1.4653 -1.0503  2.7360
 9483SOL    HW240083   2.540   4.449   4.854  1.1440 -0.2649  0.0428
 9484SOL     OW40084   4.529   0.091  11.558 -0.1503 -0.1886  0.2215
 9484SOL    HW140085   4.475   0.167  11.537  1.9512  1.7442  1.7597
 9484SOL    HW240086   4.513   0.034  11.483 -0.1220 -0.5271  0.4724
 9485SOL     OW40087   3.383   0.480   6.845 -0.0405 -0.0468 -0.0203
 9485SOL    HW140088   3.471   0.510   6.823 -0.5878  1.5200 -0.0713
 9485SOL    HW240089   3.379   0.392   6.807  2.0455  0.2753 -0.9829
 9486SOL     OW40090   0.538   3.643   4.162  0.1340  0.2778  0.2005
 9486SOL    HW140091   0.519   3.599   4.079  2.3540  0.2183 -0.2903
 9486SOL    HW240092   0.463   3.610   4.212  0.0630  0.6229  0.3188
 9487SOL     OW40093   2.507   3.947   7.494 -0.0670 -0.1099  0.3535
 9487SOL    HW140094   2.557   3.962   7.414  1.3138 -0.8659  1.0587
 9487SOL    HW240095   2.424   3.909   7.466 -0.5073 -0.9104  2.7515
 9488SOL     OW40096   3.414   2.673  12.796 -0.1328  0.4453  0.0028
 9488SOL    HW140097   3.481   2.618  12.837 -0.0097  1.2433  0.8668
 9488SOL    HW240098   3.445   2.690  12.707  2.9034  2.0374  1.3712
 9489SOL     OW40099   1.140   1.688   2.859 -0.1766  0.2538  0.0261
 9489SOL    HW140100   1.221   1.720   2.898  0.0004 -1.8768  1.4372
 9489SOL    HW240101   1.114   1.771   2.820  0.0367  0.5189  0.4461
 9490SOL     OW40102   1.169   2.485   1.803 -0.1559 -0.0734 -0.4183
 9490SOL    HW140103   1.233   2.468   1.872  0.4164  1.0585 -0.6786
 9490SOL    HW240104   1.090   2.437   1.829 -0.0852  0.3026  0.4726
 9491SOL     OW40105   0.812   1.642   1.982 -0.4875  0.0074 -0.4505
 9491SOL    HW140106   0.786   1.679   2.067 -1.0362  0.1128 -0.6634
 9491SOL    HW240107   0.726   1.646   1.940 -0.2844 -0.8142 -0.9379
 9492SOL     OW40108   3.372   1.553   2.565 -0.1972  0.6268  0.3914
 9492SOL    HW140109   3.453   1.502   2.566 -0.3259  0.4011 -0.5446
 9492SOL    HW240110   3.340   1.529   2.478  1.0450 -1.3364  0.4719
 9493SOL     OW40111   2.705   2.237   3.867  0.0516  0.1708  0.4752
 9493SOL    HW140112   2.711   2.145   3.842  0.4198  0.7135 -1.4192
 9493SOL    HW240113   2.790   2.263   3.833 -0.1425 -1.3361 -1.1868
 9494SOL     OW40114   1.337   4.058   0.164  0.6865  0.2872  0.2203
 9494SOL    HW140115   1.258   4.059   0.218  1.2157  1.6621  0.9683
 9494SOL    HW240116   1.402   4.065   0.234 -0.5049  2.7280  1.0942
 9495SOL     OW40117   3.653   0.721  13.731  0.5580 -0.0121  0.5613
 9495SOL    HW140118   3.588   0.721  13.801 -1.0405  0.4025 -0.9269
 9495SOL    HW240119   3.732   0.731  13.784  0.8115 -2.4147  0.6365
 9496SOL     OW40120   2.552   1.426   8.132 -0.2941 -0.0197 -0.3620
 9496SOL    HW140121   2.577   1.333   8.138 -2.6985 -0.8026 -2.2567
 9496SOL    HW240122   2.571   1.447   8.223 -0.4544 -0.1346 -0.3018
 9497SOL     OW40123   4.570   0.279   4.331 -0.0788 -0.1797 -0.3169
 9497SOL    HW140124   4.579   0.183   4.328  0.0661 -0.1450 -0.9632
 9497SOL    HW240125   4.476   0.296   4.321 -0.3390 -2.8631 -2.3158
 9498SOL     OW40126   0.452   1.841   0.572 -0.1328  0.5742 -0.2657
 9498SOL    HW140127   0.541   1.810   0.590 -0.0799  1.1631  0.4635
 9498SOL    HW240128   0.440   1.811   0.482 -1.6126 -0.1990  0.1869
 9499SOL     OW40129   4.220   4.325   5.513 -0.5724  0.1066 -0.1396
 9499SOL    HW140130   4.177   4.313   5.429 -2.2048 -1.4653  0.9471
 9499SOL    HW240131   4.281   4.252   5.523 -0.0261  0.7433  1.1993
 9500SOL     OW40132   3.592   4.719   2.749 -0.0781  0.1765  0.4218
 9500SOL    HW140133   3.582   0.047   2.681 -0.2765 -0.6919 -0.3938
 9500SOL    HW240134   3.509   4.682   2.719  0.4387 -0.0806 -0.6576
 9501SOL     OW40135   4.111   4.621   5.267 -0.1544  0.0149 -0.4357
 9501SOL    HW140136   4.100   4.530   5.295 -1.1722  0.8437  1.8372
 9501SOL    HW240137   4.022   4.655   5.278 -0.1375  0.2516 -1.0334
 9502SOL     OW40138   2.661   2.100   0.220 -0.1827  0.3439  0.9082
 9502SOL    HW140139   2.671   2.015   0.264  1.0466 -0.4806 -0.9432
 9502SOL    HW240140   2.667   2.062   0.132  1.7690  1.4230  0.5930
 9503SOL     OW40141   1.051   3.118   7.086 -0.3646 -0.8445 -0.8683
 9503SOL    HW140142   1.145   3.123   7.104 -0.4071 -0.9591 -0.6109
 9503SOL    HW240143   1.028   3.048   7.147  0.9554 -0.9372 -0.4793
 9504SOL     OW40144   2.638   3.954   4.483  0.5605  0.5950 -0.3091
 9504SOL    HW140145   2.593   3.923   4.561 -0.1719  0.6433 -0.7067
 9504SOL    HW240146   2.599   4.042   4.486  1.6583  1.0525  0.7118
 9505SOL     OW40147   1.700   3.914   5.301 -0.1837 -0.4180  0.0357
 9505SOL    HW140148   1.651   3.899   5.382  2.0873  0.8225  1.6295
 9505SOL    HW240149   1.759   3.985   5.328 -0.4799 -0.4880  0.8728
 9506SOL     OW40150   3.362   2.817   5.788  0.0462 -0.3315 -0.0569
 9506SOL    HW140151   3.373   2.847   5.878  0.0411 -1.7866  0.4224
 9506SOL    HW240152   3.270   2.794   5.776  0.1446  0.3208 -2.1438
 9507SOL     OW40153   0.871   2.739   5.151 -0.2152  0.1715 -0.0575
 9507SOL    HW140154   0.791   2.694   5.125  0.3689 -0.9823  0.1457
 9507SOL    HW240155   0.876   2.727   5.246  1.8075 -2.4881 -0.4970
 9508SOL     OW40156   0.672   0.714   2.385 -0.0440  0.1484  0.1088
 9508SOL    HW140157   0.696   0.650   2.318 -0.0698 -0.6959  0.9045
 9508SOL    HW240158   0.693   0.794   2.338  4.8004 -1.6078 -0.6878
 9509SOL     OW40159   1.578   1.983   2.231  0.7072 -0.3217 -0.5975
 9509SOL    HW140160   1.546   1.893   2.225 -1.7233  0.5745 -1.4366
 9509SOL    HW240161   1.570   2.004   2.138  2.5272 -0.1464 -0.6983
 9510SOL     OW40162   4.643   1.001   6.095 -0.3564 -0.2405 -0.5783
 9510SOL    HW140163   4.612   0.914   6.118  1.0081 -0.6873 -0.4519
 9510SOL    HW240164   4.651   1.046   6.179 -1.8256 -3.3133  1.1929
 9511SOL     OW40165   0.882   1.701   2.987 -0.2361 -0.1460 -0.3318
 9511SOL    HW140166   0.827   1.667   2.916  0.4115 -0.0125 -0.8909
 9511SOL    HW240167   0.968   1.694   2.947  0.3172  1.3586  0.6157
 9512SOL     OW40168   4.267   0.188  15.851 -0.0384  0.6303 -0.2181
 9512SOL    HW140169   4.276   0.133  15.928  2.7601  0.9198 -0.3259
 9512SOL    HW240170   4.351   0.233  15.842  0.1829  0.0736 -0.9671
 9513SOL     OW40171   1.923   3.174   6.193 -0.0656 -0.5524 -0.1342
 9513SOL    HW140172   1.945   3.217   6.276 -0.2109 -0.4650 -0.1402
 9513SOL    HW240173   2.007   3.129   6.184 -0.4314 -1.6382  1.8571
 9514SOL     OW40174   2.279   2.700  11.683 -0.0328 -0.3448  0.1555
 9514SOL    HW140175   2.207   2.644  11.716 -0.1285  0.5495  1.4752
 9514SOL    HW240176   2.230   2.768  11.637 -0.8857 -0.8764  0.2639
 9515SOL     OW40177   4.580   3.199   0.291  0.9688 -0.4334  0.5475
 9515SOL    HW140178   4.554   3.228   0.378 -2.0846 -0.6993 -0.2716
 9515SOL    HW240179   4.505   3.220   0.235  2.4391  0.2259 -1.1640
 9516SOL     OW40180   2.613   2.632  14.692  0.5344 -0.5058  0.7229
 9516SOL    HW140181   2.623   2.616  14.598  1.9124 -2.5780  1.2215
 9516SOL    HW240182   2.613   2.728  14.688  0.0972 -0.5535 -0.4538
 9517SOL     OW40183   3.117   1.236   3.354  0.2421 -0.1134 -0.6231
 9517SOL    HW140184   3.106   1.149   3.393 -2.3234  1.0043  1.2295
 9517SOL    HW240185   3.212   1.238   3.347  0.3045  0.4231  0.3645
 9518SOL     OW40186   0.072   0.642   6.544 -0.3837 -0.2645  0.1071
 9518SOL    HW140187   0.087   0.556   6.506  1.8263  0.5838 -0.9427
 9518SOL    HW240188   0.155   0.660   6.588 -1.4545  0.3874  1.8402
 9519SOL     OW40189   3.641   3.921   4.825 -0.1989 -0.5877  0.1401
 9519SOL    HW140190   3.594   3.965   4.754 -0.1388 -2.3132 -0.9861
 9519SOL    HW240191   3.705   3.861   4.785  1.3887 -0.0602  1.8907
 9520SOL     OW40192   2.342   0.744   7.902 -0.1905  0.7444 -0.1202
 9520SOL    HW140193   2.386   0.680   7.845 -1.3595  1.7983 -2.1775
 9520SOL    HW240194   2.271   0.759   7.841 -1.1203 -0.7678  0.5819
 9521SOL     OW40195   2.222   0.339   4.180  0.2054  0.4699  0.5531
 9521SOL    HW140196   2.243   0.327   4.273 -1.1474  1.5100  0.9957
 9521SOL    HW240197   2.299   0.297   4.141 -1.2417  2.7842 -4.8496
 9522SOL     OW40198   0.662   4.335   2.393  0.0557  0.6798 -0.1565
 9522SOL    HW140199   0.567   4.325   2.399  0.1184 -0.6012 -1.3329
 9522SOL    HW240200   0.681   4.412   2.339  1.0584  0.0011 -0.7817
 9523SOL     OW40201   4.669   3.849   7.683 -0.0778 -0.6455  0.4313
 9523SOL    HW140202   4.723   3.771   7.674 -0.6316 -0.8202 -1.4346
 9523SOL    HW240203   4.706   3.896   7.608  1.2076  0.5482  1.7863
 9524SOL     OW40204   3.111   0.434   2.713 -0.5313  0.5044  0.3529
 9524SOL    HW140205   3.159   0.351   2.713 -1.8890 -0.2838 -0.0328
 9524SOL    HW240206   3.076   0.448   2.625  0.7296  0.8077 -0.0957
 9525SOL     OW40207   1.127   1.462  13.475 -0.4445 -0.4524 -0.5101
 9525SOL    HW140208   1.171   1.424  13.551 -0.5178 -0.1131 -0.2981
 9525SOL    HW240209   1.039   1.429  13.489 -0.3411 -1.7811 -3.0962
 9526SOL     OW40210   0.656   2.282   5.703 -0.6734 -0.0836  0.4548
 9526SOL    HW140211   0.583   2.292   5.643 -0.8185 -0.1467  0.6225
 9526SOL    HW240212   0.640   2.363   5.751 -3.2669 -1.4084  1.8263
 9527SOL     OW40213   1.868   1.958   4.882 -0.3491  0.2680  0.0546
 9527SOL    HW140214   1.781   1.994   4.867 -0.3560  0.2617  0.0791
 9527SOL    HW240215   1.841   1.889   4.943  0.8920 -1.2198 -1.0620
 9528SOL     OW40216   4.275   0.363   3.600 -0.0158  0.4280 -0.2104
 9528SOL    HW140217   4.248   0.415   3.676  0.1374 -2.6728  1.9992
 9528SOL    HW240218   4.217   0.395   3.532  0.9108 -0.4382 -1.3966
 9529SOL     OW40219   1.023   2.815  12.856 -0.5432  0.2681  0.4296
 9529SOL    HW140220   0.965   2.744  12.883 -0.4453 -0.0769 -0.2767
 9529SOL    HW240221   1.102   2.776  12.894 -0.0151  1.5938  0.6795
 9530SOL     OW40222   1.321   3.121   7.439 -0.1126  0.0895 -0.1167
 9530SOL    HW140223   1.238   3.111   7.486  0.8214  1.2003  1.7897
 9530SOL    HW240224   1.392   3.086   7.493  0.7979 -1.0658 -2.0666
 9531SOL     OW40225   2.956   3.010   8.511  0.3331  0.0827  0.4820
 9531SOL    HW140226   2.991   2.980   8.594 -1.2325  1.7021  1.7179
 9531SOL    HW240227   3.027   2.980   8.454 -1.1160  1.3746 -2.0435
 9532SOL     OW40228   0.976   1.770   4.593 -0.8768  0.1057  0.1901
 9532SOL    HW140229   0.913   1.723   4.648  0.7555  1.7504  3.4654
 9532SOL    HW240230   1.027   1.814   4.661  0.2603  0.7519 -1.0899
 9533SOL     OW40231   1.803   0.350   6.014  0.1099  0.4416 -0.1981
 9533SOL    HW140232   1.755   0.276   5.975  1.7463 -0.8015  0.1665
 9533SOL    HW240233   1.738   0.371   6.082  0.0407  2.0563 -0.7651
 9534SOL     OW40234   2.660   3.045   3.168  0.6159 -0.1719 -0.1311
 9534SOL    HW140235   2.604   3.063   3.243 -0.4995 -0.8625 -0.7946
 9534SOL    HW240236   2.726   3.108   3.198  2.1999 -2.9236  2.1577
 9535SOL     OW40237   2.810   4.232   8.721  0.4858 -0.0648  0.3309
 9535SOL    HW140238   2.854   4.147   8.721  1.3476  0.3837  2.7163
 9535SOL    HW240239   2.868   4.297   8.761 -2.6768  2.3196  1.0442
 9536SOL     OW40240   3.036   4.506   8.639 -0.0568  0.1222 -0.3835
 9536SOL    HW140241   3.102   4.572   8.619  1.1026 -0.5533  1.2151
 9536SOL    HW240242   3.052   4.491   8.732 -2.3494 -0.0732 -0.0077
 9537SOL     OW40243   1.934   1.135   6.676  0.1753  0.0441 -0.1756
 9537SOL    HW140244   1.878   1.162   6.749 -3.3266 -0.1338 -2.7574
 9537SOL    HW240245   2.013   1.181   6.703  1.2422 -2.4170  0.8226
 9538SOL     OW40246   3.292   1.069  16.741 -0.2940  0.6628 -0.1402
 9538SOL    HW140247   3.223   1.015  16.702  0.9899 -0.3061 -1.0657
 9538SOL    HW240248   3.287   1.150  16.690 -0.5935  1.0590  0.5135
 9539SOL     OW40249   1.294   1.220  11.016  0.9919  0.9253  0.1289
 9539SOL    HW140250   1.251   1.222  10.931 -0.6242 -0.6354  0.9058
 9539SOL    HW240251   1.270   1.307  11.049 -0.4100  0.4836  0.2969
 9540SOL     OW40252   2.416   3.149   1.834 -0.0586 -0.0725 -0.1613
 9540SOL    HW140253   2.511   3.152   1.846 -0.1829 -2.0944  1.3456
 9540SOL    HW240254   2.398   3.072   1.888 -1.1010  0.7971  0.7389
 9541SOL     OW40255   0.460   0.146  12.310 -0.5275 -0.4600 -0.3657
 9541SOL    HW140256   0.437   0.230  12.270  1.3826  0.0697 -0.3453
 9541SOL    HW240257   0.555   0.156  12.308 -0.5281 -0.3552  0.3093
 9542SOL     OW40258   0.579   0.882   4.115 -0.1170 -0.2405  0.0063
 9542SOL    HW140259   0.554   0.797   4.079  0.6151 -1.2349  1.8442
 9542SOL    HW240260   0.568   0.861   4.208 -1.0553  1.9102  0.3800
 9543SOL     OW40261   4.505   1.732   6.015 -0.3446 -0.5594  0.3178
 9543SOL    HW140262   4.450   1.800   6.053  2.1119  0.1392  2.7264
 9543SOL    HW240263   4.565   1.771   5.951 -0.7240 -0.0902  0.2489
 9544SOL     OW40264   2.645   0.499   1.653 -0.7050  0.7225 -0.1874
 9544SOL    HW140265   2.637   0.416   1.700 -1.5976 -0.3553 -2.2165
 9544SOL    HW240266   2.606   0.565   1.711 -1.3529  0.6667 -0.5518
 9545SOL     OW40267   0.931   2.187   3.225  0.2323  0.0167 -0.1414
 9545SOL    HW140268   1.005   2.224   3.176 -1.8677 -0.4554 -3.6211
 9545SOL    HW240269   0.974   2.132   3.291 -0.3839  0.7087  0.8422
 9546SOL     OW40270   3.923   2.432  17.677 -0.3667  0.5053 -0.1543
 9546SOL    HW140271   4.010   2.409  17.643 -0.3604 -0.9693  0.8158
 9546SOL    HW240272   3.882   2.346  17.692 -0.1234  0.2425 -1.0026
 9547SOL     OW40273   2.878   1.285   7.501 -0.1373 -0.1215  0.3923
 9547SOL    HW140274   2.863   1.304   7.409 -1.2011  0.9162  0.7847
 9547SOL    HW240275   2.830   1.353   7.548 -2.2832  0.1401 -2.1735
 9548SOL     OW40276   3.625   4.053   5.701 -0.1951  0.2906  0.4330
 9548SOL    HW140277   3.674   4.133   5.718  3.5602 -1.9721  0.2437
 9548SOL    HW240278   3.671   4.026   5.622  0.3559 -0.6534  1.0727
 9549SOL     OW40279   3.648   3.724   6.857 -0.2554  0.4183  0.4101
 9549SOL    HW140280   3.720   3.785   6.876  0.2755 -0.9450  2.6958
 9549SOL    HW240281   3.580   3.763   6.911  1.5194  1.1337  2.1233
 9550SOL     OW40282   1.914   1.281  14.394 -0.4899 -0.3052 -0.3533
 9550SOL    HW140283   1.886   1.333  14.469  0.4627 -0.0710 -0.1659
 9550SOL    HW240284   1.829   1.259  14.355 -0.0185 -1.6640 -0.6133
 9551SOL     OW40285   2.166   2.334   0.578 -0.3936 -0.1004  0.1714
 9551SOL    HW140286   2.202   2.314   0.664 -0.7371 -1.7144 -0.0531
 9551SOL    HW240287   2.109   2.259   0.558  0.4514 -0.5034 -0.7518
 9552SOL     OW40288   0.623   3.686  11.542  0.0530 -0.4252  0.2088
 9552SOL    HW140289   0.718   3.696  11.544 -0.0187  0.0061  1.9050
 9552SOL    HW240290   0.607   3.674  11.636  0.1490  0.3841  0.3285
 9553SOL     OW40291   0.302   0.608   1.546  0.6298  0.2960  0.0384
 9553SOL    HW140292   0.367   0.662   1.592  0.9020  0.8977 -1.0576
 9553SOL    HW240293   0.218   0.644   1.574 -0.3076  0.4063 -2.9976
 9554SOL     OW40294   1.442   0.087   5.394  0.5860 -0.1190 -0.0280
 9554SOL    HW140295   1.379   0.156   5.413  0.1095 -0.7412  0.6643
 9554SOL    HW240296   1.480   0.121   5.313 -0.6744 -0.8827 -0.9538
 9555SOL     OW40297   0.759   3.443   7.627 -0.2752 -0.1157 -0.4967
 9555SOL    HW140298   0.685   3.396   7.588 -1.1940 -0.2177  1.4134
 9555SOL    HW240299   0.720   3.530   7.634  0.8317  0.1647  2.0166
 9556SOL     OW40300   3.020   4.593  10.664  0.3523 -0.5952 -0.0769
 9556SOL    HW140301   3.088   4.574  10.600  0.6379 -1.5415  0.5204
 9556SOL    HW240302   2.939   4.575  10.616 -0.5675 -0.8842  1.5629
 9557SOL     OW40303   3.348   3.674   5.916  0.2581  0.0916 -0.3030
 9557SOL    HW140304   3.351   3.651   5.823  0.4781 -0.9888 -0.0320
 9557SOL    HW240305   3.259   3.706   5.933 -0.3020 -1.8198  0.3177
 9558SOL     OW40306   3.439   0.510  10.022 -0.0519 -0.0915 -0.7168
 9558SOL    HW140307   3.443   0.505   9.926 -0.0903  1.7898 -0.8355
 9558SOL    HW240308   3.355   0.556  10.027 -0.5612 -0.9957 -1.0020
 9559SOL     OW40309   1.149   4.171   9.884 -0.1022 -0.5523  0.9047
 9559SOL    HW140310   1.226   4.206   9.839  0.4336 -1.7859  0.8694
 9559SOL    HW240311   1.177   4.081   9.901 -1.4079 -0.9661  0.9071
 9560SOL     OW40312   1.523   2.911  12.618 -0.6410 -0.3045  0.0842
 9560SOL    HW140313   1.441   2.931  12.663 -0.7436 -2.0832  0.7041
 9560SOL    HW240314   1.543   2.828  12.662 -1.7056 -0.5333  0.1467
 9561SOL     OW40315   1.057   4.006  17.481 -0.4628  0.2540 -0.1045
 9561SOL    HW140316   0.991   4.015  17.550  1.0366 -0.5144  1.4287
 9561SOL    HW240317   1.138   4.017  17.530 -0.7955 -1.8627  0.9611
 9562SOL     OW40318   0.759   0.140  15.074 -0.0134  0.7524  0.7334
 9562SOL    HW140319   0.705   0.136  15.153  0.2479 -0.3800  0.8452
 9562SOL    HW240320   0.704   0.125  14.997 -0.1761  0.3173  0.9352
 9563SOL     OW40321   0.733   3.846  12.597 -0.6489 -0.0024 -0.0527
 9563SOL    HW140322   0.662   3.832  12.660 -0.1312 -1.8666  0.1174
 9563SOL    HW240323   0.735   3.767  12.543 -0.5160 -1.1718  1.6631
 9564SOL     OW40324   1.412   0.017  14.828  0.5831  0.4753  0.1066
 9564SOL    HW140325   1.503   4.727  14.834  0.3524 -0.2506  0.2597
 9564SOL    HW240326   1.410   0.112  14.816  0.5104  0.2985 -1.2555
 9565SOL     OW40327   3.182   1.673   6.879 -0.5011  0.3094 -0.2166
 9565SOL    HW140328   3.214   1.637   6.962 -4.7090 -1.3025  0.6875
 9565SOL    HW240329   3.109   1.731   6.899 -1.0224  0.1291 -1.5814
 9566SOL     OW40330   0.738   4.304   0.355 -0.0314  0.8356  0.0549
 9566SOL    HW140331   0.762   4.388   0.317  0.0621  0.2294 -1.2579
 9566SOL    HW240332   0.678   4.267   0.290  0.4004  0.4771 -0.1401
 9567SOL     OW40333   2.378   1.072  15.468 -0.0548 -0.7156  0.3234
 9567SOL    HW140334   2.430   1.120  15.404 -2.2725 -0.8608 -1.5974
 9567SOL    HW240335   2.358   1.145  15.528  1.7441  0.3415 -0.3735
 9568SOL     OW40336   2.366   2.418   7.491 -0.2743 -0.4462 -0.3706
 9568SOL    HW140337   2.291   2.431   7.432  1.2666  0.2048 -2.1891
 9568SOL    HW240338   2.367   2.502   7.538  1.3586 -0.2427 -0.7691
 9569SOL     OW40339   2.536   4.564   3.750 -0.4168  0.3011 -0.5659
 9569SOL    HW140340   2.531   4.569   3.655 -0.6151 -2.1446 -0.6889
 9569SOL    HW240341   2.533   4.658   3.769 -1.5966  0.1146  0.1388
 9570SOL     OW40342   3.516   3.787   4.475 -0.3237  0.2960 -0.2547
 9570SOL    HW140343   3.445   3.724   4.459 -1.7579  1.2217  2.4287
 9570SOL    HW240344   3.558   3.788   4.389  1.0753  0.4318  0.4234
 9571SOL     OW40345   1.298   3.478   5.227 -0.3004 -0.2769  0.6476
 9571SOL    HW140346   1.332   3.500   5.140  2.7980  1.1879  2.2475
 9571SOL    HW240347   1.220   3.533   5.237 -1.0999 -1.5044  1.0894
   4.73783   4.73783  17.74948
