Membrane in water
40347
    1TMC1    C1    1   1.618   4.204  12.003 -0.1708 -0.3232 -0.7649
    1TMC1    C2    2   1.602   4.121  11.897  0.4222 -0.5479  0.3586
    1TMC1    C3    3   1.715   4.102  11.812  0.1830 -0.0380  0.5592
    1TMC1    C4    4   1.737   4.268  12.039  0.6817  0.5534  0.5172
    1TMC1    C5    5   1.840   4.243  11.953 -0.3726  0.2311  0.7098
    1TMC1    C6    6   1.827   4.175  11.838 -0.5830 -0.2020  0.0101
    1TMC1     C    7   1.498   4.229  12.081 -0.3029 -0.0325 -0.1354
    1TMC1     O    8   1.502   4.266  12.199  0.0778  0.2707 -0.6472
    1TMC1     H    9   1.516   4.061  11.870  0.6169 -1.1769  1.1438
    1TMC1    H1   10   1.757   4.323  12.131  0.5616 -2.1743  2.1676
    1TMC1    H2   11   1.921   4.172  11.783 -0.5103 -2.7972  0.2841
    1TMC1    C7   12   1.966   4.300  11.989 -0.9618  0.0265 -0.1900
    1TMC1    C8   13   1.717   4.018  11.695 -0.0451  0.2398 -0.2874
    1TMC1    O1   14   1.989   4.414  12.026 -0.4583 -0.4114  0.7479
    1TMC1    O2   15   1.811   3.953  11.659  0.0482 -0.1801 -0.0983
    1TMC1    O3   16   2.028   4.187  12.031  0.7564  0.1915  0.6230
    1TMC1    H3   17   1.980   4.102  12.027  2.0646 -0.5629  0.9687
    1TMC1    O5   18   1.586   4.004  11.658 -0.4332 -0.1360 -0.1696
    1TMC1    H5   19   1.533   4.084  11.678 -1.5178 -0.9317  0.1476
    2MPD2     C   20   0.999   4.111  12.121  0.6272 -0.5475 -0.1587
    2MPD2    C1   21   1.102   4.109  12.207  0.5471 -0.0715  0.1658
    2MPD2    C2   22   1.230   4.141  12.169 -1.2639  0.3652  0.1506
    2MPD2    C3   23   1.257   4.180  12.039 -0.4429 -0.5639  0.2463
    2MPD2    C4   24   1.156   4.188  11.952 -0.3643 -0.5972 -0.0487
    2MPD2    C5   25   1.027   4.155  11.994 -0.2951 -0.3401 -0.1110
    2MPD2     H   26   1.311   4.130  12.241 -0.3800 -1.8579 -1.1793
    2MPD2    H1   27   1.175   4.214  11.848 -0.9018  0.3140  0.0869
    2MPD2    H2   28   0.894   4.097  12.144  0.5098 -0.3451 -0.5659
    2MPD2    H3   29   0.941   4.170  11.929 -1.0898  2.8597  1.7085
    2MPD2     N   30   1.390   4.217  12.000 -0.0755  0.3916  0.1005
    2MPD2    H5   31   1.398   4.221  11.899  0.6552 -0.3358  0.1295
    2MPD2    N1   32   1.065   4.086  12.338 -0.3191 -0.1217 -0.0235
    2MPD2    H7   33   1.144   4.086  12.402 -0.0345  2.2862 -0.3826
    3TMC1    C1   34   1.553   0.487  11.118  0.0215 -0.3713 -0.0242
    3TMC1    C2   35   1.663   0.405  11.143  0.1494  0.1342  0.3780
    3TMC1    C3   36   1.786   0.461  11.152  0.0229  0.3944  0.2282
    3TMC1    C4   37   1.564   0.623  11.116 -0.1753 -0.3338  0.3166
    3TMC1    C5   38   1.697   0.670  11.108  0.8431 -0.2639 -0.1125
    3TMC1    C6   39   1.809   0.596  11.131 -0.2383  0.1069 -0.8841
    3TMC1     C   40   1.419   0.435  11.145  0.0093  0.2217  0.8323
    3TMC1     O   41   1.412   0.311  11.160  0.3436  0.5111  0.2472
    3TMC1     H   42   1.653   0.298  11.155 -0.6636  0.1498 -0.1762
    3TMC1    H1   43   1.483   0.691  11.091  1.2339  0.3410 -2.4976
    3TMC1    H2   44   1.905   0.647  11.140 -1.5302  2.2371  0.8176
    3TMC1    C7   45   1.726   0.808  11.067 -0.2891  0.7663  0.5428
    3TMC1    C8   46   1.893   0.370  11.118  0.0463  0.7949  1.0139
    3TMC1    O1   47   1.825   0.845  10.998  0.0028  0.4157 -0.1763
    3TMC1    O2   48   1.879   0.274  11.043  0.7772  0.9624 -0.2367
    3TMC1    O3   49   1.633   0.887  11.118  0.3979 -0.1677  0.2845
    3TMC1    H3   50   1.573   0.837  11.177  0.0291  0.9648  0.8739
    3TMC1    O5   51   1.979   0.380  11.220  0.1400 -0.1801 -0.1476
    3TMC1    H5   52   1.961   0.462  11.270  0.9337  0.1253 -0.3688
    4MPD2     C   53   0.940   0.518  11.312 -0.3967 -0.3155 -0.0249
    4MPD2    C1   54   0.999   0.641  11.301  0.1553 -0.0113 -0.1198
    4MPD2    C2   55   1.135   0.647  11.258  0.1389  0.0778  0.7871
    4MPD2    C3   56   1.213   0.532  11.232 -0.4369  0.0778 -0.1437
    4MPD2    C4   57   1.146   0.409  11.242  0.7084 -0.0183  0.5147
    4MPD2    C5   58   1.015   0.408  11.278  0.1384  0.4502 -0.4744
    4MPD2     H   59   1.177   0.747  11.257  1.7378 -0.5818  0.8511
    4MPD2    H1   60   1.199   0.318  11.220  1.3016  0.3287  0.5081
    4MPD2    H2   61   0.842   0.503  11.356  0.0835 -2.0575  0.4443
    4MPD2    H3   62   0.963   0.314  11.294 -0.4943  0.9531  0.4880
    4MPD2     N   63   1.343   0.538  11.191 -0.0579 -0.3086  0.6571
    4MPD2    H5   64   1.381   0.632  11.191  1.8636 -1.0855  1.9779
    4MPD2    N1   65   0.946   0.766  11.333 -0.2854  0.1416  0.1038
    4MPD2    H7   66   1.004   0.850  11.327 -0.1998  0.1187  0.6254
    5TCq1    O1   67   2.420   1.720  12.705 -0.1779 -0.0603 -0.3819
    5TCq1    C1   68   2.520   1.770  12.624  0.1388  0.1545 -0.4923
    5TCq1    O2   69   2.580   1.703  12.542 -0.6382  0.4931 -0.1688
    5TCq1    C2   70   2.472   1.901  12.586  0.1497 -0.0102  0.7133
    5TCq1    C3   71   2.416   1.979  12.683  0.0683 -0.4150 -0.2951
    5TCq1    C4   72   2.359   2.100  12.646 -0.7770  0.7336  0.1277
    5TCq1    C5   73   2.352   2.130  12.517 -0.5769 -0.1534 -0.2604
    5TCq1    C6   74   2.402   2.047  12.422 -0.5782 -0.1429  0.9285
    5TCq1    C7   75   2.466   1.932  12.454  0.1583 -0.6283 -0.5226
    5TCq1    C8   76   2.341   2.075  12.290  0.2549  0.5718 -0.2413
    5TCq1    O4   77   2.314   1.993  12.206  0.0151  0.0504 -0.3426
    5TCq1    C9   78   2.290   2.183  12.743  0.7130 -0.8818 -0.7449
    5TCq1    O5   79   2.304   2.151  12.864  0.0297  0.3944 -0.8022
    5TCq1    O6   80   2.213   2.272  12.703  0.3913 -0.0685  0.6056
    5TCq1    H1   81   2.358   1.791  12.732  0.6435  0.1383  0.9803
    5TCq1    H2   82   2.428   1.967  12.791 -0.6458  1.3683 -0.0166
    5TCq1    H3   83   2.289   2.218  12.508 -0.7938 -0.2087  0.7574
    5TCq1    H4   84   2.496   1.860  12.379  0.5645 -0.6802 -0.3122
    6MPD2     C   85   2.241   2.408  12.190 -0.1087  0.4868 -0.5235
    6MPD2    C1   86   2.241   2.276  12.179  0.4327 -0.7781 -0.0385
    6MPD2    C2   87   2.177   2.219  12.071 -0.3596  0.4495 -0.0164
    6MPD2    C3   88   2.112   2.291  11.972 -0.1355 -0.1928  0.6484
    6MPD2    C4   89   2.137   2.425  11.970 -0.3321  0.2503  0.1428
    6MPD2    C5   90   2.192   2.482  12.086 -1.6745  0.1733  0.7991
    6MPD2     H   91   2.185   2.111  12.060  0.3317  0.3364  1.6478
    6MPD2    H1   92   2.110   2.488  11.886 -1.2489 -1.2489 -0.6852
    6MPD2    H2   93   2.285   2.450  12.279  0.5434 -1.0888 -0.1151
    6MPD2    H3   94   2.198   2.589  12.103  0.8667 -0.0110  1.0850
    6MPD2     N   95   2.029   2.231  11.871  0.0351 -0.5451  0.2940
    6MPD2    H5   96   2.036   2.130  11.863 -0.9958 -0.6927  1.2872
    6MPD2    N1   97   2.315   2.210  12.284 -0.0628 -0.1844 -0.5590
    6MPD2    H7   98   2.359   2.266  12.356 -2.0798  0.1148  0.4364
    7TCq1    O1   99   2.922   1.059  12.920  0.1808  0.5176  0.2081
    7TCq1    C1  100   3.016   0.992  12.988 -0.6758  1.2137 -0.3848
    7TCq1    O2  101   3.132   0.985  12.962 -0.1953  0.0817 -0.4341
    7TCq1    C2  102   2.977   0.976  13.127  0.1727  0.2027  0.2604
    7TCq1    C3  103   2.844   0.961  13.162  0.2310 -0.2007 -0.0807
    7TCq1    C4  104   2.806   0.978  13.296 -0.4238  0.6232  0.2746
    7TCq1    C5  105   2.900   0.995  13.393  0.1244  0.2676  0.5058
    7TCq1    C6  106   3.032   0.997  13.359  0.1467  0.0225 -0.2170
    7TCq1    C7  107   3.074   0.993  13.226 -0.2521 -0.4913 -0.7827
    7TCq1    C8  108   3.129   1.050  13.465  0.0399  0.1643  0.1137
    7TCq1    O4  109   3.074   1.136  13.532  0.5950 -0.2729  0.1280
    7TCq1    C9  110   2.663   0.974  13.326  0.4128 -0.3078  0.0350
    7TCq1    O5  111   2.635   0.965  13.446 -0.2241 -0.2409 -0.0129
    7TCq1    O6  112   2.578   0.951  13.231 -0.3907 -0.3046  0.0115
    7TCq1    H1  113   2.837   1.063  12.969  0.9336 -0.3122  1.5778
    7TCq1    H2  114   2.776   0.943  13.080 -0.1427 -1.7371  0.5697
    7TCq1    H3  115   2.870   0.996  13.497  1.3963 -0.7907  0.8843
    7TCq1    H4  116   3.178   1.000  13.199 -0.5083 -1.3495 -1.9889
    8MPD2     C  117   3.519   1.007  13.778 -0.1889  0.1973 -0.3303
    8MPD2    C1  118   3.527   0.898  13.693  1.0693 -0.7782 -0.5314
    8MPD2    C2  119   3.441   0.896  13.581 -0.0377  0.6584 -0.5316
    8MPD2    C3  120   3.343   0.995  13.573  0.4865 -0.8501 -0.4716
    8MPD2    C4  121   3.327   1.087  13.677 -0.2933  0.3514 -0.4468
    8MPD2    C5  122   3.415   1.100  13.778 -0.1361  0.2976 -0.3505
    8MPD2     H  123   3.461   0.831  13.497 -2.4776 -0.9437  0.1538
    8MPD2    H1  124   3.242   1.153  13.683  1.1445  2.3482 -2.1901
    8MPD2    H2  125   3.594   1.017  13.857  0.1113  1.2262 -0.7389
    8MPD2    H3  126   3.412   1.183  13.848 -2.4119  2.8825 -3.5518
    8MPD2     N  127   3.252   0.985  13.461 -0.1425  0.2537 -0.1821
    8MPD2    H5  128   3.277   0.927  13.382 -0.8055 -0.0979 -0.1314
    8MPD2    N1  129   3.625   0.798  13.715 -0.1040  0.8582  0.4282
    8MPD2    H7  130   3.674   0.807  13.803 -1.6175 -0.1084  1.3769
    9TMC1    C1  131   1.285   0.985  12.146  0.3941  0.3335 -0.6941
    9TMC1    C2  132   1.264   1.119  12.164  0.4760 -0.1537  0.3395
    9TMC1    C3  133   1.352   1.202  12.104 -0.7033 -0.3613  0.0058
    9TMC1    C4  134   1.384   0.938  12.060 -0.5120  0.5516  0.2403
    9TMC1    C5  135   1.455   1.032  11.992  0.2144  0.3015  0.5422
    9TMC1    C6  136   1.437   1.164  12.010  0.1137  0.1866 -0.2472
    9TMC1     C  137   1.222   0.890  12.234 -0.8110 -0.2629  0.2742
    9TMC1     O  138   1.106   0.917  12.269  0.3925  0.1592  0.5659
    9TMC1     H  139   1.174   1.150  12.217 -1.1017  0.1405 -2.5318
    9TMC1    H1  140   1.382   0.836  12.025  0.7781  0.5809  0.0651
    9TMC1    H2  141   1.489   1.232  11.944  2.0581 -0.5498  0.5124
    9TMC1    C7  142   1.563   1.008  11.898  0.0081  0.5142 -0.1886
    9TMC1    C8  143   1.321   1.344  12.122 -0.5892  0.1441  0.3805
    9TMC1    O1  144   1.628   1.091  11.837  0.2611  0.0567 -0.3778
    9TMC1    O2  145   1.206   1.378  12.132  0.1170  0.0324  0.4890
    9TMC1    O3  146   1.572   0.873  11.894 -0.0138  0.0070  0.3249
    9TMC1    H3  147   1.643   0.848  11.831  0.4855  0.5955  0.6562
    9TMC1    O5  148   1.419   1.412  12.069 -0.2537 -0.0389 -0.3799
    9TMC1    H5  149   1.505   1.370  12.092  0.7438  1.9271 -0.5246
   10MPD2     C  150   1.156   0.704  12.451  0.3045 -0.3747 -0.7106
   10MPD2    C1  151   1.271   0.695  12.375  0.1431 -0.2841  0.4358
   10MPD2    C2  152   1.352   0.583  12.391 -0.2030  0.7853 -0.2868
   10MPD2    C3  153   1.324   0.476  12.468 -0.3800  0.4818  0.4768
   10MPD2    C4  154   1.211   0.486  12.547  0.0089 -0.2285  0.2368
   10MPD2    C5  155   1.130   0.602  12.529 -0.0364 -0.4571 -0.2719
   10MPD2     H  156   1.447   0.586  12.338 -0.8585  0.7774 -1.4559
   10MPD2    H1  157   1.187   0.412  12.623 -1.2341  1.3798  1.4143
   10MPD2    H2  158   1.088   0.788  12.453  0.9965  0.1836 -0.0046
   10MPD2    H3  159   1.052   0.611  12.604  0.6889  1.2155  0.2629
   10MPD2     N  160   1.415   0.373  12.489  0.2896 -0.4407  0.6140
   10MPD2    H5  161   1.397   0.320  12.573  1.4043 -0.9737  0.5135
   10MPD2    N1  162   1.300   0.797  12.279  0.0004 -0.1311 -0.0045
   10MPD2    H7  163   1.388   0.792  12.230 -0.2771  0.2548 -0.5497
   11TCq1    O1  164   1.963   4.340  14.221 -0.5179  0.3090 -0.3077
   11TCq1    C1  165   1.949   4.239  14.311 -0.1332 -0.1747  0.0992
   11TCq1    O2  166   2.019   4.147  14.330 -0.4008 -0.7762 -0.1490
   11TCq1    C2  167   1.815   4.216  14.310  0.1504  0.8827  0.0431
   11TCq1    C3  168   1.743   4.329  14.336  0.0415 -0.7281 -0.0298
   11TCq1    C4  169   1.623   4.358  14.291 -0.0724 -0.1186  1.0721
   11TCq1    C5  170   1.558   4.267  14.216 -0.4323  0.7822  0.4603
   11TCq1    C6  171   1.632   4.162  14.169  1.0919  0.3300 -0.0067
   11TCq1    C7  172   1.772   4.141  14.203  0.0214 -0.2277  0.3265
   11TCq1    C8  173   1.590   4.111  14.040  0.1684 -0.2185 -1.1821
   11TCq1    O4  174   1.478   4.142  14.000  0.3647  0.0025  0.3059
   11TCq1    C9  175   1.564   4.478  14.339 -0.4095  0.4183  0.2969
   11TCq1    O5  176   1.445   4.464  14.378 -0.4250 -0.0034  0.2457
   11TCq1    O6  177   1.640   4.579  14.344  0.1732  0.2769  0.6876
   11TCq1    H1  178   1.885   4.398  14.231 -0.6505  0.3379 -1.5525
   11TCq1    H2  179   1.773   4.395  14.418 -1.6355  0.7226 -0.5725
   11TCq1    H3  180   1.462   4.299  14.178  0.1081  1.8967  0.0599
   11TCq1    H4  181   1.838   4.062  14.169  0.3177 -1.0744  2.8274
   12MPD2     C  182   1.584   4.008  13.757  0.2554 -0.1556  0.8184
   12MPD2    C1  183   1.686   3.993  13.849  0.5374  0.0560 -0.1549
   12MPD2    C2  184   1.800   3.921  13.807 -1.2552 -0.1732 -0.2204
   12MPD2    C3  185   1.802   3.860  13.686  0.5956 -0.7834 -0.1455
   12MPD2    C4  186   1.692   3.861  13.604 -0.0126 -0.2605  0.1820
   12MPD2    C5  187   1.580   3.934  13.643 -0.5419  0.1748  0.1328
   12MPD2     H  188   1.885   3.905  13.872 -1.4093 -1.6667 -0.4017
   12MPD2    H1  189   1.706   3.825  13.502 -0.7174  0.8809 -0.3227
   12MPD2    H2  190   1.492   4.058  13.786  0.7768  1.8686 -1.0527
   12MPD2    H3  191   1.495   3.948  13.577 -0.4646 -0.6477 -0.1449
   12MPD2     N  192   1.926   3.801  13.634  0.3071  0.2992  0.5853
   12MPD2    H5  193   1.925   3.761  13.541  0.2196  0.0111  0.7118
   12MPD2    N1  194   1.687   4.043  13.979 -0.4065 -0.7687  0.0647
   12MPD2    H7  195   1.771   4.024  14.032  1.6925  1.5005 -2.4811
   13TCq1    O1  196   1.723   0.655  12.413 -0.2287  0.0577  0.6579
   13TCq1    C1  197   1.822   0.723  12.354  0.1700 -0.2615  0.0502
   13TCq1    O2  198   1.845   0.839  12.372  0.3390  0.1649  0.2012
   13TCq1    C2  199   1.883   0.653  12.242 -0.4764  1.0864 -0.1564
   13TCq1    C3  200   1.987   0.715  12.189  0.5273  0.2076 -0.5467
   13TCq1    C4  201   2.025   0.683  12.063 -0.0707 -0.6169  0.0503
   13TCq1    C5  202   1.955   0.583  11.992 -0.2708 -0.3143 -0.2143
   13TCq1    C6  203   1.844   0.523  12.051 -0.0497 -0.1648  0.1468
   13TCq1    C7  204   1.810   0.550  12.180  0.2979 -0.5112 -0.0924
   13TCq1    C8  205   1.737   0.485  11.962  0.1171 -0.2783 -0.1760
   13TCq1    O4  206   1.619   0.490  11.989  0.0221  0.0481  0.9333
   13TCq1    C9  207   2.134   0.757  12.002  0.0447  0.3112 -1.5146
   13TCq1    O5  208   2.173   0.733  11.886 -0.3386  0.0170  0.6098
   13TCq1    O6  209   2.174   0.860  12.057 -0.2308  0.2282 -0.7753
   13TCq1    H1  210   1.719   0.562  12.383 -0.7132  0.6463 -1.1220
   13TCq1    H2  211   2.040   0.800  12.231 -1.6216  0.7333  1.0681
   13TCq1    H3  212   1.993   0.558  11.894  1.3046 -0.1138  0.3457
   13TCq1    H4  213   1.718   0.510  12.222 -0.5155  1.2597 -0.1919
   14MPD2     C  214   1.765   0.359  11.621 -0.8247 -0.2834  0.3341
   14MPD2    C1  215   1.698   0.429  11.722  0.0206  0.1579 -0.3185
   14MPD2    C2  216   1.560   0.441  11.715 -0.6631 -0.6287  0.2624
   14MPD2    C3  217   1.489   0.378  11.611 -0.0399  0.0543  0.2096
   14MPD2    C4  218   1.557   0.306  11.517 -0.0991  0.4552  0.7000
   14MPD2    C5  219   1.692   0.295  11.519 -0.0180  0.4391  0.2030
   14MPD2     H  220   1.503   0.486  11.795 -0.5152 -0.6698  0.3894
   14MPD2    H1  221   1.505   0.253  11.437  0.5448  1.8446 -0.6385
   14MPD2    H2  222   1.873   0.356  11.613 -0.8476 -0.4829  0.1191
   14MPD2    H3  223   1.738   0.241  11.438 -2.6137 -0.7377 -0.4755
   14MPD2     N  224   1.350   0.375  11.617  0.0706  0.5321 -0.2945
   14MPD2    H5  225   1.308   0.447  11.675 -0.7963  0.3555 -0.7133
   14MPD2    N1  226   1.778   0.465  11.833 -0.0179 -0.5770  0.7813
   14MPD2    H7  227   1.877   0.470  11.810 -0.2983 -0.4794 -0.3860
   15TCq1    O1  228   2.984   4.617   1.537  0.4480 -0.3301  0.1134
   15TCq1    C1  229   3.078   4.652   1.625 -0.3928  0.3834  0.6830
   15TCq1    O2  230   3.125   0.025   1.624  0.0151  0.1179  0.1662
   15TCq1    C2  231   3.151   4.536   1.678  0.5418 -1.3055 -0.5633
   15TCq1    C3  232   3.239   4.565   1.778 -1.1535 -0.4251  0.1738
   15TCq1    C4  233   3.301   4.455   1.835  0.4370  0.0166  0.8179
   15TCq1    C5  234   3.279   4.326   1.787 -0.3636 -0.3319 -0.2389
   15TCq1    C6  235   3.197   4.304   1.684 -0.4954  0.0783  0.2175
   15TCq1    C7  236   3.130   4.409   1.629 -0.0670 -0.0173  0.2294
   15TCq1    C8  237   3.160   4.168   1.661  0.2123 -0.1233  0.4883
   15TCq1    O4  238   3.192   4.082   1.739 -0.1903  0.7224  0.3554
   15TCq1    C9  239   3.393   4.467   1.946 -0.0039  0.0187 -0.2413
   15TCq1    O5  240   3.455   4.360   1.981  0.1127  0.3666  0.6006
   15TCq1    O6  241   3.424   4.583   1.989 -0.4887  0.0881 -0.4230
   15TCq1    H1  242   2.937   4.542   1.580 -0.7322  0.2521 -0.1478
   15TCq1    H2  243   3.253   4.665   1.818 -0.2902 -0.4158 -0.1573
   15TCq1    H3  244   3.341   4.249   1.831 -1.8350 -1.8647 -0.8868
   15TCq1    H4  245   3.057   4.390   1.550 -2.0252 -0.2144  2.0734
   16MPD2     C  246   3.013   4.027   1.349  0.0796 -1.1116 -0.4102
   16MPD2    C1  247   3.085   4.023   1.468 -0.6305  0.7817 -0.6336
   16MPD2    C2  248   3.144   3.901   1.502 -1.1132  0.6951  0.0277
   16MPD2    C3  249   3.146   3.791   1.410  0.0059  0.5955 -0.0549
   16MPD2    C4  250   3.089   3.809   1.284  0.3248  0.0535  0.2109
   16MPD2    C5  251   3.022   3.925   1.261  0.1508  0.7026  0.0565
   16MPD2     H  252   3.194   3.902   1.599  1.1944 -1.8152 -1.1431
   16MPD2    H1  253   3.079   3.729   1.212  2.0456 -0.2412  0.2968
   16MPD2    H2  254   2.959   4.120   1.331 -0.7667 -1.3929  0.6666
   16MPD2    H3  255   2.985   3.938   1.160 -1.5155  1.8715  0.7999
   16MPD2     N  256   3.217   3.674   1.450  0.0615 -0.6037  0.8370
   16MPD2    H5  257   3.229   3.675   1.550  0.7485  2.2763  0.7061
   16MPD2    N1  258   3.108   4.151   1.535  0.5920 -0.2806 -0.2370
   16MPD2    H7  259   3.089   4.236   1.483  0.2820 -0.2788 -0.1188
   17TMC1    C1  260   0.648   3.851  11.976  0.0318  0.8000  0.3961
   17TMC1    C2  261   0.684   3.730  11.928  0.3563 -0.3098  0.4506
   17TMC1    C3  262   0.680   3.622  12.010  0.1053 -0.0029 -0.3075
   17TMC1    C4  263   0.615   3.876  12.109 -0.8928 -0.0468  0.0282
   17TMC1    C5  264   0.609   3.760  12.185 -0.1944  0.2088 -0.4174
   17TMC1    C6  265   0.633   3.634  12.135 -0.2540  0.3029 -0.1306
   17TMC1     C  266   0.657   3.968  11.897 -0.3028  0.4963 -0.1026
   17TMC1     O  267   0.591   4.064  11.941 -0.0802 -0.5611 -0.1411
   17TMC1     H  268   0.724   3.718  11.828 -1.0956  2.2538 -0.4371
   17TMC1    H1  269   0.614   3.976  12.150 -0.6704  0.9534 -2.3904
   17TMC1    H2  270   0.634   3.550  12.202 -1.4124  0.1942 -0.2520
   17TMC1    C7  271   0.630   3.773  12.331  0.2861  0.4089 -0.6223
   17TMC1    C8  272   0.675   3.496  11.939 -0.0246  0.4247 -0.8048
   17TMC1    O1  273   0.705   3.701  12.396  0.2365  0.1070  0.4590
   17TMC1    O2  274   0.659   3.492  11.819 -0.3674 -0.2640 -0.1994
   17TMC1    O3  275   0.507   3.813  12.368 -0.0065 -0.0646  0.2862
   17TMC1    H3  276   0.468   3.869  12.298  2.4289  2.1981  0.7330
   17TMC1    O5  277   0.770   3.419  11.996 -0.5554 -0.1713  0.0995
   17TMC1    H5  278   0.772   3.444  12.091  0.8493 -2.1862  0.5866
   18MPD2     C  279   0.705   4.190  11.717 -0.0653 -0.0470 -0.3596
   18MPD2    C1  280   0.785   4.076  11.722  0.6385 -1.0419  0.2719
   18MPD2    C2  281   0.895   4.071  11.634 -0.1816 -0.2355 -0.4945
   18MPD2    C3  282   0.931   4.171  11.550  0.1078 -0.7027 -1.1510
   18MPD2    C4  283   0.846   4.282  11.539 -0.1434 -0.3660 -0.0434
   18MPD2    C5  284   0.736   4.288  11.622 -0.0721  0.5331  0.1014
   18MPD2     H  285   0.959   3.983  11.635  0.0152 -0.0882  0.0192
   18MPD2    H1  286   0.880   4.353  11.464 -0.8825  0.5610  0.4999
   18MPD2    H2  287   0.621   4.221  11.778  0.8052 -0.8426  1.2381
   18MPD2    H3  288   0.676   4.378  11.616 -0.3313  0.3187 -0.5036
   18MPD2     N  289   1.042   4.177  11.465 -0.3002  0.0509  0.3718
   18MPD2    H5  290   1.054   4.258  11.405 -0.7854 -0.5202 -0.4875
   18MPD2    N1  291   0.753   3.964  11.798 -0.2925  0.6396 -0.5502
   18MPD2    H7  292   0.810   3.881  11.793  0.5123  1.0599  1.6651
   19TMC2    C1  293   3.472   4.248  14.461  0.1688  0.4159  0.2944
   19TMC2    C2  294   3.518   4.235  14.336  0.4144  0.1692 -0.2810
   19TMC2    C3  295   3.426   4.207  14.239  0.0559  0.1991 -0.5587
   19TMC2    C4  296   3.346   4.221  14.494  0.1464  0.2809  0.0993
   19TMC2    C5  297   3.260   4.181  14.393  0.3129 -1.1723 -0.3500
   19TMC2    C6  298   3.297   4.174  14.264  0.1332 -0.2988  0.7281
   19TMC2     C  299   3.573   4.310  14.543  0.3787 -1.4995 -0.6125
   19TMC2     O  300   3.691   4.325  14.493 -0.2830  0.2242  0.2683
   19TMC2     H  301   3.619   4.259  14.304  1.4448 -0.8509  2.2028
   19TMC2    H1  302   3.309   4.238  14.595 -1.5655 -0.5430 -0.3862
   19TMC2    H2  303   3.225   4.131  14.196 -0.7499 -2.0313  2.7539
   19TMC2    C7  304   3.120   4.154  14.435  0.3490 -0.4391 -0.0795
   19TMC2    C8  305   3.471   4.169  14.106  0.7563  0.5922 -0.4721
   19TMC2    O1  306   3.101   4.140  14.551 -0.1662  1.0876 -0.3103
   19TMC2    O2  307   3.584   4.131  14.079  0.2333  0.7938  1.1010
   19TMC2    O5  308   3.366   4.174  14.026  0.3391  0.2429  0.1095
   19TMC2    H5  309   3.288   4.215  14.070  1.2279  0.6768  1.2963
   20MPD2     C  310   3.711   4.483  14.735 -0.0783 -0.1223 -0.1048
   20MPD2    C1  311   3.596   4.418  14.767 -0.8530 -0.1393 -0.7065
   20MPD2    C2  312   3.544   4.430  14.896 -0.8931  0.3969  0.3807
   20MPD2    C3  313   3.612   4.513  14.992  0.1752 -0.1091  0.6467
   20MPD2    C4  314   3.725   4.583  14.956  0.0790 -0.0009 -0.5487
   20MPD2    C5  315   3.782   4.556  14.830  0.1820  0.4373 -0.2088
   20MPD2     H  316   3.451   4.377  14.913 -1.4533  1.5928  1.1318
   20MPD2    H1  317   3.784   4.638  15.028 -0.5661 -1.7305  1.3089
   20MPD2    H2  318   3.755   4.477  14.636 -0.2840  0.1734 -0.2138
   20MPD2    H3  319   3.875   4.606  14.804  1.1884 -0.9895  0.6716
   20MPD2     N  320   3.564   4.516  15.127  0.3559 -0.3167  0.9620
   20MPD2    H5  321   3.624   4.571  15.188  0.9756  0.4479 -0.3441
   20MPD2    N1  322   3.521   4.347  14.670  0.9178 -0.6782 -0.0210
   20MPD2    H7  323   3.433   4.309  14.703  0.7535 -0.4755 -0.2309
   21TMC2    C1  324   0.478   4.514  14.928 -0.0728  0.2310 -0.5320
   21TMC2    C2  325   0.440   4.388  14.958 -0.0899 -0.1795 -0.6306
   21TMC2    C3  326   0.429   4.355  15.088 -0.0993 -0.4388 -0.2130
   21TMC2    C4  327   0.488   4.616  15.024  0.5987  0.1601  0.5481
   21TMC2    C5  328   0.448   4.581  15.152  0.4243  0.5044  0.1742
   21TMC2    C6  329   0.421   4.455  15.184  0.2214 -0.3729 -0.0657
   21TMC2     C  330   0.525   4.543  14.791  0.3323 -0.4158  0.5531
   21TMC2     O  331   0.590   4.456  14.740  0.8554  0.0292 -0.3832
   21TMC2     H  332   0.436   4.314  14.880 -0.0426  0.4913 -1.2693
   21TMC2    H1  333   0.541   4.708  15.004  1.4903 -0.6453 -0.7611
   21TMC2    H2  334   0.375   4.435  15.280 -1.6524  0.2944 -0.8321
   21TMC2    C7  335   0.435   4.682  15.254  0.7792 -0.3843 -0.1565
   21TMC2    C8  336   0.393   4.220  15.130 -0.4999  0.2370  0.0342
   21TMC2    O1  337   0.420   4.660  15.376 -0.2924  0.0355  0.2796
   21TMC2    O2  338   0.357   4.135  15.044 -0.1390 -0.4694 -0.2208
   21TMC2    O5  339   0.449   4.194  15.251  0.2645  0.7466 -0.4825
   21TMC2    H5  340   0.497   4.268  15.293  0.6778  0.9346 -1.2927
   22MPD2     C  341   0.684   0.160  14.469  0.8773  0.6447 -0.0625
   22MPD2    C1  342   0.726   0.030  14.493  0.1678  0.3826  0.1757
   22MPD2    C2  343   0.673   4.694  14.589 -0.0907  0.6329  0.2230
   22MPD2    C3  344   0.563   0.004  14.659 -0.9130  0.4408  0.9294
   22MPD2    C4  345   0.516   0.138  14.638  0.0223  0.0708 -0.6717
   22MPD2    C5  346   0.575   0.206  14.535 -0.3368 -0.1128  0.1405
   22MPD2     H  347   0.712   4.593  14.599 -0.9481  0.1132 -1.5551
   22MPD2    H1  348   0.433   0.180  14.693 -0.3405 -2.6704  0.8597
   22MPD2    H2  349   0.728   0.226  14.395 -0.7635 -0.3947 -1.9869
   22MPD2    H3  350   0.544   0.308  14.511 -0.8959 -0.9867 -2.9240
   22MPD2     N  351   0.490   4.667  14.752 -0.2628  0.4349  0.4645
   22MPD2    H5  352   0.414   4.713  14.801  0.1112 -0.2831  1.7348
   22MPD2    N1  353   0.826   4.702  14.414  0.4064  0.6171  0.1583
   22MPD2    H7  354   0.842   4.603  14.432 -0.7412  0.0791 -1.7658
   23TMC2    C1  355   2.023   1.222  14.634 -0.0933  0.1317  0.1121
   23TMC2    C2  356   2.048   1.348  14.686  0.0743 -0.7343  0.1852
   23TMC2    C3  357   1.980   1.451  14.631 -0.5037 -0.1699 -0.6066
   23TMC2    C4  358   1.935   1.199  14.535  0.2835  0.3921  0.2275
   23TMC2    C5  359   1.872   1.302  14.477  0.3314 -0.7464 -0.3976
   23TMC2    C6  360   1.892   1.431  14.529 -0.0460 -0.1760 -0.8735
   23TMC2     C  361   2.088   1.114  14.707 -0.7730 -0.1149  0.7579
   23TMC2     O  362   2.111   1.126  14.826 -0.4064 -0.5189  0.4750
   23TMC2     H  363   2.110   1.360  14.774 -1.7138  1.3836  1.1734
   23TMC2    H1  364   1.903   1.096  14.526 -0.3888  0.8030 -1.9133
   23TMC2    H2  365   1.852   1.508  14.465  2.2289  0.4576 -1.5335
   23TMC2    C7  366   1.742   1.275  14.424 -0.1201 -0.1523  0.0087
   23TMC2    C8  367   2.041   1.584  14.627  0.6090 -0.0483  0.6239
   23TMC2    O1  368   1.658   1.353  14.454  0.6933 -0.4243  0.2184
   23TMC2    O2  369   2.061   1.632  14.516  0.0460  0.3544  0.2394
   23TMC2    O5  370   2.137   1.583  14.729  0.3954 -0.4400 -0.0114
   23TMC2    H5  371   2.098   1.554  14.814 -0.3163  0.6601  0.0342
   24MPD2     C  372   2.395   0.704  14.737 -0.5663 -0.3399  0.0569
   24MPD2    C1  373   2.317   0.761  14.832  0.3647  0.2189  0.2803
   24MPD2    C2  374   2.231   0.862  14.794  0.5879 -0.2468  0.3094
   24MPD2    C3  375   2.221   0.902  14.661 -0.3027  1.0004  0.4133
   24MPD2    C4  376   2.291   0.832  14.568 -0.6042 -0.6585 -0.0505
   24MPD2    C5  377   2.374   0.732  14.602 -0.0302  0.0884  0.3516
   24MPD2     H  378   2.170   0.896  14.877 -1.6121  0.9480 -1.7952
   24MPD2    H1  379   2.287   0.851  14.461  2.9577 -2.9672 -0.5899
   24MPD2    H2  380   2.465   0.624  14.758 -1.8437 -1.4678  0.0390
   24MPD2    H3  381   2.426   0.680  14.523 -2.3005  0.6817 -1.5116
   24MPD2     N  382   2.139   1.014  14.622  0.0256 -0.0684  0.3458
   24MPD2    H5  383   2.139   1.031  14.521  0.6008  0.2626  0.3952
   24MPD2    N1  384   2.329   0.726  14.967 -0.6566 -0.0757  0.1788
   24MPD2    H7  385   2.248   0.753  15.021 -0.3816 -0.1975  0.6439
   25TMC2    C1  386   0.426   3.819  11.686  0.6680 -0.8387 -0.0247
   25TMC2    C2  387   0.404   3.949  11.697 -0.2189 -0.0428  0.3311
   25TMC2    C3  388   0.328   3.982  11.816 -0.7567  0.1814  0.1426
   25TMC2    C4  389   0.391   3.719  11.779 -0.7413 -0.0788 -0.0411
   25TMC2    C5  390   0.332   3.764  11.896  0.3113  0.0857 -0.6684
   25TMC2    C6  391   0.296   3.894  11.917 -0.6876  0.2749  0.1664
   25TMC2     C  392   0.505   3.790  11.570  0.9896 -0.1037 -0.0755
   25TMC2     O  393   0.566   3.882  11.516  0.8057  0.1984  0.2883
   25TMC2     H  394   0.439   4.021  11.624 -0.6572 -1.3017 -1.1363
   25TMC2    H1  395   0.407   3.612  11.768 -1.0912 -0.0652 -0.6615
   25TMC2    H2  396   0.247   3.934  12.006 -1.9428 -1.7903  0.3936
   25TMC2    C7  397   0.314   3.672  12.006 -0.6052 -0.1929  0.5868
   25TMC2    C8  398   0.307   4.127  11.852 -0.2007  0.0466  0.3138
   25TMC2    O1  399   0.365   3.563  11.986 -0.1695  0.0081 -0.7549
   25TMC2    O2  400   0.277   4.154  11.971 -0.4010  0.1162  0.0653
   25TMC2    O5  401   0.347   4.220  11.756  0.2095  0.0477 -0.2813
   25TMC2    H5  402   0.344   4.203  11.659 -0.9106 -1.6904  0.0630
   26MPD2     C  403   0.729   3.468  11.253  0.6258  0.1966 -0.3496
   26MPD2    C1  404   0.625   3.406  11.317  0.0191 -0.1735 -0.5196
   26MPD2    C2  405   0.551   3.467  11.416 -0.7758 -0.4552 -0.0877
   26MPD2    C3  406   0.571   3.601  11.437 -0.4693  0.1946  0.7024
   26MPD2    C4  407   0.678   3.662  11.372 -0.0804  0.2528  0.6528
   26MPD2    C5  408   0.754   3.600  11.277  0.2777  0.2603  0.8255
   26MPD2     H  409   0.486   3.411  11.482 -0.5546  0.0671  0.5774
   26MPD2    H1  410   0.704   3.765  11.393  2.2553 -0.3185  0.5263
   26MPD2    H2  411   0.799   3.427  11.181  0.9568  1.9140 -1.0057
   26MPD2    H3  412   0.838   3.645  11.224  0.8560 -2.8994 -0.9815
   26MPD2     N  413   0.496   3.661  11.532 -0.5364  0.2845  0.1870
   26MPD2    H5  414   0.418   3.605  11.566 -0.8854  0.0791 -0.9569
   26MPD2    N1  415   0.596   3.269  11.275  0.1062  0.0229 -0.0124
   26MPD2    H7  416   0.655   3.230  11.201 -0.7082 -2.0245  0.4075
   27TMC2    C1  417   0.076   0.842  12.405 -0.1214 -0.6970 -0.4289
   27TMC2    C2  418   0.054   0.903  12.280  0.2007  0.0099  0.2646
   27TMC2    C3  419   0.050   1.042  12.290 -0.0367 -0.7364  0.2001
   27TMC2    C4  420   0.126   0.904  12.510 -0.3593 -0.8285  0.6036
   27TMC2    C5  421   0.140   1.041  12.504  0.3546  0.7263 -0.3965
   27TMC2    C6  422   0.091   1.111  12.398  0.4229  0.0906 -0.2050
   27TMC2     C  423   0.030   0.705  12.426 -0.5353  0.2886  0.5405
   27TMC2     O  424   0.022   0.627  12.333 -0.0652 -0.6849  0.2161
   27TMC2     H  425   0.025   0.845  12.193  1.0873  2.4950 -1.6915
   27TMC2    H1  426   0.137   0.852  12.604 -0.1570 -1.1704  0.3878
   27TMC2    H2  427   0.098   1.220  12.394 -0.7451  0.1572 -0.4998
   27TMC2    C7  428   0.121   1.094  12.638  0.0728  0.5027 -0.1100
   27TMC2    C8  429   0.047   1.120  12.167  0.0713  0.0527 -0.1065
   27TMC2    O1  430   0.160   1.030  12.736 -0.3116 -0.3694 -0.1075
   27TMC2    O2  431   0.108   1.225  12.162 -0.9114 -0.0124 -0.2576
   27TMC2    O5  432   4.715   1.058  12.066 -0.3163  1.0939  0.2329
   27TMC2    H5  433   4.656   0.988  12.102  1.4983 -1.0497 -0.9732
   28MPD2     C  434   4.483   0.381  12.716 -0.3429  0.1645 -0.0346
   28MPD2    C1  435   4.454   0.513  12.754 -0.2925 -0.0640 -0.0395
   28MPD2    C2  436   4.531   0.616  12.704  0.0197 -0.2913  0.7207
   28MPD2    C3  437   4.616   0.599  12.599  0.8500 -0.3970  0.3559
   28MPD2    C4  438   4.619   0.472  12.543 -0.1016 -0.6955 -0.4633
   28MPD2    C5  439   4.553   0.359  12.592 -0.5904 -0.1678 -0.0465
   28MPD2     H  440   4.514   0.714  12.746 -0.6966 -1.1329  2.4289
   28MPD2    H1  441   4.684   0.445  12.461 -0.9747  1.1426 -1.7380
   28MPD2    H2  442   4.439   0.296  12.767 -0.2272 -0.2288 -0.5869
   28MPD2    H3  443   4.568   0.263  12.545  2.2163 -0.9807  2.4310
   28MPD2     N  444   4.690   0.712  12.544 -0.1584 -0.5225  0.0994
   28MPD2    H5  445   4.680   0.802  12.588  0.5070 -0.1919 -0.4114
   28MPD2    N1  446   4.358   0.532  12.858  0.5543  0.1362  0.1198
   28MPD2    H7  447   4.322   0.442  12.889  0.7472  0.4653  1.2840
   29TMC2    C1  448   4.578   3.434  14.325 -0.2915  0.2790 -0.6896
   29TMC2    C2  449   4.633   3.514  14.226  0.0533  0.4298  0.2175
   29TMC2    C3  450   4.650   3.647  14.258 -0.5192 -0.2055 -0.8095
   29TMC2    C4  451   4.544   3.477  14.446  0.6141  0.5404  0.0936
   29TMC2    C5  452   4.564   3.610  14.472 -0.0581 -0.1166 -0.2425
   29TMC2    C6  453   4.618   3.696  14.380  0.2024 -0.4955 -0.1623
   29TMC2     C  454   4.515   3.307  14.272 -0.3229 -0.3407 -0.1885
   29TMC2     O  455   4.587   3.249  14.192 -0.1267  0.0475 -1.0387
   29TMC2     H  456   4.654   3.484  14.124 -1.8716 -0.2728  0.0260
   29TMC2    H1  457   4.487   3.414  14.514  1.2491  0.7322  0.7995
   29TMC2    H2  458   4.633   3.799  14.409 -0.2097 -0.2306 -0.8972
   29TMC2    C7  459   4.529   3.667  14.600 -0.5321 -0.6489 -0.2582
   29TMC2    C8  460   4.680   3.750  14.160 -0.2916  0.4474  0.2881
   29TMC2    O1  461   4.608   3.745  14.646  0.5863 -1.3823  0.4863
   29TMC2    O2  462   4.675   3.739  14.038  0.2459 -0.4200 -0.0480
   29TMC2    O5  463   0.027   3.837  14.214 -0.1296 -0.0915 -0.1121
   29TMC2    H5  464   0.066   3.806  14.298  0.2313  1.4360  0.2848
   30MPD2     C  465   4.125   2.978  14.239 -1.1007  0.0533 -0.0023
   30MPD2    C1  466   4.258   2.948  14.210 -0.1015  0.0574  0.8195
   30MPD2    C2  467   4.347   3.055  14.237 -0.2224  0.8618  0.0134
   30MPD2    C3  468   4.307   3.173  14.285 -0.5824 -0.2820 -0.6639
   30MPD2    C4  469   4.179   3.184  14.323  0.2993 -0.7567  0.0045
   30MPD2    C5  470   4.086   3.090  14.301  0.8067  0.2626  0.2601
   30MPD2     H  471   4.451   3.057  14.208 -0.3230  0.6064 -0.3651
   30MPD2    H1  472   4.149   3.277  14.369  2.0265  0.4319 -1.2370
   30MPD2    H2  473   4.043   2.908  14.228  1.0763 -2.2575 -1.6019
   30MPD2    H3  474   3.986   3.113  14.335  0.3511 -0.3050 -0.6979
   30MPD2     N  475   4.386   3.287  14.311  0.6463  0.4924  0.3872
   30MPD2    H5  476   4.350   3.362  14.369  0.5844  1.6145 -1.1295
   30MPD2    N1  477   4.300   2.824  14.156 -0.2292  0.4064  0.1488
   30MPD2    H7  478   4.400   2.815  14.140  0.1425  0.3079  2.4832
   31TMC2    C1  479   1.876   1.335  15.359  0.5469  0.8206  0.3250
   31TMC2    C2  480   1.746   1.347  15.315 -0.0672 -0.2676  0.4065
   31TMC2    C3  481   1.646   1.291  15.393 -0.4358 -0.3338  0.1772
   31TMC2    C4  482   1.910   1.265  15.472  0.2553  0.3284 -0.3895
   31TMC2    C5  483   1.805   1.218  15.547 -0.3108  0.0472 -0.1182
   31TMC2    C6  484   1.673   1.235  15.515  0.7701  0.0176 -0.4139
   31TMC2     C  485   1.966   1.431  15.293 -0.1027  0.2453 -0.6489
   31TMC2     O  486   1.917   1.501  15.204  0.2719  0.2362 -0.1668
   31TMC2     H  487   1.718   1.392  15.221 -1.6240  0.6089  1.3110
   31TMC2    H1  488   2.010   1.258  15.514 -0.3368 -3.2877  0.3839
   31TMC2    H2  489   1.590   1.201  15.577  2.5424 -1.4349  1.1669
   31TMC2    C7  490   1.842   1.146  15.666  0.5133 -0.2002 -0.3636
   31TMC2    C8  491   1.509   1.316  15.355 -0.5720  0.0020  0.3220
   31TMC2    O1  492   1.954   1.095  15.670 -0.3448  0.4624  0.5283
   31TMC2    O2  493   1.415   1.249  15.397 -0.1488 -0.3654  0.7051
   31TMC2    O5  494   1.514   1.449  15.372  0.2835 -0.0813  0.3612
   31TMC2    H5  495   1.598   1.497  15.390  0.7540  0.1831 -2.5532
   32MPD2     C  496   2.408   1.699  15.252  0.3950  0.3100  0.5487
   32MPD2    C1  497   2.285   1.719  15.204  0.2430  0.9628  0.1932
   32MPD2    C2  498   2.176   1.635  15.220  0.3503  0.0451 -0.4173
   32MPD2    C3  499   2.196   1.528  15.298 -0.2254 -0.2713 -0.6599
   32MPD2    C4  500   2.322   1.502  15.341  0.8016 -0.0222  0.2101
   32MPD2    C5  501   2.427   1.584  15.320 -0.3758 -0.0579  0.2548
   32MPD2     H  502   2.084   1.650  15.164  0.2630  2.1610  0.3058
   32MPD2    H1  503   2.336   1.413  15.401  2.8120  0.4896  0.4800
   32MPD2    H2  504   2.485   1.766  15.217 -1.5051  3.9062  3.2713
   32MPD2    H3  505   2.528   1.557  15.349 -0.3367  0.7943  0.8885
   32MPD2     N  506   2.098   1.429  15.337  0.0331 -0.2041 -0.3962
   32MPD2    H5  507   2.137   1.353  15.393  0.0895  0.9660  1.1484
   32MPD2    N1  508   2.280   1.825  15.110 -0.2383  0.3336 -0.5633
   32MPD2    H7  509   2.365   1.878  15.089 -0.1097 -0.4480 -1.9386
   33TMC2    C1  510   1.563   0.192  10.858 -0.2792 -0.3520 -0.1792
   33TMC2    C2  511   1.440   0.250  10.838  0.6482  0.1430  0.4755
   33TMC2    C3  512   1.442   0.366  10.764  0.6498  0.6552  0.6224
   33TMC2    C4  513   1.680   0.249  10.819  0.0379  0.3234 -0.1041
   33TMC2    C5  514   1.677   0.377  10.762  0.4688 -0.1739 -0.4496
   33TMC2    C6  515   1.554   0.437  10.733 -0.1167  0.2880  0.1546
   33TMC2     C  516   1.566   0.082  10.953  0.2172 -0.5452 -0.1251
   33TMC2     O  517   1.461   0.023  10.955  0.4336 -0.4269 -0.2011
   33TMC2     H  518   1.350   0.202  10.876 -0.2581 -0.9552 -3.1476
   33TMC2    H1  519   1.774   0.199  10.842  0.4214  0.6794 -0.8744
   33TMC2    H2  520   1.555   0.537  10.692 -0.2824  1.1234  2.1978
   33TMC2    C7  521   1.789   0.471  10.772  0.4116 -0.0664  0.2385
   33TMC2    C8  522   1.328   0.445  10.775 -0.7410  0.6451 -0.9322
   33TMC2    O1  523   1.772   0.592  10.781 -0.4093  0.6847  0.1394
   33TMC2    O2  524   1.331   0.563  10.804 -0.3480  0.3096 -0.3033
   33TMC2    O5  525   1.226   0.375  10.714  0.1328  0.1487 -0.0626
   33TMC2    H5  526   1.255   0.289  10.676  2.0777  1.3407 -1.2830
   34MPD2     C  527   1.783   4.512  11.305 -0.7256 -1.2365 -0.0699
   34MPD2    C1  528   1.662   4.512  11.241  0.0389  0.0778 -0.5328
   34MPD2    C2  529   1.632   4.603  11.141 -0.0907 -0.6143  0.3055
   34MPD2    C3  530   1.722   4.696  11.101 -0.0098  0.1468 -0.7041
   34MPD2    C4  531   1.844   4.701  11.163 -0.0404  0.4350 -0.3204
   34MPD2    C5  532   1.869   4.617  11.267 -0.3187  0.1023 -1.2643
   34MPD2     H  533   1.532   4.594  11.100 -0.3051 -0.0752  0.7182
   34MPD2    H1  534   1.916   0.043  11.147 -0.8924  0.7571 -2.4823
   34MPD2    H2  535   1.811   4.433  11.373  0.5664  0.3318  1.2181
   34MPD2    H3  536   1.968   4.619  11.312 -0.9093  0.3327  0.0180
   34MPD2     N  537   1.688   0.058  11.010 -0.5342 -0.4706 -0.0511
   34MPD2    H5  538   1.762   0.127  10.996 -1.9755  0.7277 -1.7001
   34MPD2    N1  539   1.578   4.406  11.277  0.3222  0.1606 -0.2494
   34MPD2    H7  540   1.618   4.335  11.338  2.3787 -0.3417 -2.2015
   35TMC2    C1  541   2.722   0.758  11.795  0.5539  0.2899  0.0746
   35TMC2    C2  542   2.628   0.858  11.793  0.1579  0.3113 -0.3602
   35TMC2    C3  543   2.517   0.843  11.863  0.6287  0.3038 -0.8620
   35TMC2    C4  544   2.695   0.645  11.868 -0.5327  0.0079 -0.3066
   35TMC2    C5  545   2.571   0.629  11.932  0.3366 -0.1826 -0.7689
   35TMC2    C6  546   2.479   0.728  11.929  0.4934 -0.6331  0.2146
   35TMC2     C  547   2.856   0.785  11.747  0.3860 -0.4160  0.5182
   35TMC2     O  548   2.863   0.875  11.668 -0.8109  0.0497  0.3803
   35TMC2     H  549   2.656   0.949  11.741 -0.7757  1.4575  1.1377
   35TMC2    H1  550   2.754   0.554  11.867 -2.2470 -1.0843 -1.0177
   35TMC2    H2  551   2.381   0.725  11.977  0.0565  0.0516 -0.6393
   35TMC2    C7  552   2.517   0.498  11.896  0.8620 -0.3358 -0.6098
   35TMC2    C8  553   2.427   0.958  11.876 -0.5749 -0.1985 -0.7565
   35TMC2    O1  554   2.575   0.433  11.811 -0.3049 -0.5315  0.3876
   35TMC2    O2  555   2.484   1.063  11.850  0.1604 -0.1313  0.2750
   35TMC2    O5  556   2.331   0.912  11.797 -0.3742  0.2506 -0.5079
   35TMC2    H5  557   2.285   0.833  11.834 -1.3816  1.3004  0.4714
   36MPD2     C  558   3.361   0.819  11.809 -0.4174  0.0506  0.1260
   36MPD2    C1  559   3.323   0.739  11.911  0.9594 -0.3009  0.1613
   36MPD2    C2  560   3.184   0.711  11.914  0.4748 -0.5343  0.0258
   36MPD2    C3  561   3.098   0.770  11.822  0.0713  0.7965 -0.0712
   36MPD2    C4  562   3.145   0.852  11.725  0.2421  1.0738  0.4146
   36MPD2    C5  563   3.275   0.871  11.717  0.3424 -0.0253  0.6038
   36MPD2     H  564   3.136   0.660  11.998  0.8965  0.3189  0.7920
   36MPD2    H1  565   3.080   0.898  11.652 -0.2827  3.0585  2.1165
   36MPD2    H2  566   3.466   0.847  11.803 -0.2105 -0.4673  1.3654
   36MPD2    H3  567   3.313   0.933  11.638 -0.8526 -0.0828 -0.0135
   36MPD2     N  568   2.957   0.739  11.834 -0.3080 -0.4927  0.3779
   36MPD2    H5  569   2.930   0.666  11.899 -1.4897 -1.1262 -0.8094
   36MPD2    N1  570   3.413   0.695  12.005 -0.0394  0.4682  0.2413
   36MPD2    H7  571   3.510   0.711  11.981 -0.4129  2.9418  0.3215
   37TMC2    C1  572   1.050   1.598  11.849  0.3202  0.2370  0.4145
   37TMC2    C2  573   1.034   1.713  11.772  0.1588  0.9861  0.7314
   37TMC2    C3  574   1.137   1.756  11.685 -0.1025 -0.1641 -0.2228
   37TMC2    C4  575   1.168   1.528  11.845  0.5142  0.4791 -0.6271
   37TMC2    C5  576   1.270   1.587  11.770 -0.5122 -0.0342  0.0169
   37TMC2    C6  577   1.263   1.707  11.698 -0.2451 -0.3606  0.0330
   37TMC2     C  578   0.936   1.540  11.914  0.1258 -0.1673 -0.7050
   37TMC2     O  579   0.833   1.575  11.859  0.0833  0.2034  0.3940
   37TMC2     H  580   0.938   1.762  11.765 -0.4059 -0.1176  0.6657
   37TMC2    H1  581   1.185   1.439  11.904 -0.8826  0.3986 -0.3543
   37TMC2    H2  582   1.345   1.733  11.633 -1.4348  1.0015 -0.9402
   37TMC2    C7  583   1.381   1.501  11.736 -0.5689 -0.2268 -0.1794
   37TMC2    C8  584   1.125   1.890  11.629 -0.2000 -0.1046  0.0462
   37TMC2    O1  585   1.366   1.380  11.756 -0.5187  0.2973 -0.1289
   37TMC2    O2  586   1.203   1.982  11.661  0.4151 -0.1826 -0.2514
   37TMC2    O5  587   1.003   1.904  11.584 -0.3754 -0.0025  0.5558
   37TMC2    H5  588   0.954   1.820  11.572  1.5990 -1.0733  0.0103
   38MPD2     C  589   0.693   1.236  12.241  0.1333 -0.0815 -0.6357
   38MPD2    C1  590   0.821   1.187  12.227  0.2629  0.0434 -0.2648
   38MPD2    C2  591   0.907   1.270  12.161 -0.0755 -0.4227 -0.4316
   38MPD2    C3  592   0.868   1.370  12.080  0.4914 -0.0841 -0.1642
   38MPD2    C4  593   0.742   1.412  12.087  0.8508 -0.4319  0.6934
   38MPD2    C5  594   0.657   1.348  12.165  1.0440 -0.3304 -0.1542
   38MPD2     H  595   1.005   1.234  12.132 -0.2357 -0.4573 -0.9126
   38MPD2    H1  596   0.705   1.503  12.039  1.1956 -0.0941  1.0672
   38MPD2    H2  597   0.616   1.191  12.302  1.4096  0.1256  1.1281
   38MPD2    H3  598   0.556   1.387  12.176 -0.2335 -3.8865  0.6343
   38MPD2     N  599   0.963   1.443  12.008  0.4745  0.6862  0.0405
   38MPD2    H5  600   1.058   1.435  12.042  1.4050  0.5180 -2.6038
   38MPD2    N1  601   0.861   1.071  12.305 -0.6954  0.5473  0.1663
   38MPD2    H7  602   0.948   1.026  12.279 -0.4498  0.5761  0.9294
   39TMC2    C1  603   3.794   3.348   1.936  0.0494 -0.4072  0.4508
   39TMC2    C2  604   3.766   3.462   2.016 -0.3249  0.5543  0.5039
   39TMC2    C3  605   3.876   3.530   2.058 -0.3585  0.3218  0.0739
   39TMC2    C4  606   3.919   3.299   1.907  0.1492 -0.7631  0.0052
   39TMC2    C5  607   4.025   3.376   1.960  0.3063  1.3827  0.5310
   39TMC2    C6  608   4.007   3.498   2.027  0.3565  0.1354 -0.1073
   39TMC2     C  609   3.687   3.265   1.901 -0.4006  0.2969 -0.2577
   39TMC2     O  610   3.576   3.315   1.900  0.1094  0.4571  0.1664
   39TMC2     H  611   3.665   3.483   2.048 -0.1828  0.0318  1.3069
   39TMC2    H1  612   3.937   3.228   1.826 -2.2218 -0.5835 -0.6692
   39TMC2    H2  613   4.093   3.542   2.077  2.0253 -1.7598 -1.3079
   39TMC2    C7  614   4.153   3.340   1.907  0.2245 -0.1947  0.0656
   39TMC2    C8  615   3.863   3.656   2.127 -0.5210  0.3431  0.2618
   39TMC2    O1  616   4.176   3.221   1.907 -0.3634 -0.4656  0.2277
   39TMC2    O2  617   3.961   3.716   2.172  0.2433  0.1584  0.2821
   39TMC2    O5  618   3.757   3.710   2.067 -0.1368  0.0540  0.6062
   39TMC2    H5  619   3.698   3.651   2.016  0.9110 -0.9181  0.5166
   40MPD2     C  620   3.694   2.927   1.752  0.4162 -0.0719 -0.2356
   40MPD2    C1  621   3.640   3.046   1.784  0.1228 -0.2815  0.5243
   40MPD2    C2  622   3.512   3.080   1.740 -0.3120 -0.0577  0.5501
   40MPD2    C3  623   3.433   2.977   1.680 -0.1478  0.3655  0.0746
   40MPD2    C4  624   3.500   2.870   1.632  0.5312  0.0018 -0.1028
   40MPD2    C5  625   3.626   2.835   1.678  0.2659  0.8859  0.0681
   40MPD2     H  626   3.467   3.171   1.778 -0.0408 -0.1791  1.1745
   40MPD2    H1  627   3.453   2.787   1.580  1.3524  0.3239 -1.3649
   40MPD2    H2  628   3.795   2.899   1.778  0.1061 -1.3595 -0.4043
   40MPD2    H3  629   3.674   2.744   1.645  0.7073  1.6697 -1.4176
   40MPD2     N  630   3.301   2.985   1.639 -0.2366 -0.0780  0.2007
   40MPD2    H5  631   3.255   2.906   1.595 -1.0164 -0.3177  1.4745
   40MPD2    N1  632   3.723   3.136   1.861  0.0629 -0.3247  0.1359
   40MPD2    H7  633   3.815   3.096   1.875  0.4903  0.9167  0.8412
   41TMC2    C1  634   2.711   0.856  13.968 -0.2571 -0.3804  0.3248
   41TMC2    C2  635   2.600   0.904  13.906 -0.1809  0.1779  0.0003
   41TMC2    C3  636   2.586   0.879  13.774  0.0941 -0.2154  0.4325
   41TMC2    C4  637   2.814   0.802  13.891 -0.1264 -0.7451 -0.6798
   41TMC2    C5  638   2.793   0.773  13.761 -0.4405  0.1273  0.4175
   41TMC2    C6  639   2.683   0.813  13.695 -0.2482 -0.2920  0.6009
   41TMC2     C  640   2.720   0.833  14.115  0.1076 -0.3205 -0.0603
   41TMC2     O  641   2.802   0.749  14.146 -0.6400 -0.4264 -0.6583
   41TMC2     H  642   2.519   0.952  13.960 -2.0635 -2.0457 -0.8232
   41TMC2    H1  643   2.901   0.761  13.942  0.8078 -0.8652 -2.3906
   41TMC2    H2  644   2.673   0.772  13.595  0.9151  3.2171 -0.9562
   41TMC2    C7  645   2.884   0.674  13.690  0.2979 -0.1924  0.5408
   41TMC2    C8  646   2.451   0.882  13.724  0.6693  0.1403  0.2949
   41TMC2    O1  647   2.951   0.607  13.768 -0.4229  0.5021 -0.3300
   41TMC2    O2  648   2.359   0.861  13.807 -0.5757 -0.1745  0.3647
   41TMC2    O5  649   2.447   0.868  13.593  0.1270 -0.4384 -0.0444
   41TMC2    H5  650   2.526   0.905  13.548  0.3162  0.6755  1.2166
   42MPD2     C  651   2.684   0.784  14.392 -0.5049 -0.0577 -0.0720
   42MPD2    C1  652   2.628   0.898  14.335 -0.0611  0.1764 -0.1332
   42MPD2    C2  653   2.567   0.997  14.407  0.2520 -0.2175 -0.2849
   42MPD2    C3  654   2.583   0.993  14.537  0.1452  0.3215  0.3338
   42MPD2    C4  655   2.643   0.885  14.602  0.4009  0.4049  0.2883
   42MPD2    C5  656   2.685   0.778  14.528  0.3045 -0.1810 -0.0948
   42MPD2     H  657   2.518   1.077  14.352  2.8962  0.3621 -1.7921
   42MPD2    H1  658   2.648   0.882  14.710  1.6141  0.7163  0.2392
   42MPD2    H2  659   2.723   0.699  14.338 -0.6433 -0.3917  0.3512
   42MPD2    H3  660   2.721   0.692  14.582  0.3161  0.3824  0.8050
   42MPD2     N  661   2.528   1.095  14.624 -0.5958  0.3513  0.1119
   42MPD2    H5  662   2.544   1.072  14.722 -0.6281 -0.6986 -0.1294
   42MPD2    N1  663   2.631   0.907  14.191  0.0954 -0.9986 -0.6106
   42MPD2    H7  664   2.569   0.971  14.144  3.1627  1.6190 -1.1061
   43TMC2    C1  665   3.876   4.384   0.915 -0.1609  0.0321  0.0200
   43TMC2    C2  666   3.749   4.427   0.942 -0.1811  0.3937  0.0415
   43TMC2    C3  667   3.739   4.547   1.005  0.3814 -0.0256 -0.3743
   43TMC2    C4  668   3.983   4.464   0.934 -0.0520 -0.1662 -0.9305
   43TMC2    C5  669   3.965   4.590   0.988  0.6870  0.1776 -0.1236
   43TMC2    C6  670   3.845   4.634   1.027 -0.2264  0.0738  0.1503
   43TMC2     C  671   3.898   4.263   0.835  0.4644 -0.1087  0.2146
   43TMC2     O  672   4.011   4.221   0.832 -0.0286  0.2838  0.1334
   43TMC2     H  673   3.656   4.370   0.938 -0.9285  1.5959  0.1728
   43TMC2    H1  674   4.082   4.436   0.899  0.3748 -2.4967  2.1429
   43TMC2    H2  675   3.824   4.726   1.079 -0.0594  1.2566 -1.8683
   43TMC2    C7  676   4.079   4.673   1.002  0.7994  0.1012 -1.1820
   43TMC2    C8  677   3.609   4.596   1.035  0.0308  0.1211  0.5345
   43TMC2    O1  678   4.181   4.619   0.963 -0.2752 -0.1388 -0.2900
   43TMC2    O2  679   3.513   4.562   0.965  0.4667  0.2826 -0.4129
   43TMC2    O5  680   3.625   4.607   1.168 -0.3744  0.4397  0.0616
   43TMC2    H5  681   3.717   4.626   1.194 -0.5287  1.6318 -0.2737
   44MPD2     C  682   3.809   3.992   0.414 -0.0984 -0.2691 -0.4701
   44MPD2    C1  683   3.927   4.021   0.479  0.2417  0.0405 -0.8447
   44MPD2    C2  684   3.930   4.111   0.582 -0.0422 -0.2828 -0.3231
   44MPD2    C3  685   3.808   4.174   0.618 -0.2697 -0.2704  1.0263
   44MPD2    C4  686   3.690   4.157   0.548 -0.2073 -0.1916 -0.4960
   44MPD2    C5  687   3.694   4.062   0.447 -0.0411 -0.4692 -0.6716
   44MPD2     H  688   4.025   4.137   0.628 -1.3936 -1.3153  3.0882
   44MPD2    H1  689   3.591   4.193   0.575  0.4914  0.5731  1.0593
   44MPD2    H2  690   3.806   3.917   0.335 -1.0704  0.7889 -1.4279
   44MPD2    H3  691   3.600   4.043   0.397 -0.7404 -0.4553  0.6253
   44MPD2     N  692   3.795   4.245   0.739 -0.1347  0.1612  0.6360
   44MPD2    H5  693   3.705   4.293   0.748  0.4394  1.6190 -1.3644
   44MPD2    N1  694   4.051   3.970   0.434 -0.0014  0.6117  0.3309
   44MPD2    H7  695   4.129   3.990   0.496 -0.0710  0.6236  0.4147
   45TMC2    C1  696   4.480   1.591   9.684  0.2342 -0.3246  0.4677
   45TMC2    C2  697   4.524   1.461   9.683 -0.5518  0.7473 -0.5756
   45TMC2    C3  698   4.655   1.437   9.715  0.1018  0.7376  0.4044
   45TMC2    C4  699   4.569   1.690   9.698  0.3254 -0.5311  0.2078
   45TMC2    C5  700   4.701   1.662   9.708  0.0677 -0.3833  0.6364
   45TMC2    C6  701   0.012   1.533   9.722  0.2229  0.4844 -0.4067
   45TMC2     C  702   4.333   1.607   9.687  0.1549  0.2132 -0.0946
   45TMC2     O  703   4.271   1.521   9.750 -0.0997  0.2691  0.2180
   45TMC2     H  704   4.454   1.379   9.690  1.4573 -1.2174 -3.4128
   45TMC2    H1  705   4.536   1.793   9.696  0.7377 -0.3785  1.4383
   45TMC2    H2  706   0.114   1.500   9.741  0.7922  0.9796 -2.6081
   45TMC2    C7  707   0.053   1.766   9.754 -0.4225 -0.4768  0.0974
   45TMC2    C8  708   4.677   1.314   9.800  0.6280  0.3837 -1.1309
   45TMC2    O1  709   0.011   1.854   9.829 -0.6503 -0.4522  0.0903
   45TMC2    O2  710   4.577   1.264   9.856 -0.6252  0.0496  0.1515
   45TMC2    O5  711   0.068   1.283   9.822 -0.1612 -0.1447 -0.3885
   45TMC2    H5  712   0.120   1.302   9.741 -1.2169  1.0061 -0.7921
   46MPD2     C  713   4.136   1.900   9.575 -0.6188  0.3197 -0.1080
   46MPD2    C1  714   4.152   1.774   9.619 -0.7064 -0.1579  0.2645
   46MPD2    C2  715   4.042   1.699   9.652  0.0114 -0.3339 -0.4033
   46MPD2    C3  716   3.912   1.752   9.631 -0.2479 -0.8332  0.5352
   46MPD2    C4  717   3.895   1.884   9.589 -0.4125  0.0089  0.5027
   46MPD2    C5  718   4.013   1.963   9.566 -0.2011 -0.4503  0.1655
   46MPD2     H  719   4.056   1.601   9.696  0.6363 -0.7683 -1.5618
   46MPD2    H1  720   3.801   1.938   9.584  0.8512  2.2464  0.7854
   46MPD2    H2  721   4.223   1.961   9.553 -1.0422  1.5017  1.4092
   46MPD2    H3  722   4.000   2.067   9.540  3.9667  0.3893  1.4921
   46MPD2     N  723   3.799   1.669   9.663  0.0986 -0.3890 -0.0977
   46MPD2    H5  724   3.814   1.582   9.714 -1.8663 -0.9562 -0.4736
   46MPD2    N1  725   4.283   1.724   9.626  0.0270  0.2001  0.4860
   46MPD2    H7  726   4.358   1.781   9.588 -0.9465  0.1171 -1.5609
   47TMC2    C1  727   2.872   1.722   9.243  0.0034  0.4322 -0.1541
   47TMC2    C2  728   2.869   1.673   9.118  0.5688 -0.1750 -0.5019
   47TMC2    C3  729   2.756   1.614   9.064  0.2369 -0.1336  0.2977
   47TMC2    C4  730   2.754   1.731   9.307  0.2304  0.1831 -0.0856
   47TMC2    C5  731   2.637   1.677   9.255  0.0306 -0.3230  0.2371
   47TMC2    C6  732   2.636   1.610   9.130  0.0308  0.2103  0.0878
   47TMC2     C  733   2.995   1.778   9.289 -0.1945 -0.1517 -0.1498
   47TMC2     O  734   3.091   1.789   9.212  0.2921 -0.0262  0.8071
   47TMC2     H  735   2.959   1.681   9.058  0.6682  2.0998 -0.0515
   47TMC2    H1  736   2.759   1.780   9.404  1.3636  2.4082 -1.2714
   47TMC2    H2  737   2.549   1.565   9.085  0.3323  0.6997 -0.9738
   47TMC2    C7  738   2.516   1.661   9.336 -0.3094  0.2915  0.4235
   47TMC2    C8  739   2.760   1.581   8.921 -0.3934  0.3872  0.1433
   47TMC2    O1  740   2.444   1.566   9.319 -0.0191  0.6086  0.0210
   47TMC2    O2  741   2.693   1.496   8.871 -0.0295 -0.1464 -0.2958
   47TMC2    O5  742   2.836   1.667   8.852  0.0454  0.3066  0.1986
   47TMC2    H5  743   2.881   1.735   8.906 -0.9565  1.9197 -1.0189
   48MPD2     C  744   3.198   1.897   9.486  1.0971 -0.8489  0.0543
   48MPD2    C1  745   3.098   1.811   9.514  0.5428 -0.3673  0.8246
   48MPD2    C2  746   3.091   1.743   9.640 -0.9185  0.1409 -0.4346
   48MPD2    C3  747   3.189   1.771   9.733 -0.5398  0.7146 -0.5875
   48MPD2    C4  748   3.284   1.869   9.707 -0.6185 -0.2590 -0.4553
   48MPD2    C5  749   3.291   1.926   9.582  0.3341 -0.3344 -0.0285
   48MPD2     H  750   3.008   1.679   9.669 -0.4252 -0.1047  0.4500
   48MPD2    H1  751   3.361   1.908   9.773 -0.4314 -0.7127 -0.3994
   48MPD2    H2  752   3.194   1.939   9.386 -0.6493  1.5039  1.1306
   48MPD2    H3  753   3.364   2.004   9.559  0.2756  0.8214  3.7468
   48MPD2     N  754   3.176   1.694   9.852 -0.2402 -0.5154  0.0737
   48MPD2    H5  755   3.091   1.638   9.854 -0.5119  0.0186  3.3728
   48MPD2    N1  756   2.987   1.783   9.424  0.9204 -0.4737 -0.3339
   48MPD2    H7  757   2.918   1.723   9.468  0.5715  1.4605  1.7357
   49TMC2    C1  758   0.422   3.726  10.268 -1.2407  0.0318 -0.3695
   49TMC2    C2  759   0.361   3.719  10.149 -0.6601  0.4015  0.1312
   49TMC2    C3  760   0.366   3.601  10.077 -0.0437  0.0875 -0.3796
   49TMC2    C4  761   0.506   3.625  10.312 -0.3355 -0.1521  0.1709
   49TMC2    C5  762   0.528   3.515  10.230 -0.3356  0.0397 -0.5258
   49TMC2    C6  763   0.457   3.504  10.117 -0.0327 -0.4652 -0.4201
   49TMC2     C  764   0.427   3.853  10.336 -0.2685  0.4588 -1.0236
   49TMC2     O  765   0.406   3.954  10.269 -0.4751  0.4403 -0.4050
   49TMC2     H  766   0.301   3.804  10.117 -0.2207  0.4895 -0.4560
   49TMC2    H1  767   0.563   3.635  10.404 -0.4565  0.0256  0.2268
   49TMC2    H2  768   0.480   3.416  10.059 -1.2013 -0.9701 -0.1051
   49TMC2    C7  769   0.633   3.416  10.256  0.6634 -0.3198 -0.0634
   49TMC2    C8  770   0.307   3.605   9.947  0.6448 -0.6815 -0.1409
   49TMC2    O1  771   0.615   3.311  10.199 -0.4631 -0.1901  0.2973
   49TMC2    O2  772   0.267   3.709   9.896  0.3858  0.0199  0.1180
   49TMC2    O5  773   0.285   3.482   9.897 -0.1740  0.0499 -0.0410
   49TMC2    H5  774   0.289   3.403   9.956  1.6613 -0.3305 -0.6553
   50MPD2     C  775   0.545   4.055  10.513  0.1075 -0.5852 -0.0639
   50MPD2    C1  776   0.474   3.944  10.558 -0.2146  0.2979 -0.0263
   50MPD2    C2  777   0.436   3.936  10.689 -0.4226 -0.4373 -0.4264
   50MPD2    C3  778   0.453   4.044  10.773 -0.1675 -0.4906  0.2320
   50MPD2    C4  779   0.532   4.143  10.731  0.7990  0.0385 -0.4942
   50MPD2    C5  780   0.582   4.146  10.605 -0.0317  0.6045  0.3771
   50MPD2     H  781   0.383   3.852  10.732 -2.3871  1.3496  0.6494
   50MPD2    H1  782   0.554   4.235  10.784 -0.8443  0.3472 -0.3658
   50MPD2    H2  783   0.582   4.065  10.411 -0.4134 -1.9457 -0.3918
   50MPD2    H3  784   0.647   4.227  10.575  0.2753  0.6736  1.2304
   50MPD2     N  785   0.412   4.053  10.905  0.3861 -0.6061  0.0652
   50MPD2    H5  786   0.442   4.144  10.941 -0.0972 -0.5346  0.2840
   50MPD2    N1  787   0.432   3.839  10.471  0.1499  0.1042  0.6506
   50MPD2    H7  788   0.405   3.749  10.510 -0.4970  0.8023  1.8147
   51TMC2    C1  789   0.584   4.030   1.614 -0.0681  0.8986 -0.0077
   51TMC2    C2  790   0.621   4.139   1.537  0.3846 -0.5420  0.4109
   51TMC2    C3  791   0.749   4.192   1.557 -0.1603 -0.0452 -0.2398
   51TMC2    C4  792   0.674   3.971   1.693  0.0511 -0.2132  1.1895
   51TMC2    C5  793   0.794   4.024   1.713  0.2822  0.4572 -0.2673
   51TMC2    C6  794   0.835   4.136   1.641  0.1626  0.6678  0.6265
   51TMC2     C  795   0.481   3.933   1.575 -0.3695 -0.1971  0.5205
   51TMC2     O  796   0.474   3.827   1.637 -0.4282 -0.3478 -0.3709
   51TMC2     H  797   0.552   4.196   1.475  0.0911  0.5932  1.7669
   51TMC2    H1  798   0.650   3.875   1.738  0.5429 -0.8051  0.1940
   51TMC2    H2  799   0.939   4.165   1.639  0.2498  0.3444  0.4377
   51TMC2    C7  800   0.889   3.969   1.804 -0.4207 -0.1011 -0.5228
   51TMC2    C8  801   0.794   4.311   1.488 -0.0110 -0.0298  0.3750
   51TMC2    O1  802   0.976   4.040   1.849 -0.4784 -0.4226  0.0964
   51TMC2    O2  803   0.757   4.347   1.374 -0.1128 -0.0880  0.3964
   51TMC2    O5  804   0.807   4.395   1.587  0.0195 -0.0360 -0.2508
   51TMC2    H5  805   0.803   4.362   1.680  1.0183 -1.2693 -0.6430
   52MPD2     C  806   0.198   3.717   1.199 -0.0943  0.1776  1.0970
   52MPD2    C1  807   0.262   3.664   1.309 -0.0148 -0.7336  0.1266
   52MPD2    C2  808   0.325   3.745   1.399 -0.3339  0.1545  0.6221
   52MPD2    C3  809   0.333   3.884   1.381 -0.4726 -0.2237  1.4175
   52MPD2    C4  810   0.267   3.939   1.275  0.8345 -0.3004 -0.2163
   52MPD2    C5  811   0.199   3.854   1.185  0.4775 -0.4447  0.1876
   52MPD2     H  812   0.355   3.688   1.486  0.4584 -0.6755 -0.1951
   52MPD2    H1  813   0.263   4.042   1.245 -1.0383 -0.4062 -0.3224
   52MPD2    H2  814   0.155   3.653   1.123  1.6339  1.4548 -0.9669
   52MPD2    H3  815   0.144   3.905   1.107  0.8116 -2.5644 -1.4047
   52MPD2     N  816   0.416   3.970   1.460 -0.3926 -0.6332 -0.3255
   52MPD2    H5  817   0.427   4.056   1.406 -0.1103  1.2496  2.7434
   52MPD2    N1  818   0.258   3.526   1.341  0.2158 -0.1891 -0.1580
   52MPD2    H7  819   0.278   3.501   1.438  0.4330  1.0142  0.0970
   53TMC2    C1  820   1.936   1.167  11.982 -0.1818 -0.1099 -0.7825
   53TMC2    C2  821   2.042   1.116  12.049  0.1898  0.1167  0.1078
   53TMC2    C3  822   2.036   1.086  12.181  0.0786  0.5726  0.3250
   53TMC2    C4  823   1.825   1.201  12.054  0.1676  0.0378 -0.8258
   53TMC2    C5  824   1.824   1.186  12.192 -0.7807 -0.3796 -0.0578
   53TMC2    C6  825   1.924   1.123  12.256  0.4005  0.0464 -0.9575
   53TMC2     C  826   1.959   1.245  11.864  0.5916 -0.4849  0.7295
   53TMC2     O  827   2.070   1.286  11.841  0.1137  0.1299  1.0964
   53TMC2     H  828   2.116   1.089  11.975 -0.2620 -0.6101 -0.0740
   53TMC2    H1  829   1.739   1.245  12.005 -1.0963 -1.0136  0.4838
   53TMC2    H2  830   1.936   1.122  12.364 -1.2188  2.7829 -0.7449
   53TMC2    C7  831   1.697   1.202  12.256 -0.0319 -0.8547 -0.7081
   53TMC2    C8  832   2.153   1.108  12.256  0.2012 -0.2075 -0.0391
   53TMC2    O1  833   1.612   1.273  12.203  0.1554  0.0267 -0.6529
   53TMC2    O2  834   2.168   1.195  12.339  0.5044 -0.2486  0.4678
   53TMC2    O5  835   2.253   1.055  12.178  0.3340  0.4838 -0.4976
   53TMC2    H5  836   2.220   0.977  12.129 -3.4506  2.1297 -0.5986
   54MPD2     C  837   1.896   1.481  11.704  0.4876  0.6890 -1.3326
   54MPD2    C1  838   1.802   1.386  11.738 -0.3633  0.1327  0.0876
   54MPD2    C2  839   1.670   1.411  11.733  0.2189 -0.9985  0.0915
   54MPD2    C3  840   1.628   1.537  11.703 -0.4700 -0.2366  0.5336
   54MPD2    C4  841   1.725   1.631  11.660 -0.1209 -0.3198  0.2488
   54MPD2    C5  842   1.857   1.598  11.648 -0.0273  0.1659  0.5826
   54MPD2     H  843   1.602   1.331  11.759  2.9602 -3.0778  0.8526
   54MPD2    H1  844   1.705   1.730  11.621  1.2427 -0.3229 -0.4798
   54MPD2    H2  845   2.001   1.454  11.705  0.0725 -0.8777  0.2656
   54MPD2    H3  846   1.927   1.670  11.606 -0.1030 -0.3541 -0.4546
   54MPD2     N  847   1.493   1.575  11.711  0.2468  0.1368 -0.1074
   54MPD2    H5  848   1.483   1.676  11.713 -2.6882 -0.1262 -1.7747
   54MPD2    N1  849   1.840   1.261  11.796 -0.2933 -0.3503  0.5585
   54MPD2    H7  850   1.769   1.192  11.814 -0.7222 -0.3143 -0.9997
   55TMC2    C1  851   2.410   3.665   0.923  0.0071  0.3525  0.0378
   55TMC2    C2  852   2.540   3.648   0.894 -0.4787 -0.3095  0.0642
   55TMC2    C3  853   2.614   3.591   0.991 -0.4867  0.1038 -0.5533
   55TMC2    C4  854   2.365   3.636   1.050  0.7037 -0.2021 -0.1215
   55TMC2    C5  855   2.448   3.589   1.148  0.2415 -0.0973 -0.8868
   55TMC2    C6  856   2.579   3.569   1.117 -0.0316 -0.1767 -0.5545
   55TMC2     C  857   2.327   3.758   0.839  0.0345  0.2349 -0.3166
   55TMC2     O  858   2.218   3.794   0.878 -0.0421  0.0335  0.3184
   55TMC2     H  859   2.585   3.642   0.796 -0.5706 -0.3311  0.0228
   55TMC2    H1  860   2.264   3.671   1.067  1.0541  0.9739 -0.4390
   55TMC2    H2  861   2.642   3.517   1.189  0.2927 -0.3161 -0.9366
   55TMC2    C7  862   2.416   3.610   1.290  0.1067 -0.6147  0.6403
   55TMC2    C8  863   2.737   3.524   0.948  0.5954 -0.1567 -0.1251
   55TMC2    O1  864   2.508   3.602   1.373 -0.3829 -0.3669  0.1012
   55TMC2    O2  865   2.753   3.470   0.840 -0.2321  0.7224  0.1879
   55TMC2    O5  866   2.830   3.580   1.021 -0.0563 -0.0575 -0.2948
   55TMC2    H5  867   2.793   3.640   1.089 -2.7741 -1.9454 -0.0878
   56MPD2     C  868   2.406   3.918   0.523  0.0647 -0.3291  0.6317
   56MPD2    C1  869   2.362   3.909   0.649  0.0146 -0.3963 -0.1718
   56MPD2    C2  870   2.280   4.010   0.697  0.1587  0.2926 -0.5883
   56MPD2    C3  871   2.262   4.127   0.622  0.4879  0.5152 -0.5026
   56MPD2    C4  872   2.312   4.145   0.496 -0.0993  0.4000  0.1100
   56MPD2    C5  873   2.375   4.029   0.448  0.2268  0.2620 -0.0228
   56MPD2     H  874   2.251   4.015   0.802 -1.2208 -2.1112 -0.8700
   56MPD2    H1  875   2.302   4.237   0.438  0.0546 -1.7441 -3.3048
   56MPD2    H2  876   2.464   3.842   0.472 -1.0300 -0.8345  0.1464
   56MPD2    H3  877   2.412   4.027   0.346  0.5242 -1.2022  0.1164
   56MPD2     N  878   2.182   4.227   0.674  0.3796 -0.0286  0.0339
   56MPD2    H5  879   2.138   4.275   0.596  3.1159  0.7075 -1.0742
   56MPD2    N1  880   2.392   3.787   0.728  0.1025  0.3273  0.2717
   56MPD2    H7  881   2.454   3.717   0.690 -0.5855  0.1891 -0.6108
   57TMC2    C1  882   1.245   4.674  13.608  0.4793 -0.3043  0.2535
   57TMC2    C2  883   1.204   4.541  13.619  0.1915  0.1047 -0.5983
   57TMC2    C3  884   1.297   4.445  13.585 -0.1764 -0.0548  0.2600
   57TMC2    C4  885   1.370   4.703  13.573  0.0125 -0.3143 -0.3849
   57TMC2    C5  886   1.463   4.606  13.550 -0.5868 -0.7892 -0.4577
   57TMC2    C6  887   1.423   4.478  13.552  0.0055  0.3786 -0.3514
   57TMC2     C  888   1.150   0.042  13.648  0.5373  0.5607  0.7075
   57TMC2     O  889   1.060   0.007  13.729 -0.1037  0.1118 -0.0198
   57TMC2     H  890   1.105   4.512  13.652 -0.9639  0.6043 -3.5990
   57TMC2    H1  891   1.417   0.063  13.569 -0.2064 -0.2081 -0.3145
   57TMC2    H2  892   1.490   4.398  13.522 -2.7005 -2.3837  1.0065
   57TMC2    C7  893   1.596   4.645  13.505  0.0597 -0.0582 -0.2786
   57TMC2    C8  894   1.275   4.306  13.627 -0.1185  0.6591 -0.0725
   57TMC2    O1  895   1.609   0.018  13.456  0.4979 -0.4118 -0.2292
   57TMC2    O2  896   1.348   4.219  13.584 -0.4615 -0.5414  0.1121
   57TMC2    O5  897   1.242   4.330  13.756  0.4374 -0.8121  0.4662
   57TMC2    H5  898   1.188   4.408  13.783  0.4704  0.1546 -2.3246
   58MPD2     C  899   1.065   0.531  13.795  0.0434 -0.6409 -0.1415
   58MPD2    C1  900   0.992   0.421  13.817  0.6706  0.3008  0.9330
   58MPD2    C2  901   1.022   0.302  13.750  0.0995  0.1791  0.0405
   58MPD2    C3  902   1.134   0.291  13.666  0.0245 -0.1460  0.7466
   58MPD2    C4  903   1.196   0.402  13.627 -0.1642  0.3239 -0.6060
   58MPD2    C5  904   1.165   0.519  13.696  0.5979  0.3152 -0.2885
   58MPD2     H  905   0.954   0.220  13.773  1.5468 -1.2040 -0.6550
   58MPD2    H1  906   1.275   0.400  13.554  0.5999  1.8946  0.1844
   58MPD2    H2  907   1.043   0.630  13.832 -1.0844 -0.4044 -1.4276
   58MPD2    H3  908   1.222   0.607  13.668 -0.3176  1.2558  0.8417
   58MPD2     N  909   1.180   0.170  13.602 -0.3266 -1.1419 -0.0488
   58MPD2    H5  910   1.240   0.182  13.521  1.2501  2.8159  1.6978
   58MPD2    N1  911   0.879   0.427  13.896 -0.4108  0.0875  0.1037
   58MPD2    H7  912   0.806   0.359  13.879 -1.7179  1.6713 -0.5057
   59TMC2    C1  913   3.967   0.143  13.190 -0.5519 -0.3357 -0.5695
   59TMC2    C2  914   4.010   0.036  13.265 -0.3330 -0.2699 -0.3487
   59TMC2    C3  915   3.991   4.653  13.204  0.6533 -0.3751 -0.2877
   59TMC2    C4  916   3.927   0.127  13.056  0.6024  0.3975 -0.3406
   59TMC2    C5  917   3.912   4.737  13.006  0.5896 -0.3534 -0.3338
   59TMC2    C6  918   3.943   4.631  13.078  0.1993  0.2682 -0.3775
   59TMC2     C  919   3.948   0.273  13.251  0.0056 -0.3871 -0.0309
   59TMC2     O  920   3.840   0.332  13.228 -0.1789  0.3673 -0.0941
   59TMC2     H  921   4.008   0.039  13.373  2.2280 -0.7562 -0.2970
   59TMC2    H1  922   3.896   0.211  12.994  0.6238  0.7168  0.0785
   59TMC2    H2  923   3.929   4.530  13.042  1.6317 -0.7869  2.0660
   59TMC2    C7  924   3.827   4.705  12.898  0.1558  0.3846 -0.4667
   59TMC2    C8  925   4.000   4.525  13.275 -0.3453  0.0065  0.6963
   59TMC2    O1  926   3.768   4.601  12.905  0.2327  0.2132  0.2186
   59TMC2    O2  927   3.949   4.421  13.231 -0.3511 -0.0647 -0.4137
   59TMC2    O5  928   4.071   4.537  13.389 -0.0414 -0.5475  0.1526
   59TMC2    H5  929   4.118   4.622  13.404 -3.3343  1.0252  1.4512
   60MPD2     C  930   3.980   0.513  13.433 -0.2766 -0.4755  0.8567
   60MPD2    C1  931   4.065   0.403  13.429  0.0154 -0.4742  0.0754
   60MPD2    C2  932   4.168   0.391  13.522 -0.2421 -0.4725  0.2626
   60MPD2    C3  933   4.190   0.490  13.618 -0.5710 -0.3628  0.3912
   60MPD2    C4  934   4.105   0.592  13.619  0.1878  0.2437 -0.4493
   60MPD2    C5  935   4.004   0.604  13.527 -0.2780  0.1905  0.1469
   60MPD2     H  936   4.231   0.303  13.530 -2.3443 -1.8051  1.9375
   60MPD2    H1  937   4.111   0.665  13.698 -0.6312  1.0404 -1.1195
   60MPD2    H2  938   3.897   0.520  13.364  0.9613 -0.3519 -0.6053
   60MPD2    H3  939   3.946   0.694  13.516 -1.8487 -0.6938  1.2084
   60MPD2     N  940   4.299   0.492  13.710 -0.0799  0.1043  0.3852
   60MPD2    H5  941   4.320   0.573  13.768 -1.0457 -1.1084  2.4685
   60MPD2    N1  942   4.056   0.298  13.335 -0.3019 -0.3382 -0.2231
   60MPD2    H7  943   4.116   0.217  13.340  0.2684  0.0278 -1.1013
   61TMC2    C1  944   2.821   1.524  15.064 -0.3222  0.2251  0.2129
   61TMC2    C2  945   2.786   1.463  15.178  0.5185 -0.1454 -0.3103
   61TMC2    C3  946   2.799   1.541  15.294 -0.5296  0.3832 -0.3100
   61TMC2    C4  947   2.868   1.657  15.057  0.3366 -0.5063 -0.2320
   61TMC2    C5  948   2.871   1.725  15.174 -0.2541 -0.1491 -0.1818
   61TMC2    C6  949   2.843   1.666  15.300 -0.0533  0.5887 -0.4000
   61TMC2     C  950   2.805   1.448  14.941  0.4751 -0.4410  0.5685
   61TMC2     O  951   2.735   1.345  14.934  0.0842  0.1808  0.0598
   61TMC2     H  952   2.762   1.358  15.171 -1.1294  0.2947 -1.1888
   61TMC2    H1  953   2.873   1.703  14.959  0.1369  0.3403  0.1574
   61TMC2    H2  954   2.866   1.708  15.397 -2.2420  1.2821 -0.1858
   61TMC2    C7  955   2.945   1.853  15.176  0.2388  0.2104  0.0923
   61TMC2    C8  956   2.793   1.478  15.425 -0.2422  0.3028  0.3529
   61TMC2    O1  957   2.903   1.930  15.264  0.1624  0.0137 -0.8102
   61TMC2    O2  958   2.750   1.531  15.526  0.2032 -0.2340  0.6187
   61TMC2    O5  959   2.869   1.362  15.430  1.0379 -0.4926  0.0701
   61TMC2    H5  960   2.879   1.336  15.336 -1.4343  0.0005 -0.3160
   62MPD2     C  961   2.820   1.362  14.654 -0.3167  0.1050  0.3646
   62MPD2    C1  962   2.907   1.452  14.715  0.4024 -0.1089 -0.2607
   62MPD2    C2  963   3.001   1.518  14.645  0.8197  0.1737  0.4272
   62MPD2    C3  964   3.002   1.502  14.507 -0.4285  0.1450  0.4184
   62MPD2    C4  965   2.909   1.426  14.440 -0.0592 -0.1701  0.0544
   62MPD2    C5  966   2.828   1.347  14.519  0.1363  0.4243 -0.9248
   62MPD2     H  967   3.070   1.591  14.687 -1.6122  3.3980 -1.0941
   62MPD2    H1  968   2.914   1.414  14.333 -1.1783  2.5962 -0.2907
   62MPD2    H2  969   2.747   1.300  14.704 -0.9442 -0.9465 -1.8456
   62MPD2    H3  970   2.773   1.272  14.463 -3.6743  2.3631  0.2712
   62MPD2     N  971   3.088   1.578  14.430  0.1219  0.5097 -0.0370
   62MPD2    H5  972   3.059   1.590  14.334  3.0685  3.9355 -0.5084
   62MPD2    N1  973   2.901   1.495  14.848 -0.1755 -0.2527 -0.0404
   62MPD2    H7  974   2.959   1.569  14.886  0.3562  0.1708 -1.6893
   63TMC2    C1  975   2.887   2.187  10.404  0.2914  0.3216  0.2719
   63TMC2    C2  976   2.957   2.297  10.363  0.5295 -0.4386  0.1557
   63TMC2    C3  977   2.905   2.360  10.255 -0.1378 -0.1040  0.0940
   63TMC2    C4  978   2.761   2.148  10.358  0.4072  0.2445 -0.2016
   63TMC2    C5  979   2.722   2.220  10.248 -0.1449  0.4191 -0.0701
   63TMC2    C6  980   2.785   2.326  10.196  0.7058  0.0310 -0.2907
   63TMC2     C  981   2.913   2.149  10.539 -0.2389  1.0092 -1.1488
   63TMC2     O  982   3.018   2.190  10.592 -0.4762  0.4228  0.0333
   63TMC2     H  983   3.038   2.340  10.420  0.0934 -0.1693  0.5726
   63TMC2    H1  984   2.719   2.051  10.380 -0.6630  1.2240  2.0339
   63TMC2    H2  985   2.759   2.363  10.098  1.0948  1.3184  0.0905
   63TMC2    C7  986   2.606   2.176  10.176  0.1426  0.6974  0.0889
   63TMC2    C8  987   2.987   2.453  10.183 -0.7920 -0.0834  1.1124
   63TMC2    O1  988   2.559   2.067  10.199 -0.0387 -0.6703  0.1949
   63TMC2    O2  989   2.935   2.511  10.084  0.7747  0.2694  0.0653
   63TMC2    O5  990   3.122   2.431  10.207 -0.7526 -0.2630  0.0234
   63TMC2    H5  991   3.161   2.360  10.263 -0.3294 -0.1584 -0.1356
   64MPD2     C  992   2.807   1.930  10.981 -0.1939  0.9129  0.3368
   64MPD2    C1  993   2.760   1.852  10.884 -0.2008 -0.1598 -0.2114
   64MPD2    C2  994   2.759   1.906  10.757 -0.0254 -0.5546  0.5063
   64MPD2    C3  995   2.813   2.026  10.728  0.2212  0.4951  0.2665
   64MPD2    C4  996   2.859   2.103  10.826 -0.1736 -0.4165  0.0899
   64MPD2    C5  997   2.852   2.055  10.953 -0.4686  0.3306 -1.1473
   64MPD2     H  998   2.730   1.847  10.672 -0.2371 -2.2801  1.7671
   64MPD2    H1  999   2.905   2.201  10.813 -0.8231 -0.4314 -2.1803
   64MPD2    H2 1000   2.808   1.897  11.084 -1.1679 -2.3586 -0.7158
   64MPD2    H3 1001   2.885   2.112  11.039  0.1124 -0.7535 -0.6635
   64MPD2     N 1002   2.832   2.057  10.590  0.5596  0.2665 -0.7355
   64MPD2    H5 1003   2.778   1.997  10.528 -0.6104  0.6591 -0.0786
   64MPD2    N1 1004   2.709   1.725  10.911 -0.6853 -0.3792  0.1814
   64MPD2    H7 1005   2.739   1.688  11.001 -0.7814 -3.3205 -0.9807
   65TMC2    C1 1006   3.997   1.604  15.666  0.2036  0.3815 -0.0745
   65TMC2    C2 1007   4.053   1.562  15.544 -0.5832 -0.1042  0.6987
   65TMC2    C3 1008   3.990   1.608  15.435  0.2986 -0.4768 -0.7472
   65TMC2    C4 1009   3.895   1.698  15.680 -0.3037 -0.6664 -0.3451
   65TMC2    C5 1010   3.840   1.747  15.560 -0.1341 -0.4986 -0.6406
   65TMC2    C6 1011   3.893   1.705  15.439  0.4832 -0.4318  0.4007
   65TMC2     C 1012   4.018   1.518  15.781  0.4940 -0.6566  0.2112
   65TMC2     O 1013   3.996   1.567  15.894 -1.0506 -0.7185  0.5374
   65TMC2     H 1014   4.135   1.491  15.542 -1.2319 -0.7603 -2.4145
   65TMC2    H1 1015   3.864   1.722  15.781 -0.6549 -0.2303 -0.5563
   65TMC2    H2 1016   3.861   1.757  15.349  1.4784  0.0673  0.3404
   65TMC2    C7 1017   3.772   1.877  15.565  0.0593  0.7839  0.8804
   65TMC2    C8 1018   4.021   1.531  15.318 -0.4089  0.0332  0.5252
   65TMC2    O1 1019   3.768   1.935  15.461  0.2928 -0.9025 -0.1667
   65TMC2    O2 1020   4.127   1.470  15.297  0.1631 -0.0681 -0.4488
   65TMC2    O5 1021   3.903   1.502  15.260  0.0607  0.2651 -0.0580
   65TMC2    H5 1022   3.831   1.544  15.311 -1.7975 -3.6866  0.5285
   66MPD2     C 1023   4.111   1.307  15.959  0.6644  0.6389  0.0666
   66MPD2    C1 1024   4.068   1.283  15.830  0.2424 -0.7761  0.0009
   66MPD2    C2 1025   4.048   1.154  15.792  0.7260  0.0857 -0.2075
   66MPD2    C3 1026   4.075   1.051  15.882 -0.3349 -0.3729  0.2050
   66MPD2    C4 1027   4.103   1.081  16.011 -0.8406  0.5452  0.3787
   66MPD2    C5 1028   4.134   1.208  16.052  0.4192  0.0338 -0.5662
   66MPD2     H 1029   3.999   1.138  15.696  1.1261  0.7820 -0.5265
   66MPD2    H1 1030   4.120   1.000  16.080  0.5409  1.5415  1.1988
   66MPD2    H2 1031   4.128   1.403  16.007  0.9229  0.2574  0.7476
   66MPD2    H3 1032   4.158   1.232  16.155  0.9649 -1.3424 -0.3720
   66MPD2     N 1033   4.045   0.915  15.861 -0.0573 -0.0794  0.3303
   66MPD2    H5 1034   4.049   0.853  15.941 -2.8377 -0.4111  0.1839
   66MPD2    N1 1035   4.031   1.387  15.743  0.3424  0.0300 -0.4736
   66MPD2    H7 1036   3.980   1.366  15.657 -3.0483  1.2862  1.2373
   67TMC2    C1 1037   4.281   0.368  14.657  0.7615 -0.0341 -0.2280
   67TMC2    C2 1038   4.220   0.495  14.655 -0.4351  0.1775 -0.5760
   67TMC2    C3 1039   4.237   0.562  14.774  0.3804  0.0788 -1.6335
   67TMC2    C4 1040   4.320   0.315  14.777 -0.6629  0.3604 -0.7348
   67TMC2    C5 1041   4.325   0.383  14.893 -0.2038 -0.1230 -0.1116
   67TMC2    C6 1042   4.295   0.518  14.888  0.1732 -0.2276  0.0697
   67TMC2     C 1043   4.211   0.268  14.579 -0.4333  0.2635  0.3363
   67TMC2     O 1044   4.248   0.151  14.598 -0.4043  0.1391 -0.4569
   67TMC2     H 1045   4.195   0.544  14.562 -1.2501  0.7751 -0.0398
   67TMC2    H1 1046   4.354   0.212  14.780 -0.1339  0.6368  2.2096
   67TMC2    H2 1047   4.297   0.576  14.979  0.5448  1.5380 -1.0813
   67TMC2    C7 1048   4.427   0.349  14.991 -0.0840 -0.0843 -0.3543
   67TMC2    C8 1049   4.187   0.697  14.780  0.5734  0.0771 -0.2234
   67TMC2    O1 1050   4.523   0.284  14.962  0.1025  0.1993 -0.1724
   67TMC2    O2 1051   4.263   0.778  14.734  0.0789  0.2342  0.1870
   67TMC2    O5 1052   4.064   0.676  14.732  0.1070 -0.0383 -0.0583
   67TMC2    H5 1053   4.024   0.592  14.763  2.3796 -1.6033 -1.3993
   68MPD2     C 1054   4.110   0.118  14.350 -0.0584  0.5063  0.0375
   68MPD2    C1 1055   4.064   0.245  14.387 -0.3595 -0.0288  0.7823
   68MPD2    C2 1056   3.959   0.306  14.320  0.0834  0.3759  0.0364
   68MPD2    C3 1057   3.896   0.235  14.221 -0.2643 -0.1541 -0.9290
   68MPD2    C4 1058   3.930   0.107  14.189 -0.0268  0.9097 -0.2695
   68MPD2    C5 1059   4.040   0.049  14.253 -0.6904 -0.7393  0.1718
   68MPD2     H 1060   3.937   0.411  14.334 -0.4068  0.4351 -1.1871
   68MPD2    H1 1061   3.888   0.052  14.105 -0.8248 -0.3015  0.9156
   68MPD2    H2 1062   4.187   0.071  14.410 -0.6313 -0.6775 -0.1533
   68MPD2    H3 1063   4.072   4.686  14.232  0.1914 -0.7494  1.6156
   68MPD2     N 1064   3.781   0.292  14.154  0.2227  0.6501 -0.3426
   68MPD2    H5 1065   3.740   0.249  14.072  1.9042  0.7675 -1.2379
   68MPD2    N1 1066   4.124   0.318  14.487  0.2410 -0.2303 -0.5358
   68MPD2    H7 1067   4.095   0.415  14.500  1.2926  0.0634 -0.3818
   69TMC2    C1 1068   1.775   2.054  12.824  0.2354  0.2276  0.0421
   69TMC2    C2 1069   1.832   2.159  12.891 -0.4481 -0.8503  0.4096
   69TMC2    C3 1070   1.966   2.141  12.916 -0.2616 -0.0954  0.2549
   69TMC2    C4 1071   1.837   1.943  12.788  0.0138  0.1828 -0.4246
   69TMC2    C5 1072   1.970   1.934  12.819  0.5010 -0.3478  0.2441
   69TMC2    C6 1073   2.035   2.027  12.896  0.1136 -0.0059 -0.2479
   69TMC2     C 1074   1.641   2.076  12.769  0.3680  0.5009  0.5143
   69TMC2     O 1075   1.620   2.187  12.723  0.9627  0.2693  0.1262
   69TMC2     H 1076   1.779   2.243  12.936  0.5864  0.2135 -0.3595
   69TMC2    H1 1077   1.792   1.874  12.717 -1.0942  0.3833  0.0901
   69TMC2    H2 1078   2.136   2.007  12.928  0.1416 -0.2480 -0.4876
   69TMC2    C7 1079   2.048   1.824  12.774 -0.1912 -1.2958 -0.1549
   69TMC2    C8 1080   2.024   2.238  13.007 -0.1349  0.5454  0.3334
   69TMC2    O1 1081   2.163   1.840  12.736 -0.5562 -0.1707  0.0016
   69TMC2    O2 1082   1.954   2.305  13.083 -0.2763  0.1351 -0.3978
   69TMC2    O5 1083   2.142   2.192  13.053  0.3112 -0.0775  0.1552
   69TMC2    H5 1084   2.201   2.165  12.979 -0.7940  0.3965 -0.9011
   70MPD2     C 1085   1.348   2.065  12.715 -0.0305  0.4663 -0.3904
   70MPD2    C1 1086   1.416   1.962  12.786 -0.3028  0.3960  0.6671
   70MPD2    C2 1087   1.345   1.857  12.830  0.8273 -0.1471 -0.2589
   70MPD2    C3 1088   1.210   1.841  12.818  0.1820 -0.2945  0.3369
   70MPD2    C4 1089   1.143   1.952  12.775 -0.1822 -0.2284  0.0174
   70MPD2    C5 1090   1.209   2.057  12.720 -0.0388  0.1490  0.1333
   70MPD2     H 1091   1.404   1.785  12.886  2.7006  0.7594 -1.0775
   70MPD2    H1 1092   1.036   1.941  12.768 -0.1315 -0.7952  0.1376
   70MPD2    H2 1093   1.389   2.155  12.670 -1.2024  0.6351 -1.1259
   70MPD2    H3 1094   1.144   2.129  12.672  0.5041 -0.1742 -1.0963
   70MPD2     N 1095   1.137   1.716  12.858 -0.5262  0.4110  0.1107
   70MPD2    H5 1096   1.036   1.718  12.851 -0.6656 -1.5145  1.5583
   70MPD2    N1 1097   1.558   1.969  12.798  0.3112  0.2674  0.6741
   70MPD2    H7 1098   1.600   1.899  12.858  0.2258 -0.8070 -0.5120
   71TMC2    C1 1099   2.674   2.590   1.882 -0.1778  0.1710 -0.4526
   71TMC2    C2 1100   2.718   2.568   2.012  0.3573 -0.2999 -0.6495
   71TMC2    C3 1101   2.633   2.612   2.109  0.1622 -0.3286  0.2033
   71TMC2    C4 1102   2.555   2.648   1.851  0.2115  0.4796 -1.1206
   71TMC2    C5 1103   2.481   2.693   1.949 -0.1563  0.0989 -0.0215
   71TMC2    C6 1104   2.506   2.665   2.085 -0.1538 -0.0367 -0.3140
   71TMC2     C 1105   2.732   2.514   1.771 -0.7586 -0.0184 -0.6244
   71TMC2     O 1106   2.724   2.569   1.664  0.6254 -0.6375 -0.1326
   71TMC2     H 1107   2.803   2.508   2.043  0.6173  0.0501 -0.6827
   71TMC2    H1 1108   2.538   2.657   1.744  1.1686 -1.5078 -1.4406
   71TMC2    H2 1109   2.442   2.702   2.164  0.0037 -3.0147  1.2072
   71TMC2    C7 1110   2.369   2.776   1.922  0.3589 -0.7378 -0.2340
   71TMC2    C8 1111   2.697   2.671   2.221  0.3057 -0.0323  0.0848
   71TMC2    O1 1112   2.328   2.843   2.014  0.3228 -0.1438  0.2968
   71TMC2    O2 1113   2.809   2.721   2.225 -0.0286  0.4109  0.2702
   71TMC2    O5 1114   2.625   2.629   2.329 -0.3517 -0.1096 -0.1027
   71TMC2    H5 1115   2.548   2.575   2.304 -0.8122  0.9268 -0.9074
   72MPD2     C 1116   2.945   2.082   1.573 -0.5411 -0.0130 -0.7848
   72MPD2    C1 1117   2.950   2.215   1.525 -0.7428 -0.0529  0.0368
   72MPD2    C2 1118   2.888   2.314   1.601  0.3012 -0.1580 -0.2069
   72MPD2    C3 1119   2.833   2.285   1.722 -0.4297 -0.0052  1.0889
   72MPD2    C4 1120   2.832   2.159   1.772 -0.7031 -0.7196 -0.1253
   72MPD2    C5 1121   2.891   2.063   1.701  0.0745 -0.0015 -0.0087
   72MPD2     H 1122   2.890   2.416   1.565 -1.7058  0.6713  2.0486
   72MPD2    H1 1123   2.794   2.141   1.872 -0.4675 -0.9881 -0.0835
   72MPD2    H2 1124   2.998   2.005   1.518  2.1239  1.1225  0.1771
   72MPD2    H3 1125   2.905   1.966   1.748  0.2357 -0.2357 -0.5412
   72MPD2     N 1126   2.771   2.384   1.807 -0.3053  0.3357  0.3585
   72MPD2    H5 1127   2.755   2.348   1.900 -2.5064 -1.1990 -0.6293
   72MPD2    N1 1128   3.013   2.264   1.408 -0.0600  0.0718  0.5267
   72MPD2    H7 1129   3.009   2.364   1.393 -1.3558  0.1437  1.2705
   73TMC2    C1 1130   3.329   3.943  14.940 -0.0164  0.0785  0.4941
   73TMC2    C2 1131   3.324   3.818  14.995  0.2347 -0.2802 -0.4511
   73TMC2    C3 1132   3.364   3.818  15.125 -0.6383  0.8645 -0.3070
   73TMC2    C4 1133   3.365   4.059  15.013  0.2505 -0.3322 -0.7146
   73TMC2    C5 1134   3.424   4.044  15.135  0.1013 -0.5615 -0.0230
   73TMC2    C6 1135   3.423   3.916  15.192 -1.3077 -0.5808  0.5451
   73TMC2     C 1136   3.372   3.950  14.799  0.5427  0.0454  0.6469
   73TMC2     O 1137   3.455   4.035  14.773 -0.1466  0.3556  0.6972
   73TMC2     H 1138   3.289   3.731  14.942  2.7274 -0.8760 -1.1395
   73TMC2    H1 1139   3.368   4.163  14.982 -0.6552 -0.2628 -0.5693
   73TMC2    H2 1140   3.459   3.906  15.294 -0.0176 -1.8485 -0.0422
   73TMC2    C7 1141   3.555   4.108  15.123 -0.6093  0.4953  0.2840
   73TMC2    C8 1142   3.333   3.687  15.186 -0.1497  0.0627 -0.0411
   73TMC2    O1 1143   3.619   4.125  15.227 -0.2339  0.7079 -0.3450
   73TMC2    O2 1144   3.238   3.616  15.157 -0.5254  0.3258  0.3938
   73TMC2    O5 1145   3.418   3.657  15.285 -0.1255  0.4128  0.0189
   73TMC2    H5 1146   3.500   3.711  15.278  0.0263  0.2059  0.1880
   74MPD2     C 1147   3.380   3.860  14.295 -0.0127  0.0625 -0.1213
   74MPD2    C1 1148   3.484   3.890  14.381 -0.4503 -0.0510 -0.2467
   74MPD2    C2 1149   3.454   3.897  14.519 -0.4820 -0.3952  0.1535
   74MPD2    C3 1150   3.333   3.862  14.569  0.6967 -0.6666  0.8561
   74MPD2    C4 1151   3.229   3.817  14.479  0.5844 -0.0745 -0.2656
   74MPD2    C5 1152   3.261   3.816  14.342 -0.7184 -0.0073  1.0875
   74MPD2     H 1153   3.528   3.936  14.588  0.1290 -2.1830  0.5128
   74MPD2    H1 1154   3.132   3.791  14.522  0.0774 -0.1492 -1.4657
   74MPD2    H2 1155   3.393   3.851  14.188  1.0115 -0.5678  0.0591
   74MPD2    H3 1156   3.193   3.791  14.261 -1.1909  1.2808  1.0868
   74MPD2     N 1157   3.303   3.870  14.709  0.0287  0.0845  0.3422
   74MPD2    H5 1158   3.217   3.823  14.736  1.4176 -2.3686  0.5011
   74MPD2    N1 1159   3.610   3.905  14.333  0.0847  0.0076 -0.3890
   74MPD2    H7 1160   3.631   3.898  14.234 -3.3362 -1.2156 -1.0318
   75TMC2    C1 1161   3.622   0.453  14.092  0.4083 -0.3918 -0.3099
   75TMC2    C2 1162   3.584   0.586  14.084 -0.0800 -0.7691 -0.6385
   75TMC2    C3 1163   3.502   0.624  13.984  0.2955 -0.9538  0.3840
   75TMC2    C4 1164   3.568   0.356  14.009  0.0031  0.0104 -0.4391
   75TMC2    C5 1165   3.466   0.397  13.931  0.4911  0.1918  0.7743
   75TMC2    C6 1166   3.444   0.532  13.905 -0.5726  0.5613  0.5489
   75TMC2     C 1167   3.730   0.422  14.181  0.4730  0.3338  0.0174
   75TMC2     O 1168   3.766   0.511  14.261  0.2182  0.5525 -0.1219
   75TMC2     H 1169   3.628   0.659  14.152 -1.6196  0.3158 -0.8168
   75TMC2    H1 1170   3.578   0.251  14.033 -1.0484  0.0375  0.0811
   75TMC2    H2 1171   3.372   0.556  13.828  0.0442  1.5592  0.2714
   75TMC2    C7 1172   3.422   0.299  13.833  0.2168  0.3078  0.1942
   75TMC2    C8 1173   3.440   0.752  14.018  0.4344 -0.5177 -0.0670
   75TMC2    O1 1174   3.409   0.345  13.720  0.4491 -0.1363  0.6610
   75TMC2    O2 1175   3.485   0.835  14.093 -0.2523  0.0276  0.2825
   75TMC2    O5 1176   3.312   0.739  13.975  0.0426 -0.7492 -0.7923
   75TMC2    H5 1177   3.288   0.658  13.925  0.4663 -0.4653 -1.4415
   76TMC2    C1 1178   2.308   0.526  12.451 -0.3898 -0.1591 -0.8242
   76TMC2    C2 1179   2.171   0.513  12.456 -0.2731 -0.0288  0.2452
   76TMC2    C3 1180   2.119   0.394  12.510  0.6100  0.1341 -0.3795
   76TMC2    C4 1181   2.386   0.418  12.477 -0.2265 -0.4135 -0.0994
   76TMC2    C5 1182   2.324   0.300  12.519 -0.4494  0.2413 -0.0216
   76TMC2    C6 1183   2.193   0.285  12.537 -0.1403  0.0192  0.4821
   76TMC2     C 1184   2.364   0.645  12.400 -0.2198 -0.0694  0.2027
   76TMC2     O 1185   2.282   0.736  12.397 -0.6268  0.9096 -0.0347
   76TMC2     H 1186   2.103   0.596  12.440 -0.3947  0.0973  1.4364
   76TMC2    H1 1187   2.491   0.432  12.500 -0.2736 -0.3468  0.0786
   76TMC2    H2 1188   2.147   0.189  12.555 -0.0165  0.3510  2.6142
   76TMC2    C7 1189   2.408   0.200  12.580  0.4533  0.3237 -0.2015
   76TMC2    C8 1190   1.978   0.386  12.510 -0.5941 -0.2698  0.4554
   76TMC2    O1 1191   2.364   0.104  12.640  0.6829 -0.1872  0.0365
   76TMC2    O2 1192   1.902   0.462  12.453 -0.0125  0.2982 -0.4327
   76TMC2    O5 1193   1.939   0.320  12.622 -0.4385  0.2638 -0.1422
   76TMC2    H5 1194   2.009   0.280  12.678  0.1285 -0.3726 -1.2967
   77MPD2     C 1195   2.713   0.943  12.160  0.1395  0.2742  0.2283
   77MPD2    C1 1196   2.584   0.970  12.205 -0.8968 -0.5493 -0.0684
   77MPD2    C2 1197   2.512   0.874  12.261  0.3029  0.2669  0.0541
   77MPD2    C3 1198   2.553   0.741  12.265 -0.1584 -1.0392 -0.2617
   77MPD2    C4 1199   2.681   0.709  12.224  0.5285  0.2846 -0.0113
   77MPD2    C5 1200   2.756   0.811  12.167 -0.1000  0.1660  0.2407
   77MPD2     H 1201   2.417   0.897  12.308  0.2440  1.4481 -0.6688
   77MPD2    H1 1202   2.730   0.614  12.240  2.4592  0.8337 -2.6511
   77MPD2    H2 1203   2.780   1.019  12.121  0.5925  0.1561  0.7758
   77MPD2    H3 1204   2.852   0.793  12.119 -0.7065  1.6170 -1.5133
   77MPD2     N 1205   2.481   0.635  12.329  0.2350  0.4497  0.3477
   77MPD2    H5 1206   2.525   0.543  12.327 -0.3588  0.1927 -0.9295
   77MPD2    N1 1207   2.532   1.103  12.210 -0.5233 -0.0107  0.0406
   77MPD2    H7 1208   2.435   1.114  12.240 -0.7418 -1.1391 -0.2544
   78TMC2    C1 1209   3.425   2.877   2.037 -0.2758  0.6487 -0.3302
   78TMC2    C2 1210   3.299   2.914   2.012 -0.0866  0.3040  0.1776
   78TMC2    C3 1211   3.212   2.831   1.942  0.0024  0.5981  0.7148
   78TMC2    C4 1212   3.479   2.769   1.970 -0.2852 -0.0173 -0.0271
   78TMC2    C5 1213   3.393   2.689   1.896 -0.7713  0.5488 -0.4764
   78TMC2    C6 1214   3.261   2.720   1.882 -0.5763  0.4483 -0.6342
   78TMC2     C 1215   3.517   2.963   2.107 -0.2868 -0.0422 -0.1850
   78TMC2     O 1216   3.481   3.078   2.130  0.4006 -0.0424 -0.1370
   78TMC2     H 1217   3.262   3.004   2.060 -0.4440  0.4163 -0.3065
   78TMC2    H1 1218   3.583   2.746   1.952  0.1366  0.4771  1.7661
   78TMC2    H2 1219   3.195   2.672   1.810 -2.3201  0.4643  0.9655
   78TMC2    C7 1220   3.449   2.579   1.822 -0.4114  0.6102  0.2096
   78TMC2    C8 1221   3.079   2.873   1.917  0.0644  0.2750 -0.5205
   78TMC2    O1 1222   3.570   2.570   1.832 -0.9762 -0.6109 -0.6691
   78TMC2    O2 1223   3.015   2.822   1.826 -0.0865  0.5912 -0.2913
   78TMC2    O5 1224   3.053   2.996   1.964  0.5523 -0.0354  0.2856
   78TMC2    H5 1225   3.080   2.990   2.058  0.7981 -1.2769  0.1370
   79MPD1     C 1226   4.018   3.084   2.211 -0.0683 -0.2347 -0.4290
   79MPD1    C1 1227   4.008   2.950   2.176 -0.4618 -0.1929  0.4637
   79MPD1    C2 1228   3.883   2.890   2.157 -0.1963 -0.2974 -0.1885
   79MPD1    C3 1229   3.764   2.961   2.170  0.4830  0.1069  0.5745
   79MPD1    C4 1230   3.777   3.090   2.203 -0.3792 -0.4215 -0.9497
   79MPD1    C5 1231   3.897   3.151   2.219  0.4055  0.4739 -0.1221
   79MPD1     H 1232   3.877   2.789   2.119 -0.8020 -0.2663 -0.1777
   79MPD1    H1 1233   3.693   3.157   2.220 -1.0361 -1.1041 -1.5168
   79MPD1    H2 1234   4.104   3.148   2.213 -0.6991  0.6179 -0.6041
   79MPD1    H3 1235   3.892   3.257   2.241 -0.7416  0.4762 -0.3891
   79MPD1     N 1236   3.641   2.901   2.130 -0.0470  0.1269 -0.0017
   79MPD1    H5 1237   3.635   2.804   2.102 -0.4085 -0.1223  0.9320
   79MPD1    N1 1238   4.126   2.879   2.170 -0.7404  0.2994 -0.3824
   79MPD1    H6 1239   4.132   2.790   2.120  1.9238 -0.2119  0.8205
   79MPD1    H7 1240   4.208   2.929   2.135  0.0795 -2.7286 -2.7856
   80TMC2    C1 1241   1.115   4.716  11.872 -0.4374 -0.0515 -0.5064
   80TMC2    C2 1242   1.152   4.666  11.755 -0.9220  0.0551 -0.5103
   80TMC2    C3 1243   1.080   4.559  11.715 -0.2824  0.8576  0.4393
   80TMC2    C4 1244   1.027   4.665  11.957  0.3227  0.3831  0.1104
   80TMC2    C5 1245   0.961   4.549  11.918  0.3387 -0.3420  0.4337
   80TMC2    C6 1246   0.985   4.498  11.794  0.1645  0.1274 -0.0860
   80TMC2     C 1247   1.189   0.095  11.908  0.1572 -0.2577  0.3611
   80TMC2     O 1248   1.294   0.108  11.852  0.3140 -0.6029  0.0008
   80TMC2     H 1249   1.217   4.721  11.688  3.1166 -0.1156  3.2646
   80TMC2    H1 1250   1.013   4.710  12.055 -0.4339  0.9832 -0.2707
   80TMC2    H2 1251   0.952   4.398  11.769  1.1176 -0.0433 -0.6643
   80TMC2    C7 1252   0.889   4.465  12.009 -0.0589 -0.0275  0.1992
   80TMC2    C8 1253   1.146   4.463  11.618 -0.0096 -0.1095  0.1552
   80TMC2    O1 1254   0.825   4.376  11.961  0.5806 -0.7011  0.2218
   80TMC2    O2 1255   1.194   4.354  11.654 -0.6977 -0.1329  0.1069
   80TMC2    O5 1256   1.175   4.535  11.512 -0.6340 -0.1778 -0.4712
   80TMC2    H5 1257   1.099   4.595  11.495  0.0544  0.7228 -0.3641
   81MPD2     C 1258   1.244   0.389  11.922  0.1063 -0.3747 -0.0074
   81MPD2    C1 1259   1.138   0.318  11.991  0.2233  0.0155  0.5266
   81MPD2    C2 1260   1.048   0.398  12.062 -0.3461 -0.5366  0.6902
   81MPD2    C3 1261   1.068   0.535  12.085 -0.1861 -0.6511 -0.0620
   81MPD2    C4 1262   1.171   0.597  12.024 -0.7549  0.2596 -0.7218
   81MPD2    C5 1263   1.261   0.521  11.943 -0.3546  0.3867 -0.2717
   81MPD2     H 1264   0.978   0.340  12.122 -0.2610  0.4985  1.7876
   81MPD2    H1 1265   1.193   0.702  12.038 -1.7850  0.4584 -0.6399
   81MPD2    H2 1266   1.318   0.337  11.863 -0.9294  0.1219 -1.7353
   81MPD2    H3 1267   1.337   0.581  11.894  1.1062 -1.8562 -0.7623
   81MPD2     N 1268   0.996   0.608  12.178  0.5476 -0.1654  0.4321
   81MPD2    H5 1269   1.030   0.700  12.204  0.5699 -1.1997  3.9944
   81MPD2    N1 1270   1.110   0.183  11.978 -0.7816  0.5385  0.4148
   81MPD2    H7 1271   1.022   0.152  12.017  0.8183 -2.8271  1.2709
   82TMC2    C1 1272   4.432   4.638  11.523 -0.3574 -0.1376  0.6082
   82TMC2    C2 1273   4.544   4.671  11.594 -0.5678  0.3938  0.0479
   82TMC2    C3 1274   4.602   4.573  11.667 -0.2283  0.3726  0.3228
   82TMC2    C4 1275   4.374   4.515  11.532 -0.3020  0.1092 -0.4800
   82TMC2    C5 1276   4.429   4.421  11.616 -0.2356 -0.2386 -0.4579
   82TMC2    C6 1277   4.548   4.452  11.683  0.2581  0.3073  0.3829
   82TMC2     C 1278   4.361   4.734  11.444 -0.1183 -0.8893 -0.2697
   82TMC2     O 1279   4.302   4.693  11.346  0.0121 -0.7598  0.0445
   82TMC2     H 1280   4.594   0.024  11.564  2.2097 -0.7157  1.2916
   82TMC2    H1 1281   4.279   4.501  11.481 -0.6615 -0.9782  0.4713
   82TMC2    H2 1282   4.597   4.374  11.741  2.4629  1.4191  0.0128
   82TMC2    C7 1283   4.353   4.301  11.650 -0.1938 -0.3044  0.0659
   82TMC2    C8 1284   4.712   4.615  11.754  0.3028 -0.1967 -0.4005
   82TMC2    O1 1285   4.391   4.239  11.746  0.3754 -0.5470 -0.4313
   82TMC2    O2 1286   0.078   4.552  11.761 -0.2279  0.4192  0.0864
   82TMC2    O5 1287   4.700   0.012  11.778  0.1253 -0.3883  0.4492
   82TMC2    H5 1288   4.606   0.041  11.781  0.4438  0.8763 -1.5759
   83MPD2     C 1289   4.061   0.402  11.474  0.4739  0.7031 -0.1422
   83MPD2    C1 1290   4.052   0.282  11.405 -0.0396  0.6321 -0.0671
   83MPD2    C2 1291   4.154   0.191  11.415  0.9094  0.5664 -0.1626
   83MPD2    C3 1292   4.258   0.209  11.502 -0.2364  0.3896  0.6080
   83MPD2    C4 1293   4.258   0.323  11.583 -0.2206 -0.2244  0.3020
   83MPD2    C5 1294   4.161   0.420  11.568 -0.2537  0.3777  0.1812
   83MPD2     H 1295   4.144   0.105  11.349  1.6745 -2.2836  3.4858
   83MPD2    H1 1296   4.340   0.330  11.654 -0.6088  1.7131  0.5396
   83MPD2    H2 1297   3.983   0.477  11.475  0.1477  0.3672 -0.2380
   83MPD2    H3 1298   4.176   0.515  11.618  1.9498 -0.8595  1.8919
   83MPD2     N 1299   4.356   0.115  11.516 -0.1287 -0.2844  0.1733
   83MPD2    H5 1300   4.419   0.113  11.596  1.6167  2.9376 -1.1259
   83MPD2    N1 1301   3.942   0.267  11.323  0.0650  0.0081 -0.1212
   83MPD2    H7 1302   3.873   0.340  11.333  0.9048  0.7350  0.4251
   84TMC2    C1 1303   0.345   4.133  11.290  0.4210  0.2022  0.5710
   84TMC2    C2 1304   0.285   4.044  11.368  0.1594  0.5616  0.5728
   84TMC2    C3 1305   0.238   3.930  11.312 -0.0654  0.1948  0.0013
   84TMC2    C4 1306   0.331   4.130  11.156 -1.0425 -0.2072 -0.3822
   84TMC2    C5 1307   0.287   4.011  11.104 -0.2494  0.4262  0.3420
   84TMC2    C6 1308   0.240   3.910  11.180 -0.5309  0.1258 -0.4869
   84TMC2     C 1309   0.400   4.249  11.363 -0.6720  0.1056  0.1244
   84TMC2     O 1310   0.372   4.257  11.481  0.2189 -0.2306  0.6826
   84TMC2     H 1311   0.284   4.054  11.476  1.5158 -0.4056  0.6830
   84TMC2    H1 1312   0.361   4.211  11.091 -0.2977 -0.4438 -0.3360
   84TMC2    H2 1313   0.191   3.824  11.136  1.3433 -1.0325 -0.2950
   84TMC2    C7 1314   0.324   3.973  10.972  0.2761 -0.4662 -0.0145
   84TMC2    C8 1315   0.190   3.832  11.405  0.0034 -0.2726 -0.4666
   84TMC2    O1 1316   0.274   3.870  10.934  0.0316  0.2892 -0.1890
   84TMC2    O2 1317   0.142   3.843  11.519  0.6166  0.4815  0.0708
   84TMC2    O5 1318   0.242   3.715  11.364  0.3201 -0.6702  0.2930
   84TMC2    H5 1319   0.309   3.718  11.292  1.0044  0.3137  0.9672
   85TMC2    C1 1320   1.197   2.188  16.149 -0.0573  0.5171  0.4540
   85TMC2    C2 1321   1.210   2.322  16.133 -0.1377 -0.0179 -0.0520
   85TMC2    C3 1322   1.346   2.369  16.128  0.1355  0.3043 -0.1878
   85TMC2    C4 1323   1.305   2.096  16.156 -0.3689 -0.2802  0.5057
   85TMC2    C5 1324   1.435   2.149  16.157  0.6547  0.1283 -0.3349
   85TMC2    C6 1325   1.456   2.288  16.140  0.2835  0.1473 -0.1104
   85TMC2     C 1326   1.060   2.152  16.172 -0.0771  0.4971 -0.1005
   85TMC2     O 1327   0.980   2.234  16.130  0.2109  0.3411 -0.3143
   85TMC2     H 1328   1.125   2.390  16.135 -0.3686 -0.3361  0.8532
   85TMC2    H1 1329   1.278   1.991  16.161  2.7936 -1.2042 -1.3265
   85TMC2    H2 1330   1.555   2.330  16.133 -0.6616  1.6542 -4.5122
   85TMC2    C7 1331   1.530   2.051  16.104  0.6032  0.5126  0.5541
   85TMC2    C8 1332   1.384   2.501  16.092 -0.3614 -0.3008 -0.1440
   85TMC2    O1 1333   1.483   1.935  16.099  0.4727 -0.4491  0.6504
   85TMC2    O2 1334   1.480   2.526  16.019 -0.1564 -0.0611  0.0470
   85TMC2    O5 1335   1.291   2.586  16.135  0.0883 -0.1863  0.2382
   85TMC2    H5 1336   1.252   2.556  16.221  0.6271  0.7844  0.8138
   86MPD2     C 1337   0.646   1.878  16.325  0.2253 -0.6718 -0.1387
   86MPD2    C1 1338   0.763   1.806  16.334  0.2539  0.1764  0.6193
   86MPD2    C2 1339   0.879   1.864  16.296 -1.1531  0.0655  0.2025
   86MPD2    C3 1340   0.897   1.987  16.250 -0.3934  0.0438  0.5577
   86MPD2    C4 1341   0.785   2.063  16.248  0.4767  0.1248  0.2592
   86MPD2    C5 1342   0.667   2.006  16.278  0.4324  0.9092  0.2896
   86MPD2     H 1343   0.966   1.799  16.301 -0.2146  1.4212  1.7268
   86MPD2    H1 1344   0.777   2.168  16.223 -2.2868 -0.4764 -1.3708
   86MPD2    H2 1345   0.545   1.838  16.325  1.2657 -3.2847  0.1080
   86MPD2    H3 1346   0.575   2.061  16.265  0.6924  1.2463 -0.1268
   86MPD2     N 1347   1.031   2.032  16.235 -0.5197 -0.1030 -0.1104
   86MPD2    H5 1348   1.104   1.969  16.266 -0.0170  0.1503 -0.7850
   86MPD2    N1 1349   0.759   1.665  16.366  0.5187  0.3965 -0.2804
   86MPD2    H7 1350   0.843   1.616  16.339 -0.1459 -0.4157 -0.8702
   87TMC2    C1 1351   3.749   0.400   0.481 -0.8803 -0.8384 -0.9867
   87TMC2    C2 1352   3.756   0.455   0.608  0.8167 -0.8175 -0.0989
   87TMC2    C3 1353   3.678   0.565   0.635  0.2955 -0.3025  0.4007
   87TMC2    C4 1354   3.673   0.461   0.378  1.0954 -0.0462 -0.0542
   87TMC2    C5 1355   3.600   0.569   0.407 -0.1178  0.9368  0.6083
   87TMC2    C6 1356   3.602   0.627   0.538  0.7146  0.7515  0.0255
   87TMC2     C 1357   3.855   0.309   0.440  0.7147 -0.4894 -0.5161
   87TMC2     O 1358   3.873   0.291   0.321 -0.5174  0.1871 -0.6767
   87TMC2     H 1359   3.802   0.412   0.696 -2.3345 -0.7991  1.5560
   87TMC2    H1 1360   3.669   0.428   0.274  0.8800 -0.7152  0.1654
   87TMC2    H2 1361   3.520   0.698   0.538 -0.9583 -1.1772  1.5408
   87TMC2    C7 1362   3.528   0.644   0.304 -0.9469 -0.0978 -0.1651
   87TMC2    C8 1363   3.666   0.603   0.777  0.0831 -0.1929  0.5936
   87TMC2    O1 1364   3.495   0.759   0.327 -0.2293  0.7473 -0.4247
   87TMC2    O2 1365   3.754   0.567   0.853 -0.4125  0.5758 -0.0943
   87TMC2    O5 1366   3.584   0.712   0.785  0.3026  0.3073 -0.0256
   87TMC2    H5 1367   3.517   0.711   0.713  0.1631  0.2296  0.1045
   88MPD2     C 1368   3.410   0.526  17.733  0.0834 -0.3476  0.0146
   88MPD2    C1 1369   3.423   0.612   0.083  0.5665  0.2571  0.1228
   88MPD2    C2 1370   3.330   0.714   0.091  0.1616 -0.5855 -0.1245
   88MPD2    C3 1371   3.232   0.730  17.745 -0.2214 -0.4366 -0.0110
   88MPD2    C4 1372   3.228   0.646  17.637 -0.4930 -0.0859  0.0183
   88MPD2    C5 1373   3.318   0.542  17.638 -0.6485 -0.1844  0.2333
   88MPD2     H 1374   3.332   0.771   0.183  2.3566 -1.5977  0.4339
   88MPD2    H1 1375   3.164   0.663  17.551 -1.0551  0.3811  0.5335
   88MPD2    H2 1376   3.474   0.438  17.729  0.4418 -0.1756  1.8254
   88MPD2    H3 1377   3.316   0.478  17.550 -1.4646  1.5667 -1.0298
   88MPD2     N 1378   3.135   0.836   0.001 -0.3473 -1.0182  0.2016
   88MPD2    H5 1379   3.069   0.843  17.675 -0.0337 -3.4288 -0.2921
   88MPD2    N1 1380   3.507   0.572   0.188  1.0063  0.2379  0.3943
   88MPD2    H7 1381   3.547   0.480   0.176 -1.7388 -0.7909 -0.7858
   89TMC2    C1 1382   0.022   3.833   1.623  0.1811 -0.0551  1.3310
   89TMC2    C2 1383   4.684   3.892   1.528  0.0874  0.2126  0.0085
   89TMC2    C3 1384   4.694   4.026   1.516 -0.4863  0.2646 -0.0880
   89TMC2    C4 1385   0.112   3.902   1.703 -0.3290 -0.2527  0.3666
   89TMC2    C5 1386   0.132   4.032   1.667 -0.0581 -0.4118 -0.2251
   89TMC2    C6 1387   0.051   4.100   1.582  0.4102  0.1450  0.0561
   89TMC2     C 1388   0.001   3.695   1.660 -0.3878  0.2622  0.0600
   89TMC2     O 1389   0.102   3.626   1.676  0.0072  0.6079 -0.2032
   89TMC2     H 1390   4.617   3.840   1.460  0.5114  0.3166 -0.4890
   89TMC2    H1 1391   0.179   3.852   1.773  1.4122  2.4167  0.6047
   89TMC2    H2 1392   0.060   4.206   1.560 -1.6741 -0.1715 -2.3605
   89TMC2    C7 1393   0.235   4.114   1.732  0.1686  0.8622 -0.8096
   89TMC2    C8 1394   4.585   4.113   1.481  0.4726 -1.1907  0.5505
   89TMC2    O1 1395   0.285   4.067   1.837  0.3274 -0.1171  0.0757
   89TMC2    O2 1396   4.598   4.192   1.387  0.3417  0.0253  0.3371
   89TMC2    O5 1397   4.475   4.036   1.481  0.4072 -0.6486  0.3412
   89TMC2    H5 1398   4.477   4.000   1.572  3.4801  0.7492  0.8421
   90MPD2     C 1399   4.410   3.317   1.760  0.1594 -0.0664  0.5989
   90MPD2    C1 1400   4.352   3.434   1.786 -0.0057 -0.3278  0.0968
   90MPD2    C2 1401   4.413   3.550   1.749 -0.2709  0.2890  0.0991
   90MPD2    C3 1402   4.543   3.547   1.701  0.7859  0.4295  0.1308
   90MPD2    C4 1403   4.609   3.429   1.701  0.2255  0.5413 -0.5072
   90MPD2    C5 1404   4.545   3.311   1.720 -0.2531 -0.0438  0.0970
   90MPD2     H 1405   4.364   3.646   1.761 -2.5313 -0.5590 -2.2592
   90MPD2    H1 1406   4.712   3.421   1.665  0.0398  0.9931 -1.1428
   90MPD2    H2 1407   4.364   3.221   1.781 -0.3000  0.0295  0.0424
   90MPD2    H3 1408   4.596   3.216   1.731 -1.9488 -0.8003  1.5145
   90MPD2     N 1409   4.601   3.669   1.669  0.7627 -0.2952 -0.1486
   90MPD2    H5 1410   4.548   3.755   1.659  1.4456  0.0395 -0.8997
   90MPD2    N1 1411   4.227   3.447   1.855  0.0166  0.3248 -0.4197
   90MPD2    H7 1412   4.188   3.541   1.865 -1.5966 -0.4141  0.2424
   91TMC2    C1 1413   1.012   3.184  17.345 -0.4955 -0.5712 -0.4273
   91TMC2    C2 1414   1.091   3.137  17.447  0.8704 -0.0012  0.0220
   91TMC2    C3 1415   1.026   3.047  17.532 -0.5431  0.2671 -0.7761
   91TMC2    C4 1416   0.876   3.161  17.339 -0.3236 -0.0985 -0.5291
   91TMC2    C5 1417   0.814   3.067  17.421 -0.7155  0.2701  0.8414
   91TMC2    C6 1418   0.893   3.009  17.519  0.3618  0.2587 -1.1376
   91TMC2     C 1419   1.062   3.213  17.213  0.2253  0.6429  0.1216
   91TMC2     O 1420   0.981   3.253  17.132 -0.0648  0.5748 -0.4934
   91TMC2     H 1421   1.197   3.159  17.446  0.9350 -0.2347  1.3246
   91TMC2    H1 1422   0.814   3.221  17.275  0.7383  0.4037 -1.0813
   91TMC2    H2 1423   0.851   2.940  17.592  1.8944  1.4008  0.8108
   91TMC2    C7 1424   0.693   3.001  17.384  0.1739 -0.7896  0.0155
   91TMC2    C8 1425   1.100   2.975  17.632 -0.0585  0.4448  0.2937
   91TMC2    O1 1426   0.624   2.942  17.466 -0.1922  0.1644 -0.3692
   91TMC2    O2 1427   1.052   2.889  17.701 -0.0806 -0.6053 -0.2268
   91TMC2    O5 1428   1.233   3.003  17.615 -0.1338  0.5839 -0.0310
   91TMC2    H5 1429   1.298   2.976  17.684  0.3201 -0.7156 -0.9619
   92MPD2     C 1430   1.189   3.142  16.944  0.5674 -0.0596 -0.4427
   92MPD2    C1 1431   1.256   3.148  17.068 -0.3481 -0.3221 -0.2069
   92MPD2    C2 1432   1.389   3.111  17.073 -0.7497 -0.3839  0.0985
   92MPD2    C3 1433   1.454   3.057  16.961 -0.0247  0.2839 -0.7013
   92MPD2    C4 1434   1.381   3.035  16.848  0.0582  0.4688  0.4326
   92MPD2    C5 1435   1.252   3.090  16.836  0.6484  0.1866 -0.2978
   92MPD2     H 1436   1.449   3.113  17.164 -0.5197 -0.2154 -0.0563
   92MPD2    H1 1437   1.422   2.977  16.766  0.1208  0.5284  0.4221
   92MPD2    H2 1438   1.086   3.177  16.935  0.7018  0.2149 -0.9010
   92MPD2    H3 1439   1.197   3.082  16.743 -0.9036  0.4628  0.5946
   92MPD2     N 1440   1.595   3.025  16.963 -0.1091 -0.8347  0.6108
   92MPD2    H5 1441   1.646   3.055  17.045  1.7909 -0.7563 -0.5897
   92MPD2    N1 1442   1.192   3.163  17.189  0.5418  0.9229  0.0049
   92MPD2    H7 1443   1.244   3.123  17.266 -1.0606 -3.1099 -1.0067
   93TMC2    C1 1444   3.398   3.026  13.887 -0.2806  0.7049  0.2260
   93TMC2    C2 1445   3.310   3.132  13.903 -0.0883 -0.5062 -0.1260
   93TMC2    C3 1446   3.365   3.255  13.935 -0.0472  0.4060  0.0265
   93TMC2    C4 1447   3.534   3.045  13.893 -0.1783  0.0582  0.2180
   93TMC2    C5 1448   3.583   3.163  13.943 -0.0936 -0.4937  1.0245
   93TMC2    C6 1449   3.492   3.266  13.972  0.3017 -0.1549  0.1268
   93TMC2     C 1450   3.341   2.889  13.890  0.0011  0.4757 -0.0963
   93TMC2     O 1451   3.417   2.795  13.868  0.1039  0.4858  0.0593
   93TMC2     H 1452   3.212   3.133  13.857 -0.1471 -0.9135 -0.0103
   93TMC2    H1 1453   3.593   2.956  13.910 -0.1634  0.0922  0.3471
   93TMC2    H2 1454   3.513   3.366  14.007 -0.7116 -0.8355  2.6607
   93TMC2    C7 1455   3.725   3.182  13.965  0.4104  0.8754  0.1319
   93TMC2    C8 1456   3.289   3.376  13.933 -0.1923  0.1581 -0.5360
   93TMC2    O1 1457   3.804   3.114  13.906 -0.1796  0.1252 -0.2870
   93TMC2    O2 1458   3.306   3.470  14.009 -0.5289  0.0317 -0.0198
   93TMC2    O5 1459   3.240   3.388  13.809 -0.0544  0.4633  0.4460
   93TMC2    H5 1460   3.234   3.299  13.769 -0.9973  1.3122 -1.2847
   94MPD2     C 1461   3.176   2.636  13.926 -1.0400  0.0975  0.3171
   94MPD2    C1 1462   3.132   2.766  13.939  0.2536  0.3334 -0.0175
   94MPD2    C2 1463   2.998   2.774  13.971  0.5552  0.0528 -0.1014
   94MPD2    C3 1464   2.910   2.665  13.995 -0.1126  0.0668  0.2818
   94MPD2    C4 1465   2.964   2.535  13.991  0.2459  0.2527 -0.0381
   94MPD2    C5 1466   3.098   2.528  13.964  0.3598  0.3634  0.3357
   94MPD2     H 1467   2.966   2.877  13.976 -1.6815 -0.5142 -2.6417
   94MPD2    H1 1468   2.913   2.439  14.003 -0.8137  0.5659 -2.0272
   94MPD2    H2 1469   3.275   2.619  13.885 -1.3238 -0.2523 -0.2227
   94MPD2    H3 1470   3.142   2.429  13.972 -0.9552 -0.2215  0.3179
   94MPD2     N 1471   2.780   2.692  14.021 -0.1101  0.3386 -0.1104
   94MPD2    H5 1472   2.754   2.789  14.035 -0.5527 -0.1505  2.4739
   94MPD2    N1 1473   3.206   2.882  13.928 -0.2462 -0.1426  0.6817
   94MPD2    H7 1474   3.157   2.969  13.947  1.0180  1.4564 -3.3963
   95TMC2    C1 1475   3.193   0.847  16.188 -0.5521 -0.4973  0.4940
   95TMC2    C2 1476   3.162   0.814  16.321  1.0052  0.0574 -0.9885
   95TMC2    C3 1477   3.116   0.911  16.403  0.0742  0.1876  0.0753
   95TMC2    C4 1478   3.170   0.973  16.139  0.0882 -0.2809 -0.0459
   95TMC2    C5 1479   3.102   1.060  16.221  0.1787  0.2730 -0.2450
   95TMC2    C6 1480   3.071   1.029  16.352  0.3399 -0.0524  0.0322
   95TMC2     C 1481   3.280   0.754  16.116 -0.0250 -0.2134 -0.3336
   95TMC2     O 1482   3.354   0.800  16.027  0.1859  0.2865 -0.3545
   95TMC2     H 1483   3.171   0.711  16.351 -1.1905 -0.5511 -2.3526
   95TMC2    H1 1484   3.206   0.996  16.039 -0.2871  1.0198  0.1159
   95TMC2    H2 1485   3.007   1.089  16.416 -2.4721  0.0003 -2.7802
   95TMC2    C7 1486   3.057   1.192  16.184  0.5143  0.5924 -0.5916
   95TMC2    C8 1487   3.048   0.861  16.521 -0.4435  0.1482  0.1493
   95TMC2    O1 1488   3.027   1.264  16.280  0.0920  0.2665  0.0690
   95TMC2    O2 1489   2.950   0.912  16.569  0.2212 -0.2376  0.5558
   95TMC2    O5 1490   3.147   0.791  16.588 -0.3164 -1.0160  0.2395
   95TMC2    H5 1491   3.229   0.781  16.536  0.8699  1.4449  1.6074
   96MPD2     C 1492   3.493   0.287  16.031 -0.1885  0.0278  0.3744
   96MPD2    C1 1493   3.537   0.414  16.011  0.0033  0.7083 -0.2486
   96MPD2    C2 1494   3.463   0.530  16.047  0.7566 -0.6159  0.5228
   96MPD2    C3 1495   3.335   0.519  16.108 -0.6331  0.0341  0.1570
   96MPD2    C4 1496   3.302   0.390  16.138 -0.5818 -0.2660 -0.1099
   96MPD2    C5 1497   3.376   0.277  16.101  0.4073 -0.8263 -0.1775
   96MPD2     H 1498   3.501   0.629  16.021 -1.7302  0.3324  0.4473
   96MPD2    H1 1499   3.220   0.378  16.207 -0.4061 -1.6216 -0.1328
   96MPD2    H2 1500   3.543   0.195  16.003 -0.3338  0.5729 -1.6537
   96MPD2    H3 1501   3.342   0.182  16.139 -0.6609 -1.1979 -2.0970
   96MPD2     N 1502   3.258   0.626  16.150  0.4188  0.5052  0.2039
   96MPD2    H5 1503   3.180   0.604  16.211 -0.5276  2.0022 -0.4813
   96MPD2    N1 1504   3.665   0.429  15.946 -0.0179 -0.2132  0.6291
   96MPD2    H7 1505   3.699   0.355  15.886  0.4661  1.0713 -0.6820
   97TMC2    C1 1506   0.300   3.270   0.040 -0.6526  0.2501 -0.0646
   97TMC2    C2 1507   0.203   3.324  17.709  0.4515 -0.3438 -0.6160
   97TMC2    C3 1508   0.206   3.456  17.663  0.1209 -0.3922 -0.5365
   97TMC2    C4 1509   0.409   3.354   0.072 -0.0098 -0.6858  0.6123
   97TMC2    C5 1510   0.408   3.481   0.018  0.2921  0.3651  0.2270
   97TMC2    C6 1511   0.315   3.536  17.687 -0.5733 -0.3847  0.4525
   97TMC2     C 1512   0.272   3.148   0.116 -0.9377 -0.0685 -0.0521
   97TMC2     O 1513   0.164   3.099   0.096 -0.1045  0.3859 -0.5337
   97TMC2     H 1514   0.111   3.269  17.693 -0.1310  0.7432 -0.9753
   97TMC2    H1 1515   0.498   3.324   0.125 -0.8179 -1.2564  1.6533
   97TMC2    H2 1516   0.332   3.633  17.641 -1.0102 -1.0819 -1.1719
   97TMC2    C7 1517   0.509   3.569   0.078 -0.2311 -0.2977 -0.1957
   97TMC2    C8 1518   0.113   3.485  17.556  0.2330 -0.1959  0.4684
   97TMC2    O1 1519   0.549   3.549   0.192  0.1633 -0.0766  0.6309
   97TMC2    O2 1520   0.101   3.429  17.451 -0.6027  0.3089 -0.3711
   97TMC2    O5 1521   0.097   3.617  17.567  0.6005 -0.0791 -0.0558
   97TMC2    H5 1522   0.097   3.652  17.659 -0.5084 -1.7655  0.5841
   98MPD2     C 1523   0.260   2.980   0.602 -0.3565 -0.5217 -0.6255
   98MPD2    C1 1524   0.201   2.936   0.484 -0.1644 -0.0291  0.3037
   98MPD2    C2 1525   0.226   2.992   0.363  0.6867  0.3783 -0.7462
   98MPD2    C3 1526   0.319   3.091   0.357 -0.3109  0.2944 -0.6934
   98MPD2    C4 1527   0.381   3.135   0.473  0.0780  0.0823  0.0327
   98MPD2    C5 1528   0.355   3.082   0.591 -0.7723  0.1828  0.4837
   98MPD2     H 1529   0.191   2.952   0.268  0.7042 -1.0518 -0.1407
   98MPD2    H1 1530   0.450   3.218   0.473 -0.0408  0.1842 -0.8803
   98MPD2    H2 1531   0.241   2.950   0.704 -1.3773  0.3413 -0.5712
   98MPD2    H3 1532   0.408   3.130   0.673 -0.1630 -1.2184  0.9105
   98MPD2     N 1533   0.341   3.160   0.236  0.2874  0.1781  0.4545
   98MPD2    H5 1534   0.415   3.229   0.228 -0.4572  0.7365 -1.9103
   98MPD2    N1 1535   0.101   2.838   0.506  0.0146  0.6095 -0.5707
   98MPD2    H7 1536   0.080   2.814   0.602 -1.1514  0.2264 -0.9216
   99TMC2    C1 1537   4.207   0.724   1.319  0.0136 -0.2354 -0.3380
   99TMC2    C2 1538   4.295   0.810   1.384  0.6201 -1.5180  0.0771
   99TMC2    C3 1539   4.236   0.907   1.456 -0.1188  0.3741  0.1723
   99TMC2    C4 1540   4.076   0.745   1.321  0.2922 -0.5198 -0.5555
   99TMC2    C5 1541   4.028   0.836   1.411 -0.0045  0.2022 -0.5617
   99TMC2    C6 1542   4.106   0.930   1.462 -0.3976 -0.5252 -0.6501
   99TMC2     C 1543   4.264   0.613   1.242 -1.0121  0.1291 -0.6691
   99TMC2     O 1544   4.385   0.613   1.239 -0.6171  0.2798 -0.6734
   99TMC2     H 1545   4.398   0.783   1.401  0.0761 -1.8818  2.8127
   99TMC2    H1 1546   4.008   0.687   1.259 -1.1698  0.0769  0.4835
   99TMC2    H2 1547   4.062   0.997   1.535  0.0248  1.2869 -2.0424
   99TMC2    C7 1548   3.882   0.861   1.415 -0.4503  0.0614 -0.2790
   99TMC2    C8 1549   4.317   0.968   1.560  0.7824  0.8060  1.1349
   99TMC2    O1 1550   3.853   0.976   1.436  0.0065 -0.0808 -0.4065
   99TMC2    O2 1551   4.422   0.922   1.605 -0.2891 -0.2025 -0.0876
   99TMC2    O5 1552   4.290   1.100   1.568 -0.5301 -0.4053 -0.3148
   99TMC2    H5 1553   4.217   1.127   1.508  1.3051 -2.3370 -3.4117
  100MPD2     C 1554   4.336   0.387   1.051 -0.0391  0.7420  0.1163
  100MPD2    C1 1555   4.218   0.395   1.124 -0.5765 -0.7610 -0.1438
  100MPD2    C2 1556   4.133   0.282   1.120 -0.5619 -0.7301 -0.1852
  100MPD2    C3 1557   4.159   0.168   1.050  0.0650  0.0382  0.6316
  100MPD2    C4 1558   4.278   0.156   0.991  0.5260 -0.2407 -0.8721
  100MPD2    C5 1559   4.359   0.269   0.985 -0.2446 -0.9189 -0.7824
  100MPD2     H 1560   4.034   0.293   1.163  0.5612  1.5686  1.8153
  100MPD2    H1 1561   4.324   0.073   0.939  2.0856  0.0093  0.1272
  100MPD2    H2 1562   4.410   0.465   1.040  0.5294  0.3832  1.4070
  100MPD2    H3 1563   4.455   0.272   0.934  0.1936 -2.6829 -0.0669
  100MPD2     N 1564   4.061   0.063   1.051 -1.0558  0.2413  0.5530
  100MPD2    H5 1565   3.987   0.087   1.116 -1.9667  0.1338 -0.4468
  100MPD2    N1 1566   4.178   0.506   1.209 -0.4152 -0.6236 -0.4706
  100MPD2    H7 1567   4.082   0.516   1.240 -0.0493  3.7486 -0.7650
  101TMC2    C1 1568   0.089   1.234  13.241 -0.2421 -0.2718 -0.0604
  101TMC2    C2 1569   4.718   1.324  13.266  0.6949  0.0777 -0.2771
  101TMC2    C3 1570   4.702   1.425  13.175 -0.0523 -0.6319 -0.2127
  101TMC2    C4 1571   0.187   1.254  13.147  0.7051 -0.4808  0.1650
  101TMC2    C5 1572   0.166   1.359  13.060 -1.3257 -0.4710  0.6788
  101TMC2    C6 1573   0.049   1.436  13.069 -0.3039  0.2123 -0.0149
  101TMC2     C 1574   0.073   1.109  13.312  0.1680  0.6047  1.2167
  101TMC2     O 1575   4.735   1.096  13.405 -0.1888 -0.3833  0.1465
  101TMC2     H 1576   4.652   1.316  13.351  2.1889 -1.2246  0.7707
  101TMC2    H1 1577   0.281   1.201  13.133  1.3542  0.7972 -0.3418
  101TMC2    H2 1578   0.031   1.513  12.996  3.0163  1.2606  0.2948
  101TMC2    C7 1579   0.247   1.374  12.939  0.3512  0.2475  0.5469
  101TMC2    C8 1580   4.594   1.521  13.183  0.0726  0.2995  0.4462
  101TMC2    O1 1581   0.340   1.296  12.923  0.2181  0.2832 -0.3389
  101TMC2    O2 1582   4.588   1.629  13.124 -0.4704 -0.2711 -0.1404
  101TMC2    O5 1583   4.487   1.454  13.227  0.4740  0.0436 -0.2891
  101TMC2    H5 1584   4.496   1.359  13.246 -0.0865  0.2161  0.8616
  102MPD2     C 1585   0.231   0.785  13.197  1.0724 -0.3076 -0.0123
  102MPD2    C1 1586   0.164   0.873  13.283  0.3470 -0.4698  0.0871
  102MPD2    C2 1587   0.090   0.832  13.393  1.1172  0.1679  0.0742
  102MPD2    C3 1588   0.102   0.699  13.426  0.4295 -0.1411 -0.0093
  102MPD2    C4 1589   0.167   0.609  13.344  0.4990  1.0491 -0.0052
  102MPD2    C5 1590   0.234   0.650  13.229  0.9445  0.4553 -0.2287
  102MPD2     H 1591   0.024   0.893  13.453  0.5582 -0.9487  0.5981
  102MPD2    H1 1592   0.168   0.503  13.367  0.7079  0.6897 -1.6541
  102MPD2    H2 1593   0.283   0.820  13.108 -0.4207 -0.1366 -0.8136
  102MPD2    H3 1594   0.291   0.585  13.165 -0.9637 -1.2191 -0.2258
  102MPD2     N 1595   0.053   0.644  13.544 -0.4068 -0.1862  0.1599
  102MPD2    H5 1596   0.046   0.544  13.558  1.5066 -0.0433  2.1043
  102MPD2    N1 1597   0.156   1.009  13.247 -0.0010  0.1082 -0.3986
  102MPD2    H7 1598   0.211   1.040  13.168 -1.2024 -3.2093 -2.5193
  103TMC2    C1 1599   3.123   0.453  12.711 -0.0609 -0.2643 -0.1183
  103TMC2    C2 1600   3.193   0.536  12.631 -0.6795  0.1889 -0.3691
  103TMC2    C3 1601   3.243   0.650  12.680  0.0211  0.5389  0.0947
  103TMC2    C4 1602   3.117   0.475  12.846  0.8508 -0.1436 -0.0340
  103TMC2    C5 1603   3.189   0.584  12.890  0.2380 -1.3827 -0.3153
  103TMC2    C6 1604   3.254   0.672  12.813  0.3252  0.4026  0.0859
  103TMC2     C 1605   3.032   0.365  12.643  0.1204  0.4902 -0.2644
  103TMC2     O 1606   2.995   0.401  12.532  0.2686 -0.2699  0.4627
  103TMC2     H 1607   3.182   0.526  12.523  1.6058 -2.0959 -0.4095
  103TMC2    H1 1608   3.060   0.403  12.905  2.2151 -2.2161 -1.2333
  103TMC2    H2 1609   3.286   0.764  12.862  0.5329  0.5698 -0.3609
  103TMC2    C7 1610   3.213   0.588  13.040  0.1238 -0.2342  0.0516
  103TMC2    C8 1611   3.330   0.720  12.585 -0.7508 -0.0969 -0.3402
  103TMC2    O1 1612   3.327   0.634  13.062 -0.2070 -0.8626 -0.1440
  103TMC2    O2 1613   3.291   0.735  12.471 -0.7128 -0.0833  0.2210
  103TMC2    O5 1614   3.421   0.801  12.655  0.1463  0.0087 -0.3673
  103TMC2    H5 1615   3.459   0.762  12.736 -2.5840  1.2309  1.4824
  104MPD2     C 1616   2.852   0.086  12.790 -0.8093 -0.8293  0.6479
  104MPD2    C1 1617   2.870   0.190  12.703 -0.1167 -0.4303 -0.6578
  104MPD2    C2 1618   2.763   0.232  12.623  0.4685  0.7267 -0.2251
  104MPD2    C3 1619   2.643   0.159  12.629  0.1159  0.2740  0.1732
  104MPD2    C4 1620   2.627   0.049  12.712 -0.2061 -0.1682  0.2879
  104MPD2    C5 1621   2.726   0.017  12.792 -0.5982 -0.4962 -0.7337
  104MPD2     H 1622   2.770   0.320  12.559 -0.3934  0.0251 -1.2851
  104MPD2    H1 1623   2.529   0.001  12.711 -0.3176  0.0253  2.4850
  104MPD2    H2 1624   2.926   0.053  12.862 -0.4658 -0.8444  0.2843
  104MPD2    H3 1625   2.708   4.673  12.860 -1.1439 -0.0020 -0.2877
  104MPD2     N 1626   2.540   0.224  12.558 -0.1602  0.2755  0.8738
  104MPD2    H5 1627   2.574   0.305  12.506 -0.0845  1.3392  2.5822
  104MPD2    N1 1628   2.992   0.253  12.712  0.1485 -0.0604  0.6114
  104MPD2    H7 1629   3.050   0.223  12.790  1.5852 -1.2557 -0.9212
  105TMC2    C1 1630   4.386   4.475  17.646 -0.0784  0.5973  0.3496
  105TMC2    C2 1631   4.261   4.443  17.603 -0.0693 -0.0814 -0.0777
  105TMC2    C3 1632   4.155   4.457  17.683 -0.0598  0.6935 -0.1927
  105TMC2    C4 1633   4.400   4.534   0.013  0.2696  0.7891  0.0091
  105TMC2    C5 1634   4.287   4.565   0.089 -0.0506 -0.6199  0.6397
  105TMC2    C6 1635   4.165   4.518   0.054  0.5587  0.0325 -0.5020
  105TMC2     C 1636   4.480   4.507  17.537 -0.3776 -0.5680 -0.0928
  105TMC2     O 1637   4.560   4.418  17.510 -0.2828 -0.6965 -0.4865
  105TMC2     H 1638   4.246   4.403  17.503  1.2651 -0.0865 -0.2771
  105TMC2    H1 1639   4.495   4.572   0.047 -0.6418  0.6591  2.7180
  105TMC2    H2 1640   4.080   4.526   0.121  1.1998  0.2237  0.2960
  105TMC2    C7 1641   4.305   4.626   0.213 -0.2363 -0.1684  0.3671
  105TMC2    C8 1642   4.026   4.421  17.630 -0.1127 -0.4945  0.3937
  105TMC2    O1 1643   4.420   4.627   0.255 -0.2016  0.2419  0.9352
  105TMC2    O2 1644   4.016   4.337  17.540 -0.0337  0.1550 -0.0067
  105TMC2    O5 1645   3.933   4.511  17.661 -0.0383  0.4631 -0.0218
  105TMC2    H5 1646   3.973   4.580  17.719  1.4327 -1.1200  0.8456
  106MPD2     C 1647   4.666   0.083  17.167 -0.1705  0.1949  0.0920
  106MPD2    C1 1648   4.580   0.155  17.251 -0.0242 -0.6681 -0.0267
  106MPD2    C2 1649   4.510   0.088  17.355 -0.2586 -0.4353 -0.0028
  106MPD2    C3 1650   4.540   4.692  17.376 -0.8122 -0.9553  0.4375
  106MPD2    C4 1651   4.634   4.627  17.303  0.8288  0.0098 -0.2203
  106MPD2    C5 1652   4.700   4.696  17.207  0.0472 -0.3231 -0.0567
  106MPD2     H 1653   4.451   0.150  17.421 -0.4163 -2.1909  1.4996
  106MPD2    H1 1654   4.658   4.524  17.324  0.4187 -0.4419 -1.9509
  106MPD2    H2 1655   4.723   0.135  17.090 -0.3925  0.4530  0.1003
  106MPD2    H3 1656   0.051   4.652  17.165  1.5471  0.5482  2.2181
  106MPD2     N 1657   4.476   4.634  17.489  0.3906 -0.3705  0.0860
  106MPD2    H5 1658   4.425   4.706  17.538 -0.4723 -0.1765 -1.0884
  106MPD2    N1 1659   4.536   0.283  17.223  0.4021 -0.1228  0.5891
  106MPD2    H7 1660   4.461   0.313  17.285 -0.3832  3.1132 -1.8829
  107TMC2    C1 1661   0.283   0.161  11.908  0.0033  0.0920  0.1798
  107TMC2    C2 1662   0.320   0.290  11.938  0.6188  0.2370 -0.1042
  107TMC2    C3 1663   0.411   0.363  11.864  0.4903  0.1415 -0.2412
  107TMC2    C4 1664   0.347   0.102  11.799  0.7911 -0.4500 -0.3652
  107TMC2    C5 1665   0.432   0.175  11.722  0.0876  0.4260  0.3031
  107TMC2    C6 1666   0.466   0.299  11.758  0.6216 -0.8538 -0.1559
  107TMC2     C 1667   0.210   0.090  12.018 -0.3943 -0.0819 -0.3962
  107TMC2     O 1668   0.152   0.166  12.096  0.7674  0.4629  0.0542
  107TMC2     H 1669   0.288   0.331  12.033  1.1131  0.6027 -0.0986
  107TMC2    H1 1670   0.316   0.007  11.757 -1.4272  0.1489 -0.1017
  107TMC2    H2 1671   0.526   0.349  11.682  1.0942 -1.7454 -0.3666
  107TMC2    C7 1672   0.462   0.130  11.580  0.2879  0.1171 -0.2361
  107TMC2    C8 1673   0.494   0.455  11.936 -0.0353 -0.2328  0.5754
  107TMC2    O1 1674   0.503   0.211  11.496  0.3245  0.0638 -0.2223
  107TMC2    O2 1675   0.503   0.467  12.057 -0.1117 -0.1669 -0.1687
  107TMC2    O5 1676   0.599   0.484  11.852 -0.5158 -0.3518 -0.3121
  107TMC2    H5 1677   0.578   0.480  11.757 -0.6763 -2.7435 -0.1590
  108MPD2     C 1678   0.118   4.468  12.039 -0.3673 -0.0795  0.4290
  108MPD2    C1 1679   0.125   4.601  12.082  0.2756  0.7721  0.0473
  108MPD2    C2 1680   0.055   4.642  12.190 -1.1442 -0.2978  0.2321
  108MPD2    C3 1681   4.720   4.545  12.261 -0.8155 -0.8963 -0.0534
  108MPD2    C4 1682   4.720   4.413  12.224  0.7008 -0.4950 -0.2808
  108MPD2    C5 1683   0.046   4.373  12.106  0.1339 -0.0880  0.2676
  108MPD2     H 1684   0.046   0.010  12.208 -0.0753 -0.4566  1.6360
  108MPD2    H1 1685   4.664   4.343  12.284 -0.3182  0.1678 -0.4541
  108MPD2    H2 1686   0.185   4.428  11.964 -1.3373 -0.9621  0.0311
  108MPD2    H3 1687   0.054   4.268  12.079 -1.8964 -0.6608  1.8523
  108MPD2     N 1688   4.646   4.582  12.374 -0.1302 -0.1163 -0.0772
  108MPD2    H5 1689   4.562   4.526  12.390  0.2964 -0.5799  0.5302
  108MPD2    N1 1690   0.206   4.693  12.005  0.0374  0.0636 -0.0888
  108MPD2    H7 1691   0.270   4.661  11.933 -2.0662 -2.0572 -1.0158
  109TMC2    C1 1692   4.135   1.651   0.573 -0.4032  0.8469  0.0023
  109TMC2    C2 1693   4.185   1.525   0.561  0.2276 -0.1849 -0.0730
  109TMC2    C3 1694   4.318   1.512   0.518 -0.0138 -0.0424 -0.2145
  109TMC2    C4 1695   4.216   1.760   0.553  0.0736  0.2839  0.5302
  109TMC2    C5 1696   4.346   1.742   0.516  0.8708 -0.9650  0.0665
  109TMC2    C6 1697   4.402   1.620   0.489 -0.2154  0.4542 -0.2612
  109TMC2     C 1698   4.009   1.653   0.644 -0.2920  0.0358  0.9813
  109TMC2     O 1699   3.928   1.562   0.636  0.0080  0.2233 -0.2177
  109TMC2     H 1700   4.127   1.437   0.587  1.0363  0.4682  3.8818
  109TMC2    H1 1701   4.177   1.857   0.578  0.2818  0.9337 -1.6891
  109TMC2    H2 1702   4.509   1.613   0.476 -0.5104 -3.2581 -0.8011
  109TMC2    C7 1703   4.425   1.859   0.503 -0.5814  0.2220  0.3430
  109TMC2    C8 1704   4.383   1.381   0.537 -0.0361  0.3795 -0.2659
  109TMC2    O1 1705   4.375   1.958   0.551 -0.4063  0.0831  0.0606
  109TMC2    O2 1706   4.486   1.368   0.605  0.0997  0.0163 -0.0890
  109TMC2    O5 1707   4.332   1.294   0.448  0.9849  0.3668  0.5834
  109TMC2    H5 1708   4.259   1.337   0.399  2.1515  0.9749 -0.6299
  110MPD2     C 1709   3.705   1.912   0.976  0.0370  0.1192  0.1255
  110MPD2    C1 1710   3.835   1.956   0.996 -0.2446 -0.2580 -0.2191
  110MPD2    C2 1711   3.935   1.897   0.914  0.5983 -0.1329 -0.3253
  110MPD2    C3 1712   3.906   1.807   0.812  0.0788  0.2775  0.2291
  110MPD2    C4 1713   3.777   1.777   0.785 -0.2101  0.1035  0.2317
  110MPD2    C5 1714   3.681   1.822   0.873  1.0121  0.1568  0.2107
  110MPD2     H 1715   4.042   1.899   0.929  0.7115 -4.4399 -0.6138
  110MPD2    H1 1716   3.744   1.708   0.709  0.9372 -0.1075 -0.0790
  110MPD2    H2 1717   3.625   1.939   1.044 -0.8288  0.1315 -0.8958
  110MPD2    H3 1718   3.580   1.786   0.855  0.7811 -0.3185  2.5483
  110MPD2     N 1719   4.011   1.752   0.739 -0.1312  0.3707  0.2819
  110MPD2    H5 1720   4.099   1.795   0.767  0.8696 -0.1931 -1.9620
  110MPD2    N1 1721   3.865   2.038   1.106 -0.4821 -0.0145 -0.2700
  110MPD2    H7 1722   3.794   2.055   1.177 -2.0721  0.0932 -1.8782
  111TMC2    C1 1723   0.736   2.138  11.694 -0.0954  0.4775 -1.3280
  111TMC2    C2 1724   0.806   2.221  11.614 -0.7531  0.4799 -0.1777
  111TMC2    C3 1725   0.926   2.261  11.667 -0.3197  0.3738  0.2670
  111TMC2    C4 1726   0.768   2.111  11.817 -0.3371 -0.1150  0.2316
  111TMC2    C5 1727   0.891   2.142  11.864  0.3640  0.0425  0.4091
  111TMC2    C6 1728   0.978   2.218  11.788 -0.0784 -0.0495  0.4638
  111TMC2     C 1729   0.602   2.097  11.639  0.0896  0.2980  0.6182
  111TMC2     O 1730   0.595   2.087  11.516  0.4018  0.3323 -0.4552
  111TMC2     H 1731   0.794   2.227  11.507  0.8598  1.0220 -0.3188
  111TMC2    H1 1732   0.706   2.048  11.880 -0.6709  0.7821  0.8195
  111TMC2    H2 1733   1.073   2.254  11.826 -0.1893  0.1688  0.5352
  111TMC2    C7 1734   0.938   2.032  11.948  0.6251 -0.0242  0.1221
  111TMC2    C8 1735   1.017   2.342  11.587  0.0178 -0.4855 -1.0163
  111TMC2    O1 1736   0.859   1.958  12.006 -0.1654  0.7826 -0.0349
  111TMC2    O2 1737   1.132   2.354  11.627  0.5223 -0.0490 -0.2323
  111TMC2    O5 1738   0.938   2.434  11.531  0.0562 -0.0473 -1.0406
  111TMC2    H5 1739   0.841   2.443  11.544  0.0821 -1.4218  0.0994
  112MPD2     C 1740   0.121   1.912  11.683 -0.2013  0.1263 -0.0115
  112MPD2    C1 1741   0.194   1.934  11.576  0.2651  0.4170 -0.5199
  112MPD2    C2 1742   0.329   1.979  11.585  0.0319  0.1863  1.3326
  112MPD2    C3 1743   0.382   2.013  11.709 -0.9783  0.2791 -0.3940
  112MPD2    C4 1744   0.292   1.996  11.815  0.0333 -0.5567 -0.0797
  112MPD2    C5 1745   0.167   1.950  11.802  0.6924 -0.0844  0.3951
  112MPD2     H 1746   0.379   2.004  11.492 -3.7389  1.9857 -0.2167
  112MPD2    H1 1747   0.337   2.017  11.911 -2.0790 -0.3721  0.8777
  112MPD2    H2 1748   0.015   1.886  11.678  0.0801 -1.1438  0.5718
  112MPD2    H3 1749   0.103   1.947  11.890 -0.6985 -1.9811 -0.6712
  112MPD2     N 1750   0.502   2.068  11.735  0.3152  0.0622  0.1321
  112MPD2    H5 1751   0.520   2.094  11.832  0.2316  1.3072 -0.1859
  112MPD2    N1 1752   0.145   1.912  11.445 -0.9256 -0.0765 -0.9953
  112MPD2    H7 1753   0.202   1.948  11.370  3.6308 -2.5391  1.2869
  113TMC2    C1 1754   2.688   4.617   0.680 -0.2668  0.3538 -0.2974
  113TMC2    C2 1755   2.561   4.659   0.640  0.0779  0.3637 -0.0690
  113TMC2    C3 1756   2.465   4.560   0.634 -0.2391  0.3758  0.0367
  113TMC2    C4 1757   2.720   4.481   0.695 -0.5460 -0.4532 -0.0781
  113TMC2    C5 1758   2.613   4.395   0.699 -0.5299 -0.0875 -0.6683
  113TMC2    C6 1759   2.486   4.428   0.664  0.2270 -0.2522 -0.7277
  113TMC2     C 1760   2.765   4.713   0.753 -0.4490 -0.5647 -0.7551
  113TMC2     O 1761   2.709   0.078   0.775  0.3301  0.6313 -0.4905
  113TMC2     H 1762   2.539   0.025   0.621  0.8756  0.7061  0.9064
  113TMC2    H1 1763   2.818   4.447   0.725 -0.8285  0.2690  1.6611
  113TMC2    H2 1764   2.402   4.360   0.669  0.3092 -0.1672  1.8440
  113TMC2    C7 1765   2.650   4.275   0.768 -0.4708 -0.1667 -0.3200
  113TMC2    C8 1766   2.330   4.611   0.625  0.1910  0.3760 -1.3820
  113TMC2    O1 1767   2.768   4.243   0.756 -0.2401 -0.4042 -0.0125
  113TMC2    O2 1768   2.239   4.557   0.685 -0.1920 -0.3768 -0.5283
  113TMC2    O5 1769   2.318   4.692   0.518  0.4465 -0.1825 -0.2872
  113TMC2    H5 1770   2.402   4.701   0.469 -0.6351  2.2526 -1.6926
  114MPD2     C 1771   3.233   0.187   0.892 -0.9815 -0.7320 -0.0569
  114MPD2    C1 1772   3.116   0.239   0.834  0.2490 -0.3739 -0.9701
  114MPD2    C2 1773   3.001   0.160   0.804  0.4023 -0.0937  0.3340
  114MPD2    C3 1774   3.004   0.029   0.834 -0.0139  0.0948  0.1752
  114MPD2    C4 1775   3.122   4.717   0.891 -0.0887 -0.2719 -0.2906
  114MPD2    C5 1776   3.229   0.056   0.922 -0.6616  0.6217  0.2357
  114MPD2     H 1777   2.914   0.206   0.758  1.2379  0.8857 -0.2594
  114MPD2    H1 1778   3.123   4.612   0.916 -2.1862 -0.2242 -0.0419
  114MPD2    H2 1779   3.326   0.231   0.927  1.1351 -1.9144 -4.1305
  114MPD2    H3 1780   3.300   0.020   0.996  1.6564  3.2502 -0.7369
  114MPD2     N 1781   2.892   4.679   0.800 -0.5673 -0.1769  0.0200
  114MPD2    H5 1782   2.920   4.581   0.801 -1.8435 -0.5374  0.4355
  114MPD2    N1 1783   3.092   0.369   0.825 -0.4826  0.3458  0.0139
  114MPD2    H7 1784   3.012   0.401   0.771 -1.0538 -0.3494  0.4368
  115TMC2    C1 1785   3.609   2.092  17.661 -0.6807 -0.2265  0.6806
  115TMC2    C2 1786   3.751   2.093  17.668 -0.1097 -0.1081 -0.2542
  115TMC2    C3 1787   3.822   2.192  17.729 -1.4553  0.0531  0.5860
  115TMC2    C4 1788   3.541   2.200  17.709  0.7165  0.4221  0.1703
  115TMC2    C5 1789   3.615   2.307   0.006 -0.9543 -0.0014  0.2846
  115TMC2    C6 1790   3.755   2.310   0.021 -0.4720 -0.1975  0.5308
  115TMC2     C 1791   3.542   1.981  17.603  0.2840 -0.0575 -0.6696
  115TMC2     O 1792   3.616   1.908  17.539  0.2022  0.1465 -0.5659
  115TMC2     H 1793   3.796   1.998  17.643 -1.4233 -0.6947 -0.3783
  115TMC2    H1 1794   3.434   2.208  17.696  0.8163  1.3830 -0.0965
  115TMC2    H2 1795   3.813   2.394   0.057  1.6036 -0.2521 -2.6614
  115TMC2    C7 1796   3.544   2.430   0.042  0.0834 -1.3180 -0.2434
  115TMC2    C8 1797   3.956   2.175   0.021 -0.2939 -0.1507  0.1384
  115TMC2    O1 1798   3.431   2.429   0.096 -1.2310  0.2913  0.3681
  115TMC2    O2 1799   4.022   2.078  17.740 -0.4866  0.3101 -0.0417
  115TMC2    O5 1800   3.968   2.228   0.146  0.1977 -0.4122 -0.2796
  115TMC2    H5 1801   3.892   2.286   0.169  0.6082 -0.1850  0.5113
  116MPD2     C 1802   3.176   1.626  17.551 -0.1450  0.5066  0.0115
  116MPD2    C1 1803   3.277   1.661  17.468 -0.5319  0.2354 -0.1140
  116MPD2    C2 1804   3.360   1.768  17.499 -0.3714 -0.4475  0.2667
  116MPD2    C3 1805   3.340   1.843  17.615  0.4279 -0.2712 -0.0775
  116MPD2    C4 1806   3.245   1.806  17.703  0.2752  0.1139 -0.2248
  116MPD2    C5 1807   3.165   1.701  17.673 -0.5919  0.2727  1.0512
  116MPD2     H 1808   3.434   1.798  17.426  1.5976 -1.1534  1.9673
  116MPD2    H1 1809   3.225   1.859   0.045  0.4702  2.8367 -1.7386
  116MPD2    H2 1810   3.108   1.543  17.533  3.3977 -2.5630  0.6481
  116MPD2    H3 1811   3.076   1.681  17.732 -0.8856  1.1212  0.8850
  116MPD2     N 1812   3.416   1.954  17.652 -0.3424  0.0217 -0.2405
  116MPD2    H5 1813   3.392   2.012  17.732 -2.5201 -0.7607 -0.3217
  116MPD2    N1 1814   3.302   1.596  17.346 -0.5345  0.5673  0.3150
  116MPD2    H7 1815   3.379   1.633  17.292 -1.2641  2.3478  0.4945
  117TMC2    C1 1816   2.486   3.547  14.638 -0.0628  0.2037 -0.6961
  117TMC2    C2 1817   2.537   3.488  14.748 -0.3419  0.6040  0.1815
  117TMC2    C3 1818   2.626   3.561  14.824 -0.4815 -0.0213 -0.6222
  117TMC2    C4 1819   2.534   3.663  14.578  0.0778 -0.0577  0.0168
  117TMC2    C5 1820   2.637   3.723  14.649  0.6100  0.7993 -0.5227
  117TMC2    C6 1821   2.685   3.670  14.769 -0.4988  0.3403  0.3230
  117TMC2     C 1822   2.411   3.451  14.555  0.5364 -0.0907  0.1553
  117TMC2     O 1823   2.367   3.353  14.615 -0.4476 -0.0261  0.0021
  117TMC2     H 1824   2.514   3.391  14.791 -0.4402 -0.0709 -1.4088
  117TMC2    H1 1825   2.487   3.704  14.489  1.9414  0.8996 -0.5196
  117TMC2    H2 1826   2.760   3.722  14.827  1.4386 -2.3389  0.2421
  117TMC2    C7 1827   2.716   3.841  14.606  0.3803 -0.1273  0.3257
  117TMC2    C8 1828   2.699   3.491  14.922  0.1351 -0.0829  0.3169
  117TMC2    O1 1829   2.825   3.848  14.666 -0.0936  0.1272  0.5547
  117TMC2    O2 1830   2.691   3.512  15.043 -0.1112 -0.8194  0.2730
  117TMC2    O5 1831   2.781   3.406  14.859 -0.3336 -0.1502 -0.0435
  117TMC2    H5 1832   2.785   3.416  14.762 -0.0577 -0.9304 -0.1127
  118MPD2     C 1833   2.637   4.071  14.342 -0.1574 -0.1357 -0.1803
  118MPD2    C1 1834   2.716   4.004  14.429  0.3547  0.3092  0.0351
  118MPD2    C2 1835   2.847   4.041  14.431  0.8479  0.9631 -0.3133
  118MPD2    C3 1836   2.900   4.144  14.348 -0.2911 -0.4325 -0.6696
  118MPD2    C4 1837   2.809   4.204  14.265  0.0644  0.1983 -0.0541
  118MPD2    C5 1838   2.678   4.170  14.263 -0.1255 -0.1811  0.2927
  118MPD2     H 1839   2.910   3.987  14.500  0.0103  1.2892  0.7091
  118MPD2    H1 1840   2.844   4.272  14.188 -2.3885 -0.5741 -1.8322
  118MPD2    H2 1841   2.534   4.037  14.338 -0.0688 -0.3828 -0.3836
  118MPD2    H3 1842   2.616   4.222  14.191 -0.0298 -0.8770 -0.2904
  118MPD2     N 1843   3.033   4.182  14.340 -0.5410 -0.1404  0.2434
  118MPD2    H5 1844   3.064   4.246  14.268 -1.0936 -1.3641 -1.0965
  118MPD2    N1 1845   2.658   3.900  14.502 -0.2613  0.1953 -0.8280
  118MPD2    H7 1846   2.562   3.877  14.482 -0.8758  1.6181  0.4068
  119TMC2    C1 1847   4.685   0.081  13.751  0.3265 -1.2125  0.5823
  119TMC2    C2 1848   4.712   4.704  13.690  0.0138  0.4459  0.7308
  119TMC2    C3 1849   0.007   4.606  13.777  1.0400  1.0457  1.3722
  119TMC2    C4 1850   4.656   0.088  13.885 -0.3490  0.0755 -0.2398
  119TMC2    C5 1851   4.678   4.721  13.973  0.0139 -0.5485  0.2447
  119TMC2    C6 1852   0.000   4.612  13.915 -0.0472  0.8211  0.2290
  119TMC2     C 1853   0.007   0.202  13.699 -0.0378  0.0377  0.1210
  119TMC2     O 1854   0.024   0.292  13.786 -0.1858 -0.0646  0.9369
  119TMC2     H 1855   4.729   4.691  13.584  0.9546  0.1442  0.9223
  119TMC2    H1 1856   4.630   0.181  13.934  2.3540  1.1451 -0.8522
  119TMC2    H2 1857   0.021   4.530  13.983 -0.3886  1.4152  1.0556
  119TMC2    C7 1858   4.719   0.021  14.104  0.2306  0.6477  0.0096
  119TMC2    C8 1859   0.086   4.493  13.726  0.4431  0.2603  0.0647
  119TMC2    O1 1860   0.031   0.132  14.114 -0.2937 -0.1754  0.4597
  119TMC2    O2 1861   0.090   4.471  13.608  0.0479 -0.4809  0.1537
  119TMC2    O5 1862   0.196   4.488  13.808 -0.0702  0.0638 -0.0409
  119TMC2    H5 1863   0.173   4.509  13.901 -1.4479 -2.3451  0.1552
  120MPD2     C 1864   0.412   0.387  13.432 -0.2455  0.4982 -0.4931
  120MPD2    C1 1865   0.369   0.410  13.560  0.1228 -0.4513  0.0871
  120MPD2    C2 1866   0.252   0.347  13.601  0.1736  0.2712  0.6630
  120MPD2    C3 1867   0.175   0.263  13.522 -0.7399  0.8258 -0.0114
  120MPD2    C4 1868   0.218   0.237  13.392  0.3618 -0.4590 -1.0085
  120MPD2    C5 1869   0.339   0.298  13.351  0.0722 -0.0877 -0.3361
  120MPD2     H 1870   0.220   0.349  13.705 -2.4602 -2.3202 -0.0739
  120MPD2    H1 1871   0.170   0.174  13.318 -0.5858 -0.2791 -0.5444
  120MPD2    H2 1872   0.494   0.446  13.393 -0.0728  0.2820 -0.4643
  120MPD2    H3 1873   0.371   0.292  13.248 -1.7639 -1.4268 -0.8395
  120MPD2     N 1874   0.061   0.190  13.568  0.2623  0.2596  0.0166
  120MPD2    H5 1875   0.022   0.122  13.503  2.2785 -1.2740  0.3909
  120MPD2    N1 1876   0.448   0.492  13.651 -0.0146 -0.4044  0.0624
  120MPD2    H7 1877   0.542   0.520  13.624 -0.9580  3.4854  0.7434
  121TMC2    C1 1878   2.464   1.405  14.167  0.1590  0.6297  0.6848
  121TMC2    C2 1879   2.501   1.524  14.215  0.0714  0.8251 -0.1436
  121TMC2    C3 1880   2.401   1.604  14.269  0.1342 -0.5243  0.2864
  121TMC2    C4 1881   2.336   1.359  14.163  0.4927 -0.5501 -0.0940
  121TMC2    C5 1882   2.242   1.448  14.209 -0.0684  0.8935 -0.8780
  121TMC2    C6 1883   2.267   1.565  14.267  0.0801  0.1049 -0.4761
  121TMC2     C 1884   2.549   1.335  14.069 -1.0054  0.0949  0.2775
  121TMC2     O 1885   2.530   1.214  14.064 -0.0793  0.1688 -0.1086
  121TMC2     H 1886   2.600   1.561  14.236  1.1046 -0.5414 -2.6925
  121TMC2    H1 1887   2.309   1.261  14.128 -3.1612  1.5041 -2.9560
  121TMC2    H2 1888   2.187   1.621  14.314 -0.4589 -0.0237 -1.2293
  121TMC2    C7 1889   2.106   1.402  14.203 -0.1557  0.5751  0.3939
  121TMC2    C8 1890   2.446   1.673  14.388  0.4468 -0.7326 -0.3693
  121TMC2    O1 1891   2.084   1.280  14.212 -0.1952  0.0977  0.1999
  121TMC2    O2 1892   2.565   1.678  14.426 -0.0568  0.3170 -0.7108
  121TMC2    O5 1893   2.355   1.765  14.421 -0.6031  0.0067  0.2065
  121TMC2    H5 1894   2.272   1.753  14.370  0.5174  0.6724 -1.7599
  122MPD2     C 1895   2.687   1.253  13.827  0.2906  0.2345  0.9374
  122MPD2    C1 1896   2.679   1.380  13.865  0.6281  0.1834 -0.2340
  122MPD2    C2 1897   2.728   1.465  13.772 -0.0272  0.0446 -0.3985
  122MPD2    C3 1898   2.787   1.430  13.649 -0.2776 -0.5176  0.5985
  122MPD2    C4 1899   2.792   1.299  13.620 -0.5220 -0.1688 -0.5228
  122MPD2    C5 1900   2.735   1.209  13.706 -0.0007 -0.3855 -0.6285
  122MPD2     H 1901   2.728   1.569  13.801 -0.7830 -0.2751  0.7249
  122MPD2    H1 1902   2.821   1.262  13.523 -1.2820 -1.6498 -0.1848
  122MPD2    H2 1903   2.655   1.172  13.892 -0.3212  0.5927  1.0871
  122MPD2    H3 1904   2.716   1.108  13.673 -1.6415 -0.2081 -0.2113
  122MPD2     N 1905   2.845   1.517  13.547  0.4042 -0.1819 -0.4811
  122MPD2    H5 1906   2.865   1.472  13.458  0.8873  0.3139 -0.6266
  122MPD2    N1 1907   2.616   1.421  13.986 -0.2432 -0.0499  0.1361
  122MPD2    H7 1908   2.612   1.519  14.012  1.3108  0.0124  0.1309
  123TMC2    C1 1909   0.489   0.445  10.974 -0.1471 -0.2567 -0.2400
  123TMC2    C2 1910   0.542   0.539  11.062 -0.0451  0.8977 -0.4479
  123TMC2    C3 1911   0.619   0.637  10.999 -0.0546 -0.1023  0.0126
  123TMC2    C4 1912   0.506   0.442  10.837 -0.1604 -0.1228  0.3697
  123TMC2    C5 1913   0.593   0.534  10.787 -0.3864  0.5774 -0.6893
  123TMC2    C6 1914   0.638   0.635  10.863  0.3933 -0.0615 -0.1282
  123TMC2     C 1915   0.419   0.334  11.027  0.0615 -0.3270 -0.6861
  123TMC2     O 1916   0.451   0.306  11.140  0.0837  0.1226 -0.1592
  123TMC2     H 1917   0.518   0.547  11.167  1.6649 -0.2468  0.0226
  123TMC2    H1 1918   0.475   0.359  10.775 -1.9050  1.0006 -0.2787
  123TMC2    H2 1919   0.696   0.712  10.814 -1.1108  2.7194  2.5088
  123TMC2    C7 1920   0.616   0.527  10.644  0.2933  0.6119 -0.0753
  123TMC2    C8 1921   0.659   0.758  11.070 -0.0815  0.5290 -0.1829
  123TMC2    O1 1922   0.556   0.443  10.584 -0.1279  0.0932  0.6605
  123TMC2    O2 1923   0.757   0.826  11.031 -0.1292 -0.4104  0.0662
  123TMC2    O5 1924   0.553   0.794  11.137 -0.0859 -0.1646 -0.4792
  123TMC2    H5 1925   0.475   0.736  11.125 -0.0681 -0.6125  1.4923
  124MPD2     C 1926   0.195   4.622  10.925  0.5198 -0.2938 -0.2779
  124MPD2    C1 1927   0.190   4.700  10.810 -0.3745 -0.4441  1.0956
  124MPD2    C2 1928   0.225   0.096  10.831 -0.2623 -0.0463 -0.3527
  124MPD2    C3 1929   0.281   0.142  10.941  0.2969  0.7370 -0.3930
  124MPD2    C4 1930   0.291   0.054  11.051 -0.4175 -0.1589 -0.7094
  124MPD2    C5 1931   0.231   4.665  11.047 -0.5743 -0.1410 -0.1883
  124MPD2     H 1932   0.213   0.168  10.751 -0.5097  0.9997  0.6416
  124MPD2    H1 1933   0.339   0.088  11.142 -0.1252 -0.2709 -0.8204
  124MPD2    H2 1934   0.163   4.519  10.920 -0.5490 -0.0142  0.6440
  124MPD2    H3 1935   0.226   4.600  11.133  4.3772 -1.6243 -0.9922
  124MPD2     N 1936   0.338   0.265  10.936  0.0113  0.1659 -0.4746
  124MPD2    H5 1937   0.316   0.315  10.850  2.3548  2.5992  0.3504
  124MPD2    N1 1938   0.157   4.641  10.684  0.3985  0.3005  0.1522
  124MPD2    H7 1939   0.116   4.548  10.685 -2.1299  1.3965 -1.1331
  125TMC2    C1 1940   1.984   1.223   9.861 -0.7876  0.1137 -0.1013
  125TMC2    C2 1941   1.867   1.233   9.936  0.1644 -0.2370 -0.3129
  125TMC2    C3 1942   1.839   1.359   9.979 -0.7557  0.1936  0.8334
  125TMC2    C4 1943   2.062   1.328   9.815  0.1350  0.3940  0.1429
  125TMC2    C5 1944   2.018   1.454   9.864 -0.2588 -0.3481 -0.3032
  125TMC2    C6 1945   1.905   1.475   9.939 -0.6152  0.3822 -0.4461
  125TMC2     C 1946   2.015   1.091   9.820  0.7172 -0.0125  0.0943
  125TMC2     O 1947   1.920   1.016   9.801  0.2658  0.7333  0.1040
  125TMC2     H 1948   1.802   1.147   9.949 -1.4773  0.0856 -6.3253
  125TMC2    H1 1949   2.150   1.323   9.752 -0.6916 -1.8138 -0.8595
  125TMC2    H2 1950   1.870   1.569   9.980  0.9275  0.6116  0.3180
  125TMC2    C7 1951   2.064   1.586   9.811  0.1139  0.0720 -0.2176
  125TMC2    C8 1952   1.728   1.383  10.068  0.0761  0.0515 -0.2439
  125TMC2    O1 1953   1.992   1.678   9.850  0.4142 -0.5796 -0.2892
  125TMC2    O2 1954   1.665   1.486  10.075  0.2322  0.1529  0.0356
  125TMC2    O5 1955   1.755   1.305  10.174 -0.5907 -0.1682 -0.9579
  125TMC2    H5 1956   1.830   1.243  10.159  0.5112  0.6337  1.3122
  126MPD1     C 1957   2.316   0.747   9.569 -0.1205 -0.6521  0.2467
  126MPD1    C1 1958   2.397   0.841   9.616 -0.2285 -0.7797 -0.2888
  126MPD1    C2 1959   2.344   0.940   9.692  0.5088 -0.1335  0.3764
  126MPD1    C3 1960   2.206   0.959   9.717 -0.1619  0.2417  0.0904
  126MPD1    C4 1961   2.126   0.870   9.647  0.8096  0.0188 -0.6187
  126MPD1    C5 1962   2.180   0.755   9.581 -0.5112  1.3615  0.0625
  126MPD1     H 1963   2.409   1.013   9.739  0.3837  0.9299 -1.1330
  126MPD1    H1 1964   2.018   0.872   9.658  1.1156  1.4949  2.1604
  126MPD1    H2 1965   2.351   0.659   9.517  0.9224 -0.5839  0.8422
  126MPD1    H3 1966   2.119   0.681   9.531 -0.2441 -0.2836  2.1439
  126MPD1     N 1967   2.146   1.069   9.791  0.0445  0.8219 -0.2617
  126MPD1    H5 1968   2.203   1.139   9.837 -0.0953  0.7721 -0.0133
  126MPD1    N1 1969   2.535   0.819   9.621  0.2931 -0.5930 -0.0957
  126MPD1    H6 1970   2.589   0.904   9.635 -1.5756 -0.0191  3.4959
  126MPD1    H7 1971   2.578   0.759   9.551  1.4995  0.3420 -0.1544
  127TMC2    C1 1972   2.391   1.093  10.396  0.2793  0.3095  0.2369
  127TMC2    C2 1973   2.343   1.186  10.484  0.2001 -0.6776  0.1110
  127TMC2    C3 1974   2.239   1.142  10.563  0.3299  0.2712 -0.6888
  127TMC2    C4 1975   2.346   0.964  10.392  0.5966 -0.0444 -0.7493
  127TMC2    C5 1976   2.256   0.920  10.485  0.3331  0.0203 -0.0216
  127TMC2    C6 1977   2.196   1.007  10.569 -0.3399 -0.6496 -0.1247
  127TMC2     C 1978   2.511   1.129  10.321  0.3665 -0.5328  0.1364
  127TMC2     O 1979   2.566   1.234  10.343 -0.2467  0.1739 -0.1479
  127TMC2     H 1980   2.387   1.285  10.484 -0.0207 -0.5825 -0.6861
  127TMC2    H1 1981   2.389   0.885  10.331  1.2510  1.0443 -1.6724
  127TMC2    H2 1982   2.154   0.983  10.666  0.6737  1.2378  0.7822
  127TMC2    C7 1983   2.278   0.786  10.527 -0.7866  1.1274  0.0214
  127TMC2    C8 1984   2.180   1.246  10.647  0.2321 -0.0100 -0.7748
  127TMC2    O1 1985   2.369   0.725  10.483  0.0828 -0.3118  0.4068
  127TMC2    O2 1986   2.233   1.355  10.646  0.3144 -0.9003  0.5871
  127TMC2    O5 1987   2.052   1.219  10.667  0.1126  0.0152  0.3685
  127TMC2    H5 1988   2.020   1.127  10.678 -1.5477  0.5599  0.0740
  128MPD2     C 1989   2.658   0.971  10.029  0.1016  0.1043  0.6123
  128MPD2    C1 1990   2.655   1.043  10.146 -0.1948  0.2978  0.0400
  128MPD2    C2 1991   2.768   1.114  10.169 -0.3720 -0.7436  0.2362
  128MPD2    C3 1992   2.878   1.116  10.079  0.4560  0.3647 -0.0914
  128MPD2    C4 1993   2.879   1.030   9.974  0.5814 -0.0388  0.4599
  128MPD2    C5 1994   2.765   0.961   9.944  0.4149  1.3220  0.0953
  128MPD2     H 1995   2.773   1.197  10.239 -0.9150  0.0761 -0.7090
  128MPD2    H1 1996   2.954   1.036   9.896 -0.9049  2.1322 -0.8223
  128MPD2    H2 1997   2.566   0.920  10.003 -0.2509  0.6597  0.7785
  128MPD2    H3 1998   2.765   0.905   9.851  0.4044  1.6542 -0.1034
  128MPD2     N 1999   2.978   1.210  10.107  0.0822  0.0875 -0.6155
  128MPD2    H5 2000   2.976   1.245  10.202  0.1945 -1.3350 -0.1008
  128MPD2    N1 2001   2.537   1.043  10.215 -0.0616 -0.8753  0.4503
  128MPD2    H7 2002   2.461   0.981  10.189 -0.5118 -0.8887  1.7538
  129TMC2    C1 2003   4.447   2.633   2.146  0.3097  0.2083  0.1438
  129TMC2    C2 2004   4.354   2.605   2.241  0.3978 -0.0476  0.3716
  129TMC2    C3 2005   4.330   2.472   2.267 -0.6083 -0.1937 -0.0993
  129TMC2    C4 2006   4.508   2.530   2.076 -0.2835  0.3641 -0.1444
  129TMC2    C5 2007   4.484   2.404   2.109  0.0220 -0.4028 -0.0478
  129TMC2    C6 2008   4.388   2.369   2.197  0.7805 -0.1740  0.6251
  129TMC2     C 2009   4.491   2.772   2.136 -0.0076 -0.7698  0.6816
  129TMC2     O 2010   4.466   2.844   2.231  0.4133 -0.5615 -0.2484
  129TMC2     H 2011   4.305   2.680   2.301  1.6734  0.9586  0.1513
  129TMC2    H1 2012   4.584   2.557   2.003 -0.9701  0.8413 -0.6808
  129TMC2    H2 2013   4.362   2.265   2.211 -3.3006  0.5830 -1.1102
  129TMC2    C7 2014   4.564   2.297   2.052 -0.0921 -1.0657 -0.2972
  129TMC2    C8 2015   4.210   2.439   2.335 -0.2404  0.7834 -0.3356
  129TMC2    O1 2016   4.513   2.183   2.056  0.3116 -0.2051  0.1697
  129TMC2    O2 2017   4.106   2.502   2.336  0.8396  0.5224  0.1026
  129TMC2    O5 2018   4.237   2.324   2.407  0.0481  0.0087 -0.0472
  129TMC2    H5 2019   4.335   2.318   2.409  0.0114 -0.4624  0.2729
  130MPD2     C 2020   4.671   2.996   2.096  0.5539  0.1717  0.0784
  130MPD2    C1 2021   4.629   2.913   1.997  0.6098 -0.5482  0.2146
  130MPD2    C2 2022   4.669   2.944   1.868  0.2339 -0.0607 -0.2071
  130MPD2    C3 2023   0.017   3.040   1.838 -0.6395 -0.6049 -0.2081
  130MPD2    C4 2024   0.054   3.126   1.942  0.5818  0.1877 -0.1614
  130MPD2    C5 2025   0.009   3.105   2.068 -0.2349  0.6016  0.1165
  130MPD2     H 2026   4.639   2.883   1.784  0.7423 -2.2056  1.1615
  130MPD2    H1 2027   0.114   3.216   1.934 -0.9962  1.2843  0.2663
  130MPD2    H2 2028   4.637   2.991   2.199 -0.7754 -0.1413 -0.3822
  130MPD2    H3 2029   0.047   3.163   2.151  1.2747 -2.5026  1.6309
  130MPD2     N 2030   0.044   3.057   1.702  0.2739  0.3988  0.4187
  130MPD2    H5 2031   0.000   2.997   1.633 -1.7276  2.8826 -0.4302
  130MPD2    N1 2032   4.557   2.801   2.017 -0.2752  0.2671  0.5271
  130MPD2    H7 2033   4.546   2.741   1.936  0.1303 -0.2722  0.8715
  131TMC2    C1 2034   0.446   0.709  10.057 -0.0809 -0.1502 -0.1571
  131TMC2    C2 2035   0.476   0.757  10.178 -0.0429  0.1188  0.2818
  131TMC2    C3 2036   0.501   0.893  10.186 -0.5386  0.1211 -0.1425
  131TMC2    C4 2037   0.456   0.782   9.943  0.7738  0.1874 -0.1580
  131TMC2    C5 2038   0.483   0.914   9.958  0.2442 -0.5523  0.3225
  131TMC2    C6 2039   0.512   0.970  10.077 -0.2511  0.8237  0.3283
  131TMC2     C 2040   0.393   0.564  10.061 -0.1172 -0.4592 -0.4131
  131TMC2     O 2041   0.413   0.494  10.160  0.6474 -0.3304  1.0020
  131TMC2     H 2042   0.456   0.696  10.266  0.9118  1.1206  1.1982
  131TMC2    H1 2043   0.414   0.743   9.852  0.1411 -3.5563  1.7417
  131TMC2    H2 2044   0.523   1.078  10.087 -1.3153  0.8137  1.6102
  131TMC2    C7 2045   0.479   0.989   9.833 -0.0417 -0.0141  1.0838
  131TMC2    C8 2046   0.553   0.941  10.307  0.0994  0.1807 -0.9808
  131TMC2    O1 2047   0.444   0.934   9.732  0.2862  0.0684 -0.0339
  131TMC2    O2 2048   0.505   0.900  10.410  0.2468  0.3670  0.1927
  131TMC2    O5 2049   0.643   1.041  10.287 -0.3462 -0.1568 -0.0617
  131TMC2    H5 2050   0.683   1.029  10.198 -2.3486  1.6102 -1.2082
  132MPD2     C 2051   0.186   0.383   9.802 -0.5824 -0.0786  0.3551
  132MPD2    C1 2052   0.244   0.406   9.925 -0.1933 -0.2466 -0.0965
  132MPD2    C2 2053   0.249   0.295  10.017 -0.3698 -0.2703  0.3355
  132MPD2    C3 2054   0.173   0.178   9.987  0.2220 -0.1396 -0.4246
  132MPD2    C4 2055   0.106   0.164   9.865  0.5316 -0.2265  1.3083
  132MPD2    C5 2056   0.123   0.262   9.772  0.1953 -0.5913  0.3051
  132MPD2     H 2057   0.301   0.301  10.112 -0.9276 -0.8389  0.6780
  132MPD2    H1 2058   0.076   0.065   9.832 -0.8939  0.3832  0.7612
  132MPD2    H2 2059   0.190   0.453   9.719 -1.4787  2.6067  2.5774
  132MPD2    H3 2060   0.074   0.244   9.677  0.2505 -0.3947  0.2396
  132MPD2     N 2061   0.182   0.076  10.079 -0.0712 -0.2248  0.6561
  132MPD2    H5 2062   0.250   0.088  10.153  1.8415  1.1344 -1.3350
  132MPD2    N1 2063   0.318   0.530   9.951  0.3874 -0.4344  0.3212
  132MPD2    H7 2064   0.301   0.609   9.889 -0.7516 -0.6538  0.3515
  133TMC2    C1 2065   2.644   1.264   9.361  0.1833 -0.0849 -0.5736
  133TMC2    C2 2066   2.536   1.299   9.435  0.4088  0.6102 -1.0331
  133TMC2    C3 2067   2.424   1.219   9.441 -0.7129  0.1199  0.0494
  133TMC2    C4 2068   2.650   1.147   9.294 -0.0261  0.4585  0.0557
  133TMC2    C5 2069   2.544   1.061   9.318  0.4475 -0.0336  0.0442
  133TMC2    C6 2070   2.435   1.094   9.396  0.1680 -0.2723 -0.1009
  133TMC2     C 2071   2.761   1.348   9.375 -0.1611 -0.1534  0.3327
  133TMC2     O 2072   2.774   1.420   9.472 -0.3394  0.0077  0.0993
  133TMC2     H 2073   2.522   1.392   9.489  2.7934  0.9594 -1.0367
  133TMC2    H1 2074   2.735   1.119   9.233  0.5973 -0.8192  1.5131
  133TMC2    H2 2075   2.359   1.019   9.417  0.2265 -0.3127 -0.0307
  133TMC2    C7 2076   2.545   0.944   9.226 -0.0092 -0.0839 -1.2795
  133TMC2    C8 2077   2.322   1.259   9.533 -0.3381  0.0519  0.2518
  133TMC2    O1 2078   2.659   0.908   9.191 -0.4064  0.0340 -0.1878
  133TMC2    O2 2079   2.335   1.364   9.603  0.3197 -0.4124 -0.3641
  133TMC2    O5 2080   2.204   1.202   9.497  0.1625 -0.1666 -0.1924
  133TMC2    H5 2081   2.213   1.130   9.431  1.4472  1.3724 -1.7129
  134MPD2     C 2082   3.032   1.361   9.128  0.0988 -0.2788  0.5698
  134MPD2    C1 2083   2.972   1.378   9.253  0.2151  0.1255  0.1135
  134MPD2    C2 2084   3.047   1.420   9.358  0.8766 -0.5431 -0.0998
  134MPD2    C3 2085   3.185   1.445   9.339  0.1052 -0.0439 -0.6826
  134MPD2    C4 2086   3.231   1.440   9.215 -0.2292  0.0098  0.3633
  134MPD2    C5 2087   3.153   1.405   9.111 -0.3275  0.0538 -0.9400
  134MPD2     H 2088   3.003   1.428   9.457  1.1654 -1.0081  0.0692
  134MPD2    H1 2089   3.338   1.455   9.201 -0.6203  1.5155 -0.9934
  134MPD2    H2 2090   2.972   1.318   9.049  0.9343 -0.0955 -0.1547
  134MPD2    H3 2091   3.196   1.387   9.013  0.7101  0.0159 -0.4765
  134MPD2     N 2092   3.278   1.464   9.445  0.1145  0.1850 -0.4067
  134MPD2    H5 2093   3.374   1.486   9.422  0.9081 -1.2236  1.6363
  134MPD2    N1 2094   2.835   1.351   9.261 -0.5871  0.3404  0.8379
  134MPD2    H7 2095   2.800   1.307   9.176 -1.7808  1.7819  0.5733
  135TMC2    C1 2096   1.283   2.138   9.865  0.2025  0.0426  0.2987
  135TMC2    C2 2097   1.269   2.005   9.885 -0.4547  0.9202 -1.1653
  135TMC2    C3 2098   1.247   1.959  10.014 -0.5608 -0.4213  0.0773
  135TMC2    C4 2099   1.266   2.230   9.971  0.3283 -0.0720 -0.2110
  135TMC2    C5 2100   1.224   2.170  10.092 -0.2602  0.2678 -0.5973
  135TMC2    C6 2101   1.214   2.041  10.118 -0.2924 -0.2046 -0.6776
  135TMC2     C 2102   1.333   2.179   9.735  0.2700 -0.2956  0.6509
  135TMC2     O 2103   1.298   2.293   9.701 -0.0608 -0.1524 -0.3112
  135TMC2     H 2104   1.287   1.944   9.798 -0.0457  1.3638 -1.3973
  135TMC2    H1 2105   1.302   2.332   9.972  0.7147 -0.2088 -0.3433
  135TMC2    H2 2106   1.191   1.998  10.214  1.1536  1.1728  0.2778
  135TMC2    C7 2107   1.205   2.260  10.201  0.4829  0.1807  0.5941
  135TMC2    C8 2108   1.238   1.820  10.045  0.3962 -0.1690  0.5681
  135TMC2    O1 2109   1.235   2.377  10.178  0.9806  0.2777  0.0474
  135TMC2    O2 2110   1.182   1.778  10.149  0.3230  0.2690  0.8246
  135TMC2    O5 2111   1.265   1.750   9.933  0.5022 -0.5800  0.3155
  135TMC2    H5 2112   1.324   1.807   9.880 -0.3279  0.1460  0.1677
  136MPD2     C 2113   1.516   2.225   9.498  0.2201 -0.6082  0.5917
  136MPD2    C1 2114   1.524   2.116   9.572  0.0481 -0.1969  0.2443
  136MPD2    C2 2115   1.628   2.021   9.545  0.2958  0.0294  0.0402
  136MPD2    C3 2116   1.722   2.048   9.447  0.3226  0.2225 -0.0440
  136MPD2    C4 2117   1.707   2.158   9.361  0.2405 -0.5949  0.3580
  136MPD2    C5 2118   1.598   2.239   9.390  0.3566  0.4105 -0.4066
  136MPD2     H 2119   1.632   1.941   9.618 -2.2776 -1.6233 -1.6131
  136MPD2    H1 2120   1.779   2.188   9.286 -0.7528 -2.3083 -1.2857
  136MPD2    H2 2121   1.445   2.303   9.521  0.0377 -1.2137  2.0931
  136MPD2    H3 2122   1.588   2.335   9.341 -1.2941 -0.2777 -1.4237
  136MPD2     N 2123   1.823   1.954   9.405 -0.0669 -0.0144  0.5137
  136MPD2    H5 2124   1.874   1.983   9.323 -1.3667 -0.3006 -0.3974
  136MPD2    N1 2125   1.439   2.097   9.685 -0.0216  0.4713  0.8655
  136MPD2    H7 2126   1.447   2.008   9.733 -1.9023 -0.0122  0.3106
  137TMC2    C1 2127   1.611   1.183   9.681  0.6352 -0.5935 -1.2564
  137TMC2    C2 2128   1.686   1.098   9.611  0.1416 -0.4071 -0.4922
  137TMC2    C3 2129   1.746   1.151   9.501 -0.6106 -0.0794 -0.4233
  137TMC2    C4 2130   1.586   1.311   9.649 -0.3861 -0.9881  0.1462
  137TMC2    C5 2131   1.634   1.355   9.528 -0.3290 -0.0976  0.0651
  137TMC2    C6 2132   1.726   1.280   9.459  0.1569 -0.4064  0.2854
  137TMC2     C 2133   1.550   1.137   9.808 -0.0177  0.0396 -0.2567
  137TMC2     O 2134   1.519   1.222   9.891 -0.0219 -0.3427  0.0072
  137TMC2     H 2135   1.704   0.996   9.642  0.1080 -0.6771 -1.3709
  137TMC2    H1 2136   1.529   1.377   9.713 -1.6599 -1.4081 -0.5524
  137TMC2    H2 2137   1.758   1.303   9.358 -0.1580  1.2931  0.5629
  137TMC2    C7 2138   1.583   1.473   9.467 -0.3188 -0.3667 -0.6271
  137TMC2    C8 2139   1.850   1.075   9.439 -0.2796  0.3642  0.6734
  137TMC2    O1 2140   1.647   1.517   9.372  0.0676 -0.1093  0.4937
  137TMC2    O2 2141   1.857   0.953   9.451  0.1924 -0.0820 -0.3562
  137TMC2    O5 2142   1.899   1.140   9.334  0.0055  0.3333  0.6159
  137TMC2    H5 2143   1.904   1.238   9.327  1.6897  0.1453 -0.7378
  138MPD2     C 2144   1.401   0.811   9.884 -0.2324  0.9934  0.3853
  138MPD2    C1 2145   1.443   0.936   9.914 -0.4858 -0.3477  0.3578
  138MPD2    C2 2146   1.415   0.983  10.043  0.8765  0.4172 -0.0803
  138MPD2    C3 2147   1.355   0.907  10.146 -0.2700 -0.4184 -0.4949
  138MPD2    C4 2148   1.322   0.778  10.111 -0.3815  0.1933 -0.0170
  138MPD2    C5 2149   1.336   0.737   9.978 -0.2028 -0.0495 -0.1526
  138MPD2     H 2150   1.444   1.085  10.067  0.7681  0.4573 -0.1194
  138MPD2    H1 2151   1.286   0.706  10.184 -3.0853 -0.0120 -1.5467
  138MPD2    H2 2152   1.406   0.775   9.782 -2.4531 -1.2967  1.0937
  138MPD2    H3 2153   1.295   0.641   9.951  1.8843 -1.4754  1.7187
  138MPD2     N 2154   1.326   0.970  10.269 -0.8740  0.0747  0.0548
  138MPD2    H5 2155   1.350   1.068  10.285 -0.0602 -0.2463  0.7865
  138MPD2    N1 2156   1.504   1.007   9.806 -0.5747 -0.1279  0.0717
  138MPD2    H7 2157   1.499   0.964   9.714 -2.0264  1.4972 -0.5893
  139TMC2    C1 2158   2.314   4.386  13.875 -0.4655  0.6998 -0.8109
  139TMC2    C2 2159   2.412   4.468  13.829 -0.4377  1.0071 -0.1160
  139TMC2    C3 2160   2.382   4.580  13.759 -0.2396 -0.6962  0.0244
  139TMC2    C4 2161   2.178   4.414  13.875 -0.2924  0.1499  0.2920
  139TMC2    C5 2162   2.157   4.539  13.822 -0.1670  0.3310 -0.0366
  139TMC2    C6 2163   2.252   4.617  13.751  0.4887  0.1625 -0.0325
  139TMC2     C 2164   2.358   4.280  13.957  0.2957  0.4604 -0.3222
  139TMC2     O 2165   2.464   4.299  14.011  0.0758  0.0885  0.2192
  139TMC2     H 2166   2.514   4.432  13.837 -0.2917  0.9463 -2.3261
  139TMC2    H1 2167   2.099   4.357  13.923 -1.7039  1.4659 -0.4643
  139TMC2    H2 2168   2.220   4.696  13.684 -4.0709 -1.7313 -0.1371
  139TMC2    C7 2169   2.019   4.602  13.822 -0.5097  0.0325  0.3549
  139TMC2    C8 2170   2.432   4.555  13.628 -0.2973  0.2752  0.3491
  139TMC2    O1 2171   2.009   4.717  13.780  0.0082 -0.3424 -0.4695
  139TMC2    O2 2172   2.450   4.442  13.585 -0.1720 -0.3150 -0.0025
  139TMC2    O5 2173   2.453   4.669  13.560  0.4289  0.0664 -0.1598
  139TMC2    H5 2174   2.460   0.013  13.613  0.7128  0.6472 -1.0859
  140MPD2     C 2175   2.195   3.992  14.088 -0.0342 -0.3406 -0.0840
  140MPD2    C1 2176   2.306   4.064  14.048  0.1902  0.6295  0.5836
  140MPD2    C2 2177   2.436   4.024  14.064 -0.3886  0.4854  0.2706
  140MPD2    C3 2178   2.457   3.902  14.127 -0.3660  0.5559  0.2808
  140MPD2    C4 2179   2.349   3.831  14.177 -0.6916 -0.5556  0.0199
  140MPD2    C5 2180   2.218   3.876  14.154 -0.7463  0.4373 -0.5414
  140MPD2     H 2181   2.524   4.080  14.033  0.1806 -0.8810 -0.5739
  140MPD2    H1 2182   2.363   3.743  14.237 -2.2060 -0.3080  0.7472
  140MPD2    H2 2183   2.094   4.022  14.061  0.3174  0.4689 -0.5076
  140MPD2    H3 2184   2.134   3.829  14.204  0.5448 -1.7724 -0.4241
  140MPD2     N 2185   2.593   3.867  14.139  0.6747  0.1361 -0.0092
  140MPD2    H5 2186   2.664   3.917  14.087 -0.3298  2.6079  0.9813
  140MPD2    N1 2187   2.270   4.181  13.977  1.0372  0.9728  0.3173
  140MPD2    H7 2188   2.174   4.202  13.950  0.1389 -2.4932  0.7358
  141TMC2    C1 2189   2.450   1.294  14.712  0.4829 -0.4305 -0.1346
  141TMC2    C2 2190   2.416   1.228  14.822 -0.1533  0.7125  0.0184
  141TMC2    C3 2191   2.372   1.305  14.926 -0.1989  0.4673 -1.1173
  141TMC2    C4 2192   2.469   1.422  14.699  0.1966 -0.6939  0.1418
  141TMC2    C5 2193   2.451   1.494  14.812 -0.3370 -0.9946  0.7008
  141TMC2    C6 2194   2.400   1.439  14.926 -0.2996  0.2268  0.2313
  141TMC2     C 2195   2.474   1.216  14.589 -0.2673  0.5570  0.1280
  141TMC2     O 2196   2.461   1.268  14.481 -0.0023 -0.1795 -0.0180
  141TMC2     H 2197   2.412   1.120  14.832  0.8187  0.6277 -0.5830
  141TMC2    H1 2198   2.516   1.464  14.611 -0.4319  2.2534  1.2311
  141TMC2    H2 2199   2.387   1.493  15.019 -0.2068  0.1446  0.2920
  141TMC2    C7 2200   2.506   1.627  14.837 -0.1625  0.0543  0.0127
  141TMC2    C8 2201   2.349   1.253  15.059  0.5438 -0.1874 -0.4037
  141TMC2    O1 2202   2.481   1.684  14.942 -0.2136 -0.1615  0.1183
  141TMC2    O2 2203   2.432   1.263  15.150 -0.2137 -0.1710 -0.4019
  141TMC2    O5 2204   2.283   1.137  15.032 -0.3983 -0.2391  0.2433
  141TMC2    H5 2205   2.243   1.132  14.943  1.4705 -2.5144 -0.4619
  142TMC2    C1 2206   0.565   0.055   9.936  0.7198  0.2525 -0.2902
  142TMC2    C2 2207   0.513   0.119   9.828  0.6824  0.4574 -0.0573
  142TMC2    C3 2208   0.550   0.247   9.812  0.4402 -0.4538 -0.1908
  142TMC2    C4 2209   0.638   0.124  10.033  0.0404 -0.1067  0.6160
  142TMC2    C5 2210   0.667   0.253  10.012 -0.0836  0.0333 -0.2678
  142TMC2    C6 2211   0.619   0.319   9.906 -0.7000 -0.2048  0.0921
  142TMC2     C 2212   0.509   4.668   9.973  0.7912  0.1810  0.0765
  142TMC2     O 2213   0.452   4.594   9.889  0.3372  0.4904 -0.3427
  142TMC2     H 2214   0.439   0.072   9.763  2.2181 -1.9351 -0.0788
  142TMC2    H1 2215   0.682   0.068  10.115  1.4129 -0.4728 -0.3637
  142TMC2    H2 2216   0.646   0.423   9.891 -0.0556 -0.3372  0.3324
  142TMC2    C7 2217   0.687   0.326  10.133  0.3769 -0.5929  0.0393
  142TMC2    C8 2218   0.534   0.301   9.681 -0.0025  0.6916  0.1938
  142TMC2    O1 2219   0.665   0.266  10.236  0.0814  0.3191  0.7520
  142TMC2    O2 2220   0.447   0.267   9.597 -0.1610  0.1106 -0.2201
  142TMC2    O5 2221   0.640   0.376   9.663 -0.5573  0.5525  0.3265
  142TMC2    H5 2222   0.711   0.334   9.716 -1.7354 -0.8201  0.7908
  143MPD2     C 2223   0.396   4.333  10.346 -0.2296  0.5045 -0.6890
  143MPD2    C1 2224   0.377   4.315  10.210  1.3855 -0.2867 -0.6217
  143MPD2    C2 2225   0.408   4.425  10.134  0.2764  0.2516 -0.6978
  143MPD2    C3 2226   0.474   4.538  10.192 -1.5102 -0.8739 -0.4507
  143MPD2    C4 2227   0.480   4.560  10.325  0.3724  0.2544 -0.1711
  143MPD2    C5 2228   0.441   4.452  10.402  0.5688 -0.6964 -0.0915
  143MPD2     H 2229   0.400   4.409  10.027  0.2698 -1.3259 -0.4575
  143MPD2    H1 2230   0.517   4.649  10.376  0.4367 -0.6484  1.3707
  143MPD2    H2 2231   0.373   4.253  10.416  0.1351  1.4263  0.4839
  143MPD2    H3 2232   0.443   4.465  10.510  0.1786 -0.3276 -0.1286
  143MPD2     N 2233   0.517   4.649  10.111  0.1709 -0.7179  0.5156
  143MPD2    H5 2234   0.545   4.732  10.163  0.3325  0.4238 -1.4031
  143MPD2    N1 2235   0.319   4.194  10.161 -0.3610  0.0819 -0.1296
  143MPD2    H7 2236   0.318   4.114  10.224 -0.4242  1.7449  1.9997
  144TMC2    C1 2237   3.462   3.824   1.172 -0.0048 -0.0411 -0.1298
  144TMC2    C2 2238   3.569   3.739   1.172 -0.9706  0.5607  0.0212
  144TMC2    C3 2239   3.663   3.756   1.267  0.0477 -0.6953 -0.1169
  144TMC2    C4 2240   3.442   3.914   1.273 -0.2602 -0.2078  0.1083
  144TMC2    C5 2241   3.544   3.923   1.367  0.5394  1.0770  0.5991
  144TMC2    C6 2242   3.655   3.841   1.373 -0.3384 -0.1414 -0.0383
  144TMC2     C 2243   3.380   3.816   1.049 -0.1894 -0.5324 -0.0371
  144TMC2     O 2244   3.387   3.715   0.980 -0.4693 -0.0435  0.7609
  144TMC2     H 2245   3.584   3.659   1.101  0.3071 -0.9677  2.0156
  144TMC2    H1 2246   3.349   3.969   1.289 -0.1388  0.3900 -1.2596
  144TMC2    H2 2247   3.735   3.848   1.446 -1.1478 -2.0735  1.0372
  144TMC2    C7 2248   3.546   4.041   1.458 -0.0882  0.2752 -0.1609
  144TMC2    C8 2249   3.790   3.675   1.258  0.2469  0.6855 -0.2743
  144TMC2    O1 2250   3.614   4.016   1.555  0.0784  0.4308  0.8988
  144TMC2    O2 2251   3.791   3.578   1.183  0.1584  0.4756 -0.2890
  144TMC2    O5 2252   3.899   3.753   1.292 -0.3187 -0.3595  0.1562
  144TMC2    H5 2253   3.881   3.834   1.345  0.4718 -0.9620  1.3386
  145MPD2     C 2254   3.013   3.982   0.764 -0.2079 -0.9657 -0.9404
  145MPD2    C1 2255   3.047   3.850   0.785 -0.1865 -0.3042  0.1598
  145MPD2    C2 2256   3.148   3.830   0.875  1.3133  0.0043  0.2140
  145MPD2    C3 2257   3.195   3.937   0.947  1.0859  0.1576  0.3083
  145MPD2    C4 2258   3.151   4.065   0.922 -0.4366 -0.3308 -0.0040
  145MPD2    C5 2259   3.061   4.090   0.832 -0.0006 -0.1967 -0.0412
  145MPD2     H 2260   3.195   3.733   0.880  1.3442  0.1233  1.9805
  145MPD2    H1 2261   3.183   4.145   0.988 -2.0895  1.4087 -1.3026
  145MPD2    H2 2262   2.939   4.006   0.688 -0.9226 -0.8865 -0.2172
  145MPD2    H3 2263   3.044   4.193   0.806  1.7417 -0.2862 -1.5174
  145MPD2     N 2264   3.301   3.925   1.035  0.0086 -0.0604 -0.2858
  145MPD2    H5 2265   3.334   4.004   1.090 -0.6793 -0.4270  0.6458
  145MPD2    N1 2266   2.984   3.740   0.729  0.1284 -0.0590 -0.5308
  145MPD2    H7 2267   3.017   3.648   0.759 -2.0633 -0.0928  1.7433
  146TMC2    C1 2268   0.332   2.320  12.388  0.6030  0.3807  0.6305
  146TMC2    C2 2269   0.341   2.309  12.244 -0.8501  0.2876 -0.6248
  146TMC2    C3 2270   0.464   2.275  12.205  0.4254  0.5450 -0.3075
  146TMC2    C4 2271   0.440   2.302  12.471  0.4147  0.5753  0.2611
  146TMC2    C5 2272   0.560   2.263  12.412  0.0821  0.6227  0.0413
  146TMC2    C6 2273   0.572   2.242  12.276  0.2931  0.0445 -0.6205
  146TMC2     C 2274   0.200   2.294  12.438  0.4389 -0.3049 -0.4843
  146TMC2     O 2275   0.101   2.322  12.371 -0.1153 -0.0902 -0.5673
  146TMC2     H 2276   0.259   2.314  12.174  0.4975  2.1615 -2.0647
  146TMC2    H1 2277   0.431   2.311  12.579 -1.9462  0.4668  0.0706
  146TMC2    H2 2278   0.661   2.201  12.230  1.5739  2.0547  0.0658
  146TMC2    C7 2279   0.682   2.242  12.490 -0.5192 -0.0661  0.0463
  146TMC2    C8 2280   0.465   2.226  12.072 -0.3069  0.0398  0.0873
  146TMC2    O1 2281   0.787   2.265  12.429 -0.1777 -0.9262  0.1729
  146TMC2    O2 2282   0.542   2.133  12.040  0.1430  0.5947  0.3583
  146TMC2    O5 2283   0.421   2.326  11.993 -0.3062  0.1396 -0.2621
  146TMC2    H5 2284   0.378   2.404  12.033 -0.2101  0.4436 -0.7536
  147MPD2     C 2285   0.975   2.197  12.901  0.7070  0.6528 -0.5552
  147MPD2    C1 2286   0.858   2.125  12.914  0.7769 -0.0391  0.4528
  147MPD2    C2 2287   0.757   2.139  12.823  0.3470 -0.3796 -0.3150
  147MPD2    C3 2288   0.766   2.223  12.718 -0.3355  0.1385  0.0269
  147MPD2    C4 2289   0.883   2.299  12.708 -0.2096  0.6654 -0.0260
  147MPD2    C5 2290   0.984   2.291  12.804  0.1194 -0.2779  0.0975
  147MPD2     H 2291   0.673   2.071  12.825 -0.0779  0.1445 -0.1246
  147MPD2    H1 2292   0.899   2.359  12.619  0.2845 -0.7985 -0.9206
  147MPD2    H2 2293   1.061   2.174  12.963 -1.1232 -0.4034  1.5841
  147MPD2    H3 2294   1.076   2.346  12.793 -0.2734  0.0056 -1.8092
  147MPD2     N 2295   0.664   2.222  12.625 -0.2407 -0.6702 -0.4310
  147MPD2    H5 2296   0.579   2.175  12.652 -1.0217  1.5413  0.9962
  147MPD2    N1 2297   0.851   2.027  13.021 -0.0844  0.6847  0.8372
  147MPD2    H7 2298   0.940   2.016  13.070  1.6386 -3.8982 -3.3636
  148TMC2    C1 2299   0.093   1.271  10.917 -0.5500  0.2779  0.2921
  148TMC2    C2 2300   0.193   1.353  10.954 -0.2201 -0.1161  0.4855
  148TMC2    C3 2301   0.285   1.290  11.042  0.8363  0.5559  0.3961
  148TMC2    C4 2302   0.084   1.140  10.965 -0.0184  0.7672 -0.5402
  148TMC2    C5 2303   0.174   1.086  11.048 -0.2082 -0.3594 -0.3198
  148TMC2    C6 2304   0.279   1.167  11.095  0.2466  0.1616 -0.4001
  148TMC2     C 2305   0.011   1.324  10.809 -0.7534  0.0318  0.6213
  148TMC2     O 2306   4.731   1.444  10.802  0.3233  0.1719  0.0869
  148TMC2     H 2307   0.203   1.453  10.914  1.9038 -0.0436  1.1495
  148TMC2    H1 2308   4.737   1.081  10.935  0.9519 -2.5104  3.0381
  148TMC2    H2 2309   0.363   1.130  11.153 -1.1613 -1.8704  0.3614
  148TMC2    C7 2310   0.155   0.944  11.085  0.3085 -0.2241 -0.2269
  148TMC2    C8 2311   0.388   1.383  11.102 -0.0539 -0.0399 -0.0629
  148TMC2    O1 2312   0.072   0.875  11.022 -0.0196 -0.3247 -0.2803
  148TMC2    O2 2313   0.372   1.499  11.141  0.1875  0.1786  0.0777
  148TMC2    O5 2314   0.502   1.305  11.116  0.1561  0.2181  0.1328
  148TMC2    H5 2315   0.501   1.230  11.053 -1.7682 -0.5941  1.1410
  149MPD2     C 2316   4.519   1.369  10.637  0.2919  0.8801  0.0981
  149MPD2    C1 2317   4.580   1.245  10.645 -0.2676 -0.0398 -0.3532
  149MPD2    C2 2318   4.558   1.144  10.552  0.0821  0.3377  0.0325
  149MPD2    C3 2319   4.453   1.156  10.459  0.4340  0.5611 -0.2627
  149MPD2    C4 2320   4.381   1.273  10.469 -0.4914  0.0061  0.0607
  149MPD2    C5 2321   4.411   1.375  10.546  0.1754 -0.5613 -0.5431
  149MPD2     H 2322   4.608   1.049  10.562 -0.9132 -0.1060  0.8060
  149MPD2    H1 2323   4.294   1.288  10.407 -0.4812 -1.4578 -0.3154
  149MPD2    H2 2324   4.529   1.454  10.704  1.7739  0.8275 -0.0382
  149MPD2    H3 2325   4.349   1.464  10.541  2.9810  1.3584 -0.9805
  149MPD2     N 2326   4.430   1.051  10.366  0.3609  0.1535  0.1591
  149MPD2    H5 2327   4.360   1.073  10.297  0.9219 -1.1956 -0.8644
  149MPD2    N1 2328   4.687   1.224  10.740 -0.4620  0.0030 -0.3268
  149MPD2    H7 2329   4.732   1.133  10.744  1.7861  1.0815 -0.9463
  150TMC2    C1 2330   2.654   4.686  12.350 -0.4727 -0.2156 -0.4450
  150TMC2    C2 2331   2.621   0.077  12.312  0.3605  0.4520 -0.3909
  150TMC2    C3 2332   2.725   0.157  12.274 -0.0322  0.8617  0.0702
  150TMC2    C4 2333   2.791   4.647  12.366  0.8348  0.6996 -0.4308
  150TMC2    C5 2334   2.885   0.008  12.351  0.1097 -0.2521 -0.1070
  150TMC2    C6 2335   2.858   0.131  12.300  0.8775 -1.2424  0.4458
  150TMC2     C 2336   2.544   4.590  12.382  0.4474  0.0837  0.5944
  150TMC2     O 2337   2.586   4.476  12.413  0.6817 -0.8291  0.1375
  150TMC2     H 2338   2.520   0.105  12.286  0.1675  0.5747  0.4853
  150TMC2    H1 2339   2.820   4.551  12.407  0.5486  0.4906 -0.7231
  150TMC2    H2 2340   2.927   0.214  12.305 -0.2414 -0.2595 -0.2228
  150TMC2    C7 2341   3.008   0.001  12.428 -0.6031 -0.5372  0.0995
  150TMC2    C8 2342   2.697   0.295  12.247  1.0144 -0.0982 -0.1873
  150TMC2    O1 2343   3.099   0.078  12.406 -0.5874  0.0249  0.0181
  150TMC2    O2 2344   2.645   0.376  12.325  0.1682  0.0972 -0.3374
  150TMC2    O5 2345   2.735   0.329  12.124  0.0744  0.4647  0.4332
  150TMC2    H5 2346   2.770   0.251  12.077 -2.5328  0.3720 -1.3697
  151MPD2     C 2347   2.066   4.433  12.380  1.0006 -0.3818  0.0279
  151MPD2    C1 2348   2.062   4.572  12.379  0.4920  0.5808  0.2190
  151MPD2    C2 2349   2.182   4.640  12.374 -0.9714  0.8615  0.1348
  151MPD2    C3 2350   2.304   4.567  12.372 -0.7102 -0.6922  0.1371
  151MPD2    C4 2351   2.306   4.432  12.368  0.2943  0.0395 -0.2859
  151MPD2    C5 2352   2.184   4.367  12.380  0.1531  0.5995 -0.1828
  151MPD2     H 2353   2.181   0.010  12.383  1.0797  0.6468  3.0013
  151MPD2    H1 2354   2.398   4.374  12.361  0.1652 -0.1408 -0.4972
  151MPD2    H2 2355   1.976   4.371  12.379 -0.5121  1.8638 -2.4204
  151MPD2    H3 2356   2.185   4.260  12.367  1.7183  0.5525  0.3435
  151MPD2     N 2357   2.423   4.643  12.371  0.3454 -0.2339 -0.0122
  151MPD2    H5 2358   2.410   0.005  12.361  1.1046 -0.0357  1.1113
  151MPD2    N1 2359   1.936   4.635  12.396  0.0065  0.0121 -0.0315
  151MPD2    H7 2360   1.852   4.579  12.410  1.1561 -1.6655  0.1068
  152TMC2    C1 2361   1.872   4.417  13.181  0.3978  0.0204 -0.1116
  152TMC2    C2 2362   1.931   4.297  13.148 -0.0152 -0.7783 -0.2468
  152TMC2    C3 2363   2.060   4.295  13.098  0.3618  0.2045  0.1192
  152TMC2    C4 2364   1.949   4.529  13.159  0.1810 -0.5238 -1.1933
  152TMC2    C5 2365   2.082   4.525  13.127 -0.1531  0.7468 -0.0175
  152TMC2    C6 2366   2.139   4.407  13.091  0.1566 -0.0069  0.0215
  152TMC2     C 2367   1.727   4.423  13.197 -0.3363  0.0524 -0.3359
  152TMC2     O 2368   1.675   4.531  13.186 -0.8406 -0.6464 -0.6461
  152TMC2     H 2369   1.876   4.204  13.148 -2.4384  0.6528 -0.6224
  152TMC2    H1 2370   1.895   4.622  13.171 -1.4021 -1.5076 -0.7665
  152TMC2    H2 2371   2.246   4.393  13.076  0.1812  0.7838 -0.5023
  152TMC2    C7 2372   2.141   4.638  13.068 -0.3266  0.2161  0.0736
  152TMC2    C8 2373   2.108   4.156  13.068  0.1324  0.3025 -0.5276
  152TMC2    O1 2374   2.069   4.714  13.005 -0.2953 -0.2852  0.5505
  152TMC2    O2 2375   2.035   4.057  13.083 -0.2326  0.2392 -0.2838
  152TMC2    O5 2376   2.209   4.167  12.979 -0.0304  0.4327 -0.1475
  152TMC2    H5 2377   2.241   4.257  12.958  2.6649 -0.4945 -0.0224
  153MPD2     C 2378   1.488   4.146  13.231 -0.7154  0.0367  0.2756
  153MPD2    C1 2379   1.523   4.280  13.208 -0.0900  1.1023  0.3438
  153MPD2    C2 2380   1.432   4.370  13.181  0.0216  0.1162  0.2212
  153MPD2    C3 2381   1.295   4.341  13.170 -0.1851 -0.2571  0.4947
  153MPD2    C4 2382   1.257   4.207  13.195  0.0154 -0.1707 -0.7891
  153MPD2    C5 2383   1.357   4.116  13.225 -0.3034  0.0360  0.3829
  153MPD2     H 2384   1.461   4.471  13.153 -3.1084  0.3570 -2.1462
  153MPD2    H1 2385   1.156   4.168  13.199 -0.3557  0.9658  1.3367
  153MPD2    H2 2386   1.569   4.073  13.235 -1.0018 -0.4312 -2.2858
  153MPD2    H3 2387   1.327   4.015  13.247 -0.4536  0.6366  2.8904
  153MPD2     N 2388   1.209   4.442  13.113  0.0166  0.6346 -0.2707
  153MPD2    H5 2389   1.254   4.528  13.086  2.2107 -0.9026 -1.4951
  153MPD2    N1 2390   1.663   4.305  13.211 -0.1485  0.0273 -0.1606
  153MPD2    H7 2391   1.722   4.224  13.232  0.2847  0.5796  0.7717
  154TMC2    C1 2392   3.296   4.703   0.385 -0.6792  0.8316 -0.1153
  154TMC2    C2 2393   3.289   0.045   0.498  0.2437  0.1788  0.1227
  154TMC2    C3 2394   3.387   0.016   0.591  0.3384 -0.0905  0.0880
  154TMC2    C4 2395   3.394   4.615   0.354 -0.4181 -0.5285  0.8594
  154TMC2    C5 2396   3.479   4.584   0.452 -0.1753  0.2237 -0.3686
  154TMC2    C6 2397   3.475   4.648   0.578  0.5160  0.0989  0.5218
  154TMC2     C 2398   3.191   4.731   0.288  0.0898  0.2766 -0.2381
  154TMC2     O 2399   3.130   0.096   0.308  0.3868  0.5831  0.0324
  154TMC2     H 2400   3.217   0.122   0.524  2.0143  1.7156  0.4451
  154TMC2    H1 2401   3.411   4.570   0.257  0.4189  0.6425  0.4666
  154TMC2    H2 2402   3.533   4.623   0.666 -0.6823 -0.3777  1.1774
  154TMC2    C7 2403   3.587   4.496   0.424  0.3576  0.1940 -0.6828
  154TMC2    C8 2404   3.436   0.133   0.656  0.0993 -0.9911  0.2060
  154TMC2    O1 2405   3.566   4.397   0.354  0.1203  0.4456 -0.0914
  154TMC2    O2 2406   3.524   0.132   0.740  0.5932 -0.0746  0.2702
  154TMC2    O5 2407   3.412   0.240   0.569 -0.1712  0.6939  0.1073
  154TMC2    H5 2408   3.408   0.210   0.476  0.7745  1.5971 -0.2337
  155MPD2     C 2409   3.075   4.528   0.004  0.6968 -0.2759 -0.3167
  155MPD2    C1 2410   3.083   4.633   0.085 -0.3269 -0.0311  0.7187
  155MPD2    C2 2411   2.987   4.735   0.072  0.4766 -0.4577 -0.0756
  155MPD2    C3 2412   2.902   4.732  17.715 -0.3639 -0.2040  0.5679
  155MPD2    C4 2413   2.895   4.620  17.630  0.5240 -0.3406 -0.6014
  155MPD2    C5 2414   2.984   4.523  17.649 -0.0585 -0.8652  0.3767
  155MPD2     H 2415   2.994   0.076   0.146  2.5835  0.1508 -0.9190
  155MPD2    H1 2416   2.815   4.604  17.559  0.6376  1.5909 -1.1729
  155MPD2    H2 2417   3.145   4.445   0.016 -1.0871 -1.7325 -0.0250
  155MPD2    H3 2418   2.990   4.444  17.575 -0.1109 -0.0382 -0.5028
  155MPD2     N 2419   2.806   0.096  17.715  0.2497  0.4999 -0.4316
  155MPD2    H5 2420   2.822   0.170   0.032  0.6551  0.6786 -0.7199
  155MPD2    N1 2421   3.178   4.629   0.192 -0.0391 -0.3867 -0.5451
  155MPD2    H7 2422   3.244   4.553   0.204  0.1797  0.0145  0.8644
  156TMC2    C1 2423   2.516   2.372  11.816 -0.3181 -0.8614 -0.8658
  156TMC2    C2 2424   2.598   2.301  11.737  0.1980 -0.6879 -0.0624
  156TMC2    C3 2425   2.573   2.296  11.603 -0.8204  0.0430  0.1367
  156TMC2    C4 2426   2.401   2.431  11.770 -0.5270 -0.4932  0.4062
  156TMC2    C5 2427   2.379   2.426  11.629  0.3308 -0.1429  0.0399
  156TMC2    C6 2428   2.465   2.360  11.540  0.0837 -0.1339 -0.3345
  156TMC2     C 2429   2.548   2.398  11.950 -0.6500  0.2892 -0.4743
  156TMC2     O 2430   2.499   2.501  11.998 -1.0806 -0.6362  0.6463
  156TMC2     H 2431   2.698   2.278  11.772  0.9011  0.7120 -1.0971
  156TMC2    H1 2432   2.341   2.499  11.829  2.4160  0.8402  1.8559
  156TMC2    H2 2433   2.466   2.385  11.434  0.1626  0.9131 -0.0939
  156TMC2    C7 2434   2.263   2.495  11.590 -1.2959  0.2543  0.3227
  156TMC2    C8 2435   2.667   2.234  11.514 -0.7794  0.0160 -0.1670
  156TMC2    O1 2436   2.222   2.587  11.662  0.6606  0.5140 -0.0092
  156TMC2    O2 2437   2.650   2.223  11.396  0.4438 -0.0181  0.0065
  156TMC2    O5 2438   2.738   2.148  11.583  0.6604  0.1117 -0.0443
  156TMC2    H5 2439   2.747   2.167  11.679  0.2074  0.1987 -0.0184
  157MPD2     C 2440   2.726   2.184  12.190  0.3747  0.4112  0.1748
  157MPD2    C1 2441   2.653   2.294  12.150  0.7307  0.5233  0.6902
  157MPD2    C2 2442   2.603   2.376  12.246  0.3401  0.5516 -0.1938
  157MPD2    C3 2443   2.618   2.348  12.381 -0.3908 -0.0676 -0.6042
  157MPD2    C4 2444   2.687   2.231  12.416  0.4490 -0.2539  0.4751
  157MPD2    C5 2445   2.739   2.156  12.321  0.7798 -0.0046  1.1680
  157MPD2     H 2446   2.554   2.471  12.224 -1.3419 -0.1127  0.6831
  157MPD2    H1 2447   2.705   2.200  12.519 -1.1997  1.9730  1.4571
  157MPD2    H2 2448   2.761   2.108  12.121  0.3029 -0.8786  1.5473
  157MPD2    H3 2449   2.798   2.067  12.342 -0.2644 -0.9542  0.0836
  157MPD2     N 2450   2.568   2.434  12.478 -0.3264 -0.3795  0.0090
  157MPD2    H5 2451   2.511   2.513  12.452  1.6117  1.6106  1.8383
  157MPD2    N1 2452   2.628   2.300  12.008 -0.8360 -0.6817 -0.0566
  157MPD2    H7 2453   2.659   2.220  11.954  0.6620  0.0097 -0.2330
  158TMC2    C1 2454   2.479   0.543  13.412  0.3173  0.3286  0.4578
  158TMC2    C2 2455   2.563   0.573  13.309 -0.0940 -0.0645  0.5155
  158TMC2    C3 2456   2.524   0.669  13.216  0.1663 -0.4381  0.5829
  158TMC2    C4 2457   2.347   0.598  13.423 -0.1738  0.1618 -0.1090
  158TMC2    C5 2458   2.316   0.683  13.322  0.0225 -0.5044  0.5005
  158TMC2    C6 2459   2.395   0.721  13.217 -0.5324  0.1251 -1.1158
  158TMC2     C 2460   2.543   0.482  13.527 -0.2381  0.3379  0.2148
  158TMC2     O 2461   2.643   0.413  13.508  0.0662  0.0132  0.4140
  158TMC2     H 2462   2.662   0.530  13.307  0.4706  1.2212  0.9271
  158TMC2    H1 2463   2.274   0.554  13.490 -3.0565  0.3190 -3.1302
  158TMC2    H2 2464   2.368   0.793  13.141 -0.8543  1.6417  0.4567
  158TMC2    C7 2465   2.186   0.755  13.331 -0.0120 -0.4239  0.1871
  158TMC2    C8 2466   2.600   0.662  13.096  0.1114  1.4116 -0.1335
  158TMC2    O1 2467   2.182   0.854  13.256 -0.1385  0.1304 -0.2675
  158TMC2    O2 2468   2.692   0.581  13.072  0.0652 -0.4914 -0.2581
  158TMC2    O5 2469   2.591   0.781  13.039 -0.2655  0.1292  0.2137
  158TMC2    H5 2470   2.567   0.849  13.105  0.4730  3.4835 -2.9613
  159MPD2     C 2471   2.638   0.464  14.038  0.0886 -0.1789 -0.0674
  159MPD2    C1 2472   2.520   0.534  14.020  0.8047  0.3446 -0.7354
  159MPD2    C2 2473   2.474   0.560  13.886  0.1734  0.3721 -0.2777
  159MPD2    C3 2474   2.542   0.513  13.776 -0.3156  0.2794  0.5951
  159MPD2    C4 2475   2.656   0.435  13.792 -0.4449 -0.0339 -0.3182
  159MPD2    C5 2476   2.700   0.417  13.924  0.5461  1.1832  0.1720
  159MPD2     H 2477   2.382   0.616  13.869  0.7253  1.4738  0.3682
  159MPD2    H1 2478   2.708   0.391  13.708  0.0285 -1.1966  0.5725
  159MPD2    H2 2479   2.698   0.449  14.128 -1.1982 -0.8453  0.6756
  159MPD2    H3 2480   2.789   0.358  13.947  1.0479  1.9675  0.2590
  159MPD2     N 2481   2.486   0.532  13.645  0.1869  0.5874 -0.6134
  159MPD2    H5 2482   2.401   0.588  13.643  0.2347  0.6768 -0.1754
  159MPD2    N1 2483   2.448   0.572  14.139  0.5524 -0.3254  0.8689
  159MPD2    H7 2484   2.477   0.530  14.226 -1.7050  0.7705  2.1465
  160TMC2    C1 2485   2.119   4.574   1.879  0.1655 -0.0860 -0.0207
  160TMC2    C2 2486   2.102   4.505   2.000  0.0769  0.2159  0.1451
  160TMC2    C3 2487   2.181   4.387   2.007  0.2844 -0.4069 -0.5616
  160TMC2    C4 2488   2.192   4.533   1.774 -0.0063  0.3986 -0.2213
  160TMC2    C5 2489   2.257   4.416   1.789  0.1558  0.0000 -0.3232
  160TMC2    C6 2490   2.258   4.346   1.899 -0.3227 -0.1721  0.2250
  160TMC2     C 2491   2.043   4.696   1.873 -0.3726 -0.2412 -0.2823
  160TMC2     O 2492   2.030   0.016   1.980 -0.0106 -0.1691  0.3316
  160TMC2     H 2493   2.042   4.556   2.074 -1.5214 -0.7816 -0.4571
  160TMC2    H1 2494   2.197   4.593   1.684 -0.6236  1.8330  0.7167
  160TMC2    H2 2495   2.309   4.251   1.908  2.5774  1.1990 -1.8390
  160TMC2    C7 2496   2.348   4.361   1.688  0.5680  0.0178 -0.3477
  160TMC2    C8 2497   2.178   4.295   2.124  0.2002 -0.3484 -0.3529
  160TMC2    O1 2498   2.430   4.272   1.719 -0.2802  0.0499 -0.9155
  160TMC2    O2 2499   2.228   4.183   2.120 -0.4402 -0.0573  0.2723
  160TMC2    O5 2500   2.067   4.322   2.192  0.2686  0.1794  0.1444
  160TMC2    H5 2501   2.031   4.412   2.183 -0.9330 -0.6473 -3.1548
  161MPD2     C 2502   1.934   0.224   1.787 -0.4214 -0.4222 -0.0231
  161MPD2    C1 2503   1.947   0.118   1.701  0.8550 -0.2349 -0.1379
  161MPD2    C2 2504   1.903   0.129   1.569 -0.8875  0.7535  0.7712
  161MPD2    C3 2505   1.839   0.242   1.523 -0.9492 -0.5688  0.1818
  161MPD2    C4 2506   1.816   0.345   1.617  0.1919  0.1223  0.2947
  161MPD2    C5 2507   1.870   0.334   1.743 -0.0651  0.0493 -0.3607
  161MPD2     H 2508   1.934   0.050   1.501 -2.0033  1.6553 -0.7832
  161MPD2    H1 2509   1.769   0.437   1.583  0.2161  0.1157  0.2433
  161MPD2    H2 2510   1.961   0.218   1.892  0.2212 -1.8282 -0.2679
  161MPD2    H3 2511   1.846   0.413   1.812 -0.2049  0.0225 -0.3784
  161MPD2     N 2512   1.803   0.267   1.387 -0.1233  0.1989 -0.4660
  161MPD2    H5 2513   1.760   0.357   1.366 -0.9185 -0.2640 -0.8253
  161MPD2    N1 2514   2.012   4.733   1.745  0.2734  0.2317 -1.3307
  161MPD2    H7 2515   2.028   4.664   1.672  1.7541 -0.4670 -0.3406
  162TMC2    C1 2516   3.829   1.480   0.987 -0.0412  0.1184 -0.3165
  162TMC2    C2 2517   3.695   1.457   0.962 -0.4615 -0.2850  0.4346
  162TMC2    C3 2518   3.609   1.526   1.044  0.0670  0.4287 -0.1020
  162TMC2    C4 2519   3.877   1.584   1.073 -0.1654 -1.0480 -0.3974
  162TMC2    C5 2520   3.776   1.644   1.153 -0.2651  0.5535  0.1454
  162TMC2    C6 2521   3.647   1.615   1.143 -0.3436  0.0590 -0.0907
  162TMC2     C 2522   3.931   1.406   0.911  0.4271  0.2716  0.8488
  162TMC2     O 2523   3.886   1.312   0.849  0.0447 -0.4233  0.0688
  162TMC2     H 2524   3.672   1.374   0.897 -0.6723 -0.7433  1.0913
  162TMC2    H1 2525   3.982   1.597   1.097 -0.1747 -1.2635 -0.2371
  162TMC2    H2 2526   3.566   1.658   1.201 -0.8787 -1.6486  0.4216
  162TMC2    C7 2527   3.815   1.724   1.264 -0.0180  0.5425  0.2583
  162TMC2    C8 2528   3.468   1.529   1.002 -0.3291  0.7211  0.0224
  162TMC2    O1 2529   3.725   1.738   1.343 -0.2247 -0.2158  0.0280
  162TMC2    O2 2530   3.403   1.622   1.054  0.3889 -0.1501  0.3110
  162TMC2    O5 2531   3.472   1.502   0.873  0.8475 -0.0588 -0.3953
  162TMC2    H5 2532   3.519   1.416   0.864 -0.7556 -0.9316 -0.3421
  163MPD2     C 2533   4.413   1.214   0.871 -0.6453  0.3633  0.1015
  163MPD2    C1 2534   4.296   1.173   0.811  0.6043  0.1959 -0.4202
  163MPD2    C2 2535   4.180   1.254   0.830 -0.2635  0.6534 -0.0997
  163MPD2    C3 2536   4.175   1.362   0.912 -0.2790 -0.0808  0.2993
  163MPD2    C4 2537   4.291   1.402   0.971  0.0122 -0.2038  0.3174
  163MPD2    C5 2538   4.409   1.328   0.950 -0.1405 -0.4052 -0.3585
  163MPD2     H 2539   4.091   1.232   0.772 -1.6307  2.3260  1.3808
  163MPD2    H1 2540   4.299   1.487   1.038 -0.4367 -0.1076  0.2484
  163MPD2    H2 2541   4.505   1.163   0.845 -0.6521  0.6881 -0.5603
  163MPD2    H3 2542   4.507   1.363   0.979 -0.6553 -0.2393  1.1913
  163MPD2     N 2543   4.058   1.428   0.954  0.3488 -0.2276 -0.4622
  163MPD2    H5 2544   4.084   1.503   1.017  1.6097 -1.7161  0.7848
  163MPD2    N1 2545   4.308   1.076   0.710  0.6729  0.5490  0.3139
  163MPD2    H7 2546   4.401   1.043   0.684  0.5808 -0.5740  1.4298
  164TMC2    C1 2547   0.781   0.921  11.403  0.0664 -0.1116  0.3153
  164TMC2    C2 2548   0.870   1.000  11.459 -0.2011 -0.6472  0.3744
  164TMC2    C3 2549   0.842   1.132  11.478  0.5431  0.0685  0.0177
  164TMC2    C4 2550   0.649   0.967  11.395  0.4254 -0.5107 -0.4169
  164TMC2    C5 2551   0.623   1.101  11.431  0.7199 -0.5797  0.1072
  164TMC2    C6 2552   0.723   1.189  11.473  1.0498  0.9173  0.5775
  164TMC2     C 2553   0.820   0.779  11.385 -0.2992 -0.0134  0.0725
  164TMC2     O 2554   0.723   0.704  11.393 -0.1104  0.4962  0.2019
  164TMC2     H 2555   0.975   0.974  11.469  0.1305  0.2352 -0.7988
  164TMC2    H1 2556   0.562   0.917  11.354  0.2925  0.5004 -1.3811
  164TMC2    H2 2557   0.716   1.295  11.489 -3.6259  0.6818  0.2620
  164TMC2    C7 2558   0.481   1.144  11.434 -0.4384 -0.4259  0.3259
  164TMC2    C8 2559   0.949   1.223  11.499 -0.3179  0.1469  0.7329
  164TMC2    O1 2560   0.401   1.075  11.378 -0.2329  0.1112 -0.1995
  164TMC2    O2 2561   1.046   1.218  11.423 -0.3459  0.5682  0.3191
  164TMC2    O5 2562   0.910   1.314  11.588 -0.2536  0.3325 -0.0401
  164TMC2    H5 2563   0.839   1.282  11.648 -0.7397 -0.5647 -1.0887
  165TMC2    C1 2564   1.383   3.888   2.264 -0.0204  0.5591  0.2418
  165TMC2    C2 2565   1.423   3.771   2.324  0.1484  0.6160 -0.3150
  165TMC2    C3 2566   1.558   3.757   2.340 -0.1139 -0.0457  0.1973
  165TMC2    C4 2567   1.477   3.983   2.228 -0.3537  0.6943  0.3919
  165TMC2    C5 2568   1.605   3.961   2.248  0.5955 -0.6366 -0.7859
  165TMC2    C6 2569   1.653   3.850   2.308  0.8507  0.2753 -0.1669
  165TMC2     C 2570   1.262   3.880   2.176  0.1551 -0.1769 -0.4689
  165TMC2     O 2571   1.242   3.977   2.106  0.0590 -0.8083  0.3426
  165TMC2     H 2572   1.350   3.701   2.364 -0.4561 -0.4736 -3.3652
  165TMC2    H1 2573   1.449   4.063   2.162  1.8559  2.2025  1.2753
  165TMC2    H2 2574   1.754   3.828   2.341 -0.1035 -0.6610  2.1226
  165TMC2    C7 2575   1.705   4.005   2.148 -0.1833 -0.3482  0.1988
  165TMC2    C8 2576   1.599   3.649   2.429  0.5179  0.3615 -0.3608
  165TMC2    O1 2577   1.788   3.922   2.116 -0.1887  0.1085  0.4199
  165TMC2    O2 2578   1.702   3.650   2.495  0.1880 -0.2008  0.1073
  165TMC2    O5 2579   1.540   3.539   2.380  0.0003  0.6353 -0.1056
  165TMC2    H5 2580   1.483   3.548   2.301 -0.4791  0.5210  0.2272
  166MPD2     C 2581   0.902   3.614   1.939 -0.3087 -0.5110 -0.5154
  166MPD2    C1 2582   0.931   3.747   1.925 -0.0496  0.2341 -0.5904
  166MPD2    C2 2583   1.024   3.789   2.024 -0.1879 -0.3134 -0.0219
  166MPD2    C3 2584   1.094   3.708   2.106  0.3242 -0.6031  0.3516
  166MPD2    C4 2585   1.061   3.573   2.110 -0.4078 -0.5973  0.4427
  166MPD2    C5 2586   0.965   3.527   2.021 -0.6224 -0.0313  1.3448
  166MPD2     H 2587   1.036   3.897   2.033 -2.3184 -0.1224  0.4870
  166MPD2    H1 2588   1.115   3.493   2.159  2.4637  0.5357 -0.8862
  166MPD2    H2 2589   0.826   3.573   1.872 -0.2805 -1.1691 -0.1376
  166MPD2    H3 2590   0.943   3.421   2.014 -0.5377  0.1711 -2.0221
  166MPD2     N 2591   1.205   3.754   2.182 -0.4431  0.2002  0.4489
  166MPD2    H5 2592   1.250   3.681   2.237  1.2271  0.8012 -0.1176
  166MPD2    N1 2593   0.867   3.831   1.832  0.1358  0.0922  0.2717
  166MPD2    H7 2594   0.809   3.788   1.761 -1.5143  2.0958  0.3992
  167TMC2    C1 2595   4.471   0.954  13.257  0.0545  0.0139  0.0363
  167TMC2    C2 2596   4.421   0.966  13.388 -0.6775 -0.1426 -0.1369
  167TMC2    C3 2597   4.399   0.856  13.464  0.2650 -0.1256 -0.0245
  167TMC2    C4 2598   4.504   0.830  13.210 -0.1692 -0.3113 -0.1244
  167TMC2    C5 2599   4.494   0.724  13.298  0.4049  0.2062  0.1396
  167TMC2    C6 2600   4.435   0.733  13.420 -0.0370  0.0531  0.0817
  167TMC2     C 2601   4.498   1.078  13.182 -1.3081  0.1167  0.3749
  167TMC2     O 2602   4.461   1.184  13.232 -0.0708  0.1500 -0.0323
  167TMC2     H 2603   4.400   1.068  13.419 -0.5668 -0.8757  2.3750
  167TMC2    H1 2604   4.530   0.809  13.107  0.3826  1.0485 -0.2657
  167TMC2    H2 2605   4.406   0.650  13.483  0.3352  0.1275  0.3579
  167TMC2    C7 2606   4.535   0.587  13.256 -0.1184  0.2619  1.1156
  167TMC2    C8 2607   4.365   0.864  13.606 -0.2217 -0.1136  0.5420
  167TMC2    O1 2608   4.487   0.501  13.331  0.1433 -0.6366 -0.1071
  167TMC2    O2 2609   4.368   0.767  13.684  0.6775  0.4560 -0.0910
  167TMC2    O5 2610   4.260   0.945  13.598  0.3703 -0.5280 -0.0850
  167TMC2    H5 2611   4.259   1.022  13.538  1.2823  2.3052  3.4932
  168MPD2     C 2612   4.515   1.282  12.964 -0.0418  0.4530 -1.1554
  168MPD2    C1 2613   4.574   1.157  12.959 -0.5550 -0.2133 -0.2943
  168MPD2    C2 2614   4.660   1.128  12.859 -0.2196 -0.0984 -0.2948
  168MPD2    C3 2615   4.684   1.214  12.756  0.3333  0.3312  0.4763
  168MPD2    C4 2616   4.609   1.329  12.756 -0.7892 -0.1740  0.0976
  168MPD2    C5 2617   4.526   1.367  12.859  0.0990  0.7689  0.4810
  168MPD2     H 2618   4.714   1.034  12.858 -2.1941 -1.2404 -0.7613
  168MPD2    H1 2619   4.632   1.409  12.686 -0.7636 -2.4266 -2.5084
  168MPD2    H2 2620   4.451   1.308  13.047  1.6975 -0.5782  0.5154
  168MPD2    H3 2621   4.480   1.465  12.858  1.7189  1.5598  2.3687
  168MPD2     N 2622   0.026   1.192  12.641  0.0987  0.1121  0.0702
  168MPD2    H5 2623   0.000   1.244  12.558  1.6571 -0.4590 -0.7658
  168MPD2    N1 2624   4.555   1.055  13.062 -0.8175  0.1694  0.0923
  168MPD2    H7 2625   4.592   0.962  13.043 -1.7114 -0.4949  1.6117
  169MPD1     C 2626   1.823   4.570  10.821 -0.1628  0.0757  0.3265
  169MPD1    C1 2627   1.754   4.626  10.719 -0.9973 -0.4759 -0.4913
  169MPD1    C2 2628   1.818   4.705  10.632 -0.4188 -0.7617  0.3331
  169MPD1    C3 2629   1.945   0.010  10.657  0.6161  0.4790  1.1837
  169MPD1    C4 2630   2.015   4.695  10.760  0.3699 -0.1944  0.2627
  169MPD1    C5 2631   1.957   4.596  10.837  0.0778  0.0973 -0.1046
  169MPD1     H 2632   1.764   4.737  10.544  0.1228 -0.0091  0.2722
  169MPD1    H1 2633   2.118   4.725  10.775  0.7494 -1.4940  0.3006
  169MPD1    H2 2634   1.775   4.506  10.894 -2.5372  1.3053 -0.1694
  169MPD1    H3 2635   2.010   4.545  10.916 -1.8281 -2.6430 -0.5586
  169MPD1     N 2636   2.005   0.097  10.559  0.0488 -0.3225 -0.7968
  169MPD1    H5 2637   1.950   0.126  10.479  0.8042  0.5973 -0.9773
  169MPD1    N1 2638   1.628   4.581  10.687  0.3663  0.0491  0.3183
  169MPD1    H6 2639   1.580   4.641  10.620  1.2814  0.2709 -0.1326
  169MPD1    H7 2640   1.569   4.543  10.761 -0.7281  0.4781 -0.3307
  170MPD1     C 2641   1.031   2.587  13.312  0.4586  0.2328 -0.8117
  170MPD1    C1 2642   1.052   2.722  13.298  0.5871  0.1085 -0.3011
  170MPD1    C2 2643   1.045   2.800  13.415 -0.4601 -0.9633 -1.1269
  170MPD1    C3 2644   1.014   2.751  13.537  0.1368  0.0588 -0.1062
  170MPD1    C4 2645   1.000   2.615  13.545  0.6362 -0.1226 -0.2027
  170MPD1    C5 2646   0.991   2.536  13.436 -0.0477  0.5844 -0.1573
  170MPD1     H 2647   1.073   2.903  13.394 -2.7860  0.1293  1.0416
  170MPD1    H1 2648   0.981   2.573  13.643  1.3530 -0.7142 -0.3130
  170MPD1    H2 2649   1.048   2.514  13.233  0.0881 -0.2529 -0.4430
  170MPD1    H3 2650   0.964   2.433  13.456  1.1408  0.4226  0.6109
  170MPD1     N 2651   0.988   2.836  13.650 -0.1586 -0.1659 -0.1107
  170MPD1    H5 2652   0.996   2.935  13.631 -1.4541  0.2378  1.4938
  170MPD1    N1 2653   1.078   2.787  13.177  0.0850  0.5009  0.1029
  170MPD1    H6 2654   1.007   2.859  13.164 -2.3320 -1.6352  1.5283
  170MPD1    H7 2655   1.066   2.723  13.098  0.4808  0.5128  0.0286
  171MPD1     C 2656   4.215   4.328  15.737  0.2277 -1.0531 -0.4073
  171MPD1    C1 2657   4.160   4.218  15.671  0.1562  0.1107 -0.3144
  171MPD1    C2 2658   4.203   4.099  15.723 -0.0172 -0.4871  0.1155
  171MPD1    C3 2659   4.300   4.092  15.827 -0.3566  0.1379  0.1638
  171MPD1    C4 2660   4.350   4.202  15.882  0.1803 -0.4761 -0.7538
  171MPD1    C5 2661   4.305   4.323  15.840 -0.0413  0.2410  0.8980
  171MPD1     H 2662   4.164   4.006  15.684 -0.5809 -0.3303  0.3114
  171MPD1    H1 2663   4.426   4.200  15.959 -2.6654  0.9610  2.0756
  171MPD1    H2 2664   4.212   4.428  15.695 -0.9395 -0.6537  0.6445
  171MPD1    H3 2665   4.353   4.412  15.878 -1.8401  0.9993  1.4025
  171MPD1     N 2666   4.351   3.969  15.877  0.4177  0.2143  0.2980
  171MPD1    H5 2667   4.407   3.999  15.956  0.0053  0.2228  0.5863
  171MPD1    N1 2668   4.065   4.232  15.571 -0.3326 -0.2938 -0.3068
  171MPD1    H6 2669   4.070   4.170  15.491 -1.1871 -2.2797  1.1619
  171MPD1    H7 2670   4.073   4.321  15.524 -1.4865 -0.1186 -0.1811
  172MPD1     C 2671   3.356   3.235   0.228 -0.1057 -0.6955 -0.9387
  172MPD1    C1 2672   3.344   3.372   0.205 -0.2867  0.6093 -0.0942
  172MPD1    C2 2673   3.356   3.463   0.314  0.3621 -0.3808  0.3964
  172MPD1    C3 2674   3.379   3.403   0.447  0.6049 -0.7804 -0.1918
  172MPD1    C4 2675   3.393   3.268   0.464 -0.7738 -0.2237  0.2575
  172MPD1    C5 2676   3.378   3.184   0.349 -0.6969 -0.5443  0.5109
  172MPD1     H 2677   3.371   3.568   0.293  0.7664 -0.5612 -0.2150
  172MPD1    H1 2678   3.424   3.230   0.560 -0.2305  1.6399  0.8205
  172MPD1    H2 2679   3.334   3.160   0.153  5.0883 -0.1108 -3.0730
  172MPD1    H3 2680   3.393   3.077   0.353  0.1121 -0.3531  2.3893
  172MPD1     N 2681   3.412   3.497   0.547  0.8139  0.0287 -0.2860
  172MPD1    H5 2682   3.454   3.463   0.634  0.6655  2.2160  0.6261
  172MPD1    N1 2683   3.360   3.425   0.074  0.1781 -0.1633  0.8513
  172MPD1    H6 2684   3.309   3.511   0.057  1.1422  0.3386  0.4730
  172MPD1    H7 2685   3.339   3.359  17.750  0.7968 -2.2032  2.4868
  173MPD1     C 2686   0.316   3.597  14.279  0.0673  0.6185  0.1576
  173MPD1    C1 2687   0.244   3.623  14.387 -0.3647 -0.2944 -0.7772
  173MPD1    C2 2688   0.183   3.514  14.452  0.1288  0.2115  0.6210
  173MPD1    C3 2689   0.206   3.382  14.418 -0.0420 -0.5425 -0.7556
  173MPD1    C4 2690   0.285   3.359  14.310 -0.7649  0.5837 -0.2977
  173MPD1    C5 2691   0.340   3.468  14.242  0.0727  0.7293  0.0169
  173MPD1     H 2692   0.127   3.535  14.542 -0.1572  1.5133  0.1366
  173MPD1    H1 2693   0.312   3.262  14.270 -0.2629 -0.9539  3.7603
  173MPD1    H2 2694   0.352   3.677  14.216  0.3583 -0.1622 -0.6827
  173MPD1    H3 2695   0.418   3.455  14.168 -0.0134 -3.2387  0.6022
  173MPD1     N 2696   0.131   3.283  14.485 -0.0904 -0.2182 -0.9059
  173MPD1    H5 2697   0.080   3.312  14.567  1.7311 -1.4652  0.6604
  173MPD1    N1 2698   0.212   3.754  14.413 -0.2707  0.5872  0.5769
  173MPD1    H6 2699   0.281   3.824  14.385  1.3024 -1.3404 -0.3522
  173MPD1    H7 2700   0.196   3.781  14.510  0.9816  2.4109  0.2806
  174MPD1     C 2701   4.679   2.230  14.617  0.1479 -0.0262  0.4067
  174MPD1    C1 2702   4.714   2.297  14.499 -0.0663 -0.1243  0.2146
  174MPD1    C2 2703   4.678   2.431  14.493 -0.3914 -0.3342 -0.1324
  174MPD1    C3 2704   4.637   2.503  14.600  0.0770  0.3998  0.4746
  174MPD1    C4 2705   4.610   2.434  14.719 -0.0609 -0.2452  0.3104
  174MPD1    C5 2706   4.630   2.298  14.722 -0.4870 -0.4374  0.1001
  174MPD1     H 2707   4.699   2.480  14.398 -1.6140 -1.0078 -0.7481
  174MPD1    H1 2708   4.580   2.482  14.811  0.9167  1.3106 -0.1920
  174MPD1    H2 2709   4.689   2.124  14.632 -0.0560 -0.0880  0.1194
  174MPD1    H3 2710   4.615   2.236  14.810 -0.0095 -0.3631  0.2377
  174MPD1     N 2711   4.619   2.647  14.601  0.0628 -0.0468 -0.2821
  174MPD1    H5 2712   4.605   2.695  14.690  2.5337 -0.5183  0.3695
  174MPD1    N1 2713   0.035   2.237  14.389 -0.7335  0.5152 -0.1157
  174MPD1    H6 2714   0.084   2.150  14.406 -0.9565 -0.2279 -3.2968
  174MPD1    H7 2715   0.091   2.302  14.334  0.3408  0.1718  0.5837
  175MPD1     C 2716   2.998   4.272  15.998 -0.2206 -0.6647 -0.5240
  175MPD1    C1 2717   3.101   4.306  16.082 -0.3253  0.2715  0.7380
  175MPD1    C2 2718   3.074   4.327  16.219 -0.1277  0.6662 -0.4950
  175MPD1    C3 2719   2.949   4.304  16.272  0.2023 -0.5226 -0.0514
  175MPD1    C4 2720   2.847   4.265  16.188 -0.1346 -0.3453  0.2190
  175MPD1    C5 2721   2.877   4.249  16.051 -1.0946  0.1020  0.1041
  175MPD1     H 2722   3.151   4.366  16.283  0.8272 -1.5925 -0.2543
  175MPD1    H1 2723   2.750   4.233  16.222 -1.1109  1.3946 -0.9338
  175MPD1    H2 2724   3.010   4.259  15.891 -0.8044 -1.0781 -0.5348
  175MPD1    H3 2725   2.802   4.213  15.982 -0.9698  1.0137 -0.5093
  175MPD1     N 2726   2.916   4.316  16.408 -0.0501  0.0561 -0.0651
  175MPD1    H5 2727   2.819   4.294  16.429 -0.2330  1.5821  0.6767
  175MPD1    N1 2728   3.233   4.328  16.035 -0.0151 -0.4827 -0.0299
  175MPD1    H6 2729   3.252   4.279  15.948  0.0021 -1.9444  0.8060
  175MPD1    H7 2730   3.301   4.295  16.103 -1.0331  0.3119  1.3597
  176MPD1     C 2731   3.833   1.723   0.379 -0.1353 -0.2740 -0.6074
  176MPD1    C1 2732   3.875   1.850   0.396  0.0999  0.5750  0.5220
  176MPD1    C2 2733   3.981   1.895   0.323 -0.0799  0.0934 -0.9650
  176MPD1    C3 2734   4.048   1.813   0.230  0.8512 -0.3677  0.1187
  176MPD1    C4 2735   3.994   1.687   0.213  0.0156  0.2273 -0.7856
  176MPD1    C5 2736   3.903   1.639   0.298 -0.0711  0.3679 -0.0839
  176MPD1     H 2737   3.999   2.001   0.336  0.1019  0.0503 -0.8721
  176MPD1    H1 2738   4.033   1.615   0.141  2.9668 -0.1840  1.2126
  176MPD1    H2 2739   3.753   1.688   0.442  0.2906  2.0799  1.2224
  176MPD1    H3 2740   3.872   1.535   0.298  2.1469 -0.3068  0.9903
  176MPD1     N 2741   4.161   1.863   0.165 -0.2591  0.3434 -0.5212
  176MPD1    H5 2742   4.191   1.958   0.182 -0.6864  0.1996  1.0118
  176MPD1    N1 2743   3.803   1.933   0.484 -0.3221 -0.3212  0.0151
  176MPD1    H6 2744   3.742   1.880   0.547 -1.2904 -0.1272 -0.7559
  176MPD1    H7 2745   3.850   1.999   0.546  1.2002 -0.0408 -1.4574
  177MPD1     C 2746   3.482   1.649  10.842 -0.6680  0.7729  0.1307
  177MPD1    C1 2747   3.504   1.746  10.741  0.1631 -0.1122  0.8819
  177MPD1    C2 2748   3.463   1.724  10.614  0.2247  0.1764  0.4238
  177MPD1    C3 2749   3.381   1.612  10.587 -0.2772 -0.5075 -0.1298
  177MPD1    C4 2750   3.348   1.518  10.684  0.5045 -0.4036 -0.2065
  177MPD1    C5 2751   3.401   1.539  10.810  0.4820  0.0626  0.4077
  177MPD1     H 2752   3.480   1.794  10.533 -1.1843 -1.7596 -1.5683
  177MPD1    H1 2753   3.281   1.434  10.671  1.8250 -1.7899  2.0408
  177MPD1    H2 2754   3.523   1.662  10.942 -1.2644 -0.5089  0.5469
  177MPD1    H3 2755   3.380   1.473  10.894 -1.2139  1.1135  0.8086
  177MPD1     N 2756   3.319   1.598  10.458 -0.3368  0.2017  0.0178
  177MPD1    H5 2757   3.341   1.667  10.387 -3.3449  0.5806 -0.5639
  177MPD1    N1 2758   3.586   1.852  10.769  0.2944  0.6100  0.0683
  177MPD1    H6 2759   3.588   1.937  10.713  0.7663  0.0302 -0.7992
  177MPD1    H7 2760   3.575   1.876  10.868  0.3391 -1.9962  0.7131
  178MPD1     C 2761   0.679   2.326   0.299 -0.0223 -0.2572 -0.2234
  178MPD1    C1 2762   0.621   2.373   0.183 -0.1682 -0.1146 -0.2698
  178MPD1    C2 2763   0.623   2.292   0.071 -0.3495  0.2804  1.2853
  178MPD1    C3 2764   0.690   2.173   0.073  0.0543 -0.0737  0.4747
  178MPD1    C4 2765   0.762   2.138   0.184 -0.6834 -0.3109  0.3836
  178MPD1    C5 2766   0.765   2.220   0.295 -0.4812 -0.1580  0.5028
  178MPD1     H 2767   0.559   2.331  17.744  0.3792  0.4014  0.7455
  178MPD1    H1 2768   0.816   2.044   0.190 -1.2416 -0.5482  1.7241
  178MPD1    H2 2769   0.663   2.377   0.394  1.3015  3.6279 -2.0711
  178MPD1    H3 2770   0.822   2.185   0.380 -1.8921  0.6473  1.7805
  178MPD1     N 2771   0.693   2.086  17.711 -0.9310 -0.3064 -0.3491
  178MPD1    H5 2772   0.755   2.005  17.716 -1.2702 -0.5612 -0.2724
  178MPD1    N1 2773   0.539   2.489   0.185  0.7038 -0.3751 -0.5118
  178MPD1    H6 2774   0.572   2.560   0.251 -2.0711  0.0516  0.4064
  178MPD1    H7 2775   0.556   2.526   0.092 -0.6806 -0.1208 -0.6699
  179MPD1     C 2776   1.044   4.318  15.867  0.0254  0.1862 -0.6467
  179MPD1    C1 2777   0.910   4.296  15.855  0.6619  0.1103  0.1409
  179MPD1    C2 2778   0.819   4.399  15.899  0.0848  0.5178 -0.3588
  179MPD1    C3 2779   0.865   4.502  15.980 -0.2442 -0.2813  0.7175
  179MPD1    C4 2780   1.001   4.512  15.998  0.2418 -0.0101  0.4889
  179MPD1    C5 2781   1.088   4.434  15.931 -0.0408  0.3774  0.2879
  179MPD1     H 2782   0.713   4.403  15.878 -0.4878 -1.0211  2.3362
  179MPD1    H1 2783   1.030   4.593  16.064  1.8192 -0.1553 -0.0365
  179MPD1    H2 2784   1.124   4.252  15.837  0.6074  0.1708  0.9518
  179MPD1    H3 2785   1.192   4.466  15.932 -0.6035  2.3000 -1.1619
  179MPD1     N 2786   0.784   4.602  16.041  0.4303  0.2440  0.1342
  179MPD1    H5 2787   0.824   4.658  16.115 -0.5965 -0.2739  1.0679
  179MPD1    N1 2788   0.850   4.202  15.770 -0.1561  0.1821 -0.1629
  179MPD1    H6 2789   0.889   4.112  15.796 -2.3627 -1.2628 -1.8428
  179MPD1    H7 2790   0.751   4.188  15.792  0.1462  0.9087  1.6358
  180MPD1     C 2791   0.401   2.337  15.513 -0.0246  0.7356 -0.0271
  180MPD1    C1 2792   0.274   2.281  15.479  0.4022  0.4721  0.1779
  180MPD1    C2 2793   0.258   2.192  15.374  0.1827  0.4216  0.4006
  180MPD1    C3 2794   0.366   2.167  15.286  0.5417 -0.1944  0.3552
  180MPD1    C4 2795   0.491   2.219  15.318 -0.5357 -0.2433  0.2368
  180MPD1    C5 2796   0.509   2.303  15.432 -0.2500  0.3311  0.2844
  180MPD1     H 2797   0.158   2.155  15.358  0.6806 -0.0328 -1.6949
  180MPD1    H1 2798   0.574   2.207  15.248 -0.7190  2.6524 -0.4524
  180MPD1    H2 2799   0.417   2.407  15.593 -1.0072  1.9783 -0.9151
  180MPD1    H3 2800   0.608   2.340  15.455  0.4419  0.5647 -3.1004
  180MPD1     N 2801   0.339   2.070  15.182  0.8217 -0.2885  0.1667
  180MPD1    H5 2802   0.250   2.021  15.177 -0.2347  1.5694  1.2337
  180MPD1    N1 2803   0.164   2.322  15.559  0.1344  0.3215  0.2305
  180MPD1    H6 2804   0.174   2.412  15.605  1.0594  0.2099  0.2435
  180MPD1    H7 2805   0.081   2.321  15.499  1.4264 -0.0367 -1.5681
  181MPD1     C 2806   1.138   3.774   9.847 -0.1414  0.1954 -0.3308
  181MPD1    C1 2807   1.185   3.897   9.889 -0.0520 -0.1850  0.1230
  181MPD1    C2 2808   1.313   3.907   9.952  0.1263 -0.7232  0.7657
  181MPD1    C3 2809   1.394   3.795   9.959  0.2177  0.3339  0.3603
  181MPD1    C4 2810   1.350   3.672   9.922  0.1483  0.1162 -0.2534
  181MPD1    C5 2811   1.220   3.661   9.872 -0.2518  0.2796 -0.6118
  181MPD1     H 2812   1.350   4.001   9.991  0.5809 -0.4335 -0.3708
  181MPD1    H1 2813   1.412   3.585   9.939  0.6460  0.2167 -1.5605
  181MPD1    H2 2814   1.038   3.773   9.803 -0.1286 -1.0198 -0.3335
  181MPD1    H3 2815   1.181   3.566   9.837  1.5952 -1.1398  1.1589
  181MPD1     N 2816   1.527   3.802  10.018  0.4474  0.2549  0.1188
  181MPD1    H5 2817   1.580   3.715  10.025 -1.8318 -0.8391  3.7430
  181MPD1    N1 2818   1.100   4.008   9.902 -0.1540  0.0564  0.7153
  181MPD1    H6 2819   1.146   4.096   9.882  1.8680 -1.3470 -0.8606
  181MPD1    H7 2820   1.025   4.003   9.834 -2.5152 -0.9517  3.3782
  182MPD1     C 2821   2.672   3.071   2.074  0.2813 -0.8569 -0.6757
  182MPD1    C1 2822   2.562   3.149   2.052 -0.4649  0.2275  0.0932
  182MPD1    C2 2823   2.498   3.144   1.930  0.2269 -0.1223  0.2492
  182MPD1    C3 2824   2.553   3.072   1.827  0.5556  0.2299  0.1153
  182MPD1    C4 2825   2.668   2.994   1.853  0.2547  0.5081  0.0817
  182MPD1    C5 2826   2.726   3.001   1.978  0.4963  0.1703  0.0099
  182MPD1     H 2827   2.404   3.197   1.918  0.8936  0.7942 -0.9537
  182MPD1    H1 2828   2.722   2.925   1.788 -0.5324  0.7165 -0.8019
  182MPD1    H2 2829   2.708   3.070   2.176  2.4924  0.1658 -1.4555
  182MPD1    H3 2830   2.814   2.945   2.008  0.6728 -0.4339 -1.6363
  182MPD1     N 2831   2.490   3.062   1.702 -0.8521 -0.8217 -0.4573
  182MPD1    H5 2832   2.522   3.000   1.629 -0.1065 -1.7078  0.6252
  182MPD1    N1 2833   2.500   3.219   2.162  0.2882  0.1178 -0.3267
  182MPD1    H6 2834   2.452   3.301   2.126 -0.2106  0.6487  1.5446
  182MPD1    H7 2835   2.571   3.243   2.232  2.3093 -0.3403 -2.2030
  183MPD1     C 2836   2.496   2.596   9.248  0.3048 -0.6701 -0.1381
  183MPD1    C1 2837   2.613   2.658   9.294  1.2199 -0.0063  0.2194
  183MPD1    C2 2838   2.598   2.772   9.380  0.2538 -0.1829  0.0598
  183MPD1    C3 2839   2.471   2.803   9.428 -0.3907 -0.2050 -0.0523
  183MPD1    C4 2840   2.362   2.727   9.393 -0.2827 -0.0512 -0.3802
  183MPD1    C5 2841   2.373   2.623   9.305 -0.0947  0.0943 -0.0475
  183MPD1     H 2842   2.688   2.824   9.412  0.2068 -0.7387  1.1052
  183MPD1    H1 2843   2.265   2.747   9.438 -1.5928 -0.4569 -3.0016
  183MPD1    H2 2844   2.498   2.519   9.172  2.0066  0.9110 -1.7076
  183MPD1    H3 2845   2.287   2.564   9.276 -0.2519 -0.6341  1.8601
  183MPD1     N 2846   2.465   2.921   9.510  0.3728  0.7900 -0.3952
  183MPD1    H5 2847   2.550   2.962   9.546 -0.9643  1.3902  2.1228
  183MPD1    N1 2848   2.733   2.633   9.225  0.2349 -0.0061 -0.4744
  183MPD1    H6 2849   2.748   2.536   9.196  0.7742 -0.5144  1.4541
  183MPD1    H7 2850   2.814   2.643   9.287  0.1673 -1.4408 -0.1329
  184MPD1     C 2851   2.036   1.298  10.337 -0.3094  1.2301  0.4126
  184MPD1    C1 2852   2.066   1.208  10.233  0.3413  0.5030  0.2222
  184MPD1    C2 2853   2.177   1.229  10.149  0.0443  0.4724  0.3201
  184MPD1    C3 2854   2.263   1.338  10.167  0.0975 -0.3428 -0.2405
  184MPD1    C4 2855   2.228   1.434  10.259 -0.4052 -0.0478 -0.3349
  184MPD1    C5 2856   2.120   1.406  10.345 -0.3841  0.2449  0.3132
  184MPD1     H 2857   2.199   1.152  10.076 -1.4749 -0.9462  1.3468
  184MPD1    H1 2858   2.294   1.520  10.264 -1.5619  0.7199  1.8885
  184MPD1    H2 2859   1.949   1.287  10.400  1.5450 -0.6244  2.6809
  184MPD1    H3 2860   2.084   1.483  10.412  2.0713  1.4615  0.2216
  184MPD1     N 2861   2.373   1.366  10.081  0.5218  0.0032 -0.1919
  184MPD1    H5 2862   2.419   1.456  10.091 -0.9202  0.6867  0.2784
  184MPD1    N1 2863   1.966   1.111  10.200  0.1928 -0.1241  0.6162
  184MPD1    H6 2864   2.003   1.020  10.174 -0.7994 -0.0430 -1.1158
  184MPD1    H7 2865   1.906   1.089  10.279 -0.8450  2.5473  0.5806
  185MPD1     C 2866   3.087   0.986   9.340  0.2018 -0.4641 -0.0659
  185MPD1    C1 2867   2.958   0.939   9.366 -0.0493 -0.3088  0.4832
  185MPD1    C2 2868   2.902   0.983   9.485 -0.4164  0.6325  0.3259
  185MPD1    C3 2869   2.966   1.080   9.558 -0.1604  0.5364 -0.3729
  185MPD1    C4 2870   3.093   1.118   9.527  0.3222 -0.4319 -0.1450
  185MPD1    C5 2871   3.153   1.073   9.416 -0.1832 -0.0669 -0.5009
  185MPD1     H 2872   2.808   0.935   9.512  0.0705 -1.4780 -1.7872
  185MPD1    H1 2873   3.146   1.196   9.581 -2.6061  0.7167  1.0341
  185MPD1    H2 2874   3.135   0.962   9.246  2.2805 -2.5250  1.5411
  185MPD1    H3 2875   3.239   1.129   9.381  1.1405 -2.0628 -0.4575
  185MPD1     N 2876   2.895   1.142   9.668  0.5923 -0.0321 -0.0691
  185MPD1    H5 2877   2.946   1.212   9.721  1.5630 -0.2206 -0.7517
  185MPD1    N1 2878   2.898   0.827   9.301  0.2721  0.2876  0.0499
  185MPD1    H6 2879   2.942   0.805   9.212  0.4018  0.8022 -0.0086
  185MPD1    H7 2880   2.796   0.833   9.299  0.3602  0.8635 -2.5523
  186MPD1     C 2881   0.853   0.195  16.023 -0.6807 -1.0736 -0.3819
  186MPD1    C1 2882   0.889   0.162  16.155  0.1591 -0.8210 -0.6969
  186MPD1    C2 2883   0.835   0.237  16.254  0.4980 -0.7898 -0.5092
  186MPD1    C3 2884   0.757   0.350  16.224 -0.1700 -0.0627  0.5295
  186MPD1    C4 2885   0.727   0.391  16.094 -0.0597  0.0489  0.4168
  186MPD1    C5 2886   0.777   0.308  15.994 -0.1640  0.2060 -0.1844
  186MPD1     H 2887   0.859   0.224  16.359 -0.6861 -0.7496 -0.2379
  186MPD1    H1 2888   0.665   0.474  16.063  2.3134  1.1197 -1.4384
  186MPD1    H2 2889   0.882   0.128  15.943  2.3980  1.1938 -1.1732
  186MPD1    H3 2890   0.745   0.332  15.894  0.6143  2.2912  0.0667
  186MPD1     N 2891   0.705   0.428  16.328 -0.4994  0.6167 -0.0048
  186MPD1    H5 2892   0.663   0.519  16.307  1.9571  1.9523  0.8476
  186MPD1    N1 2893   0.976   0.057  16.185 -0.5869  0.2542  0.1553
  186MPD1    H6 2894   1.055   0.040  16.123  1.4254 -0.9150  3.0476
  186MPD1    H7 2895   1.022   0.076  16.274 -2.1873 -0.1557  1.0544
  187MPD1     C 2896   3.928   3.028   0.310 -0.3695  0.4283  0.2001
  187MPD1    C1 2897   4.029   3.110   0.264  1.2650 -0.4611  0.0578
  187MPD1    C2 2898   4.116   3.050   0.168  0.6237 -0.6664  0.0710
  187MPD1    C3 2899   4.098   2.922   0.128 -0.6800 -0.0192 -0.0225
  187MPD1    C4 2900   4.001   2.845   0.183 -0.6270  0.1541  0.1593
  187MPD1    C5 2901   3.912   2.900   0.271  0.1690  0.7204  0.5095
  187MPD1     H 2902   4.203   3.100   0.126 -0.5660  1.5607  0.2765
  187MPD1    H1 2903   3.987   2.742   0.150 -2.2053 -0.2323  2.0819
  187MPD1    H2 2904   3.862   3.077   0.381 -1.5434 -1.9145  0.7341
  187MPD1    H3 2905   3.833   2.838   0.313  0.7803 -1.2539 -1.2413
  187MPD1     N 2906   4.166   2.870   0.025  0.2162  0.0999  0.0088
  187MPD1    H5 2907   4.134   2.776   0.005  0.7033 -0.3763  1.4923
  187MPD1    N1 2908   4.029   3.246   0.295 -0.2480 -0.5085  0.0141
  187MPD1    H6 2909   3.999   3.265   0.391  2.5416 -0.2672  0.8440
  187MPD1    H7 2910   4.120   3.290   0.282 -0.5868 -0.1759 -1.1932
  188MPD1     C 2911   4.186   2.192   9.851 -0.5438  0.4461  0.3008
  188MPD1    C1 2912   4.317   2.144   9.853  0.0980 -0.5206  0.2428
  188MPD1    C2 2913   4.341   2.024   9.917  0.2312  0.0576  0.1826
  188MPD1    C3 2914   4.240   1.950   9.961 -0.1591  0.6287  0.0121
  188MPD1    C4 2915   4.111   1.986   9.935 -0.3410  0.7548  0.3349
  188MPD1    C5 2916   4.084   2.107   9.885  0.0439 -0.3627 -0.3905
  188MPD1     H 2917   4.444   2.003   9.942  0.6692  0.6689 -1.1517
  188MPD1    H1 2918   4.022   1.931   9.967  0.1672 -0.2727 -0.0269
  188MPD1    H2 2919   4.164   2.295   9.829  2.1892  1.2079  1.2010
  188MPD1    H3 2920   3.985   2.149   9.887  0.1608 -0.0273 -1.7499
  188MPD1     N 2921   4.256   1.824  10.016  0.0152 -0.7633  0.0626
  188MPD1    H5 2922   4.166   1.782  10.037  0.4924 -0.6405  2.3464
  188MPD1    N1 2923   4.421   2.236   9.812  0.2783 -0.3915  0.4468
  188MPD1    H6 2924   4.495   2.184   9.767  1.6939  0.7993  1.3984
  188MPD1    H7 2925   4.393   2.318   9.758 -1.6477  0.8641  3.3192
  189MPD1     C 2926   0.877   3.476   1.189 -0.4401  0.0453  0.5723
  189MPD1    C1 2927   0.767   3.494   1.110  0.0635  0.5278 -0.4285
  189MPD1    C2 2928   0.783   3.579   1.003 -0.4635  0.1066  0.6326
  189MPD1    C3 2929   0.895   3.660   0.980  0.3690  0.2499  0.1719
  189MPD1    C4 2930   0.998   3.649   1.071  0.0708  0.6343  0.1716
  189MPD1    C5 2931   0.982   3.565   1.182  0.1081 -0.0275 -0.0771
  189MPD1     H 2932   0.702   3.591   0.933 -1.6583  0.8919  2.1627
  189MPD1    H1 2933   1.091   3.703   1.055 -0.0592  0.6921 -0.3796
  189MPD1    H2 2934   0.871   3.407   1.272 -1.9493  0.3187  0.6912
  189MPD1    H3 2935   1.061   3.542   1.252 -2.3139 -2.1979  1.9381
  189MPD1     N 2936   0.898   3.747   0.864 -0.6482  0.2923  0.0655
  189MPD1    H5 2937   0.813   3.736   0.808 -0.4262 -2.3605  0.2644
  189MPD1    N1 2938   0.656   3.414   1.131 -0.2680 -0.4197 -0.0276
  189MPD1    H6 2939   0.570   3.445   1.085  2.2757  2.3666 -2.9213
  189MPD1    H7 2940   0.652   3.382   1.227  2.2706 -0.8537 -0.0571
  190MPD1     C 2941   0.404   1.491  15.023 -0.6648 -0.0128 -0.1718
  190MPD1    C1 2942   0.532   1.541  15.017  0.3042  0.7443  0.2116
  190MPD1    C2 2943   0.572   1.609  15.126  0.2382  0.4884 -0.2469
  190MPD1    C3 2944   0.477   1.648  15.225  0.1949  0.0988  0.4019
  190MPD1    C4 2945   0.344   1.625  15.214  0.4612  0.7459 -0.1539
  190MPD1    C5 2946   0.317   1.528  15.124  0.3037 -0.2968  0.5961
  190MPD1     H 2947   0.676   1.640  15.131  0.2139  0.7043 -1.0688
  190MPD1    H1 2948   0.270   1.650  15.289  0.3090 -0.3898  0.0787
  190MPD1    H2 2949   0.371   1.423  14.946  0.2501  0.8977 -1.3645
  190MPD1    H3 2950   0.214   1.496  15.118  1.4155 -3.5463 -1.0288
  190MPD1     N 2951   0.529   1.719  15.343  0.0900  0.2348 -0.1333
  190MPD1    H5 2952   0.629   1.705  15.354 -0.1302 -0.4102  1.1154
  190MPD1    N1 2953   0.624   1.493  14.925  0.2174 -0.2519  0.2957
  190MPD1    H6 2954   0.690   1.567  14.904  0.2314 -0.0671  0.9817
  190MPD1    H7 2955   0.577   1.449  14.846  1.3677 -0.9604  0.0045
  191MPD1     C 2956   4.557   3.103  13.201  0.4898 -0.3923  0.3611
  191MPD1    C1 2957   4.675   3.136  13.155  0.0771  0.6744  0.0398
  191MPD1    C2 2958   4.685   3.253  13.079 -0.4210 -0.8853 -0.1113
  191MPD1    C3 2959   4.577   3.335  13.053 -0.2127 -0.7326 -0.1613
  191MPD1    C4 2960   4.459   3.289  13.097  0.1251 -0.2342  0.2739
  191MPD1    C5 2961   4.450   3.174  13.178  0.2392 -0.2083 -0.0791
  191MPD1     H 2962   0.044   3.297  13.061 -1.2242  1.1608  0.5866
  191MPD1    H1 2963   4.371   3.351  13.095  1.5387  1.7038 -1.4402
  191MPD1    H2 2964   4.533   3.022  13.270 -0.2006 -0.7373 -0.2899
  191MPD1    H3 2965   4.358   3.132  13.217  1.4885 -1.1791  1.8312
  191MPD1     N 2966   4.587   3.463  12.988 -0.4867  1.1877  0.3908
  191MPD1    H5 2967   4.501   3.516  12.984 -0.5040  1.1263 -0.0511
  191MPD1    N1 2968   0.055   3.068  13.195  0.0463 -0.0978  0.6024
  191MPD1    H6 2969   0.037   2.968  13.193 -1.1360  0.1427 -0.4449
  191MPD1    H7 2970   0.121   3.075  13.118 -0.8495  1.9381  0.0352
  192MPD1     C 2971   4.235   4.394  13.038  0.3930 -0.3363 -0.2470
  192MPD1    C1 2972   4.182   4.268  13.027  0.4628  0.3817  0.7272
  192MPD1    C2 2973   4.266   4.159  12.995  0.6014  0.2140  0.2895
  192MPD1    C3 2974   4.397   4.182  12.975 -0.0503  0.3651 -0.8224
  192MPD1    C4 2975   4.442   4.313  12.969  0.6074 -0.5790 -0.1125
  192MPD1    C5 2976   4.368   4.418  13.017  0.0383 -0.5649  0.0535
  192MPD1     H 2977   4.222   4.060  12.986 -1.7081  1.3838 -1.3033
  192MPD1    H1 2978   4.548   4.336  12.964  0.8956 -1.6707  0.9130
  192MPD1    H2 2979   4.168   4.474  13.068  3.0294  1.4880  0.8146
  192MPD1    H3 2980   4.413   4.516  13.027  0.1907 -0.6206 -0.0904
  192MPD1     N 2981   4.492   4.081  12.937  0.1004  0.0903  0.3297
  192MPD1    H5 2982   4.585   4.109  12.909 -0.4499  1.3161 -0.2614
  192MPD1    N1 2983   4.046   4.257  13.041  0.0049 -0.5643 -0.1010
  192MPD1    H6 2984   4.010   4.317  13.115  0.3146  1.5441 -1.6648
  192MPD1    H7 2985   4.031   4.161  13.072 -0.6420  0.0386  1.5055
  193MPD1     C 2986   4.068   3.586  16.298 -0.0987  0.6941  0.2686
  193MPD1    C1 2987   4.034   3.711  16.354  0.4136 -0.2779 -0.1819
  193MPD1    C2 2988   4.112   3.764  16.460 -0.6411 -0.1036  0.3889
  193MPD1    C3 2989   4.203   3.684  16.527 -0.3213 -1.1982  0.1473
  193MPD1    C4 2990   4.225   3.550  16.482  0.2804  0.4982  0.6911
  193MPD1    C5 2991   4.156   3.503  16.366  0.4808 -0.9132  0.3659
  193MPD1     H 2992   4.079   3.855  16.510 -1.9372 -0.9403  1.0760
  193MPD1    H1 2993   4.289   3.476  16.530 -0.3840 -0.0484  0.7257
  193MPD1    H2 2994   4.021   3.550  16.207 -1.7310  1.8894  0.6364
  193MPD1    H3 2995   4.185   3.408  16.325 -0.3349  0.2393 -2.8966
  193MPD1     N 2996   4.274   3.721  16.640 -0.2834  0.1362 -0.5405
  193MPD1    H5 2997   4.359   3.668  16.657 -0.9734 -0.6474  0.4639
  193MPD1    N1 2998   3.936   3.797  16.298 -0.1148 -0.5535  0.3183
  193MPD1    H6 2999   3.852   3.751  16.265 -0.0209 -2.1175  2.2273
  193MPD1    H7 3000   3.911   3.870  16.364 -0.0335 -0.0927 -0.1627
  194MPD1     C 3001   2.662   1.539  16.936 -0.1097 -0.1079  0.2766
  194MPD1    C1 3002   2.705   1.562  17.063 -0.4232 -0.3996 -0.1121
  194MPD1    C2 3003   2.612   1.521  17.155 -0.1291  0.4742 -0.4288
  194MPD1    C3 3004   2.498   1.447  17.136  0.0719 -0.4545  0.0336
  194MPD1    C4 3005   2.461   1.429  17.005 -0.0756 -0.4899 -0.5494
  194MPD1    C5 3006   2.543   1.475  16.907 -0.0930  0.3226  0.1392
  194MPD1     H 3007   2.644   1.553  17.254  1.2627  1.8892 -1.3394
  194MPD1    H1 3008   2.380   1.369  16.965 -0.9879  0.7605 -0.5723
  194MPD1    H2 3009   2.729   1.566  16.855 -1.4369 -1.5504 -1.2929
  194MPD1    H3 3010   2.501   1.463  16.809  1.5815  2.0996 -0.7921
  194MPD1     N 3011   2.414   1.397  17.242  0.0874 -0.3901 -0.3601
  194MPD1    H5 3012   2.334   1.343  17.211 -0.5852 -0.2535  1.1687
  194MPD1    N1 3013   2.806   1.655  17.102  0.5596  0.5775  0.5447
  194MPD1    H6 3014   2.840   1.644  17.197 -1.7255 -2.6104  0.9979
  194MPD1    H7 3015   2.888   1.653  17.041  0.0797  0.3524 -0.0961
  195MPD1     C 3016   4.282   3.419   0.879 -0.1170  0.7397 -0.1395
  195MPD1    C1 3017   4.158   3.366   0.909 -0.5419 -0.1721  0.1630
  195MPD1    C2 3018   4.120   3.245   0.860 -0.7101 -0.0916  0.1609
  195MPD1    C3 3019   4.223   3.170   0.807  0.2545  0.0895 -0.5470
  195MPD1    C4 3020   4.355   3.211   0.800 -0.2929  0.2186 -0.7784
  195MPD1    C5 3021   4.380   3.338   0.831  0.1087 -0.5770  0.5539
  195MPD1     H 3022   4.017   3.214   0.846 -0.6520  0.7289 -1.9896
  195MPD1    H1 3023   4.435   3.146   0.767  0.2570  0.2205  0.5614
  195MPD1    H2 3024   4.303   3.523   0.900 -0.3554  0.5371  1.1277
  195MPD1    H3 3025   4.480   3.378   0.815 -0.4454  0.0907 -1.2285
  195MPD1     N 3026   4.214   3.037   0.768 -0.1992  0.0753 -0.5591
  195MPD1    H5 3027   4.290   2.987   0.724 -0.1829  0.2288 -0.7073
  195MPD1    N1 3028   4.067   3.455   0.970 -0.2910  0.2644  0.1084
  195MPD1    H6 3029   3.986   3.417   1.019  1.1048 -0.5212  1.7851
  195MPD1    H7 3030   4.118   3.526   1.022 -0.5097 -1.5302  2.7429
  196MPD1     C 3031   2.946   1.948   0.505 -0.0124 -0.0517  0.0715
  196MPD1    C1 3032   3.047   2.038   0.481 -0.6836 -0.2781 -0.3537
  196MPD1    C2 3033   3.079   2.114   0.599 -0.3079 -0.6787 -0.5288
  196MPD1    C3 3034   3.010   2.105   0.722  0.3278  0.1177 -0.4707
  196MPD1    C4 3035   2.913   2.011   0.738  0.4204 -0.4962 -0.0929
  196MPD1    C5 3036   2.882   1.930   0.629 -0.4486 -0.6617  0.1813
  196MPD1     H 3037   3.169   2.174   0.593 -0.6889 -0.0283  0.2816
  196MPD1    H1 3038   2.866   1.991   0.834  1.0560  3.3826  1.0384
  196MPD1    H2 3039   2.912   1.886   0.423 -1.0647  0.3518  0.2039
  196MPD1    H3 3040   2.798   1.862   0.627 -0.5076 -0.5541 -1.0350
  196MPD1     N 3041   3.059   2.176   0.836 -0.3464 -0.6173  0.0472
  196MPD1    H5 3042   3.005   2.155   0.919 -3.1607 -3.2580 -2.4871
  196MPD1    N1 3043   3.120   2.034   0.360 -0.0464 -0.0678 -0.3642
  196MPD1    H6 3044   3.166   2.125   0.355 -1.8500  0.9599  1.5080
  196MPD1    H7 3045   3.061   2.025   0.278  0.9262 -0.9806 -0.9547
  197MPD1     C 3046   3.608   4.714   0.068 -0.5342 -0.0229 -0.0028
  197MPD1    C1 3047   3.582   0.103   0.029 -0.5175  0.5739 -0.4698
  197MPD1    C2 3048   3.469   0.131  17.705  0.3282 -0.2375  0.2240
  197MPD1    C3 3049   3.385   0.030  17.661  0.2636 -0.4908  0.6091
  197MPD1    C4 3050   3.417   4.635  17.687  0.0882 -0.0882 -0.0928
  197MPD1    C5 3051   3.526   4.612   0.021  0.3114 -0.2266 -0.1243
  197MPD1     H 3052   3.454   0.230  17.663  0.3297 -0.7362 -0.9522
  197MPD1    H1 3053   3.366   4.546  17.651 -1.4506  0.7149  0.0808
  197MPD1    H2 3054   3.694   4.691   0.130  0.6724  0.3436 -1.5506
  197MPD1    H3 3055   3.550   4.508   0.041 -1.1227 -0.2982  1.1636
  197MPD1     N 3056   3.285   0.057  17.564 -0.2639  0.6551 -0.5066
  197MPD1    H5 3057   3.257   4.714  17.510  2.0115 -1.8102  2.0678
  197MPD1    N1 3058   3.657   0.206   0.098  0.4643 -0.7132 -0.2296
  197MPD1    H6 3059   3.751   0.182   0.128  0.9905  3.4405  1.3867
  197MPD1    H7 3060   3.672   0.294   0.050 -4.4021  1.3182  1.9135
  198MPD1     C 3061   0.013   2.879  15.886 -0.3883  0.6519  0.3736
  198MPD1    C1 3062   0.144   2.867  15.851 -0.2666  0.9561  0.3574
  198MPD1    C2 3063   0.241   2.834  15.942  0.0375  0.1436 -0.4259
  198MPD1    C3 3064   0.200   2.811  16.072  0.3089 -0.2324 -0.3130
  198MPD1    C4 3065   0.063   2.815  16.107 -0.0764 -0.0058 -0.9434
  198MPD1    C5 3066   4.712   2.862  16.017  0.4876 -0.7931  0.4705
  198MPD1     H 3067   0.346   2.832  15.915 -0.2045 -0.5253 -1.2807
  198MPD1    H1 3068   0.023   2.785  16.203 -0.4377 -0.3893 -1.2135
  198MPD1    H2 3069   4.673   2.911  15.818  0.1077  0.9451 -0.0513
  198MPD1    H3 3070   4.606   2.872  16.038  0.3241 -2.2905  0.3493
  198MPD1     N 3071   0.299   2.771  16.163 -0.0940  0.0864  0.2932
  198MPD1    H5 3072   0.395   2.768  16.130 -0.2876  0.4837 -0.3044
  198MPD1    N1 3073   0.179   2.866  15.715  0.2034 -0.3455  0.0917
  198MPD1    H6 3074   0.110   2.910  15.654  0.5080 -0.2148 -0.1551
  198MPD1    H7 3075   0.270   2.906  15.693  1.1147 -1.9411  0.9971
  199MPD1     C 3076   0.762   0.301  10.995  0.5164 -0.5170 -0.5039
  199MPD1    C1 3077   0.718   0.214  10.907  0.1789  0.0324 -0.5899
  199MPD1    C2 3078   0.777   0.222  10.784 -0.2072 -0.0346 -0.3443
  199MPD1    C3 3079   0.881   0.310  10.755 -0.6276  0.2459  0.4814
  199MPD1    C4 3080   0.918   0.405  10.848 -0.5327  0.5097  0.1429
  199MPD1    C5 3081   0.859   0.396  10.970 -0.6468  0.9652  0.0197
  199MPD1     H 3082   0.746   0.145  10.715  0.0374  0.5388 -1.0931
  199MPD1    H1 3083   0.991   0.478  10.813 -0.0258 -0.6947 -1.3465
  199MPD1    H2 3084   0.712   0.313  11.091 -0.9955 -1.1295 -1.2268
  199MPD1    H3 3085   0.886   0.458  11.055  0.8453 -0.6259  0.7008
  199MPD1     N 3086   0.951   0.313  10.632  0.5027  0.0778 -0.0913
  199MPD1    H5 3087   1.026   0.381  10.636  1.3726 -0.9582  1.1316
  199MPD1    N1 3088   0.636   0.108  10.950 -0.0992  1.0359  0.0681
  199MPD1    H6 3089   0.573   0.136  11.025  0.1747 -1.0493  1.0610
  199MPD1    H7 3090   0.588   0.063  10.872  1.4647 -0.0942 -0.2421
  200MPD1     C 3091   1.096   3.670  14.837  0.3010 -0.1201 -0.2863
  200MPD1    C1 3092   1.182   3.624  14.740  0.0122 -0.5195  0.1525
  200MPD1    C2 3093   1.312   3.668  14.731 -0.2590  0.3086  0.0838
  200MPD1    C3 3094   1.360   3.742  14.836 -0.2756  0.2362 -0.0850
  200MPD1    C4 3095   1.274   3.786  14.938 -0.2159  0.4046  0.3521
  200MPD1    C5 3096   1.142   3.749  14.933 -0.3199  0.4195  0.5713
  200MPD1     H 3097   1.371   3.626  14.650 -0.2100  0.3975  0.0730
  200MPD1    H1 3098   1.299   3.845  15.025 -0.1689 -0.1738  0.7290
  200MPD1    H2 3099   0.995   3.635  14.856 -0.7015  2.1703 -1.3931
  200MPD1    H3 3100   1.078   3.773  15.017  1.3907  0.2190  1.9483
  200MPD1     N 3101   1.493   3.781  14.837  0.7248 -0.0273  0.8105
  200MPD1    H5 3102   1.550   3.739  14.764  2.9243  0.0950  2.4743
  200MPD1    N1 3103   1.136   3.529  14.648 -0.7654  0.0888  0.1066
  200MPD1    H6 3104   1.068   3.469  14.695 -0.3030  0.4478  1.2447
  200MPD1    H7 3105   1.214   3.468  14.626 -0.4774  1.3096 -2.2863
  201MPD1     C 3106   3.632   2.963  12.949  0.1015  0.6114 -0.2962
  201MPD1    C1 3107   3.606   2.826  12.945  0.1292  1.0699 -0.3091
  201MPD1    C2 3108   3.649   2.750  13.053 -0.0006  0.0891 -0.2182
  201MPD1    C3 3109   3.701   2.803  13.169 -0.2520  0.1259  0.0044
  201MPD1    C4 3110   3.730   2.938  13.170  0.2729 -0.2277 -0.3963
  201MPD1    C5 3111   3.697   3.016  13.064  1.1977  0.1444 -0.1614
  201MPD1     H 3112   3.642   2.642  13.053  0.4835  0.0573 -1.3850
  201MPD1    H1 3113   3.772   2.985  13.258 -1.4285  0.1034  0.2404
  201MPD1    H2 3114   3.621   3.025  12.861  0.8994 -1.8545 -2.1231
  201MPD1    H3 3115   3.715   3.122  13.077  0.3916  0.5424 -2.2390
  201MPD1     N 3116   3.760   2.715  13.257  0.2847  0.1420 -0.0095
  201MPD1    H5 3117   3.757   2.615  13.236 -0.4084  0.1615 -0.0225
  201MPD1    N1 3118   3.574   2.765  12.821 -0.6225  0.7777 -0.2024
  201MPD1    H6 3119   3.509   2.828  12.775  1.5737  3.3337  0.2372
  201MPD1    H7 3120   3.531   2.674  12.836 -0.2378  0.6449  0.0859
  202MPD1     C 3121   2.745   2.047   9.734 -0.3283 -0.6388  0.2090
  202MPD1    C1 3122   2.709   2.155   9.812 -0.2365  0.2904  0.4486
  202MPD1    C2 3123   2.811   2.247   9.823 -0.1324 -0.1986 -0.1242
  202MPD1    C3 3124   2.947   2.210   9.821 -0.5707 -0.0425  0.4046
  202MPD1    C4 3125   2.978   2.091   9.758 -0.0577 -0.6496  0.1070
  202MPD1    C5 3126   2.876   2.015   9.716 -1.0565  0.5855 -0.4746
  202MPD1     H 3127   2.792   2.336   9.882  0.5937 -0.2328  0.1706
  202MPD1    H1 3128   3.080   2.061   9.736 -0.3363 -1.0177 -0.6470
  202MPD1    H2 3129   2.671   1.977   9.696 -0.3487 -0.5073  0.0077
  202MPD1    H3 3130   2.892   1.934   9.646 -2.1817 -0.5963  0.6445
  202MPD1     N 3131   3.044   2.311   9.859 -0.9046  0.4488  0.1484
  202MPD1    H5 3132   2.992   2.393   9.889  0.3378  1.3162 -0.1103
  202MPD1    N1 3133   2.575   2.198   9.808  0.0883  0.1487  0.1191
  202MPD1    H6 3134   2.517   2.115   9.794 -0.9329  1.0192 -0.8006
  202MPD1    H7 3135   2.554   2.258   9.887  0.0616  0.9102 -0.4749
  203MPD1     C 3136   2.703   3.433  13.194 -0.1824  0.0643 -0.0164
  203MPD1    C1 3137   2.834   3.384  13.194  0.1367 -0.0440 -0.2372
  203MPD1    C2 3138   2.852   3.251  13.160 -0.0763  0.2952 -0.4083
  203MPD1    C3 3139   2.757   3.174  13.108 -0.6234  0.0130  0.0294
  203MPD1    C4 3140   2.634   3.224  13.085 -0.0991 -0.4803 -0.3719
  203MPD1    C5 3141   2.611   3.354  13.129 -0.6204 -0.4113 -0.1029
  203MPD1     H 3142   2.951   3.215  13.184 -0.6073 -0.1380  1.0936
  203MPD1    H1 3143   2.559   3.172  13.026 -0.9992 -0.8215  1.0692
  203MPD1    H2 3144   2.672   3.532  13.223 -1.4660  0.0169 -1.2277
  203MPD1    H3 3145   2.511   3.394  13.112 -1.2970 -1.8234  0.5482
  203MPD1     N 3146   2.785   3.038  13.081 -0.3161 -0.3542  0.4812
  203MPD1    H5 3147   2.881   3.014  13.103 -0.0343  0.4959  0.2047
  203MPD1    N1 3148   2.920   3.455  13.273 -0.2049  0.0374 -0.2609
  203MPD1    H6 3149   3.018   3.431  13.260 -0.6416 -0.6157 -2.4176
  203MPD1    H7 3150   2.916   3.556  13.258  0.2985  0.0387 -0.3793
  204MPD1     C 3151   1.762   4.092   1.123 -0.2753  1.3822 -0.0725
  204MPD1    C1 3152   1.895   4.059   1.113 -0.0702 -0.1116 -0.1966
  204MPD1    C2 3153   1.954   4.047   0.987  0.4906  0.9708 -0.4784
  204MPD1    C3 3154   1.871   4.071   0.875  0.2267 -0.6791 -0.1712
  204MPD1    C4 3155   1.736   4.101   0.893  0.1932  0.5541 -0.0714
  204MPD1    C5 3156   1.687   4.103   1.016  0.6132 -0.2230 -0.3649
  204MPD1     H 3157   2.058   4.019   0.976  0.3713  0.9116 -1.4706
  204MPD1    H1 3158   1.660   4.113   0.816  0.1539  1.0086  0.0374
  204MPD1    H2 3159   1.714   4.112   1.218 -0.1631  0.8083  0.1054
  204MPD1    H3 3160   1.586   4.137   1.037  1.0183  0.1101  1.0484
  204MPD1     N 3161   1.932   4.044   0.754  0.4834 -0.0045 -0.0650
  204MPD1    H5 3162   2.022   3.997   0.757  0.9925  1.0401  1.5588
  204MPD1    N1 3163   1.973   4.053   1.227  0.1838 -0.0535 -0.1742
  204MPD1    H6 3164   2.069   4.027   1.206  0.4814  0.5746  0.3739
  204MPD1    H7 3165   2.001   4.149   1.250  0.1249  0.5361 -2.5222
  205MPD1     C 3166   1.491   2.844  17.204 -0.6141 -0.0678  0.3766
  205MPD1    C1 3167   1.454   2.896  17.326  0.1305 -0.2476  0.7058
  205MPD1    C2 3168   1.551   2.911  17.428 -1.1947 -0.0456  0.6274
  205MPD1    C3 3169   1.684   2.878  17.410 -0.2092 -0.0604  0.6640
  205MPD1    C4 3170   1.716   2.821  17.295 -0.4738  0.1825  0.2982
  205MPD1    C5 3171   1.622   2.796  17.195 -0.3693 -0.1230  0.5281
  205MPD1     H 3172   1.521   2.933  17.529 -0.0978 -0.5247  1.0583
  205MPD1    H1 3173   1.819   2.789  17.283 -1.2366 -2.4215  0.8258
  205MPD1    H2 3174   1.424   2.853  17.120 -0.3683  0.6826  0.2587
  205MPD1    H3 3175   1.660   2.752  17.104  0.6981 -0.9177  1.3685
  205MPD1     N 3176   1.788   2.883  17.504  0.2446 -0.7503  0.3655
  205MPD1    H5 3177   1.882   2.861  17.472 -0.1866 -0.5172 -1.0617
  205MPD1    N1 3178   1.330   2.953  17.340 -0.4222 -0.2301  0.1139
  205MPD1    H6 3179   1.296   2.957  17.436 -0.2198  0.8642  0.1399
  205MPD1    H7 3180   1.261   2.915  17.276 -2.4432  1.0688  1.5093
  206MPD1     C 3181   2.476   0.635  17.080  0.1468  0.1408  0.2691
  206MPD1    C1 3182   2.480   0.739  17.002  0.3482  0.0569  0.0856
  206MPD1    C2 3183   2.408   0.756  16.887 -0.0603 -0.0501  1.4215
  206MPD1    C3 3184   2.347   0.642  16.843  0.3768 -0.0685 -0.2423
  206MPD1    C4 3185   2.357   0.521  16.919  0.2088 -0.2947 -0.4255
  206MPD1    C5 3186   2.413   0.524  17.041 -0.2476  0.4600 -0.3555
  206MPD1     H 3187   2.402   0.852  16.836 -0.6549 -1.1890 -0.6607
  206MPD1    H1 3188   2.310   0.429  16.885  1.2088 -0.8897 -0.1955
  206MPD1    H2 3189   2.540   0.638  17.168  0.1902  1.9455  0.1725
  206MPD1    H3 3190   2.405   0.433  17.099 -0.3389  0.6719 -0.0297
  206MPD1     N 3191   2.287   0.635  16.713 -0.2906  0.3016  0.5085
  206MPD1    H5 3192   2.244   0.547  16.687 -3.0843  1.8425 -0.0796
  206MPD1    N1 3193   2.567   0.843  17.028 -0.0144 -0.0331  0.4170
  206MPD1    H6 3194   2.642   0.821  17.093  1.0428 -0.3297 -0.8976
  206MPD1    H7 3195   2.623   0.866  16.946  0.1778  0.5627  0.7178
  207MPD1     C 3196   4.376   3.697   9.429 -0.2079  0.1316  0.6881
  207MPD1    C1 3197   4.427   3.828   9.432  0.3602  0.3467 -0.2482
  207MPD1    C2 3198   4.500   3.862   9.546 -0.0020  0.1129 -0.2948
  207MPD1    C3 3199   4.529   3.769   9.650  0.5799 -0.3851 -0.0361
  207MPD1    C4 3200   4.477   3.646   9.640  0.5849 -0.1948 -0.1831
  207MPD1    C5 3201   4.407   3.610   9.528 -0.5489  0.4938  0.2454
  207MPD1     H 3202   4.543   3.961   9.552  1.3153 -0.4941  0.4196
  207MPD1    H1 3203   4.476   3.576   9.723  1.2354  0.9711  0.8043
  207MPD1    H2 3204   4.329   3.651   9.343  1.2359  0.2957 -0.1862
  207MPD1    H3 3205   4.364   3.511   9.530 -1.6247  0.9170 -1.9940
  207MPD1     N 3206   4.607   3.803   9.766 -0.1230 -0.0517  0.3149
  207MPD1    H5 3207   4.626   3.728   9.831  0.2044 -1.0489 -0.9401
  207MPD1    N1 3208   4.376   3.928   9.340  0.3223  0.1400  0.0307
  207MPD1    H6 3209   4.353   3.902   9.245 -1.2551  0.8650  0.2136
  207MPD1    H7 3210   4.445   4.002   9.334 -1.5831  2.0208  1.4290
  208MPD1     C 3211   3.717   2.938   0.618  0.1324  0.1774 -0.2684
  208MPD1    C1 3212   3.648   3.000   0.717  0.1510 -0.6385  0.3615
  208MPD1    C2 3213   3.518   2.995   0.718  0.0330  0.2998  0.8115
  208MPD1    C3 3214   3.449   2.927   0.620 -0.1234  0.1831  0.1984
  208MPD1    C4 3215   3.517   2.861   0.522 -0.1213  0.3155 -0.7624
  208MPD1    C5 3216   3.650   2.857   0.530 -0.1450 -0.6056  0.1527
  208MPD1     H 3217   3.464   3.056   0.790  1.4506  1.4643  0.9024
  208MPD1    H1 3218   3.474   2.782   0.461  2.4280 -2.2549  0.7822
  208MPD1    H2 3219   3.825   2.949   0.608 -0.0343  0.0797 -2.2664
  208MPD1    H3 3220   3.702   2.803   0.452 -0.9032 -0.7957 -0.2188
  208MPD1     N 3221   3.312   2.942   0.619 -0.3251 -0.5584 -0.3513
  208MPD1    H5 3222   3.272   3.014   0.678 -0.6176 -0.9011 -0.1359
  208MPD1    N1 3223   3.714   3.076   0.818 -0.1847  0.1960  0.1982
  208MPD1    H6 3224   3.811   3.046   0.825 -0.5764 -1.2296 -0.5181
  208MPD1    H7 3225   3.667   3.071   0.908  0.7545 -2.3304  0.5458
  209MPD1     C 3226   0.136   2.742  11.104 -0.0343 -0.0835  0.2985
  209MPD1    C1 3227   0.191   2.760  10.977  0.7009 -0.1539  0.3903
  209MPD1    C2 3228   0.214   2.891  10.933  0.8227  0.5331  0.6841
  209MPD1    C3 3229   0.180   3.001  11.008 -0.2097 -0.4194 -0.7042
  209MPD1    C4 3230   0.115   2.983  11.126 -0.1424 -0.0188  0.4891
  209MPD1    C5 3231   0.091   2.855  11.171 -0.2683  0.4730  0.0578
  209MPD1     H 3232   0.264   2.906  10.838  1.3086  1.4224  1.0806
  209MPD1    H1 3233   0.100   3.068  11.192  0.5563 -0.0594  0.6992
  209MPD1    H2 3234   0.108   2.647  11.148 -1.7941  0.7790  1.0242
  209MPD1    H3 3235   0.038   2.846  11.265  0.7189 -1.9751  0.3923
  209MPD1     N 3236   0.214   3.132  10.970  0.5081 -0.3400 -0.1844
  209MPD1    H5 3237   0.263   3.137  10.881  0.8522 -1.1902 -0.0466
  209MPD1    N1 3238   0.246   2.654  10.902  0.3640  0.4768  0.6002
  209MPD1    H6 3239   0.191   2.573  10.929  1.1017 -0.9809 -2.3912
  209MPD1    H7 3240   0.239   2.676  10.803  2.0670 -0.7260  0.2242
  210MPD1     C 3241   0.795   4.036  11.107 -0.6974 -0.6447  0.2758
  210MPD1    C1 3242   0.707   3.985  11.197 -0.1953 -0.1904  0.4006
  210MPD1    C2 3243   0.629   3.882  11.149  0.7920 -0.5203  0.0888
  210MPD1    C3 3244   0.644   3.824  11.022 -0.5155 -0.4761 -0.1635
  210MPD1    C4 3245   0.743   3.875  10.937  0.1131 -0.0285 -0.3556
  210MPD1    C5 3246   0.814   3.983  10.977  0.3800  0.4179  0.5252
  210MPD1     H 3247   0.556   3.849  11.222 -0.0345  2.6015  0.6561
  210MPD1    H1 3248   0.766   3.853  10.833  1.3025  0.2057 -0.1429
  210MPD1    H2 3249   0.840   4.131  11.133  0.3670 -0.8770 -0.7230
  210MPD1    H3 3250   0.884   4.046  10.924  0.2586  1.2673  1.3698
  210MPD1     N 3251   0.557   3.726  10.972 -0.1407  0.1628  0.2511
  210MPD1    H5 3252   0.573   3.694  10.878 -0.0982  0.0609  0.2933
  210MPD1    N1 3253   0.677   4.054  11.315  0.3350  0.4400 -0.0719
  210MPD1    H6 3254   0.755   4.109  11.351 -0.1207  0.3629  1.0535
  210MPD1    H7 3255   0.646   3.987  11.385  2.9189  0.7343  1.3605
  211MPD1     C 3256   2.286   2.183  16.837 -0.0729  0.1422  0.9785
  211MPD1    C1 3257   2.369   2.292  16.873 -0.4001 -0.0100  0.0273
  211MPD1    C2 3258   2.314   2.413  16.888 -0.2829 -0.0134 -0.1765
  211MPD1    C3 3259   2.181   2.444  16.863  0.5566  0.4818  0.7238
  211MPD1    C4 3260   2.104   2.341  16.814  0.1697 -0.0373 -0.1506
  211MPD1    C5 3261   2.157   2.216  16.792  0.1966  0.3039  0.1645
  211MPD1     H 3262   2.368   2.503  16.916 -0.8425  0.4065 -0.4338
  211MPD1    H1 3263   1.999   2.338  16.787  0.7206 -2.0878 -2.1232
  211MPD1    H2 3264   2.330   2.084  16.833  2.8655  1.5689 -1.5125
  211MPD1    H3 3265   2.089   2.138  16.759 -0.6317  0.7252  0.8831
  211MPD1     N 3266   2.137   2.575  16.894  0.4488 -0.4935  0.0040
  211MPD1    H5 3267   2.208   2.646  16.911 -1.0297  0.3388  2.6850
  211MPD1    N1 3268   2.500   2.273  16.925  0.2648  0.3218 -0.4071
  211MPD1    H6 3269   2.575   2.218  16.884  0.2229  0.1824 -0.2942
  211MPD1    H7 3270   2.547   2.363  16.931 -3.4160  2.1326  1.4054
  212MPD1     C 3271   1.618   1.666  16.702  0.4989  0.5810  0.3736
  212MPD1    C1 3272   1.499   1.708  16.749 -0.1702  0.0915  0.3545
  212MPD1    C2 3273   1.424   1.627  16.834 -0.0081  0.9927  0.5866
  212MPD1    C3 3274   1.478   1.511  16.882 -0.2905 -0.2626 -0.3330
  212MPD1    C4 3275   1.600   1.466  16.832 -0.4821 -0.2662 -0.0609
  212MPD1    C5 3276   1.665   1.550  16.744  0.9374 -0.5642  0.1682
  212MPD1     H 3277   1.322   1.654  16.861 -0.8564  0.2882 -2.0070
  212MPD1    H1 3278   1.648   1.372  16.858  1.7156  0.9201  0.1813
  212MPD1    H2 3279   1.665   1.723  16.622  2.1663  0.2090  1.0995
  212MPD1    H3 3280   1.755   1.516  16.693  0.9247 -1.2205  0.5861
  212MPD1     N 3281   1.411   1.422  16.971 -0.7773  0.0540  0.4500
  212MPD1    H5 3282   1.461   1.337  16.995  0.4099  0.4452 -0.5898
  212MPD1    N1 3283   1.443   1.824  16.691 -0.1646 -0.6584  0.1966
  212MPD1    H6 3284   1.518   1.886  16.661 -1.4251  0.6554 -0.3083
  212MPD1    H7 3285   1.400   1.868  16.772  0.2500  0.7806 -0.3724
  213MPD1     C 3286   0.003   2.054  15.973  0.1122  0.2555  0.2110
  213MPD1    C1 3287   4.632   1.969  15.971 -0.0026  0.3639 -0.0907
  213MPD1    C2 3288   4.542   1.993  15.866 -0.3417  0.3401 -0.8771
  213MPD1    C3 3289   4.544   2.122  15.801 -0.3601 -0.6058 -0.0980
  213MPD1    C4 3290   4.645   2.212  15.828 -0.2611 -0.6462 -0.6652
  213MPD1    C5 3291   0.002   2.177  15.913 -0.3580  0.3376  0.1683
  213MPD1     H 3292   4.470   1.920  15.831 -0.8902  0.1316  0.6671
  213MPD1    H1 3293   4.654   2.305  15.774  0.1756  1.1342  2.4816
  213MPD1    H2 3294   0.087   2.028  16.036 -0.9283  1.3416  2.0366
  213MPD1    H3 3295   0.093   2.236  15.919 -0.9077  1.4619 -2.6923
  213MPD1     N 3296   4.435   2.130  15.716  0.1015  0.4065  0.0983
  213MPD1    H5 3297   4.379   2.046  15.715 -0.8171  1.0221  0.3243
  213MPD1    N1 3298   4.652   1.834  16.016  0.4497 -0.1349 -0.1972
  213MPD1    H6 3299   4.560   1.803  16.047  0.7057  0.7977  1.4567
  213MPD1    H7 3300   4.713   1.834  16.096  1.6265  0.1028 -1.0964
  214MPD1     C 3301   4.197   1.760  14.896 -0.2742 -0.0449 -0.5637
  214MPD1    C1 3302   4.205   1.697  15.022  0.0110 -0.0245  0.5057
  214MPD1    C2 3303   4.202   1.778  15.130 -0.5904 -0.3382  0.1189
  214MPD1    C3 3304   4.183   1.917  15.123 -0.3877  0.5230  0.1597
  214MPD1    C4 3305   4.170   1.971  15.001  0.1815  0.6755 -0.0242
  214MPD1    C5 3306   4.175   1.895  14.890  0.2055  0.0727 -0.3855
  214MPD1     H 3307   4.238   1.734  15.223 -1.1538  0.4845  0.7288
  214MPD1    H1 3308   4.139   2.074  14.988  1.9203  1.1039 -0.8185
  214MPD1    H2 3309   4.192   1.694  14.810  3.4696 -1.3307  0.1673
  214MPD1    H3 3310   4.154   1.929  14.790 -1.8623 -1.5104 -0.5146
  214MPD1     N 3311   4.152   2.007  15.229 -0.0691 -0.7872 -0.0010
  214MPD1    H5 3312   4.115   2.097  15.200  1.1868 -0.6622 -1.2230
  214MPD1    N1 3313   4.243   1.559  15.031  0.2779 -0.0854  0.1827
  214MPD1    H6 3314   4.187   1.496  14.974  0.4566 -1.3103  1.3461
  214MPD1    H7 3315   4.231   1.515  15.122  0.7556 -0.2175  0.1822
  215MPD1     C 3316   4.482   2.751  10.679  0.1183 -0.0605 -0.2457
  215MPD1    C1 3317   4.578   2.736  10.777  0.0654  0.3744  0.2407
  215MPD1    C2 3318   4.589   2.831  10.873 -0.2853  0.6282  0.1437
  215MPD1    C3 3319   4.504   2.936  10.870  0.3101  0.3425 -0.8539
  215MPD1    C4 3320   4.402   2.948  10.778  0.3071  0.2556  0.2959
  215MPD1    C5 3321   4.393   2.857  10.680  0.7170  0.4472 -0.5508
  215MPD1     H 3322   4.676   2.825  10.937 -0.1128  0.5806 -0.0928
  215MPD1    H1 3323   4.328   3.026  10.771  0.9742  1.0792  2.4202
  215MPD1    H2 3324   4.465   2.678  10.601  0.5681 -0.6511  0.2114
  215MPD1    H3 3325   4.307   2.856  10.615  0.4615 -0.3210 -0.2031
  215MPD1     N 3326   4.511   3.030  10.978 -0.1014  0.2014  0.1306
  215MPD1    H5 3327   4.577   3.017  11.055  0.3298  0.5945 -0.1759
  215MPD1    N1 3328   4.679   2.639  10.775  0.5376 -0.1211  0.1467
  215MPD1    H6 3329   4.650   2.551  10.733 -2.2288  0.1453  1.4701
  215MPD1    H7 3330   4.709   2.619  10.871 -0.7687  0.2473  0.6262
  216MPD1     C 3331   1.769   1.004  16.589 -0.5992 -0.2889 -0.1804
  216MPD1    C1 3332   1.772   0.865  16.597  0.9479  0.1241 -0.6878
  216MPD1    C2 3333   1.773   0.810  16.729 -0.2385  0.1743 -0.2539
  216MPD1    C3 3334   1.738   0.888  16.839  0.3541 -0.0890  0.0145
  216MPD1    C4 3335   1.713   1.028  16.822 -0.2124 -0.1160 -0.1226
  216MPD1    C5 3336   1.724   1.082  16.698 -0.2664  0.4751 -0.5659
  216MPD1     H 3337   1.794   0.706  16.750  1.2334  0.2614 -1.2296
  216MPD1    H1 3338   1.672   1.093  16.898  0.7038 -1.7876  1.8113
  216MPD1    H2 3339   1.790   1.049  16.493  0.5332  1.4559  0.8853
  216MPD1    H3 3340   1.695   1.185  16.676 -1.1766  0.5518  0.9895
  216MPD1     N 3341   1.714   0.823  16.961 -0.1570  0.4765 -0.2375
  216MPD1    H5 3342   1.709   0.722  16.962  2.2473  0.3633 -0.2928
  216MPD1    N1 3343   1.813   0.782  16.485 -0.2482  0.0907 -0.6161
  216MPD1    H6 3344   1.795   0.820  16.392 -4.0080  0.2564  0.1732
  216MPD1    H7 3345   1.796   0.682  16.492  3.4282 -0.4655  0.0871
  217MPD1     C 3346   2.292   1.095   8.971  0.0206  0.2718  0.6730
  217MPD1    C1 3347   2.163   1.103   9.024  0.0252  0.0438  0.3665
  217MPD1    C2 3348   2.136   1.211   9.098 -0.5630 -0.3972 -0.1883
  217MPD1    C3 3349   2.233   1.304   9.135 -0.4351 -0.9249 -0.2043
  217MPD1    C4 3350   2.359   1.295   9.087 -0.6135  0.4977 -0.3247
  217MPD1    C5 3351   2.383   1.197   8.993  0.6823 -0.6676  0.1290
  217MPD1     H 3352   2.043   1.206   9.153 -0.6139 -1.5823 -0.3976
  217MPD1    H1 3353   2.430   1.374   9.109 -0.6921  0.3083  0.6223
  217MPD1    H2 3354   2.313   1.009   8.909 -0.2897  1.6803 -1.3906
  217MPD1    H3 3355   2.482   1.174   8.955  1.1542 -0.8622  1.4729
  217MPD1     N 3356   2.209   1.410   9.229  0.0033  0.3720 -0.4313
  217MPD1    H5 3357   2.277   1.482   9.249 -0.6905  0.8571  0.2003
  217MPD1    N1 3358   2.076   0.989   9.040 -0.2698  0.1545  0.3014
  217MPD1    H6 3359   2.079   0.914   8.971 -0.1634 -0.3417  0.8467
  217MPD1    H7 3360   1.979   1.018   9.050 -1.0909 -2.4193 -0.2760
  218MPD1     C 3361   4.223   3.485  12.903 -0.1130  0.7206  0.1740
  218MPD1    C1 3362   4.239   3.360  12.855 -0.2071  0.1404 -0.4664
  218MPD1    C2 3363   4.295   3.344  12.735 -0.6732 -0.2267 -0.7572
  218MPD1    C3 3364   4.356   3.444  12.665  0.1124  0.6330 -0.5018
  218MPD1    C4 3365   4.349   3.574  12.716 -0.4529  0.1776 -0.4768
  218MPD1    C5 3366   4.273   3.588  12.833  0.1549 -0.1490  0.0498
  218MPD1     H 3367   4.296   3.244  12.692  0.5680 -1.5950  2.4599
  218MPD1    H1 3368   4.384   3.662  12.665  0.7357 -1.0544 -1.7880
  218MPD1    H2 3369   4.172   3.500  12.997  2.8934 -0.1937  1.9474
  218MPD1    H3 3370   4.268   3.689  12.871 -0.5862 -0.7189  1.4312
  218MPD1     N 3371   4.435   3.410  12.549  0.7518 -0.3162 -0.3838
  218MPD1    H5 3372   4.436   3.311  12.528  2.0434 -0.6638  1.3280
  218MPD1    N1 3373   4.193   3.249  12.925  0.8301  0.0753 -0.2432
  218MPD1    H6 3374   4.161   3.268  13.019  0.2026  2.6920 -0.9807
  218MPD1    H7 3375   4.245   3.161  12.918  0.6229  0.1368 -2.6373
  219MPD1     C 3376   0.123   3.483  11.546 -0.4296  0.4977  0.5155
  219MPD1    C1 3377   0.033   3.559  11.616  0.2025 -0.0183  0.0288
  219MPD1    C2 3378   0.006   3.533  11.748 -0.0009 -0.4503  0.7160
  219MPD1    C3 3379   0.073   3.435  11.815 -0.0130  0.1944  0.5794
  219MPD1    C4 3380   0.157   3.347  11.744  0.2265 -0.4127 -0.4621
  219MPD1    C5 3381   0.187   3.383  11.616  0.1165 -0.3766 -0.1125
  219MPD1     H 3382   4.672   3.599  11.795  2.2123  0.4049  2.8998
  219MPD1    H1 3383   0.203   3.267  11.800 -1.0934  0.3085  1.6793
  219MPD1    H2 3384   0.135   3.501  11.440 -2.2315 -1.2910  0.0141
  219MPD1    H3 3385   0.250   3.312  11.563 -0.6551 -0.2638 -1.2049
  219MPD1     N 3386   0.055   3.409  11.952  0.2656  0.1575 -0.4408
  219MPD1    H5 3387   0.097   3.326  11.993 -0.3632  0.0011 -0.0989
  219MPD1    N1 3388   4.682   3.646  11.550 -0.3997 -0.0642  0.3409
  219MPD1    H6 3389   4.650   3.721  11.611  0.5396 -0.6320  1.5491
  219MPD1    H7 3390   4.721   3.684  11.465 -0.4197 -0.8656 -0.0314
  220MPD1     C 3391   4.079   0.103  10.200  0.3013 -0.0778 -0.3935
  220MPD1    C1 3392   4.023   4.730  10.146 -0.0597 -0.4853  0.0917
  220MPD1    C2 3393   4.070   4.608  10.191  0.4320 -0.3967  0.3324
  220MPD1    C3 3394   4.144   4.596  10.310 -0.5633 -0.6308  0.5696
  220MPD1    C4 3395   4.194   4.719  10.362  0.9129  0.2334  0.1632
  220MPD1    C5 3396   4.145   0.095  10.319  0.3022 -0.6197 -0.0131
  220MPD1     H 3397   4.028   4.521  10.141 -1.8496  0.1078  1.3403
  220MPD1    H1 3398   4.263   4.724  10.445 -0.0542 -0.4207  1.0072
  220MPD1    H2 3399   4.055   0.204  10.169  2.5947  0.6664  0.2572
  220MPD1    H3 3400   4.189   0.182  10.366  0.0694 -0.3395 -0.3215
  220MPD1     N 3401   4.177   4.466  10.357 -0.0040  0.3222 -0.1343
  220MPD1    H5 3402   4.135   4.383  10.317  3.2427 -0.9110 -0.9923
  220MPD1    N1 3403   3.958   0.011  10.020 -0.3604  0.0291  0.2230
  220MPD1    H6 3404   3.903   4.667   9.994  0.6045 -1.2938  2.3661
  220MPD1    H7 3405   3.907   0.099  10.020 -1.0008 -0.3251  2.7279
  221MPD1     C 3406   1.243   2.364  16.442  0.2422 -0.1493  0.0242
  221MPD1    C1 3407   1.284   2.494  16.441  0.7357  0.0670  0.3716
  221MPD1    C2 3408   1.415   2.518  16.452 -0.5595  0.4937  0.1309
  221MPD1    C3 3409   1.508   2.420  16.479 -0.1281 -0.0500  0.1712
  221MPD1    C4 3410   1.461   2.295  16.493  0.0663  0.0428  0.4311
  221MPD1    C5 3411   1.335   2.265  16.470  0.2792 -0.3451  0.9786
  221MPD1     H 3412   1.452   2.619  16.436  1.4271 -0.5766 -2.0541
  221MPD1    H1 3413   1.529   2.214  16.513  1.1222  1.0940  1.1311
  221MPD1    H2 3414   1.139   2.345  16.420 -0.1428  1.6008  0.3448
  221MPD1    H3 3415   1.302   2.163  16.478  0.2294 -0.2983  1.3597
  221MPD1     N 3416   1.649   2.438  16.493 -0.4306  0.6120 -0.2473
  221MPD1    H5 3417   1.698   2.350  16.501 -1.5978  0.0903  1.1548
  221MPD1    N1 3418   1.195   2.588  16.397 -0.2703 -0.0663 -0.3778
  221MPD1    H6 3419   1.206   2.680  16.438  0.5872  0.3432 -1.5041
  221MPD1    H7 3420   1.099   2.566  16.423  0.2662 -0.8955  0.8990
  222MPD1     C 3421   0.933   0.867   0.036 -0.1756 -0.3414  0.4135
  222MPD1    C1 3422   0.907   0.998  17.750  0.4311  0.3546 -0.0013
  222MPD1    C2 3423   0.878   1.088   0.088  0.4362 -0.4517  0.1867
  222MPD1    C3 3424   0.870   1.059   0.221  0.2528  0.0892 -0.5073
  222MPD1    C4 3425   0.904   0.931   0.260 -0.2662  0.4218 -0.2063
  222MPD1    C5 3426   0.935   0.832   0.169 -0.0637 -0.2721 -0.1559
  222MPD1     H 3427   0.864   1.191   0.056 -0.5382 -0.0313  1.9413
  222MPD1    H1 3428   0.909   0.903   0.365  0.1036 -0.0228 -0.3403
  222MPD1    H2 3429   0.957   0.791  17.714 -0.1722  0.4177 -0.3809
  222MPD1    H3 3430   0.963   0.733   0.203 -0.0225  0.0471  0.7386
  222MPD1     N 3431   0.846   1.151   0.325 -0.7042 -0.0371  0.3033
  222MPD1    H5 3432   0.851   1.117   0.421  0.6365  0.4446  0.4062
  222MPD1    N1 3433   0.876   1.030  17.619 -0.8042  0.1589 -0.1535
  222MPD1    H6 3434   0.941   0.972  17.566 -2.4665 -2.2024  0.4159
  222MPD1    H7 3435   0.905   1.126  17.598  1.2793 -0.6116 -0.8222
  223MPD1     C 3436   0.410   1.196   1.219  0.3162 -0.7452 -0.6893
  223MPD1    C1 3437   0.490   1.301   1.224 -0.3547  0.7744 -0.4955
  223MPD1    C2 3438   0.544   1.345   1.102 -0.7569  0.2813 -0.3061
  223MPD1    C3 3439   0.535   1.271   0.984 -0.5189  0.7959 -0.0444
  223MPD1    C4 3440   0.458   1.156   0.988  0.0138  0.1572 -0.3768
  223MPD1    C5 3441   0.391   1.120   1.107 -0.2903 -0.0182 -0.1560
  223MPD1     H 3442   0.612   1.429   1.100 -1.2086  0.6471 -0.3061
  223MPD1    H1 3443   0.416   1.101   0.904  0.7992 -1.7831  0.5087
  223MPD1    H2 3444   0.377   1.154   1.314  1.6889 -0.8090 -0.2451
  223MPD1    H3 3445   0.333   1.029   1.113 -2.6686  1.4848 -0.0620
  223MPD1     N 3446   0.589   1.328   0.866 -0.3949 -0.3463 -0.1649
  223MPD1    H5 3447   0.633   1.419   0.876  1.3497 -1.3974  1.6582
  223MPD1    N1 3448   0.527   1.369   1.348  0.0444  0.5013  0.1490
  223MPD1    H6 3449   0.531   1.470   1.341  0.6276  0.3558 -1.5597
  223MPD1    H7 3450   0.455   1.357   1.420 -0.6830 -2.0730 -1.0080
  224MPD1     C 3451   1.222   2.706   9.555  0.2946  0.7260 -0.6203
  224MPD1    C1 3452   1.322   2.639   9.494  0.2945  0.5744  0.3880
  224MPD1    C2 3453   1.450   2.654   9.542 -0.3524 -0.4085 -0.0324
  224MPD1    C3 3454   1.476   2.745   9.646 -0.3941 -0.9392 -0.2081
  224MPD1    C4 3455   1.369   2.807   9.712 -0.4835 -0.5627 -0.0312
  224MPD1    C5 3456   1.242   2.780   9.666  0.2885  0.0020  0.1251
  224MPD1     H 3457   1.530   2.593   9.501 -0.2254 -1.3017  1.5391
  224MPD1    H1 3458   1.388   2.877   9.792  0.1111 -0.9248  0.1489
  224MPD1    H2 3459   1.119   2.699   9.521 -0.0451 -0.7196  0.6825
  224MPD1    H3 3460   1.157   2.832   9.708  1.0291  0.3392  1.2086
  224MPD1     N 3461   1.607   2.771   9.693 -0.7656  0.3784  0.5329
  224MPD1    H5 3462   1.614   2.820   9.782 -0.4139 -0.1879  0.8127
  224MPD1    N1 3463   1.296   2.540   9.397  0.4909  0.3449  0.0606
  224MPD1    H6 3464   1.380   2.529   9.341  0.1212  0.4703 -0.5246
  224MPD1    H7 3465   1.221   2.565   9.332  0.8524 -1.4782 -1.0620
  225MPD1     C 3466   4.564   4.097  12.501 -0.1477  0.4775  0.2412
  225MPD1    C1 3467   4.529   3.968  12.474 -0.2490 -0.8598 -0.1354
  225MPD1    C2 3468   4.410   3.919  12.516 -0.5803  0.6016  0.0380
  225MPD1    C3 3469   4.317   3.995  12.593  0.3387  0.6077  0.7398
  225MPD1    C4 3470   4.367   4.117  12.634 -0.0982  0.0768  0.0816
  225MPD1    C5 3471   4.488   4.161  12.591 -0.2358 -0.4379  0.2147
  225MPD1     H 3472   4.384   3.816  12.495  0.7805  0.5342 -1.3700
  225MPD1    H1 3473   4.311   4.178  12.704 -0.2586  0.9277 -0.7966
  225MPD1    H2 3474   4.656   4.147  12.477  0.2166 -0.4173 -0.2471
  225MPD1    H3 3475   4.522   4.257  12.629 -5.8351  1.2583  0.9500
  225MPD1     N 3476   4.205   3.951  12.657  0.1907 -0.3824  0.3824
  225MPD1    H5 3477   4.168   4.009  12.731  1.1109  0.0199  0.5340
  225MPD1    N1 3478   4.614   3.893  12.402 -0.3234  0.1739  0.2755
  225MPD1    H6 3479   4.712   3.898  12.430 -0.5920  2.1370  0.8221
  225MPD1    H7 3480   4.583   3.796  12.402  0.6785 -0.1601  2.3032
  226MPD1     C 3481   1.135   3.272   9.515  0.4530 -0.1764 -0.4782
  226MPD1    C1 3482   1.109   3.376   9.433  0.4602  1.0415  0.2743
  226MPD1    C2 3483   1.187   3.492   9.453  0.7123 -0.0317  0.8830
  226MPD1    C3 3484   1.299   3.496   9.531 -0.2520 -0.1669  0.3338
  226MPD1    C4 3485   1.330   3.384   9.602  0.1392  0.1190 -0.4701
  226MPD1    C5 3486   1.243   3.274   9.593  0.7883 -0.4102 -0.2252
  226MPD1     H 3487   1.170   3.587   9.402  3.7413 -0.4023 -0.7945
  226MPD1    H1 3488   1.416   3.390   9.667 -0.5796 -0.5851  0.5331
  226MPD1    H2 3489   1.064   3.191   9.525  0.9670 -0.5899 -0.1609
  226MPD1    H3 3490   1.255   3.193   9.664 -1.0552 -0.4624  0.0229
  226MPD1     N 3491   1.372   3.621   9.526  0.8177  0.0857 -0.5990
  226MPD1    H5 3492   1.348   3.690   9.456 -1.2686 -0.7038 -0.6601
  226MPD1    N1 3493   0.991   3.378   9.353 -0.1337 -0.6373  0.2655
  226MPD1    H6 3494   0.993   3.438   9.270  2.3595 -0.7309  0.2755
  226MPD1    H7 3495   0.957   3.289   9.317 -3.4239 -0.1704  2.2041
  227MPD1     C 3496   1.250   4.547   9.929 -0.3756 -0.1490  0.1534
  227MPD1    C1 3497   1.376   4.504   9.983  0.4555 -0.3372 -0.2274
  227MPD1    C2 3498   1.421   4.384   9.942  0.8958  1.1492 -0.2064
  227MPD1    C3 3499   1.363   4.320   9.830 -0.3868 -0.2044  0.0216
  227MPD1    C4 3500   1.244   4.370   9.779  0.7513  0.0098  0.8860
  227MPD1    C5 3501   1.191   4.483   9.826 -0.3252 -0.1231  0.2234
  227MPD1     H 3502   1.511   4.340   9.984  1.2153  1.6412 -0.3755
  227MPD1    H1 3503   1.190   4.320   9.700  0.5859  3.0868 -0.9477
  227MPD1    H2 3504   1.206   4.643   9.952  1.3185  0.3428  1.3545
  227MPD1    H3 3505   1.104   4.523   9.774 -2.0922 -2.9937  0.9708
  227MPD1     N 3506   1.433   4.208   9.787  0.6128 -0.4318 -0.0833
  227MPD1    H5 3507   1.523   4.195   9.832  1.0728  0.7650 -0.6468
  227MPD1    N1 3508   1.426   4.577  10.092 -0.0434 -0.3028 -0.3456
  227MPD1    H6 3509   1.396   4.673  10.082 -0.1484 -0.3370 -0.3619
  227MPD1    H7 3510   1.524   4.567  10.118  0.3153  0.9066 -1.2416
  228MPD1     C 3511   1.402   1.265  13.357 -0.0572  1.2867  0.6050
  228MPD1    C1 3512   1.288   1.245  13.428  0.1779  0.2745 -0.0830
  228MPD1    C2 3513   1.177   1.322  13.395 -0.4562  0.4129  0.4576
  228MPD1    C3 3514   1.177   1.427  13.310 -0.2919 -0.2037 -0.1916
  228MPD1    C4 3515   1.299   1.460  13.260  1.1675  0.2180 -0.4884
  228MPD1    C5 3516   1.409   1.383  13.282 -0.8942 -0.3773 -1.0498
  228MPD1     H 3517   1.084   1.301  13.447 -0.0079  0.5436  1.3087
  228MPD1    H1 3518   1.306   1.553  13.204 -0.7713  0.0340 -1.0211
  228MPD1    H2 3519   1.492   1.206  13.375  0.0975  1.5622  0.7266
  228MPD1    H3 3520   1.506   1.409  13.242  2.4303 -3.8026  4.6823
  228MPD1     N 3521   1.056   1.502  13.307  0.3735 -0.5770 -0.0833
  228MPD1    H5 3522   0.976   1.456  13.349  0.9551 -1.5317 -0.0383
  228MPD1    N1 3523   1.274   1.135  13.516  0.1544  0.0816  0.1474
  228MPD1    H6 3524   1.366   1.095  13.537  0.4902  1.7578  1.8287
  228MPD1    H7 3525   1.216   1.156  13.597 -1.0689 -2.8285  0.0268
  229MPD1     C 3526   0.942   0.593  14.411  0.2905  0.3998 -0.5462
  229MPD1    C1 3527   0.872   0.621  14.530 -0.5315 -0.3563  0.4364
  229MPD1    C2 3528   0.861   0.523  14.627 -0.2052  0.0350  0.0614
  229MPD1    C3 3529   0.930   0.401  14.622 -0.5423  0.9179 -0.4374
  229MPD1    C4 3530   1.007   0.381  14.511 -0.4112  0.2115 -0.1683
  229MPD1    C5 3531   1.007   0.471  14.409  0.2492  0.2485  0.2684
  229MPD1     H 3532   0.796   0.543  14.711 -1.4550 -0.8762 -0.7026
  229MPD1    H1 3533   1.060   0.287  14.508  0.4632  0.7350 -1.2160
  229MPD1    H2 3534   0.942   0.659  14.324 -0.2861  2.3095  0.8970
  229MPD1    H3 3535   1.067   0.462  14.319  0.0505  0.6674  0.0945
  229MPD1     N 3536   0.921   0.298  14.714 -0.0291  0.0952  0.1743
  229MPD1    H5 3537   0.983   0.220  14.693  0.7871  0.7194  0.2451
  229MPD1    N1 3538   0.794   0.739  14.536  0.5306  0.0566 -0.4536
  229MPD1    H6 3539   0.824   0.810  14.470  0.2579 -0.5873 -1.2755
  229MPD1    H7 3540   0.767   0.783  14.624  1.3919 -2.8490  1.2713
  230MPD1     C 3541   0.634   0.167  15.697 -0.3836  0.5425  0.0739
  230MPD1    C1 3542   0.647   0.274  15.614 -0.3641  0.4232  0.7165
  230MPD1    C2 3543   0.685   0.251  15.481 -0.9066 -0.4179  0.6925
  230MPD1    C3 3544   0.713   0.129  15.430  0.1770  0.2703  1.4255
  230MPD1    C4 3545   0.687   0.021  15.514 -0.0530  0.5053 -0.1429
  230MPD1    C5 3546   0.658   0.043  15.649 -0.9469 -0.4254  0.1169
  230MPD1     H 3547   0.696   0.338  15.417 -0.9198 -0.0469  1.1946
  230MPD1    H1 3548   0.692   4.655  15.484  1.7512  0.6905 -0.4734
  230MPD1    H2 3549   0.610   0.168  15.802  1.3625  2.0120  0.4645
  230MPD1    H3 3550   0.631   4.691  15.702 -2.5309 -0.1095 -0.1594
  230MPD1     N 3551   0.763   0.120  15.297  0.4292 -0.0016 -0.2452
  230MPD1    H5 3552   0.770   0.204  15.241 -2.2081  0.1502 -0.3704
  230MPD1    N1 3553   0.651   0.403  15.675 -0.1588 -1.1984 -0.1073
  230MPD1    H6 3554   0.576   0.423  15.741 -2.1266  1.4558 -3.1651
  230MPD1    H7 3555   0.658   0.484  15.614 -1.2982 -0.8615  0.1986
  231MPD1     C 3556   3.280   2.202  15.478  0.0470  0.2664 -0.1456
  231MPD1    C1 3557   3.321   2.144  15.362 -0.3718  0.3179 -0.5038
  231MPD1    C2 3558   3.443   2.187  15.305 -0.5052  0.6524 -0.4916
  231MPD1    C3 3559   3.516   2.292  15.360 -0.3284  0.4671 -0.3010
  231MPD1    C4 3560   3.463   2.362  15.466 -0.3101  0.5473 -0.3503
  231MPD1    C5 3561   3.347   2.312  15.524  0.5157  0.2390  0.1998
  231MPD1     H 3562   3.476   2.138  15.214  0.1384  1.7540 -0.8510
  231MPD1    H1 3563   3.516   2.448  15.504 -0.8273  0.9808 -0.6264
  231MPD1    H2 3564   3.201   2.161  15.539  3.2488 -2.5864  2.0956
  231MPD1    H3 3565   3.323   2.359  15.618  1.5456 -0.9621  1.0589
  231MPD1     N 3566   3.632   2.333  15.290 -0.2635  0.0398  0.8143
  231MPD1    H5 3567   3.657   2.276  15.209  1.1675 -1.0276  1.9962
  231MPD1    N1 3568   3.258   2.021  15.325  0.0653 -0.0547 -0.0069
  231MPD1    H6 3569   3.161   2.036  15.351  0.7960 -1.0516  3.1851
  231MPD1    H7 3570   3.271   2.003  15.225 -0.1948 -0.0672 -0.0374
  232MPD1     C 3571   0.934   0.485   0.337  0.1508 -0.9167 -0.8199
  232MPD1    C1 3572   0.947   0.402   0.453 -0.2398  0.1975 -0.0414
  232MPD1    C2 3573   0.914   0.266   0.443  0.0459 -0.4351 -0.7916
  232MPD1    C3 3574   0.861   0.213   0.326  0.3559  0.1091  0.5566
  232MPD1    C4 3575   0.868   0.285   0.207  0.5299 -0.2425 -0.0887
  232MPD1    C5 3576   0.903   0.420   0.214  0.0439 -0.4385 -0.4966
  232MPD1     H 3577   0.905   0.208   0.534 -1.1644  0.0431 -0.6062
  232MPD1    H1 3578   0.829   0.236   0.118 -1.1194  1.1675 -0.1405
  232MPD1    H2 3579   0.946   0.592   0.333 -1.0706 -0.7765 -0.8129
  232MPD1    H3 3580   0.901   0.478   0.122  0.8755 -0.4953 -0.5504
  232MPD1     N 3581   0.788   0.094   0.336  0.0904 -0.0228 -0.1405
  232MPD1    H5 3582   0.797   0.056   0.430  1.6264  0.4169 -0.1041
  232MPD1    N1 3583   0.976   0.468   0.571  0.3973 -0.3408 -0.1632
  232MPD1    H6 3584   1.036   0.404   0.623  2.7161 -0.8486 -3.4599
  232MPD1    H7 3585   1.038   0.547   0.550 -1.1536  1.2755  1.3770
  233MPD1     C 3586   1.219   3.715   0.286  0.0404 -0.6025  0.1103
  233MPD1    C1 3587   1.300   3.788   0.375 -0.1591  0.1819 -0.7390
  233MPD1    C2 3588   1.314   3.739   0.499  1.1842  0.0893  0.2260
  233MPD1    C3 3589   1.251   3.631   0.548 -0.1632  0.2410 -0.5723
  233MPD1    C4 3590   1.180   3.552   0.458  0.5431 -0.1081 -0.2329
  233MPD1    C5 3591   1.164   3.597   0.327  0.3557 -0.6828  0.0670
  233MPD1     H 3592   1.363   3.802   0.572  2.1556 -3.1122  2.3690
  233MPD1    H1 3593   1.135   3.454   0.473  1.2036 -0.2085  1.1315
  233MPD1    H2 3594   1.184   3.747   0.189 -0.3722 -2.1447 -0.2488
  233MPD1    H3 3595   1.099   3.531   0.271 -1.2881  0.4421  0.6420
  233MPD1     N 3596   1.273   3.577   0.675  0.3195 -0.1027 -0.2039
  233MPD1    H5 3597   1.239   3.483   0.696 -1.4853  1.0006  1.8349
  233MPD1    N1 3598   1.338   3.914   0.339  0.3668  0.2791 -0.1305
  233MPD1    H6 3599   1.422   3.932   0.395  0.3051  0.8022 -0.2047
  233MPD1    H7 3600   1.349   3.930   0.239 -1.7986 -2.5057 -0.8040
  234MPD1     C 3601   3.661   2.312   9.569 -0.1354  0.6646  0.0165
  234MPD1    C1 3602   3.598   2.427   9.617  0.4719 -0.1663 -0.2726
  234MPD1    C2 3603   3.465   2.442   9.578 -0.5690 -0.5290  0.5860
  234MPD1    C3 3604   3.391   2.352   9.505 -0.5132 -0.5876 -0.4376
  234MPD1    C4 3605   3.459   2.235   9.462  0.1582 -0.3269  0.0101
  234MPD1    C5 3606   3.590   2.219   9.499  0.1434 -0.1083 -0.2129
  234MPD1     H 3607   3.423   2.536   9.613 -0.1104 -0.6709  1.5304
  234MPD1    H1 3608   3.420   2.153   9.403  0.1666  0.0362 -0.5045
  234MPD1    H2 3609   3.768   2.304   9.588 -0.0965  0.6569 -0.2114
  234MPD1    H3 3610   3.651   2.136   9.467  0.4575  1.1273 -2.7503
  234MPD1     N 3611   3.250   2.370   9.487 -0.1147 -0.0471 -0.3333
  234MPD1    H5 3612   3.203   2.452   9.523 -3.1506 -1.3935 -1.2347
  234MPD1    N1 3613   3.683   2.535   9.664 -0.3087 -0.3333  0.2684
  234MPD1    H6 3614   3.630   2.596   9.726  0.2995 -0.8464  1.3115
  234MPD1    H7 3615   3.766   2.498   9.711  0.7917 -0.4359 -1.7834
  235MPD1     C 3616   4.377   3.969  10.193 -0.3293 -0.6952  0.3113
  235MPD1    C1 3617   4.379   4.069  10.095  0.1945 -0.4275 -0.3712
  235MPD1    C2 3618   4.468   4.171  10.114 -0.0734 -0.3656  0.5514
  235MPD1    C3 3619   4.556   4.181  10.224  0.5452  0.0592  0.0463
  235MPD1    C4 3620   4.547   4.080  10.320 -0.1012 -0.0945 -0.0363
  235MPD1    C5 3621   4.446   3.989  10.308 -0.1414 -0.1508 -0.7296
  235MPD1     H 3622   4.466   4.251  10.040  0.6998  0.3918  1.3495
  235MPD1    H1 3623   4.598   4.072  10.416  1.5582  0.7275 -0.8465
  235MPD1    H2 3624   4.307   3.887  10.197  0.4517 -1.4091 -0.5374
  235MPD1    H3 3625   4.418   3.911  10.378  1.6312 -1.5695 -1.5895
  235MPD1     N 3626   4.644   4.291  10.232  0.3847 -0.3738  0.1439
  235MPD1    H5 3627   4.645   4.359  10.156 -0.4019 -0.6972 -0.1499
  235MPD1    N1 3628   4.287   4.075   9.988 -0.6625  0.0658 -0.1076
  235MPD1    H6 3629   4.338   4.130   9.920 -1.9757 -0.1596 -1.2774
  235MPD1    H7 3630   4.265   3.983   9.950  0.2641  0.1459 -0.8436
  236MPD1     C 3631   3.619   0.968  10.133  0.4847  0.8855  0.5449
  236MPD1    C1 3632   3.663   0.851  10.077  0.2266 -0.2550  0.5456
  236MPD1    C2 3633   3.796   0.816  10.090  0.3038 -0.1997  0.4234
  236MPD1    C3 3634   3.875   0.887  10.178  0.9213 -0.1276 -0.4057
  236MPD1    C4 3635   3.828   0.996  10.249  0.2558  0.1350  0.4421
  236MPD1    C5 3636   3.698   1.036  10.226  0.0406 -0.0911 -0.0889
  236MPD1     H 3637   3.836   0.726  10.044  0.7713 -0.5033  1.4167
  236MPD1    H1 3638   3.887   1.055  10.318  0.0170  1.3873 -0.4209
  236MPD1    H2 3639   3.519   1.008  10.120  0.2513  1.0934  3.0412
  236MPD1    H3 3640   3.657   1.129  10.265  0.0559 -1.6076  3.5508
  236MPD1     N 3641   4.015   0.850  10.191  0.4054 -0.3735 -0.2696
  236MPD1    H5 3642   4.056   0.871  10.281  0.8927  1.0723 -0.8277
  236MPD1    N1 3643   3.592   0.777   9.981  0.2427 -0.3622  0.4108
  236MPD1    H6 3644   3.632   0.684   9.980 -0.4134 -0.6732  1.9196
  236MPD1    H7 3645   3.490   0.779   9.986  0.2186  1.3240 -0.5709
  237MPD1     C 3646   3.764   4.091  16.400  0.3492 -0.3370  0.3090
  237MPD1    C1 3647   3.720   3.995  16.485 -0.5405  0.7001 -0.2099
  237MPD1    C2 3648   3.621   3.903  16.447 -0.0536 -0.3388 -0.0144
  237MPD1    C3 3649   3.575   3.910  16.316  0.3450  0.6861 -0.2162
  237MPD1    C4 3650   3.637   3.989  16.226 -0.5897  0.1419 -1.0979
  237MPD1    C5 3651   3.727   4.079  16.268 -0.4574  0.6705 -0.5221
  237MPD1     H 3652   3.593   3.827  16.519  1.4859  0.9939  2.0303
  237MPD1    H1 3653   3.610   3.993  16.121  0.7491  2.6000 -1.3444
  237MPD1    H2 3654   3.840   4.158  16.438  2.6848 -3.0055  0.3441
  237MPD1    H3 3655   3.764   4.152  16.197  0.2626  0.4801 -0.3479
  237MPD1     N 3656   3.479   3.829  16.265 -0.5507  0.4552  0.3128
  237MPD1    H5 3657   3.455   3.856  16.170 -0.0104  0.8716  0.2945
  237MPD1    N1 3658   3.771   3.986  16.615  0.5128 -0.5167  0.0548
  237MPD1    H6 3659   3.866   4.020  16.626 -0.3454  0.8527  3.2147
  237MPD1    H7 3660   3.767   3.889  16.645  3.5329 -0.9833 -1.0222
  238MPD1     C 3661   1.108   2.722  15.235 -0.2916 -0.8872  0.0878
  238MPD1    C1 3662   0.984   2.698  15.281 -0.3466  0.3058 -0.0142
  238MPD1    C2 3663   0.898   2.634  15.198 -0.3633  0.0605 -0.3066
  238MPD1    C3 3664   0.922   2.622  15.058 -1.5111  0.2063  0.1242
  238MPD1    C4 3665   1.047   2.654  15.013  0.3118 -0.3879 -0.0980
  238MPD1    C5 3666   1.137   2.711  15.103  0.0789 -0.8531 -0.4174
  238MPD1     H 3667   0.796   2.608  15.224  0.4618 -2.6608  0.1943
  238MPD1    H1 3668   1.073   2.638  14.909 -1.9722 -0.5366 -0.6270
  238MPD1    H2 3669   1.192   2.739  15.301 -0.1615 -1.3401  0.0384
  238MPD1    H3 3670   1.228   2.754  15.063 -0.6246 -0.1008 -1.1920
  238MPD1     N 3671   0.829   2.575  14.961  0.4172 -0.3478 -0.0534
  238MPD1    H5 3672   0.868   2.530  14.879  1.2262  0.9582 -0.3665
  238MPD1    N1 3673   0.973   2.689  15.418 -0.2516  0.0813  0.1527
  238MPD1    H6 3674   0.874   2.706  15.435 -0.3893  0.4776 -1.0844
  238MPD1    H7 3675   1.027   2.754  15.474  0.8703 -0.1894 -0.6154
  239MPD1     C 3676   1.287   3.032  15.215  0.2336  0.3229  0.1930
  239MPD1    C1 3677   1.151   3.026  15.202 -0.8660 -0.2259  0.1445
  239MPD1    C2 3678   1.105   3.053  15.078 -0.3975 -0.2281 -0.0333
  239MPD1    C3 3679   1.181   3.092  14.971 -0.2294 -0.7111  0.5480
  239MPD1    C4 3680   1.319   3.077  14.983  0.2072  0.5718 -0.0663
  239MPD1    C5 3681   1.367   3.057  15.112  0.0575  0.1358  0.3589
  239MPD1     H 3682   0.997   3.051  15.069 -0.4515  0.0632  0.5483
  239MPD1    H1 3683   1.381   3.100  14.897 -1.4149  0.3587 -1.2826
  239MPD1    H2 3684   1.340   3.017  15.308  1.0440 -0.3854 -0.3785
  239MPD1    H3 3685   1.472   3.074  15.133  0.2150  0.7503 -0.9039
  239MPD1     N 3686   1.136   3.131  14.842 -1.1679  0.0537  0.1464
  239MPD1    H5 3687   1.208   3.164  14.778 -0.0956  0.0299  1.3444
  239MPD1    N1 3688   1.072   3.031  15.321  0.4368  0.9693 -0.3363
  239MPD1    H6 3689   0.982   2.989  15.297  0.9966 -0.0203 -0.6703
  239MPD1    H7 3690   1.115   2.982  15.399 -0.7785  0.0342 -0.2545
  240MPD1     C 3691   0.334   3.241  13.726 -0.2362 -0.0650 -0.0082
  240MPD1    C1 3692   0.387   3.143  13.649  0.3273 -0.2895 -0.1319
  240MPD1    C2 3693   0.430   3.026  13.715 -0.4515 -0.2187 -0.6478
  240MPD1    C3 3694   0.445   3.029  13.855 -0.1042 -0.5750  0.7842
  240MPD1    C4 3695   0.387   3.130  13.927 -0.5388  0.7017  0.5695
  240MPD1    C5 3696   0.339   3.235  13.863  0.7625 -0.6778  0.7292
  240MPD1     H 3697   0.454   2.944  13.648  1.5395 -1.6753  1.8251
  240MPD1    H1 3698   0.385   3.130  14.035  0.9624 -2.5571  0.5899
  240MPD1    H2 3699   0.305   3.338  13.687 -0.5326 -0.6316 -1.1936
  240MPD1    H3 3700   0.303   3.322  13.916  0.8709  0.6715 -1.4073
  240MPD1     N 3701   0.505   2.920  13.918 -0.0289 -0.0168  0.1990
  240MPD1    H5 3702   0.547   2.843  13.867 -0.7631  0.7801 -1.6023
  240MPD1    N1 3703   0.373   3.147  13.511  0.0419 -0.2492  0.1758
  240MPD1    H6 3704   0.455   3.102  13.472 -0.3930  0.6600 -1.7803
  240MPD1    H7 3705   0.373   3.246  13.484 -1.5854 -0.5260 -0.8378
  241MPD1     C 3706   0.218   2.722  14.840  0.0203 -0.0243 -0.1172
  241MPD1    C1 3707   0.340   2.774  14.810 -0.6492  0.0321 -0.4916
  241MPD1    C2 3708   0.403   2.745  14.687 -0.1575 -0.4486 -0.4787
  241MPD1    C3 3709   0.341   2.655  14.601 -0.4381 -0.1718  0.4004
  241MPD1    C4 3710   0.222   2.606  14.631  0.0562 -0.0122 -0.1694
  241MPD1    C5 3711   0.159   2.648  14.745  0.5586 -0.0324 -0.2297
  241MPD1     H 3712   0.491   2.800  14.658 -0.6114  1.5466  1.9770
  241MPD1    H1 3713   0.164   2.529  14.581 -0.4025  0.2394 -0.0328
  241MPD1    H2 3714   0.170   2.755  14.932 -0.6564 -1.8860  0.1928
  241MPD1    H3 3715   0.060   2.612  14.769  0.7367 -0.2621  0.1782
  241MPD1     N 3716   0.398   2.611  14.479 -0.6622 -0.2656 -0.0765
  241MPD1    H5 3717   0.337   2.578  14.405 -1.9912 -0.0386  0.9154
  241MPD1    N1 3718   0.399   2.859  14.905 -0.0330  0.6780  0.1230
  241MPD1    H6 3719   0.501   2.863  14.898 -0.1612  0.9982 -1.6412
  241MPD1    H7 3720   0.354   2.950  14.902 -1.0784  0.1023 -1.2706
  242MPD1     C 3721   0.004   1.137  16.339 -0.0543 -0.3622  0.5994
  242MPD1    C1 3722   0.132   1.083  16.356 -0.3488  0.0106  0.1814
  242MPD1    C2 3723   0.222   1.108  16.253 -0.1416 -0.2647 -0.9823
  242MPD1    C3 3724   0.193   1.177  16.135  0.9439 -0.7797  0.2141
  242MPD1    C4 3725   0.061   1.234  16.126  0.2073  0.0217  0.6631
  242MPD1    C5 3726   4.709   1.201  16.229 -0.0153 -0.0767  0.4355
  242MPD1     H 3727   0.327   1.083  16.252 -0.5478 -1.9541 -0.4319
  242MPD1    H1 3728   0.025   1.286  16.038  0.9464 -0.5243  0.0403
  242MPD1    H2 3729   4.663   1.124  16.412 -1.6168 -0.4204 -1.1181
  242MPD1    H3 3730   4.606   1.233  16.219  0.0707 -0.5543 -1.9469
  242MPD1     N 3731   0.272   1.186  16.017 -0.1322  0.5533 -0.2692
  242MPD1    H5 3732   0.224   1.227  15.938  1.3323  1.6812 -0.5825
  242MPD1    N1 3733   0.169   1.033  16.482 -0.1944  0.1887  0.2796
  242MPD1    H6 3734   0.096   0.983  16.532 -1.5290  0.0599 -1.7794
  242MPD1    H7 3735   0.242   0.962  16.482  0.2020  0.6022 -1.8987
  243MPD1     C 3736   1.708   0.234  17.691 -0.2002  0.2299  0.4946
  243MPD1    C1 3737   1.784   0.194  17.587 -0.7171  0.3538 -0.3347
  243MPD1    C2 3738   1.793   0.057  17.561 -0.1930 -0.4557 -0.3275
  243MPD1    C3 3739   1.724   4.703  17.636 -0.1229 -0.8466 -0.0468
  243MPD1    C4 3740   1.628   0.007  17.730 -0.6783  0.3748 -0.2232
  243MPD1    C5 3741   1.629   0.144   0.002 -0.1365  0.1388 -0.6228
  243MPD1     H 3742   1.846   0.032  17.470  1.4519  1.8994 -0.0299
  243MPD1    H1 3743   1.571   4.678   0.042  1.0746 -1.7184 -0.8632
  243MPD1    H2 3744   1.700   0.338  17.718  2.6757  1.0389 -1.7065
  243MPD1    H3 3745   1.568   0.183   0.083  0.9762  0.7673 -0.0896
  243MPD1     N 3746   1.742   4.573  17.597  0.6019 -0.4461 -0.3656
  243MPD1    H5 3747   1.805   4.544  17.523  0.8679  0.2106 -0.3975
  243MPD1    N1 3748   1.871   0.276  17.509 -0.4476 -0.3753 -0.2687
  243MPD1    H6 3749   1.860   0.376  17.525 -1.7780 -1.0340  2.9120
  243MPD1    H7 3750   1.875   0.258  17.409 -0.7335 -0.4217 -0.2736
  244MPD1     C 3751   1.819   3.649   0.290  0.5360  0.9365  0.5983
  244MPD1    C1 3752   1.746   3.757   0.329 -0.0097 -0.4331  0.4942
  244MPD1    C2 3753   1.727   3.865   0.239 -0.7846 -0.0636 -0.2766
  244MPD1    C3 3754   1.803   3.880   0.119  0.4583 -0.2996 -0.0307
  244MPD1    C4 3755   1.891   3.779   0.096 -0.0339 -0.2868  0.6255
  244MPD1    C5 3756   1.895   3.667   0.181 -0.1245  0.2282  0.2363
  244MPD1     H 3757   1.669   3.948   0.281  2.3644  1.7026  0.5909
  244MPD1    H1 3758   1.960   3.771   0.013  0.4887 -2.5141  1.2635
  244MPD1    H2 3759   1.811   3.553   0.339  2.7421 -0.0344 -0.9737
  244MPD1    H3 3760   1.968   3.592   0.154  0.5000  0.8771  0.1236
  244MPD1     N 3761   1.789   3.992   0.038  0.8590  0.3993 -0.0519
  244MPD1    H5 3762   1.728   4.066   0.070  0.6730  0.1190  0.2541
  244MPD1    N1 3763   1.668   3.740   0.445 -0.2985  0.3775  0.4345
  244MPD1    H6 3764   1.718   3.681   0.511 -2.2655  0.1917  1.7590
  244MPD1    H7 3765   1.647   3.823   0.500  1.0876  1.5718 -0.8427
  245MPD1     C 3766   3.651   4.588  13.283  0.1368 -0.1121  0.2588
  245MPD1    C1 3767   3.624   4.711  13.226 -0.2757 -0.3998 -0.0614
  245MPD1    C2 3768   3.637   0.081  13.309 -0.1866 -0.0976  0.2357
  245MPD1    C3 3769   3.690   0.074  13.437  0.3874  0.0366 -0.3308
  245MPD1    C4 3770   3.710   4.685  13.495 -0.4246  0.7632 -0.3506
  245MPD1    C5 3771   3.689   4.572  13.411 -0.0307 -0.0791 -0.0625
  245MPD1     H 3772   3.607   0.178  13.270 -1.9823 -1.4851 -1.8518
  245MPD1    H1 3773   3.746   4.678  13.597  2.0273 -0.5517 -1.3106
  245MPD1    H2 3774   3.631   4.499  13.226 -1.9739  1.6582 -1.7522
  245MPD1    H3 3775   3.710   4.474  13.453 -1.6968 -0.9179 -1.1854
  245MPD1     N 3776   3.693   0.194  13.512  1.2596  0.6776  0.4952
  245MPD1    H5 3777   3.683   0.286  13.471  0.0614  0.2808 -0.1026
  245MPD1    N1 3778   3.561   4.720  13.096 -0.3366  0.1553 -0.1117
  245MPD1    H6 3779   3.604   4.654  13.032 -1.5097  1.3208 -2.1290
  245MPD1    H7 3780   3.572   0.076  13.057  2.3730  0.3220  1.1012
  246MPD1     C 3781   2.348   0.504   9.062 -0.1455  0.2060 -0.7093
  246MPD1    C1 3782   2.242   0.568   9.115  0.5139  0.4093  0.0982
  246MPD1    C2 3783   2.274   0.699   9.172  0.3937  0.1619 -0.4170
  246MPD1    C3 3784   2.397   0.754   9.173 -0.4076  0.1143  0.7647
  246MPD1    C4 3785   2.500   0.667   9.145  0.4962  0.2138  0.6477
  246MPD1    C5 3786   2.474   0.554   9.073  0.3107 -0.2609  0.3046
  246MPD1     H 3787   2.188   0.758   9.202 -0.5425 -0.5823 -1.6251
  246MPD1    H1 3788   2.604   0.696   9.153  0.3349  1.1160 -0.5729
  246MPD1    H2 3789   2.344   0.406   9.015  0.1000 -0.5766  0.8932
  246MPD1    H3 3790   2.557   0.498   9.031 -0.4797 -1.6563  0.6134
  246MPD1     N 3791   2.422   0.883   9.220 -0.2818  0.1788 -0.1686
  246MPD1    H5 3792   2.341   0.940   9.242 -0.7914  0.1724 -2.0190
  246MPD1    N1 3793   2.109   0.522   9.116 -0.0779  0.2915 -0.5781
  246MPD1    H6 3794   2.100   0.439   9.058 -1.8694 -0.5611  0.9297
  246MPD1    H7 3795   2.046   0.592   9.079  1.2261  0.6131 -2.1714
  247MPD1     C 3796   2.890   1.534  15.827  0.5699 -0.0086 -0.6364
  247MPD1    C1 3797   2.902   1.549  15.961  0.0345  0.0159  0.1019
  247MPD1    C2 3798   2.952   1.443  16.035 -0.2554  0.0100 -1.0061
  247MPD1    C3 3799   3.007   1.332  15.979  0.1599 -0.0682  0.2404
  247MPD1    C4 3800   3.011   1.328  15.845  0.4529 -0.9094  0.7331
  247MPD1    C5 3801   2.950   1.430  15.772  0.0509  0.2498  0.0082
  247MPD1     H 3802   2.938   1.437  16.143 -0.5425 -0.2581 -1.0574
  247MPD1    H1 3803   3.044   1.242  15.788  3.5629  2.1978 -2.1475
  247MPD1    H2 3804   2.845   1.606  15.759  1.5405  1.5052  0.3168
  247MPD1    H3 3805   2.976   1.431  15.667  2.0802 -1.3543  0.4886
  247MPD1     N 3806   3.055   1.217  16.050  0.0458  0.2136  0.1743
  247MPD1    H5 3807   3.098   1.142  15.997 -0.1014 -0.9727  1.7616
  247MPD1    N1 3808   2.846   1.659  16.021 -0.1850  0.2769 -0.4927
  247MPD1    H6 3809   2.823   1.736  15.958  0.1684  2.0827  1.5846
  247MPD1    H7 3810   2.895   1.674  16.109 -2.1473 -0.6699  0.7835
  248MPD1     C 3811   4.089   4.385   0.436  0.2606 -0.7067 -0.1371
  248MPD1    C1 3812   3.992   4.346   0.347  0.3579 -0.4374 -0.2600
  248MPD1    C2 3813   3.869   4.402   0.352  0.0430  0.9491 -0.3613
  248MPD1    C3 3814   3.835   4.490   0.457 -0.1789 -0.6274  0.3107
  248MPD1    C4 3815   3.940   4.540   0.535 -0.3523 -0.5133 -0.4630
  248MPD1    C5 3816   4.062   4.490   0.525 -0.1142 -0.0049 -0.2779
  248MPD1     H 3817   3.793   4.364   0.284  1.5080  0.5657 -1.7871
  248MPD1    H1 3818   3.918   4.610   0.614  0.1289  0.4650 -1.1947
  248MPD1    H2 3819   4.185   4.333   0.436  1.0221  0.7053 -0.3725
  248MPD1    H3 3820   4.151   4.529   0.571  0.1686 -1.3343  0.3108
  248MPD1     N 3821   3.703   4.540   0.482  0.5422 -0.6940 -0.2959
  248MPD1    H5 3822   3.695   4.621   0.542 -1.2090 -1.2430  0.2131
  248MPD1    N1 3823   4.022   4.268   0.235  0.1552 -0.0747  0.4957
  248MPD1    H6 3824   3.953   4.201   0.199 -0.3047  0.9962 -0.6146
  248MPD1    H7 3825   4.103   4.210   0.254  0.2053  0.0209  0.5650
  249MPD1     C 3826   1.087   3.287  10.428  0.3421 -0.2557  0.3517
  249MPD1    C1 3827   1.069   3.425  10.428 -0.0600  0.1972  1.1413
  249MPD1    C2 3828   0.948   3.476  10.408 -0.3088 -0.1297  0.7972
  249MPD1    C3 3829   0.846   3.399  10.371  0.2015  0.7105 -1.1938
  249MPD1    C4 3830   0.867   3.259  10.356  0.1434  0.2651 -0.5382
  249MPD1    C5 3831   0.990   3.203  10.387  0.0262  0.0618  0.1356
  249MPD1     H 3832   0.934   3.583  10.410  1.3041  0.0999  0.0895
  249MPD1    H1 3833   0.786   3.195  10.324 -0.2673 -0.4428  1.8891
  249MPD1    H2 3834   1.181   3.243  10.463  1.1598  0.0478 -1.4725
  249MPD1    H3 3835   1.021   3.099  10.380  0.3966  0.1282  0.7977
  249MPD1     N 3836   0.730   3.467  10.334 -0.4554  0.4510  0.1644
  249MPD1    H5 3837   0.720   3.565  10.357  2.2962  0.7006  0.2982
  249MPD1    N1 3838   1.168   3.509  10.480 -0.2988 -0.7717 -0.1807
  249MPD1    H6 3839   1.168   3.606  10.449  1.1534 -0.3926  1.0061
  249MPD1    H7 3840   1.264   3.475  10.469  0.1168 -0.4666  2.4907
  250MPD2     C 3841   2.420   3.527  13.389 -0.5385 -0.2289 -0.8543
  250MPD2    C1 3842   2.352   3.615  13.309 -0.2783  0.4298 -0.8233
  250MPD2    C2 3843   2.270   3.567  13.218  0.3057  1.1169 -0.4421
  250MPD2    C3 3844   2.256   3.430  13.208  0.8549 -0.2585 -0.1965
  250MPD2    C4 3845   2.306   3.338  13.298 -0.0941  0.4002  0.0173
  250MPD2    C5 3846   2.397   3.392  13.390 -0.0754  0.3995 -0.2480
  250MPD2     H 3847   2.225   3.624  13.137 -3.5540 -0.1199  0.8359
  250MPD2    H1 3848   2.281   3.233  13.287 -0.9634  0.6345 -0.2296
  250MPD2    H2 3849   2.480   3.575  13.465 -0.7417  0.6414 -1.2394
  250MPD2    H3 3850   2.430   3.330  13.472  1.3576  0.6343 -0.6547
  250MPD2     N 3851   2.174   3.369  13.108 -0.1388 -0.0460 -0.1760
  250MPD2    H5 3852   2.174   3.267  13.100 -0.6458  0.1236 -2.3284
  250MPD2    N1 3853   2.373   3.744  13.340 -0.3854  0.4267 -0.1477
  250MPD2    H7 3854   2.441   3.764  13.412  1.1551  1.4920 -1.9131
  251TMC3    C1 3855   2.320   3.968  13.348 -0.3231 -0.8201  0.1554
  251TMC3    C2 3856   2.211   4.038  13.388  0.2944 -0.3662 -0.7434
  251TMC3    C3 3857   2.221   4.120  13.501  0.3962  0.3621  0.1634
  251TMC3    C4 3858   2.448   3.997  13.389 -0.6532 -0.4516 -0.3415
  251TMC3    C5 3859   2.454   4.092  13.491 -0.4954  0.5560  0.1806
  251TMC3    C6 3860   2.346   4.142  13.549  0.2510  0.8152  0.4593
  251TMC3     C 3861   2.299   3.844  13.284 -0.5501 -0.3143  0.5288
  251TMC3     O 3862   2.189   3.834  13.231 -0.1516 -0.3818 -0.2918
  251TMC3     H 3863   2.109   4.011  13.362 -1.2038  3.2539  1.2990
  251TMC3    H1 3864   2.535   3.950  13.345  0.2210 -0.9862  1.9643
  251TMC3    H2 3865   2.334   4.212  13.630 -0.6450  1.1664  0.0186
  251TMC3    C7 3866   2.563   4.099  13.581  0.6187 -0.0970 -0.6895
  251TMC3    C8 3867   2.117   4.211  13.529 -0.2704 -0.4132 -0.4467
  251TMC3    O1 3868   2.523   4.093  13.696  0.2741 -0.0404  0.4512
  251TMC3    O2 3869   2.010   4.155  13.539 -0.4520 -0.8129 -0.2498
  252TMC3    C1 3870   2.149   0.255  10.465 -0.6539 -0.1302 -0.2757
  252TMC3    C2 3871   2.276   0.284  10.423  0.6398 -0.6079 -0.1668
  252TMC3    C3 3872   2.286   0.401  10.349 -0.5106  0.5956  0.6306
  252TMC3    C4 3873   2.041   0.342  10.444  0.2737 -0.2895 -0.0950
  252TMC3    C5 3874   2.070   0.460  10.377 -0.2147 -0.2695  0.6998
  252TMC3    C6 3875   2.189   0.490  10.326  0.0279  0.4802  0.4266
  252TMC3     C 3876   2.136   0.148  10.564  0.3854  0.7879  0.0371
  252TMC3     O 3877   2.232   0.128  10.637 -1.0654  0.3111 -0.6046
  252TMC3     H 3878   2.357   0.211  10.422  0.7479 -0.4931  0.2105
  252TMC3    H1 3879   1.946   0.335  10.495 -0.0482  1.0831 -0.5309
  252TMC3    H2 3880   2.209   0.581  10.269 -2.2111  1.0543  0.5483
  252TMC3    C7 3881   1.968   0.556  10.359  0.0831  0.5386  0.2672
  252TMC3    C8 3882   2.408   0.412  10.277  0.6831  0.5754 -0.4423
  252TMC3    O1 3883   2.002   0.670  10.341 -0.4540  0.6434 -0.0277
  252TMC3    O2 3884   2.473   0.309  10.262  0.9637  0.1361 -0.1281
  253MPD2     C 3885   2.668   3.358  15.836 -0.1886  0.2465 -0.6798
  253MPD2    C1 3886   2.660   3.496  15.826 -0.4817  0.0031  0.5066
  253MPD2    C2 3887   2.588   3.571  15.921 -0.0880  0.3656 -0.1583
  253MPD2    C3 3888   2.525   3.511  16.031 -0.6940 -0.1358  0.5572
  253MPD2    C4 3889   2.537   3.374  16.042 -0.1401  0.7251 -1.1439
  253MPD2    C5 3890   2.604   3.299  15.945 -0.4246 -0.1452  0.1891
  253MPD2     H 3891   2.588   3.679  15.912  0.7880  0.2614 -1.3352
  253MPD2    H1 3892   2.486   3.322  16.122 -1.1933 -0.3028 -2.4608
  253MPD2    H2 3893   2.734   3.300  15.773 -2.7050 -1.0212 -2.1550
  253MPD2    H3 3894   2.618   3.192  15.950 -0.5173 -0.0414  2.6039
  253MPD2     N 3895   2.440   3.579  16.119 -0.1594 -0.1538  0.6243
  253MPD2    H5 3896   2.383   3.519  16.178 -1.9795  0.8093 -0.1683
  253MPD2    N1 3897   2.710   3.565  15.709 -0.0693 -0.3423 -0.3201
  253MPD2    H7 3898   2.677   3.661  15.704  1.1643 -0.0271 -2.5394
  254TMC3    C1 3899   2.362   3.765  16.248 -0.5909 -0.0035  0.1380
  254TMC3    C2 3900   2.313   3.891  16.250 -0.3444  0.6255 -1.0596
  254TMC3    C3 3901   2.282   3.949  16.376  0.3528  0.5460 -1.0834
  254TMC3    C4 3902   2.373   3.686  16.361  0.2593  0.4033 -0.1108
  254TMC3    C5 3903   2.324   3.743  16.477 -0.6971  0.0319  0.5247
  254TMC3    C6 3904   2.290   3.879  16.491 -0.2040  0.9815 -0.0331
  254TMC3     C 3905   2.416   3.714  16.123  0.3630 -0.2285  0.3305
  254TMC3     O 3906   2.460   3.800  16.049 -0.0782 -0.3705 -0.1888
  254TMC3     H 3907   2.298   3.953  16.162 -3.2371 -0.5393 -1.3876
  254TMC3    H1 3908   2.423   3.591  16.367 -0.4919 -0.0815 -1.6122
  254TMC3    H2 3909   2.240   3.919  16.579  0.8889  1.5398  0.3340
  254TMC3    C7 3910   2.354   3.671  16.600 -0.2729  0.0765  0.3644
  254TMC3    C8 3911   2.212   4.078  16.376  0.7855 -1.0245  0.6537
  254TMC3    O1 3912   2.376   3.737  16.697 -0.1232 -0.1818  0.6376
  254TMC3    O2 3913   2.135   4.097  16.284  0.1515  0.1283  0.1564
  255MPD2     C 3914   0.601   1.476  10.805  0.0808 -0.2260 -0.0969
  255MPD2    C1 3915   0.720   1.543  10.795  0.7184 -0.2195 -0.2940
  255MPD2    C2 3916   0.835   1.478  10.755  0.5903  0.2369  0.2973
  255MPD2    C3 3917   0.829   1.339  10.734 -0.1891  0.0106 -0.6267
  255MPD2    C4 3918   0.711   1.274  10.756  0.2082 -0.4544 -0.4623
  255MPD2    C5 3919   0.595   1.340  10.789  0.9496  0.4585  0.1403
  255MPD2     H 3920   0.933   1.524  10.764 -0.4993  3.1900 -2.9698
  255MPD2    H1 3921   0.706   1.165  10.755  0.8061 -0.4723 -1.8901
  255MPD2    H2 3922   0.508   1.525  10.834 -0.9223 -1.4858 -1.1491
  255MPD2    H3 3923   0.499   1.292  10.804  0.3184  1.7466  0.2776
  255MPD2     N 3924   0.948   1.279  10.690  0.1591  0.2798  1.0402
  255MPD2    H5 3925   1.031   1.337  10.693  0.6035 -0.3975  1.7881
  255MPD2    N1 3926   0.722   1.677  10.829 -0.3089 -0.8597 -0.1861
  255MPD2    H7 3927   0.631   1.718  10.850  1.4358  2.3130  1.2827
  256TMC3    C1 3928   0.802   1.903  10.855 -0.1552 -0.0474 -0.5969
  256TMC3    C2 3929   0.894   1.981  10.918  0.0527  0.6431 -0.4351
  256TMC3    C3 3930   0.870   2.113  10.906 -0.7329 -0.1088 -0.2118
  256TMC3    C4 3931   0.701   1.948  10.770 -0.6823  0.4521  0.5921
  256TMC3    C5 3932   0.693   2.082  10.745  0.2242  0.7229  0.0341
  256TMC3    C6 3933   0.780   2.167  10.816  0.0298  0.0238  0.1960
  256TMC3     C 3934   0.831   1.760  10.845 -0.1121  0.4797  0.2156
  256TMC3     O 3935   0.949   1.733  10.866 -0.5840 -0.3427 -0.6125
  256TMC3     H 3936   0.963   1.945  10.993  1.3882  2.3761 -0.8287
  256TMC3    H1 3937   0.648   1.875  10.710 -0.1129 -0.0108  0.6571
  256TMC3    H2 3938   0.790   2.273  10.798 -0.6760 -0.1249 -1.0506
  256TMC3    C7 3939   0.676   2.103  10.604  0.2749 -0.1139 -0.4193
  256TMC3    C8 3940   0.985   2.195  10.894  0.3076 -0.0299  0.5831
  256TMC3    O1 3941   0.654   2.004  10.534  0.3861 -0.4132  0.0570
  256TMC3    O2 3942   0.982   2.297  10.965  0.2645  0.2447  0.0009
  257MPD2     C 3943   0.532   3.677  13.683  0.1668  0.0299 -0.1709
  257MPD2    C1 3944   0.647   3.615  13.627 -0.4517  0.7409 -0.2445
  257MPD2    C2 3945   0.710   3.507  13.690 -0.5262  0.8401  0.1790
  257MPD2    C3 3946   0.654   3.451  13.802 -0.0039 -0.2338  0.0172
  257MPD2    C4 3947   0.553   3.524  13.865 -0.1021  0.5282  0.1813
  257MPD2    C5 3948   0.489   3.632  13.806  0.5053  0.6093  0.0585
  257MPD2     H 3949   0.777   3.449  13.627 -0.8323  0.2642  0.3896
  257MPD2    H1 3950   0.512   3.501  13.962  2.0643  0.0554  0.9770
  257MPD2    H2 3951   0.493   3.773  13.651  0.0931 -0.6132 -1.9948
  257MPD2    H3 3952   0.425   3.691  13.871  2.3786  0.1191  2.3319
  257MPD2     N 3953   0.694   3.329  13.858 -0.2970  0.3535  0.2309
  257MPD2    H5 3954   0.669   3.311  13.955  1.7171  1.9278  1.0435
  257MPD2    N1 3955   0.702   3.659  13.505 -0.3110  0.0232  0.2253
  257MPD2    H7 3956   0.654   3.732  13.453  0.3223 -0.9188 -1.7156
  258TMC3    C1 3957   0.803   3.113  13.870 -0.0708 -0.0980  0.3807
  258TMC3    C2 3958   0.846   3.011  13.785 -0.1361 -0.2201  0.6060
  258TMC3    C3 3959   0.908   2.907  13.847 -1.5618 -0.3399  0.0678
  258TMC3    C4 3960   0.827   3.123  14.008 -0.0474  0.7327  0.4030
  258TMC3    C5 3961   0.884   3.012  14.059 -0.0924 -0.3748  0.5737
  258TMC3    C6 3962   0.931   2.910  13.983  0.9926  0.5495 -1.3606
  258TMC3     C 3963   0.762   3.234  13.796 -0.0619  0.2432 -0.0203
  258TMC3     O 3964   0.789   3.229  13.680 -0.0422 -0.5804  0.0515
  258TMC3     H 3965   0.832   3.015  13.677  2.3698 -0.7569  0.2683
  258TMC3    H1 3966   0.790   3.193  14.081  1.3916  0.7208  1.1348
  258TMC3    H2 3967   0.988   2.828  14.025 -1.6846 -0.1609  0.8951
  258TMC3    C7 3968   0.886   2.991  14.202 -0.9882  0.1586 -0.4778
  258TMC3    C8 3969   0.961   2.794  13.776 -0.1642  0.3299 -0.3603
  258TMC3    O1 3970   0.810   3.063  14.264  0.3755  0.0740 -0.5844
  258TMC3    O2 3971   0.981   2.688  13.832  0.2210 -0.2472 -0.1616
  259MPD2     C 3972   3.938   0.720   0.535  0.3759 -0.4840  0.8760
  259MPD2    C1 3973   4.051   0.703   0.620  0.1058  0.1024 -1.0116
  259MPD2    C2 3974   4.155   0.628   0.580 -0.4177  0.8258 -0.0002
  259MPD2    C3 3975   4.152   0.568   0.460  0.3493 -0.5465  0.9620
  259MPD2    C4 3976   4.040   0.583   0.376 -0.1402 -0.3556  0.1838
  259MPD2    C5 3977   3.929   0.656   0.416  0.0985  0.3535  0.0132
  259MPD2     H 3978   4.249   0.621   0.634 -0.1740 -0.0203 -0.5335
  259MPD2    H1 3979   4.031   0.523   0.287 -2.6334  1.9333 -1.1164
  259MPD2    H2 3980   3.854   0.772   0.579  0.7811 -0.7344  1.9596
  259MPD2    H3 3981   3.845   0.675   0.350 -0.9650 -1.4520  0.8467
  259MPD2     N 3982   4.260   0.487   0.416  0.2193 -0.1657 -0.1079
  259MPD2    H5 3983   4.343   0.497   0.472  0.1957 -0.0740 -0.0886
  259MPD2    N1 3984   4.044   0.754   0.752  0.6837 -0.3211  0.5556
  259MPD2    H7 3985   3.965   0.813   0.773  0.1943 -0.2319 -1.5389
  260TMC3    C1 3986   4.397   0.348   0.289  0.3300 -0.6951 -0.3131
  260TMC3    C2 3987   4.426   0.310   0.162 -0.2282 -0.2209  0.8327
  260TMC3    C3 3988   4.555   0.291   0.129  0.4305 -0.2980  0.3752
  260TMC3    C4 3989   4.489   0.350   0.386 -0.0747  0.3081 -0.0593
  260TMC3    C5 3990   4.614   0.320   0.345 -0.0179  0.7678 -0.2907
  260TMC3    C6 3991   4.656   0.321   0.213  0.7341 -0.2263  0.7206
  260TMC3     C 3992   4.265   0.400   0.310 -0.2612  0.0652 -0.1572
  260TMC3     O 3993   4.179   0.374   0.225  0.2260 -0.3840  0.3714
  260TMC3     H 3994   4.348   0.297   0.088 -0.5505  0.8281  0.9853
  260TMC3    H1 3995   4.461   0.353   0.491  2.7734 -1.7353  0.7544
  260TMC3    H2 3996   0.023   0.306   0.189  0.2665 -1.0907 -0.8173
  260TMC3    C7 3997   4.687   0.210   0.416 -0.0044 -0.1064 -0.0393
  260TMC3    C8 3998   4.579   0.198   0.023  0.4899  0.0136 -0.0273
  260TMC3    O1 3999   0.013   0.131   0.343 -0.0433 -1.0261  0.4653
  260TMC3    O2 4000   4.509   0.181  17.674  0.0827 -0.0307 -0.4139
  261MPD2     C 4001   1.313   3.362  12.898  0.2133 -0.5121 -0.6036
  261MPD2    C1 4002   1.416   3.445  12.860 -0.4824 -0.0900 -0.3268
  261MPD2    C2 4003   1.386   3.571  12.803  0.3357 -0.3076  0.4100
  261MPD2    C3 4004   1.254   3.606  12.791  0.7637 -0.2038 -0.4279
  261MPD2    C4 4005   1.157   3.517  12.843 -0.0217  0.1452 -0.3182
  261MPD2    C5 4006   1.188   3.398  12.895  0.5363  0.4166  0.5101
  261MPD2     H 4007   1.464   3.636  12.765 -1.0594  0.2433 -1.5202
  261MPD2    H1 4008   1.051   3.541  12.850  0.0583  0.3151  0.2719
  261MPD2    H2 4009   1.332   3.258  12.926  0.9837 -0.2002  0.0313
  261MPD2    H3 4010   1.114   3.327  12.929  1.0716 -0.7383 -0.7263
  261MPD2     N 4011   1.218   3.736  12.748 -0.2047 -0.0164  0.2412
  261MPD2    H5 4012   1.284   3.811  12.733  0.8588 -0.6475  1.7311
  261MPD2    N1 4013   1.551   3.412  12.874  0.7968 -0.2734 -0.6188
  261MPD2    H7 4014   1.620   3.479  12.843  0.3053  1.5953  2.3757
  262TMC3    C1 4015   1.054   3.897  12.676  0.3167  0.5433 -0.3461
  262TMC3    C2 4016   1.129   3.999  12.730  0.2320  0.1035  0.4971
  262TMC3    C3 4017   1.110   4.125  12.680 -0.1030 -0.2787  0.2683
  262TMC3    C4 4018   0.948   3.925  12.594  0.8788 -0.0101  0.4482
  262TMC3    C5 4019   0.945   4.047  12.535  0.3169 -0.2692  0.4006
  262TMC3    C6 4020   1.029   4.144  12.574  1.0830  0.3040 -0.1290
  262TMC3     C 4021   1.086   3.761  12.705 -0.3674 -0.6851 -0.4094
  262TMC3     O 4022   0.999   3.681  12.673 -0.2227  0.3466  0.2086
  262TMC3     H 4023   1.193   3.976  12.814 -0.0880  1.4674  1.1162
  262TMC3    H1 4024   0.884   3.850  12.550  0.9931 -1.9427  3.5574
  262TMC3    H2 4025   1.018   4.239  12.522  2.0240  0.6314  0.2727
  262TMC3    C7 4026   0.945   4.034  12.389 -0.1473 -0.1394  0.1369
  262TMC3    C8 4027   1.214   4.229  12.689 -0.0800  0.1555  0.3393
  262TMC3    O1 4028   0.865   3.963  12.329  0.1048 -0.0795 -0.2217
  262TMC3    O2 4029   1.197   4.328  12.623  0.0675  0.1877 -0.4758
  263MPD2     C 4030   2.863   3.127  11.953 -0.2239 -0.3013 -0.3501
  263MPD2    C1 4031   2.835   3.046  11.848  0.1001  1.0518 -1.0583
  263MPD2    C2 4032   2.848   3.089  11.721  0.2798 -0.0283 -0.0715
  263MPD2    C3 4033   2.912   3.212  11.691 -0.2954  0.3085  0.3625
  263MPD2    C4 4034   2.956   3.292  11.800 -0.6610  0.5754 -0.1637
  263MPD2    C5 4035   2.925   3.249  11.927 -0.1232  0.0874 -0.4905
  263MPD2     H 4036   2.813   3.034  11.634  0.3773 -0.8204  0.3914
  263MPD2    H1 4037   3.012   3.383  11.786 -0.0956  0.3214  0.4376
  263MPD2    H2 4038   2.853   3.085  12.052 -1.7265  0.5278 -0.1440
  263MPD2    H3 4039   2.960   3.303  12.014 -0.1430  0.5201 -0.7490
  263MPD2     N 4040   2.943   3.242  11.557  0.1364 -0.4072  0.4749
  263MPD2    H5 4041   2.891   3.190  11.487  1.4004 -2.0628  0.7577
  263MPD2    N1 4042   2.776   2.916  11.889  0.1630 -0.2012 -0.6098
  263MPD2    H7 4043   2.796   2.897  11.987 -1.3103  0.3145 -0.2151
  264TMC3    C1 4044   3.046   3.321  11.364 -0.2509  0.5768  1.1051
  264TMC3    C2 4045   2.920   3.304  11.306 -0.2048  0.3301 -0.2263
  264TMC3    C3 4046   2.905   3.299  11.167 -0.2012 -0.2128 -0.2397
  264TMC3    C4 4047   3.159   3.311  11.292  0.3078 -0.1650 -0.1350
  264TMC3    C5 4048   3.144   3.292  11.155  0.1050 -0.4864 -0.4301
  264TMC3    C6 4049   3.020   3.283  11.092 -0.5077  1.0765  0.3031
  264TMC3     C 4050   3.049   3.312  11.504  0.3229  0.2943 -0.5937
  264TMC3     O 4051   3.139   3.366  11.568  0.1662  0.1589  0.8161
  264TMC3     H 4052   2.831   3.304  11.368  0.3502  2.1006  0.5667
  264TMC3    H1 4053   3.253   3.322  11.346  0.3729  2.4388 -0.8145
  264TMC3    H2 4054   3.017   3.283  10.983  2.6869  0.3046  0.2232
  264TMC3    C7 4055   3.261   3.269  11.069  0.6241  0.3485  0.7833
  264TMC3    C8 4056   2.792   3.359  11.102  0.3690  0.4773 -0.2930
  264TMC3    O1 4057   3.245   3.252  10.951  0.3804  0.2409 -0.4049
  264TMC3    O2 4058   2.797   3.386  10.984 -0.1430 -0.1335  0.0007
  265MPD2     C 4059   4.434   3.125  15.772 -0.0582 -0.5082  0.1373
  265MPD2    C1 4060   4.459   3.247  15.710 -0.3654 -0.2058  0.3557
  265MPD2    C2 4061   4.506   3.244  15.578 -0.0016  0.4031  0.7389
  265MPD2    C3 4062   4.527   3.126  15.507 -0.5431 -0.5784 -0.6134
  265MPD2    C4 4063   4.491   3.008  15.571 -0.9733 -0.7820  0.3500
  265MPD2    C5 4064   4.449   3.008  15.701 -0.4241  0.5009 -0.2919
  265MPD2     H 4065   4.531   3.342  15.538 -2.2137  0.5679 -0.2651
  265MPD2    H1 4066   4.515   2.913  15.525  0.3353 -0.7841  1.0264
  265MPD2    H2 4067   4.395   3.110  15.872 -0.9562  0.4147 -0.0846
  265MPD2    H3 4068   4.412   2.912  15.736  0.8061  1.1731  2.8727
  265MPD2     N 4069   4.578   3.121  15.381  0.2208  0.1862  0.2868
  265MPD2    H5 4070   4.583   3.028  15.340  1.8061  0.5568 -0.3638
  265MPD2    N1 4071   4.439   3.369  15.781 -1.1237  0.0425 -0.0404
  265MPD2    H7 4072   4.458   3.455  15.730 -0.0674 -1.4189 -2.1439
  266TMC3    C1 4073   4.415   3.522  15.971  0.1557  0.6860 -0.8317
  266TMC3    C2 4074   4.445   3.544  16.101 -0.9862 -0.3051 -0.1263
  266TMC3    C3 4075   4.446   3.676  16.139 -0.3165  0.0472  0.4759
  266TMC3    C4 4076   4.369   3.620  15.888  0.3112  1.2017 -0.3832
  266TMC3    C5 4077   4.392   3.751  15.925  0.1870  0.4732  0.3805
  266TMC3    C6 4078   4.422   3.781  16.055 -0.8476  0.2464  0.0430
  266TMC3     C 4079   4.423   3.379  15.919 -0.6691 -0.4564 -0.0552
  266TMC3     O 4080   4.422   3.291  16.004 -0.4372 -0.2788 -0.3098
  266TMC3     H 4081   4.485   3.461  16.157  2.9093  2.6737  1.4887
  266TMC3    H1 4082   4.336   3.604  15.786  0.2366  1.3777 -0.3871
  266TMC3    H2 4083   4.430   3.883  16.090 -3.7141  0.4134  0.2533
  266TMC3    C7 4084   4.327   3.844  15.836 -0.3252  0.4400 -0.5162
  266TMC3    C8 4085   4.518   3.696  16.256  0.9897  0.7200  0.3204
  266TMC3    O1 4086   4.270   3.805  15.736  0.1086  0.2602  0.1033
  266TMC3    O2 4087   4.584   3.597  16.288 -0.1738  0.0574  0.0950
  267MPD2     C 4088   1.292   1.081   0.094 -0.4809  0.0069 -1.0369
  267MPD2    C1 4089   1.376   0.971   0.127 -0.0581  0.5741  0.1252
  267MPD2    C2 4090   1.435   0.901   0.023 -0.7418  0.0184  0.0098
  267MPD2    C3 4091   1.426   0.945  17.639  0.5190  0.4955  0.2104
  267MPD2    C4 4092   1.340   1.053  17.613  0.0068 -0.3204 -0.2598
  267MPD2    C5 4093   1.271   1.112  17.716 -0.1377  0.4800 -0.0311
  267MPD2     H 4094   1.497   0.817   0.052  0.9787  1.2055 -0.2218
  267MPD2    H1 4095   1.324   1.089  17.512  0.7119  0.2339 -0.1727
  267MPD2    H2 4096   1.238   1.141   0.166 -1.1280 -0.2927 -1.2771
  267MPD2    H3 4097   1.213   1.200  17.689  0.0128  0.6502  0.2015
  267MPD2     N 4098   1.487   0.883  17.524  0.4232 -0.1782 -0.1339
  267MPD2    H5 4099   1.454   0.923  17.436  1.4437 -0.3651 -0.6029
  267MPD2    N1 4100   1.409   0.951   0.261  0.0676 -0.7644  0.1852
  267MPD2    H7 4101   1.383   1.023   0.327  2.6032  1.8503 -1.6640
  268TMC3    C1 4102   1.525   0.869   0.446 -0.0292 -0.6997  0.4346
  268TMC3    C2 4103   1.573   0.992   0.459  0.5389 -0.4479  0.4453
  268TMC3    C3 4104   1.654   1.012   0.570  0.3842  0.1609  0.1052
  268TMC3    C4 4105   1.559   0.761   0.526 -0.5328  0.6612  0.0610
  268TMC3    C5 4106   1.657   0.786   0.624  0.1342 -0.0785  0.0996
  268TMC3    C6 4107   1.698   0.913   0.649 -0.3964  0.6397  0.5792
  268TMC3     C 4108   1.474   0.838   0.316 -0.4512 -0.3004 -0.5487
  268TMC3     O 4109   1.466   0.726   0.273  0.5493  0.0659  0.7351
  268TMC3     H 4110   1.563   1.072   0.386  2.5798  0.5924  1.3167
  268TMC3    H1 4111   1.521   0.662   0.502  2.0148 -0.3768  0.3412
  268TMC3    H2 4112   1.787   0.931   0.708 -0.0514 -2.2193  0.9055
  268TMC3    C7 4113   1.730   0.676   0.679 -0.6995 -0.3963  0.7547
  268TMC3    C8 4114   1.741   1.129   0.573 -0.5307 -0.8186  0.2130
  268TMC3    O1 4115   1.831   0.698   0.743 -0.4079  0.6982  0.7405
  268TMC3    O2 4116   1.753   1.192   0.680 -0.0067 -0.2164  0.1521
  269MPD2     C 4117   2.107   3.823  15.940 -0.3004  0.2071 -0.2942
  269MPD2    C1 4118   1.970   3.842  15.949 -0.5670  0.3392 -0.1691
  269MPD2    C2 4119   1.918   3.960  15.902  0.2576  0.0860 -0.0219
  269MPD2    C3 4120   2.013   4.058  15.856 -0.1100 -0.1161 -0.3172
  269MPD2    C4 4121   2.148   4.035  15.844  0.4523  0.3391  0.0431
  269MPD2    C5 4122   2.192   3.916  15.889  0.1861  1.0444  0.2582
  269MPD2     H 4123   1.814   3.988  15.911  0.4768  0.5802  1.0295
  269MPD2    H1 4124   2.220   4.102  15.797  0.5581  0.2271  0.0453
  269MPD2    H2 4125   2.153   3.728  15.964 -2.3998 -0.6219  0.4638
  269MPD2    H3 4126   2.296   3.886  15.898  0.4355  1.1418 -2.2606
  269MPD2     N 4127   1.953   4.169  15.798  0.2173 -0.0666 -0.0800
  269MPD2    H5 4128   1.861   4.196  15.829 -0.6911 -0.5708 -2.3308
  269MPD2    N1 4129   1.887   3.741  16.003 -0.5023  0.3637 -0.1156
  269MPD2    H7 4130   1.789   3.768  15.999 -0.7229 -0.4577 -0.1574
  270TMC3    C1 4131   1.822   3.525  16.076  1.0354  0.5431  0.3309
  270TMC3    C2 4132   1.735   3.509  15.968 -0.3674 -0.6206 -0.3068
  270TMC3    C3 4133   1.667   3.393  15.958 -0.3656  0.3248  0.2293
  270TMC3    C4 4134   1.848   3.417  16.151  0.7313  0.0613  0.0864
  270TMC3    C5 4135   1.783   3.297  16.134 -0.0107  0.1326 -0.2850
  270TMC3    C6 4136   1.689   3.281  16.042  0.5034  0.2821 -0.4072
  270TMC3     C 4137   1.923   3.627  16.069 -0.2942  0.0804 -0.2951
  270TMC3     O 4138   2.035   3.589  16.100  0.1380  0.3690  0.4926
  270TMC3     H 4139   1.712   3.594  15.904 -1.5822 -0.5640  0.2106
  270TMC3    H1 4140   1.924   3.420  16.228 -0.2744 -3.4043  1.2159
  270TMC3    H2 4141   1.660   3.186  16.000  2.6918 -0.5209 -0.0695
  270TMC3    C7 4142   1.853   3.183  16.186 -0.6548  0.1119  0.4539
  270TMC3    C8 4143   1.592   3.368  15.839  0.7431 -0.6050  0.1752
  270TMC3    O1 4144   1.968   3.202  16.215 -0.1213 -0.7192  0.3821
  270TMC3    O2 4145   1.490   3.304  15.838 -0.0094  0.3114 -0.3170
  271MPD2     C 4146   1.448   3.664  14.046 -0.6918  0.0200  0.4045
  271MPD2    C1 4147   1.375   3.594  14.137  0.5277  0.8813  0.1989
  271MPD2    C2 4148   1.233   3.603  14.134 -0.7177  0.3002  0.2706
  271MPD2    C3 4149   1.169   3.682  14.034  1.2155 -0.7422 -0.3734
  271MPD2    C4 4150   1.248   3.767  13.959  0.1978  0.3746 -0.2518
  271MPD2    C5 4151   1.390   3.754  13.967 -0.0688  0.5803  0.1736
  271MPD2     H 4152   1.174   3.546  14.204 -2.5976 -0.1864 -1.7007
  271MPD2    H1 4153   1.204   3.832  13.884 -1.3882 -0.6192 -0.1910
  271MPD2    H2 4154   1.556   3.666  14.053 -0.8094  0.1594  2.2477
  271MPD2    H3 4155   1.448   3.817  13.900 -0.6050  2.1687  1.2036
  271MPD2     N 4156   1.026   3.704  14.028 -0.7333  0.5946  0.0662
  271MPD2    H5 4157   0.993   3.783  13.975 -1.9708 -0.7588 -1.1812
  271MPD2    N1 4158   1.434   3.509  14.240 -0.4399  0.3369  0.6471
  271MPD2    H7 4159   1.360   3.467  14.294  0.6717 -1.3071  0.8854
  272TMC3    C1 4160   1.595   3.408  14.384 -0.5983 -0.1434  0.2935
  272TMC3    C2 4161   1.725   3.372  14.393  0.2969 -0.1329  0.7978
  272TMC3    C3 4162   1.770   3.337  14.515  0.4686  0.3387  0.4345
  272TMC3    C4 4163   1.506   3.404  14.494  0.7034  0.6178 -0.6575
  272TMC3    C5 4164   1.558   3.362  14.612 -0.1251  0.2301 -0.1903
  272TMC3    C6 4165   1.687   3.331  14.627 -0.1221 -0.5212  0.0649
  272TMC3     C 4166   1.571   3.492  14.267  1.2963  0.1851 -0.8134
  272TMC3     O 4167   1.665   3.527  14.196 -0.3434 -0.3173  0.1756
  272TMC3     H 4168   1.786   3.358  14.304 -0.8583 -1.8554  0.2773
  272TMC3    H1 4169   1.401   3.426  14.482  0.3188 -0.5989  0.5239
  272TMC3    H2 4170   1.717   3.302  14.727 -1.6502 -3.6156 -0.4046
  272TMC3    C7 4171   1.468   3.350  14.720  0.0106  0.0041 -0.3759
  272TMC3    C8 4172   1.880   3.245  14.518 -0.2368 -1.0150  0.2491
  272TMC3    O1 4173   1.349   3.328  14.693  0.1279 -0.2127  0.4089
  272TMC3    O2 4174   1.925   3.194  14.410 -0.3217 -0.1339 -0.1167
  273MPD2     C 4175   3.228   1.604  12.198 -0.1120 -0.4336  0.3587
  273MPD2    C1 4176   3.320   1.697  12.156 -0.4731  0.3442 -0.5159
  273MPD2    C2 4177   3.309   1.748  12.027  0.6813 -1.4756 -0.2174
  273MPD2    C3 4178   3.209   1.701  11.941 -0.9740 -0.0408  0.4381
  273MPD2    C4 4179   3.117   1.607  11.988 -0.1842 -0.3811  0.1376
  273MPD2    C5 4180   3.124   1.563  12.116  0.0675  0.2562  0.4777
  273MPD2     H 4181   3.385   1.818  11.995 -2.0107  1.2387 -0.6161
  273MPD2    H1 4182   3.040   1.559  11.928 -0.1863 -2.4596  1.7885
  273MPD2    H2 4183   3.242   1.553  12.293 -3.6667  0.7076  1.4975
  273MPD2    H3 4184   3.055   1.486  12.148  1.5479 -0.4010  2.0449
  273MPD2     N 4185   3.175   1.744  11.813 -0.3027 -0.4997  0.2285
  273MPD2    H5 4186   3.103   1.688  11.770 -1.1328 -0.2311  1.2421
  273MPD2    N1 4187   3.430   1.746  12.239 -0.0954 -0.2635 -0.2046
  273MPD2    H7 4188   3.495   1.809  12.193 -0.4027  0.0173 -0.2559
  274TMC3    C1 4189   3.204   1.844  11.601 -0.3645 -0.0917  0.0591
  274TMC3    C2 4190   3.074   1.859  11.556 -0.1808  0.3361  0.9543
  274TMC3    C3 4191   3.052   1.905  11.429 -1.1673  0.0211 -0.4141
  274TMC3    C4 4192   3.307   1.884  11.517 -0.1370  0.6141  1.1583
  274TMC3    C5 4193   3.277   1.933  11.394 -0.2870 -0.2114 -0.2904
  274TMC3    C6 4194   3.156   1.933  11.344 -0.0935 -0.4534 -0.5712
  274TMC3     C 4195   3.238   1.841  11.739 -0.1107 -0.1485 -0.5828
  274TMC3     O 4196   3.340   1.906  11.770 -0.0576 -0.1889  0.1062
  274TMC3     H 4197   2.992   1.833  11.622 -1.8782  3.0198 -0.1160
  274TMC3    H1 4198   3.411   1.889  11.548 -0.4693 -0.0755  2.3961
  274TMC3    H2 4199   3.138   1.982  11.249 -0.4174 -1.5035 -1.0477
  274TMC3    C7 4200   3.354   2.057  11.365 -0.4710 -0.3605 -0.2845
  274TMC3    C8 4201   2.920   1.888  11.368  0.2456  0.2898  0.0128
  274TMC3    O1 4202   3.475   2.051  11.363  0.9309  0.1989  0.3962
  274TMC3    O2 4203   2.890   1.969  11.283  0.5960 -0.2468  0.0989
  275MPD2     C 4204   3.051   4.526  14.703  0.3646 -0.2108  0.1260
  275MPD2    C1 4205   2.966   4.536  14.808 -0.2161 -0.1191 -0.7519
  275MPD2    C2 4206   2.831   4.495  14.789  0.4327  0.7882  0.2950
  275MPD2    C3 4207   2.788   4.441  14.669 -0.5804 -0.0769  1.1138
  275MPD2    C4 4208   2.877   4.438  14.564  0.2191  1.0549  0.3248
  275MPD2    C5 4209   3.004   4.489  14.582  0.8647  0.4026  0.9018
  275MPD2     H 4210   2.764   4.513  14.872  0.2405  1.3061  0.0269
  275MPD2    H1 4211   2.857   4.403  14.464  4.1118  3.9839 -1.4704
  275MPD2    H2 4212   3.150   4.571  14.705 -1.3426  3.5527 -0.6793
  275MPD2    H3 4213   3.071   4.490  14.497 -0.9926  0.2786 -0.5656
  275MPD2     N 4214   2.660   4.377  14.655 -0.1203 -0.5260 -0.4234
  275MPD2    H5 4215   2.644   4.334  14.565 -0.6229  1.1821 -1.1598
  275MPD2    N1 4216   3.003   4.588  14.929 -0.0017  0.5253  0.2261
  275MPD2    H7 4217   2.930   4.593  14.999  0.0541  0.1557  0.3119
  276TMC3    C1 4218   3.145   4.662  15.107 -0.2566  0.2806  0.2762
  276TMC3    C2 4219   3.076   4.594  15.200 -0.2653  0.2319 -0.3001
  276TMC3    C3 4220   3.100   4.622  15.327 -0.3388 -0.8718  0.1840
  276TMC3    C4 4221   3.237   0.020  15.134  0.7128  0.4707  0.4741
  276TMC3    C5 4222   3.254   0.045  15.269 -0.2037 -0.5529 -0.3588
  276TMC3    C6 4223   3.193   4.714  15.374 -0.4532  0.9539 -0.2605
  276TMC3     C 4224   3.136   4.626  14.967 -0.2960  0.4166  0.0040
  276TMC3     O 4225   3.236   4.644  14.897 -0.4477  0.1807 -0.1960
  276TMC3     H 4226   2.996   4.525  15.175 -0.0657  0.6236 -2.0454
  276TMC3    H1 4227   3.278   0.072  15.048 -0.5271 -1.3272 -1.2296
  276TMC3    H2 4228   3.202   0.003  15.478  0.2876 -2.9864  0.6958
  276TMC3    C7 4229   3.376   0.120  15.302 -0.6544  0.2235  0.4328
  276TMC3    C8 4230   3.015   4.568  15.436 -1.0969 -0.5698  0.0071
  276TMC3    O1 4231   3.380   0.136  15.423  0.0757 -0.1335  0.0171
  276TMC3    O2 4232   2.989   4.646  15.527  0.1186  0.0982  0.0535
  277MPD2     C 4233   0.070   3.885  13.429  0.2015 -0.3215 -0.6409
  277MPD2    C1 4234   4.673   3.860  13.440  0.1170 -0.0742  0.4900
  277MPD2    C2 4235   4.638   3.754  13.521  0.0086 -0.7603  0.1516
  277MPD2    C3 4236   4.722   3.685  13.596  0.2483 -1.0254 -0.2775
  277MPD2    C4 4237   0.113   3.715  13.588 -0.3492  0.3763 -0.0552
  277MPD2    C5 4238   0.160   3.813  13.499 -0.0561  0.3819  0.2490
  277MPD2     H 4239   4.534   3.728  13.535 -0.5302  1.1129 -0.3400
  277MPD2    H1 4240   0.187   3.658  13.645 -1.3506  1.5200  2.3756
  277MPD2    H2 4241   0.108   3.968  13.371  0.3527  1.2039  1.6067
  277MPD2    H3 4242   0.264   3.841  13.492 -0.2414  0.7448 -0.9610
  277MPD2     N 4243   4.669   3.579  13.667  0.0518 -0.4085 -0.0200
  277MPD2    H5 4244   4.574   3.550  13.646 -0.8117  1.0576  1.8102
  277MPD2    N1 4245   4.584   3.953  13.382 -0.0232 -0.4613  0.1396
  277MPD2    H7 4246   4.630   4.034  13.342 -1.6909 -0.0519 -0.9694
  278TMC3    C1 4247   4.655   3.410  13.819 -0.6453 -0.9509  0.1397
  278TMC3    C2 4248   4.689   3.276  13.811  0.2002 -0.2733  0.0958
  278TMC3    C3 4249   4.588   3.188  13.851  0.2651 -0.2728  0.1246
  278TMC3    C4 4250   4.536   3.464  13.854  0.2465  0.6143 -0.0924
  278TMC3    C5 4251   4.443   3.372  13.903 -0.6525 -0.7464  0.0079
  278TMC3    C6 4252   4.467   3.238  13.896 -0.0191 -0.4070 -0.2834
  278TMC3     C 4253   0.003   3.492  13.744  0.4034  0.3402 -0.6360
  278TMC3     O 4254   0.124   3.480  13.756  0.2411 -0.4019 -0.2894
  278TMC3     H 4255   0.039   3.239  13.760  1.6404  1.3602  1.4087
  278TMC3    H1 4256   4.512   3.569  13.868 -0.4066  0.6518 -1.5096
  278TMC3    H2 4257   4.401   3.176  13.956  0.2242 -0.1086  0.2940
  278TMC3    C7 4258   4.346   3.429  13.994  0.1679  0.2657  0.2941
  278TMC3    C8 4259   4.607   3.044  13.821  0.1264 -0.2105  0.1585
  278TMC3    O1 4260   4.372   3.540  14.037  0.1129  0.0052  0.3005
  278TMC3    O2 4261   4.710   3.007  13.765 -0.1016 -0.1392  0.0067
  279MPD2     C 4262   4.018   3.535   0.616 -0.4635  0.2345  0.0165
  279MPD2    C1 4263   3.904   3.611   0.626 -0.6042  0.1072  0.4007
  279MPD2    C2 4264   3.839   3.653   0.513 -0.7257  0.3940 -0.2731
  279MPD2    C3 4265   3.890   3.612   0.387  0.3232  1.0265 -0.3122
  279MPD2    C4 4266   4.011   3.543   0.383  0.8284  0.1655 -0.5545
  279MPD2    C5 4267   4.073   3.499   0.496 -0.1816  0.1378 -0.2042
  279MPD2     H 4268   3.750   3.714   0.517 -1.0050  0.1454 -2.3563
  279MPD2    H1 4269   4.051   3.516   0.286  1.6617  1.4006 -0.5683
  279MPD2    H2 4270   4.067   3.504   0.708 -0.1598  2.8681  0.7293
  279MPD2    H3 4271   4.159   3.433   0.492  0.6100  1.1222  0.7302
  279MPD2     N 4272   3.833   3.636   0.260  0.1804  0.1372 -0.1608
  279MPD2    H5 4273   3.888   3.609   0.179 -1.1471 -1.4504 -0.5226
  279MPD2    N1 4274   3.865   3.633   0.760 -0.2339  0.1831 -0.8122
  279MPD2    H7 4275   3.929   3.603   0.833 -0.5388  0.0237 -0.6102
  280TMC3    C1 4276   3.656   3.756   0.744  0.5394  0.0937 -0.1228
  280TMC3    C2 4277   3.572   3.664   0.691 -0.5144  0.3954  0.1453
  280TMC3    C3 4278   3.453   3.709   0.646 -0.6636  0.3230  0.1207
  280TMC3    C4 4279   3.620   3.886   0.762  0.0953 -0.5076 -0.3687
  280TMC3    C5 4280   3.496   3.925   0.725 -0.1645 -0.1152 -0.2747
  280TMC3    C6 4281   3.413   3.835   0.660  0.2019  1.3370  0.4350
  280TMC3     C 4282   3.770   3.712   0.823  0.6672  0.6162  0.0935
  280TMC3     O 4283   3.779   3.750   0.942  0.2033 -0.0670  0.1173
  280TMC3     H 4284   3.616   3.566   0.675  2.7074  1.9927 -0.7475
  280TMC3    H1 4285   3.682   3.962   0.807 -0.2549 -0.5172  0.1217
  280TMC3    H2 4286   3.314   3.859   0.624  0.0570 -2.2290 -1.5761
  280TMC3    C7 4287   3.445   4.057   0.752 -0.6108 -0.0528  0.0099
  280TMC3    C8 4288   3.383   3.631   0.542 -0.1794 -0.3119  0.5299
  280TMC3    O1 4289   3.501   4.114   0.844 -0.3129 -0.0412  0.1496
  280TMC3    O2 4290   3.299   3.693   0.471 -0.2586 -0.4227  0.1886
  281TMC3    C1 4291   2.778   3.732  14.219 -0.2889 -0.2095  0.2866
  281TMC3    C2 4292   2.857   3.820  14.148 -0.0861  0.1108  1.0895
  281TMC3    C3 4293   2.969   3.763  14.098  0.3611 -0.0688  0.4182
  281TMC3    C4 4294   2.811   3.601  14.240  0.0317  0.1101  0.0422
  281TMC3    C5 4295   2.914   3.549  14.172 -0.2512 -0.3986  0.8326
  281TMC3    C6 4296   3.004   3.635  14.118 -0.1261  0.1657  0.4005
  281TMC3     C 4297   2.634   3.750  14.200 -0.3527 -0.6862  0.4392
  281TMC3     O 4298   2.563   3.671  14.262  0.2989 -0.5849 -0.3052
  281TMC3     H 4299   2.833   3.925  14.132  1.6584  0.6574  2.1050
  281TMC3    H1 4300   2.740   3.540  14.295 -0.9910 -0.8850 -2.3885
  281TMC3    H2 4301   3.090   3.596  14.066  1.1961  1.5646  1.5325
  281TMC3    C7 4302   2.868   3.448  14.076  0.6946 -0.2885 -0.5689
  281TMC3    C8 4303   3.016   3.810  13.968 -0.4936 -0.0307 -0.6753
  281TMC3    O1 4304   2.933   3.444  13.976 -0.5286 -0.0682  0.4105
  281TMC3    O2 4305   3.133   3.782  13.935  0.0570 -0.1995 -0.0764
  282MPD2     C 4306   4.645   0.518  15.426  0.2956 -0.4634 -0.4503
  282MPD2    C1 4307   4.517   0.579  15.414 -0.0442 -0.3266  0.1992
  282MPD2    C2 4308   4.438   0.537  15.314  0.3109  0.0480  0.7567
  282MPD2    C3 4309   4.486   0.440  15.220 -0.0921 -0.1889  0.7053
  282MPD2    C4 4310   4.610   0.379  15.235  0.1146 -0.4552  0.3414
  282MPD2    C5 4311   4.690   0.418  15.340 -0.4302  0.9214  0.2948
  282MPD2     H 4312   4.336   0.574  15.302 -0.3973 -2.3670 -0.6954
  282MPD2    H1 4313   4.656   0.313  15.163 -1.6286 -2.6914  1.2713
  282MPD2    H2 4314   4.718   0.547  15.501  0.8452  1.4867 -1.7345
  282MPD2    H3 4315   0.052   0.377  15.347 -2.4421 -3.5828  2.6506
  282MPD2     N 4316   4.399   0.408  15.115  0.2441 -0.0469 -0.0249
  282MPD2    H5 4317   4.306   0.449  15.117 -0.3251 -1.2801 -0.9779
  282MPD2    N1 4318   4.471   0.681  15.495 -0.2021  0.5324  0.0713
  282MPD2    H7 4319   4.380   0.716  15.466 -1.8143 -2.8980  1.0591
  283TMC3    C1 4320   4.452   0.805  15.691  0.0952  0.7260 -0.5824
  283TMC3    C2 4321   4.486   0.932  15.735  0.7032  0.2654  0.6664
  283TMC3    C3 4322   4.445   0.958  15.863  0.6094 -0.8629  0.1533
  283TMC3    C4 4323   4.380   0.716  15.763  0.3337  0.1499  0.2828
  283TMC3    C5 4324   4.350   0.746  15.890  0.1232 -0.0172  0.6516
  283TMC3    C6 4325   4.378   0.868  15.943  0.0112  0.6681  0.6118
  283TMC3     C 4326   4.538   0.738  15.598 -0.1223 -0.0231 -0.4443
  283TMC3     O 4327   4.649   0.717  15.634  0.2914  0.0042 -0.4289
  283TMC3     H 4328   4.559   0.987  15.676  1.2390  2.3618  3.2950
  283TMC3    H1 4329   4.360   0.618  15.720 -0.6666  0.0277  1.0177
  283TMC3    H2 4330   4.339   0.903  16.038 -3.2755 -0.9644 -0.1529
  283TMC3    C7 4331   4.249   0.673  15.958 -0.2513 -0.6769 -0.2560
  283TMC3    C8 4332   4.454   1.091  15.908  0.2951  0.3858 -0.5716
  283TMC3    O1 4333   4.169   0.731  16.032  0.5910 -0.1561  1.0902
  283TMC3    O2 4334   4.499   1.112  16.023  0.0357 -0.0534  0.4531
  284MPD2     C 4335   2.140   4.008  11.594  0.0857 -0.1032  0.3760
  284MPD2    C1 4336   2.265   4.026  11.653  0.1491 -0.7426  0.3783
  284MPD2    C2 4337   2.346   3.920  11.662 -0.0656 -0.2002  0.0538
  284MPD2    C3 4338   2.307   3.798  11.620 -0.0122  0.4802 -0.2126
  284MPD2    C4 4339   2.191   3.782  11.553  0.1389 -0.2047 -0.4588
  284MPD2    C5 4340   2.100   3.887  11.542 -0.8524  0.0258  0.1141
  284MPD2     H 4341   2.437   3.930  11.720 -1.3658  2.7194  1.6068
  284MPD2    H1 4342   2.150   3.692  11.508  0.2553  0.5807 -2.1328
  284MPD2    H2 4343   2.074   4.093  11.583  1.7159  1.0118 -0.7452
  284MPD2    H3 4344   2.006   3.872  11.490 -1.1755 -2.1606  1.3517
  284MPD2     N 4345   2.393   3.690  11.652  1.0393 -0.8211 -0.6367
  284MPD2    H5 4346   2.477   3.715  11.704  0.8444 -1.3387 -0.0840
  284MPD2    N1 4347   2.317   4.150  11.693  0.0246  0.6409 -0.2094
  284MPD2    H7 4348   2.416   4.160  11.716 -0.5358 -0.3957  2.6291
  285TMC3    C1 4349   2.347   4.381  11.715 -0.0436 -0.9674  0.0524
  285TMC3    C2 4350   2.459   4.360  11.634  0.1351  0.2140 -0.2011
  285TMC3    C3 4351   2.534   4.462  11.592 -0.3503 -0.1298  0.0072
  285TMC3    C4 4352   2.312   4.510  11.753  0.1767 -0.9140 -0.2761
  285TMC3    C5 4353   2.389   4.615  11.716 -0.8231 -0.2038 -0.0200
  285TMC3    C6 4354   2.496   4.589  11.633 -0.4328 -0.3290  1.2240
  285TMC3     C 4355   2.253   4.276  11.710  0.1255  0.4273 -0.1990
  285TMC3     O 4356   2.133   4.303  11.719 -0.4306  0.1185 -0.3852
  285TMC3     H 4357   2.481   4.265  11.586  1.0005  1.2840 -1.8965
  285TMC3    H1 4358   2.220   4.519  11.809  0.8731  2.5188  0.3096
  285TMC3    H2 4359   2.571   4.668  11.629  1.0195 -1.8718 -1.3975
  285TMC3    C7 4360   2.371   0.008  11.775 -0.0109  0.6350 -0.4738
  285TMC3    C8 4361   2.599   4.448  11.462 -0.2975 -0.8729 -0.5014
  285TMC3    O1 4362   2.425   0.093  11.705 -0.3127 -0.0606  0.2082
  285TMC3    O2 4363   2.644   4.335  11.446  0.2694  0.0223 -0.7066
  286MPD2     C 4364   2.618   3.687   1.891 -0.0330 -0.2371  0.2277
  286MPD2    C1 4365   2.591   3.653   1.761  0.2911  0.4552 -0.5131
  286MPD2    C2 4366   2.655   3.540   1.703 -0.3338  0.1612 -0.3203
  286MPD2    C3 4367   2.729   3.455   1.785 -0.4144  0.3420  0.0619
  286MPD2    C4 4368   2.745   3.487   1.914 -0.6452 -0.5647 -0.6611
  286MPD2    C5 4369   2.698   3.603   1.962  0.2124 -0.5044  0.0989
  286MPD2     H 4370   2.651   3.520   1.597 -0.3229  1.7856 -0.6305
  286MPD2    H1 4371   2.793   3.417   1.982  0.6916  0.6388 -0.3556
  286MPD2    H2 4372   2.587   3.777   1.943  0.6921 -1.2559  2.3945
  286MPD2    H3 4373   2.726   3.641   2.060  2.1165 -1.8754  0.0979
  286MPD2     N 4374   2.786   3.334   1.749  0.7443 -0.2537 -0.5582
  286MPD2    H5 4375   2.851   3.293   1.816 -0.0694 -0.9128 -0.1662
  286MPD2    N1 4376   2.511   3.739   1.679 -0.1873  0.7256  0.4792
  286MPD2    H7 4377   2.499   3.714   1.581  0.0042  2.4909  0.0059
  287TMC3    C1 4378   2.860   3.151   1.609  0.2145 -1.0023 -0.1409
  287TMC3    C2 4379   2.838   3.082   1.494 -0.1102 -0.6016  0.5856
  287TMC3    C3 4380   2.937   3.017   1.434  0.1174  0.6930  0.0470
  287TMC3    C4 4381   2.983   3.141   1.668  0.0932 -0.3273  0.2915
  287TMC3    C5 4382   3.086   3.065   1.611  0.4508 -0.6622 -0.7406
  287TMC3    C6 4383   3.068   3.010   1.487 -0.1195  0.1125 -0.1428
  287TMC3     C 4384   2.775   3.269   1.629 -0.5473 -0.4153 -0.2337
  287TMC3     O 4385   2.696   3.284   1.534  0.0759  0.3360 -0.1605
  287TMC3     H 4386   2.738   3.069   1.455  0.6377 -1.7389 -0.9457
  287TMC3    H1 4387   3.010   3.213   1.745  0.3630  1.1555 -1.1926
  287TMC3    H2 4388   3.146   2.950   1.442  1.7794  2.6996 -0.3119
  287TMC3    C7 4389   3.221   3.093   1.657  0.4066  0.3406 -0.3687
  287TMC3    C8 4390   2.913   2.938   1.317  0.5944  0.0765 -0.0885
  287TMC3    O1 4391   3.242   3.206   1.699 -0.0990  0.0010 -0.9762
  287TMC3    O2 4392   2.806   2.878   1.309 -0.1495 -0.7438  0.0614
  288TMC3    C1 4393   4.658   2.866  14.518  0.6323  0.1766 -0.2046
  288TMC3    C2 4394   4.538   2.912  14.574  0.4717 -0.1673 -0.4209
  288TMC3    C3 4395   4.540   3.052  14.594 -0.3761  0.5243  0.9029
  288TMC3    C4 4396   0.025   2.946  14.487 -0.9129  0.2415 -0.0139
  288TMC3    C5 4397   0.024   3.078  14.528  0.2645 -0.5932 -0.6033
  288TMC3    C6 4398   4.649   3.138  14.575  0.1170 -0.1368 -0.6262
  288TMC3     C 4399   4.666   2.728  14.495 -0.0081  0.5039 -0.5911
  288TMC3     O 4400   4.713   2.703  14.388 -0.4221 -0.2445 -0.1477
  288TMC3     H 4401   4.451   2.852  14.598  0.4682  1.4572  3.7167
  288TMC3    H1 4402   0.104   2.886  14.443 -0.1057  0.7361  0.7735
  288TMC3    H2 4403   4.639   3.245  14.585  2.6265  0.0321 -0.0398
  288TMC3    C7 4404   0.122   3.154  14.450  0.6781 -0.0716  0.0619
  288TMC3    C8 4405   4.430   3.109  14.665 -0.1291  0.0501 -0.0091
  288TMC3    O1 4406   0.176   3.093  14.359  0.2134 -0.2144 -0.0488
  288TMC3    O2 4407   4.443   3.226  14.692 -0.3525 -0.5821  0.2040
  289MPD2     C 4408   0.283   2.126  14.075 -0.2631  0.2503 -0.0416
  289MPD2    C1 4409   0.266   2.257  14.052  0.3597  0.2890 -0.4121
  289MPD2    C2 4410   0.130   2.305  14.058 -0.3494 -0.1760 -0.0699
  289MPD2    C3 4411   0.021   2.223  14.071 -0.3695  0.5264  0.0986
  289MPD2    C4 4412   0.049   2.094  14.100 -0.5625  0.0695  0.0625
  289MPD2    C5 4413   0.178   2.043  14.102 -0.9213  0.5120  0.0415
  289MPD2     H 4414   0.119   2.405  14.016 -2.6495 -0.1614  0.5602
  289MPD2    H1 4415   4.708   2.026  14.128  1.4018 -2.9256 -1.6320
  289MPD2    H2 4416   0.381   2.079  14.078 -0.0447  0.6921 -0.2682
  289MPD2    H3 4417   0.200   1.938  14.117  0.3432  0.6174 -1.0800
  289MPD2     N 4418   4.626   2.268  14.068  0.1748 -0.0021  0.4390
  289MPD2    H5 4419   4.555   2.196  14.074  0.1958  0.2179  3.3055
  289MPD2    N1 4420   0.376   2.347  14.046 -0.1188 -0.6866 -0.0325
  289MPD2    H7 4421   0.465   2.316  14.083  0.7338 -1.3585 -2.6626
  290TMC3    C1 4422   4.448   2.429  14.093  0.2333 -0.0016  0.4503
  290TMC3    C2 4423   4.410   2.558  14.122 -0.1224  0.0934 -0.8896
  290TMC3    C3 4424   4.281   2.601  14.100  0.7467  0.8870  0.4684
  290TMC3    C4 4425   4.357   2.338  14.045  0.4594  0.5768 -0.7513
  290TMC3    C5 4426   4.232   2.384  14.019 -0.8179 -0.3233 -0.1900
  290TMC3    C6 4427   4.191   2.513  14.054  0.1301  0.0657  0.0646
  290TMC3     C 4428   4.595   2.399  14.084  0.2030 -0.2809  0.4116
  290TMC3     O 4429   4.663   2.500  14.103  0.0051 -0.4444 -0.3804
  290TMC3     H 4430   4.473   2.627  14.177  0.5981 -0.9985 -0.3562
  290TMC3    H1 4431   4.386   2.238  14.016 -0.2310 -0.1967  1.2581
  290TMC3    H2 4432   4.088   2.546  14.050  0.5088  0.9235 -2.4172
  290TMC3    C7 4433   4.127   2.287  14.029  0.0601 -0.3846  0.0675
  290TMC3    C8 4434   4.230   2.709  14.170  0.0971  0.0347  0.0881
  290TMC3    O1 4435   4.016   2.327  13.995 -0.2447  0.3658  0.4241
  290TMC3    O2 4436   4.118   2.692  14.211  0.3494 -0.3198 -0.3034
  291MPD2     C 4437   3.558   2.245   0.952  0.4033 -0.6361  0.7439
  291MPD2    C1 4438   3.578   2.239   0.813 -0.5926  0.3199 -0.0375
  291MPD2    C2 4439   3.665   2.328   0.751 -0.9998 -0.5652 -0.2797
  291MPD2    C3 4440   3.743   2.420   0.825  0.1675 -0.3002 -1.3196
  291MPD2    C4 4441   3.725   2.419   0.960  0.5977  0.5485 -0.1841
  291MPD2    C5 4442   3.635   2.333   1.021 -0.5574  0.2681  0.2010
  291MPD2     H 4443   3.662   2.318   0.643  0.7844  0.2245 -0.4127
  291MPD2    H1 4444   3.776   2.492   1.022 -1.2611  0.8862  0.9329
  291MPD2    H2 4445   3.495   2.179   1.010  2.8300 -3.0248  0.6976
  291MPD2    H3 4446   3.626   2.350   1.128  3.1335 -0.5001  0.6234
  291MPD2     N 4447   3.848   2.512   0.779 -0.0928  0.1713  0.6400
  291MPD2    H5 4448   3.893   2.564   0.854  1.1576 -1.9904  1.4148
  291MPD2    N1 4449   3.501   2.147   0.730 -0.1825  0.3765 -0.1793
  291MPD2    H7 4450   3.514   2.149   0.630  0.0901 -0.2634 -0.1617
  292TMC3    C1 4451   3.375   1.943   0.678  0.1910  0.2261  0.4568
  292TMC3    C2 4452   3.286   1.852   0.724  0.0242  0.3083  0.0070
  292TMC3    C3 4453   3.263   1.741   0.655 -0.0220 -0.0447 -0.7684
  292TMC3    C4 4454   3.443   1.918   0.560 -0.4085 -0.2634  0.1513
  292TMC3    C5 4455   3.426   1.798   0.497 -0.3860 -0.2991 -0.0899
  292TMC3    C6 4456   3.334   1.712   0.543 -0.5132 -0.4955  0.1840
  292TMC3     C 4457   3.418   2.040   0.775 -0.2822 -0.6991 -0.7667
  292TMC3     O 4458   3.387   2.020   0.890  0.5809  0.0927  0.1268
  292TMC3     H 4459   3.240   1.868   0.821  0.1089 -3.2094  0.6278
  292TMC3    H1 4460   3.532   1.975   0.535 -1.3114  0.6678 -0.9676
  292TMC3    H2 4461   3.315   1.618   0.493 -0.1363  0.7100 -2.2012
  292TMC3    C7 4462   3.478   1.787   0.358 -0.2902  0.1710 -0.3325
  292TMC3    C8 4463   3.143   1.663   0.687 -0.0016 -0.3054  0.1880
  292TMC3    O1 4464   3.510   1.884   0.294 -0.2354 -0.3542  0.1683
  292TMC3    O2 4465   3.098   1.675   0.800  0.6300  0.2043  0.1764
  293MPD2     C 4466   1.010   2.986  12.722  0.3620 -0.0666 -0.2638
  293MPD2    C1 4467   0.906   3.039  12.800 -0.1751  0.1771 -0.1998
  293MPD2    C2 4468   0.927   3.084  12.924  0.0585 -0.1173  0.8647
  293MPD2    C3 4469   1.059   3.081  12.980 -0.0621  1.4977  0.4920
  293MPD2    C4 4470   1.155   3.021  12.907  0.1758  0.2573 -0.5098
  293MPD2    C5 4471   1.136   2.983  12.776  0.1369 -0.1357  0.9504
  293MPD2     H 4472   0.843   3.123  12.981 -1.4709 -1.0246 -0.7652
  293MPD2    H1 4473   1.257   3.022  12.944 -0.4297  2.0097  1.0743
  293MPD2    H2 4474   0.999   2.957  12.619  0.5209 -1.6743  0.1756
  293MPD2    H3 4475   1.211   2.924  12.724 -0.9949  0.0402 -0.8762
  293MPD2     N 4476   1.099   3.123  13.104  0.2783  0.9337  0.2889
  293MPD2    H5 4477   1.194   3.112  13.137  0.3568 -0.5011 -0.4133
  293MPD2    N1 4478   0.779   3.053  12.732  0.1972  0.2793  0.5903
  293MPD2    H7 4479   0.786   3.033  12.632  2.1242 -0.5242  0.8897
  294TMC3    C1 4480   0.553   3.059  12.671 -0.4192  0.0626 -0.2161
  294TMC3    C2 4481   0.598   3.019  12.547  0.5321 -0.5331  0.1483
  294TMC3    C3 4482   0.516   3.038  12.439  0.2065 -0.1535  0.0783
  294TMC3    C4 4483   0.447   3.141  12.673  0.6474  0.1361  0.5096
  294TMC3    C5 4484   0.377   3.173  12.565  0.5458 -0.3637  0.2507
  294TMC3    C6 4485   0.409   3.125  12.442 -0.0320  0.3208  0.1134
  294TMC3     C 4486   0.653   3.062  12.781 -0.0932 -0.2409  0.4362
  294TMC3     O 4487   0.621   3.084  12.897 -0.0275 -0.5071 -0.2882
  294TMC3     H 4488   0.675   2.944  12.537  0.9636 -0.0257 -0.3527
  294TMC3    H1 4489   0.416   3.184  12.768  1.1652  0.8547  0.3585
  294TMC3    H2 4490   0.345   3.137  12.356  1.2289 -0.8081 -0.9770
  294TMC3    C7 4491   0.296   3.290  12.569 -0.5150  0.2860 -0.6257
  294TMC3    C8 4492   0.550   2.968  12.311  0.3210 -0.0600  0.2030
  294TMC3    O1 4493   0.234   3.327  12.669  0.6771  0.5134  0.1218
  294TMC3    O2 4494   0.646   2.893  12.306  0.0763  0.0365  0.2368
  295MPD2     C 4495   4.681   2.468   1.139  0.3623 -0.5766 -0.5467
  295MPD2    C1 4496   0.030   2.544   1.073  0.3764  0.4956  0.5446
  295MPD2    C2 4497   0.055   2.672   1.121  0.7381  0.0431  0.3069
  295MPD2    C3 4498   4.734   2.729   1.231  0.1528 -0.8555 -0.6291
  295MPD2    C4 4499   4.637   2.649   1.292  0.3054 -0.9931 -0.1035
  295MPD2    C5 4500   4.619   2.524   1.246 -0.2283 -0.2440 -0.3002
  295MPD2     H 4501   0.128   2.731   1.066  0.1507  0.2449 -0.2661
  295MPD2    H1 4502   4.595   2.685   1.386 -0.1038 -2.3846  0.2419
  295MPD2    H2 4503   4.654   2.368   1.106 -0.4727  0.1560 -2.0939
  295MPD2    H3 4504   4.544   2.473   1.306 -0.9049  0.2208 -0.7518
  295MPD2     N 4505   0.022   2.860   1.274  0.4099  0.3117 -0.3557
  295MPD2    H5 4506   4.700   2.889   1.350  0.9373 -2.3512  1.0467
  295MPD2    N1 4507   0.102   2.499   0.958 -0.3634 -0.4503  0.3226
  295MPD2    H7 4508   0.174   2.566   0.931  0.9172 -2.0914 -0.3337
  296TMC3    C1 4509   0.114   3.073   1.293 -0.0622  0.3941 -0.5861
  296TMC3    C2 4510   0.147   3.199   1.240 -0.0594 -0.3914  0.7256
  296TMC3    C3 4511   0.174   3.298   1.327  0.1399  0.3272 -0.4197
  296TMC3    C4 4512   0.110   3.064   1.433 -0.8705  0.3687  0.5199
  296TMC3    C5 4513   0.136   3.171   1.510  0.2402 -0.3697  0.2909
  296TMC3    C6 4514   0.171   3.291   1.459  0.3951  0.0743  0.1963
  296TMC3     C 4515   0.097   2.953   1.213 -0.7461 -0.4118  0.0635
  296TMC3     O 4516   0.154   2.953   1.107  0.4889 -0.2207 -0.0446
  296TMC3     H 4517   0.144   3.220   1.134 -0.1473  3.4911  1.5060
  296TMC3    H1 4518   0.082   2.968   1.474  0.2736  0.6656  1.9920
  296TMC3    H2 4519   0.197   3.369   1.529  2.9062 -1.3283  0.8642
  296TMC3    C7 4520   0.113   3.166   1.653  0.2564  0.5270 -0.2295
  296TMC3    C8 4521   0.208   3.426   1.261 -0.1598 -0.1586  0.1912
  296TMC3    O1 4522   0.147   3.262   1.717 -0.6459  0.4106  0.1190
  296TMC3    O2 4523   0.185   3.433   1.141 -0.0450  0.3148  0.4570
  297MPD2     C 4524   3.345   4.407  17.091 -0.7246  0.4623 -0.8513
  297MPD2    C1 4525   3.343   4.368  16.956  0.0974  0.2325 -0.4741
  297MPD2    C2 4526   3.441   4.419  16.874  0.3464 -0.4124  0.2882
  297MPD2    C3 4527   3.525   4.514  16.916  0.1513  0.4075 -0.7800
  297MPD2    C4 4528   3.520   4.549  17.051  0.1794 -0.2490 -0.3881
  297MPD2    C5 4529   3.433   4.493  17.145  0.3819  0.3193  0.4322
  297MPD2     H 4530   3.428   4.407  16.767  0.2743 -1.3516  0.4050
  297MPD2    H1 4531   3.592   4.623  17.085 -1.1359 -0.3094  2.5514
  297MPD2    H2 4532   3.273   4.364  17.160 -1.3055  0.7332 -1.2917
  297MPD2    H3 4533   3.429   4.529  17.247  0.3629  0.4133  0.3984
  297MPD2     N 4534   3.622   4.576  16.830  0.4115  0.0282  0.1589
  297MPD2    H5 4535   3.672   4.654  16.871  0.0248  0.8343 -0.8909
  297MPD2    N1 4536   3.229   4.311  16.902 -0.1734  0.1634  0.6356
  297MPD2    H7 4537   3.237   4.301  16.802 -0.6397  0.0945  0.6031
  298TMC3    C1 4538   3.000   4.248  16.872 -0.6606 -0.3793  0.2011
  298TMC3    C2 4539   3.045   4.238  16.744  0.0119  0.4192 -0.5672
  298TMC3    C3 4540   2.960   4.293  16.645  0.0170  0.2963 -0.1630
  298TMC3    C4 4541   2.874   4.299  16.902  0.0999  0.1298 -0.6887
  298TMC3    C5 4542   2.796   4.352  16.799 -0.9821  1.0362  0.3425
  298TMC3    C6 4543   2.840   4.349  16.666 -0.0396 -0.1282  0.0230
  298TMC3     C 4544   3.113   4.276  16.962 -0.0375 -0.3998 -0.3728
  298TMC3     O 4545   3.079   4.289  17.076  0.4667 -0.5170  0.4769
  298TMC3     H 4546   3.146   4.211  16.716 -0.5243 -1.0072 -1.1097
  298TMC3    H1 4547   2.841   4.291  17.005  2.3255 -1.1782 -0.0841
  298TMC3    H2 4548   2.801   4.419  16.593 -0.2527  1.0516  1.2942
  298TMC3    C7 4549   2.676   4.427  16.830 -0.3160  0.0828 -0.5636
  298TMC3    C8 4550   3.011   4.324  16.513 -0.3454 -0.0332  0.5691
  298TMC3    O1 4551   2.682   4.481  16.940 -0.0461 -0.7103  0.0627
  298TMC3    O2 4552   3.132   4.336  16.510  0.6889  0.0282  0.8332
  299MPD2     C 4553   4.188   3.448  11.179 -0.2146  0.4249 -0.4391
  299MPD2    C1 4554   4.195   3.580  11.146  0.2349 -0.1492  0.0604
  299MPD2    C2 4555   4.111   3.633  11.053 -0.3873  0.4547  0.5511
  299MPD2    C3 4556   4.035   3.539  10.973 -0.5539  0.5897 -0.8352
  299MPD2    C4 4557   4.043   3.407  11.007  0.2940 -0.4391  0.4906
  299MPD2    C5 4558   4.124   3.356  11.104 -0.4926  1.0714  0.1384
  299MPD2     H 4559   4.120   3.736  11.018 -2.0539  0.6420  0.7040
  299MPD2    H1 4560   3.975   3.336  10.960  0.2805 -0.7669  1.0054
  299MPD2    H2 4561   4.257   3.406  11.250 -1.5323 -2.1394 -0.6947
  299MPD2    H3 4562   4.131   3.252  11.133 -1.8062  0.2643 -2.4494
  299MPD2     N 4563   3.944   3.571  10.871 -0.4916  0.7238 -0.2700
  299MPD2    H5 4564   3.885   3.497  10.834 -1.0994  0.7288  0.6856
  299MPD2    N1 4565   4.279   3.657  11.226  0.3263 -0.1326  0.4049
  299MPD2    H7 4566   4.317   3.604  11.303 -0.6632 -0.5000  0.6459
  300TMC3    C1 4567   3.824   3.696  10.705 -0.2953  0.2870 -0.4342
  300TMC3    C2 4568   3.825   3.787  10.606  0.1754  0.2518 -0.4989
  300TMC3    C3 4569   3.724   3.804  10.517 -0.3568 -0.4669 -0.0971
  300TMC3    C4 4570   3.715   3.611  10.718 -0.1038 -0.0169  0.4563
  300TMC3    C5 4571   3.611   3.633  10.625  0.2668  0.2482 -0.0118
  300TMC3    C6 4572   3.613   3.732  10.531  0.6405  0.7963 -0.0902
  300TMC3     C 4573   3.928   3.695  10.813 -0.3350 -0.7089 -0.2592
  300TMC3     O 4574   3.997   3.798  10.830  0.3369 -0.1379  0.0151
  300TMC3     H 4575   3.911   3.851  10.588 -0.4481  1.4308  0.7179
  300TMC3    H1 4576   3.707   3.547  10.805 -0.5144 -0.5042  0.0586
  300TMC3    H2 4577   3.528   3.751  10.467 -0.0799 -2.3602 -0.0500
  300TMC3    C7 4578   3.484   3.572  10.656 -0.5085  0.1889 -0.2954
  300TMC3    C8 4579   3.717   3.923  10.433 -0.0805 -0.2085  0.0089
  300TMC3    O1 4580   3.476   3.447  10.671 -0.0898  0.3860 -0.0660
  300TMC3    O2 4581   3.627   3.923  10.349  0.2917  0.2172  0.8463
  301MPD2     C 4582   1.673   1.014   1.074  0.3500 -0.1010 -0.2535
  301MPD2    C1 4583   1.558   0.935   1.060 -0.3011 -1.1027  0.7150
  301MPD2    C2 4584   1.581   0.800   1.048 -0.8189 -0.0652 -0.1537
  301MPD2    C3 4585   1.704   0.743   1.052  0.2061 -0.4063  0.1285
  301MPD2    C4 4586   1.815   0.818   1.067 -0.6076 -0.5843  0.0216
  301MPD2    C5 4587   1.795   0.947   1.079 -0.4122  0.2804  0.1572
  301MPD2     H 4588   1.494   0.735   1.042 -0.9448  0.0212  0.7872
  301MPD2    H1 4589   1.911   0.768   1.068  0.7398  1.9955 -1.6647
  301MPD2    H2 4590   1.675   1.122   1.085  0.3658 -0.1211 -0.0614
  301MPD2    H3 4591   1.890   0.999   1.090 -0.6767  0.5070  1.2892
  301MPD2     N 4592   1.726   0.606   1.046 -0.2903 -0.0146  0.2861
  301MPD2    H5 4593   1.820   0.574   1.065 -0.0353  0.3431 -0.3945
  301MPD2    N1 4594   1.423   0.986   1.067 -0.5701  0.0845  0.5547
  301MPD2    H7 4595   1.350   0.916   1.058 -0.7451  0.0850  2.0523
  302TMC3    C1 4596   1.678   0.379   1.008 -0.7849  0.0159  0.4753
  302TMC3    C2 4597   1.753   0.338   1.113  0.0154 -0.5228 -0.8638
  302TMC3    C3 4598   1.743   0.209   1.158 -0.0311 -0.0882  0.0227
  302TMC3    C4 4599   1.578   0.295   0.962 -0.0330 -0.4808 -0.0452
  302TMC3    C5 4600   1.579   0.163   1.008  0.4289 -0.8053  0.4890
  302TMC3    C6 4601   1.657   0.116   1.111 -0.1457  0.5264  0.1544
  302TMC3     C 4602   1.635   0.517   1.000 -0.3020 -0.1166 -0.0325
  302TMC3     O 4603   1.523   0.528   0.947 -0.3646 -0.1786 -0.0807
  302TMC3     H 4604   1.829   0.406   1.150 -1.5719  0.9716 -0.3175
  302TMC3    H1 4605   1.534   0.318   0.865  1.6725 -0.7532 -0.8917
  302TMC3    H2 4606   1.636   0.030   1.174 -2.6267 -1.0489 -2.8207
  302TMC3    C7 4607   1.468   0.083   0.991  0.0159  0.1113 -0.5320
  302TMC3    C8 4608   1.811   0.173   1.286 -0.0123  0.0825 -0.2499
  302TMC3    O1 4609   1.492   4.700   1.019  0.6011  0.0742  0.0709
  302TMC3    O2 4610   1.866   0.063   1.287 -0.3418  0.3179  0.2611
  303MPD2     C 4611   1.116   3.916  10.771 -0.6201  0.1952  0.0973
  303MPD2    C1 4612   1.043   3.811  10.734  0.2777  0.2140  0.6689
  303MPD2    C2 4613   0.964   3.815  10.619  0.0271  0.3809  0.0620
  303MPD2    C3 4614   0.961   3.934  10.544 -0.1693 -0.1827  0.3578
  303MPD2    C4 4615   1.038   4.041  10.588  0.8536  0.3223  0.1654
  303MPD2    C5 4616   1.105   4.031  10.704 -0.0178 -0.0827 -0.1522
  303MPD2     H 4617   0.916   3.729  10.574 -0.6910  0.4984  0.6011
  303MPD2    H1 4618   1.023   4.140  10.547 -1.1624 -0.1881 -0.3183
  303MPD2    H2 4619   1.189   3.913  10.851 -0.4122 -1.0344 -0.1341
  303MPD2    H3 4620   1.159   4.121  10.730 -1.4002  0.9471 -0.8556
  303MPD2     N 4621   0.891   3.957  10.428 -0.3351 -0.0391 -1.0247
  303MPD2    H5 4622   0.926   4.046  10.392 -1.5370  0.7793 -0.1532
  303MPD2    N1 4623   1.065   3.685  10.805 -0.1666  0.0856  0.1332
  303MPD2    H7 4624   1.136   3.691  10.877  0.6524 -0.4813 -0.6192
  304TMC3    C1 4625   1.074   3.450  10.831  0.4591 -0.0872  0.4108
  304TMC3    C2 4626   1.009   3.335  10.850 -0.2512  0.0329 -0.0724
  304TMC3    C3 4627   1.090   3.231  10.872 -0.0992 -0.0881  0.3280
  304TMC3    C4 4628   1.207   3.462  10.806  0.1321 -0.0470 -0.2625
  304TMC3    C5 4629   1.284   3.347  10.824 -0.0543  0.3456 -0.2343
  304TMC3    C6 4630   1.230   3.228  10.870  0.4005 -0.1098  0.0065
  304TMC3     C 4631   0.996   3.567  10.788 -0.4639 -0.1261  0.0605
  304TMC3     O 4632   0.880   3.553  10.749 -0.0545  0.0752 -0.2196
  304TMC3     H 4633   0.901   3.328  10.858 -0.3990  2.0607 -0.2276
  304TMC3    H1 4634   1.250   3.554  10.767 -1.6380  0.8315 -0.1538
  304TMC3    H2 4635   1.292   3.139  10.877 -0.2520 -0.4778  1.0740
  304TMC3    C7 4636   1.357   3.318  10.699  0.3015  0.4943 -0.1509
  304TMC3    C8 4637   1.046   3.102  10.831 -0.4504 -1.1281 -0.4406
  304TMC3    O1 4638   1.358   3.203  10.656 -0.7186 -0.3599 -0.2106
  304TMC3    O2 4639   0.941   3.061  10.873 -0.1017  0.5052 -0.1332
  305MPD2     C 4640   4.701   0.978  14.468  0.6884 -0.2728  0.7240
  305MPD2    C1 4641   4.643   0.856  14.475 -0.8892 -0.5293  0.4236
  305MPD2    C2 4642   4.587   0.800  14.360 -0.4071 -0.6741  0.1790
  305MPD2    C3 4643   4.591   0.866  14.240 -0.2906 -0.3810  0.1638
  305MPD2    C4 4644   4.658   0.984  14.238  0.0050 -0.5403 -0.2528
  305MPD2    C5 4645   4.712   1.041  14.346 -0.2850 -0.8095  0.5654
  305MPD2     H 4646   4.543   0.701  14.372 -1.7945 -0.2697 -1.5468
  305MPD2    H1 4647   4.662   1.034  14.142 -0.3552  1.2586  0.6828
  305MPD2    H2 4648   4.731   1.035  14.555 -0.6659 -1.6644  2.0973
  305MPD2    H3 4649   0.039   1.127  14.345 -1.1763 -0.1103  2.2612
  305MPD2     N 4650   4.576   0.810  14.110  0.2248  0.3373  0.1875
  305MPD2    H5 4651   4.596   0.861  14.025 -0.8746  1.6860  0.7483
  305MPD2    N1 4652   4.630   0.800  14.611  0.2394  0.6764 -0.1043
  305MPD2    H7 4653   4.679   0.852  14.683 -2.2665  0.2511  1.9312
  306TMC3    C1 4654   4.609   0.658  14.783 -0.2748  0.8813  0.3792
  306TMC3    C2 4655   4.701   0.559  14.820  0.9709  0.0280 -0.1014
  306TMC3    C3 4656   0.005   0.566  14.954  0.0653  0.3532 -0.1217
  306TMC3    C4 4657   4.570   0.753  14.868 -0.5522 -0.3174  0.4577
  306TMC3    C5 4658   4.627   0.760  14.989  0.6070 -0.5609  0.0389
  306TMC3    C6 4659   4.698   0.658  15.042  0.3052 -0.0245  0.1842
  306TMC3     C 4660   4.580   0.677  14.638  0.4566 -0.8031  0.6929
  306TMC3     O 4661   4.558   0.582  14.566  0.4959  0.2676 -0.7234
  306TMC3     H 4662   0.008   0.493  14.747 -0.3431  0.4077 -1.2620
  306TMC3    H1 4663   4.496   0.824  14.833  0.0033  1.1933  2.3685
  306TMC3    H2 4664   4.721   0.649  15.148 -0.4965 -1.1628  0.2605
  306TMC3    C7 4665   4.576   0.859  15.078  0.6151  0.4139 -0.0300
  306TMC3    C8 4666   0.097   0.458  14.994  0.1477  0.6430 -0.0651
  306TMC3    O1 4667   4.461   0.902  15.058 -0.1462 -0.3355  0.0060
  306TMC3    O2 4668   0.084   0.360  14.922 -0.1529 -0.1041 -0.3996
  307MPD2     C 4669   2.292   3.537   1.548 -1.2160 -0.4082  0.2300
  307MPD2    C1 4670   2.228   3.607   1.449  0.8323 -0.3028  0.6479
  307MPD2    C2 4671   2.096   3.640   1.472 -0.2301 -0.7077 -0.5206
  307MPD2    C3 4672   2.038   3.642   1.598 -0.3044  0.2151  0.8230
  307MPD2    C4 4673   2.099   3.564   1.694  0.0596 -0.4017 -0.3906
  307MPD2    C5 4674   2.224   3.514   1.664 -0.0483  0.6406  0.2688
  307MPD2     H 4675   2.061   3.693   1.385  3.3663 -0.4407 -1.8235
  307MPD2    H1 4676   2.061   3.546   1.794  0.6653  0.8206  0.0491
  307MPD2    H2 4677   2.393   3.499   1.539 -1.3323 -0.6575 -0.0357
  307MPD2    H3 4678   2.275   3.457   1.741  3.2905  0.5129 -2.0015
  307MPD2     N 4679   1.912   3.705   1.622 -0.0623  0.1226  0.3211
  307MPD2    H5 4680   1.884   3.771   1.550  0.9670  0.4751  0.2496
  307MPD2    N1 4681   2.287   3.628   1.320 -0.0116 -0.0674 -0.0526
  307MPD2    H7 4682   2.231   3.677   1.251 -2.0808 -1.5230  0.5735
  308TMC3    C1 4683   1.538   3.825   1.894  0.1608  0.3384 -0.2399
  308TMC3    C2 4684   1.542   3.956   1.850 -0.0943 -0.0180  0.3871
  308TMC3    C3 4685   1.639   4.000   1.763 -0.0205  0.2036  0.3955
  308TMC3    C4 4686   1.630   3.740   1.839 -0.5484 -0.1741  0.1966
  308TMC3    C5 4687   1.728   3.783   1.746  0.0481 -0.3437  0.1897
  308TMC3    C6 4688   1.738   3.912   1.716 -0.0966  0.6041  0.2551
  308TMC3     C 4689   1.409   3.777   1.841  0.4181  0.1707  0.0316
  308TMC3     O 4690   1.387   3.655   1.863 -0.1704  0.2806 -0.2226
  308TMC3     H 4691   1.492   4.024   1.917 -0.5128  2.3946 -2.3810
  308TMC3    H1 4692   1.639   3.643   1.886 -0.9194  0.1773  0.9937
  308TMC3    H2 4693   1.820   3.938   1.650 -2.9728  0.2243 -3.4365
  308TMC3    C7 4694   1.848   3.705   1.747 -0.7918 -0.1729 -0.0563
  308TMC3    C8 4695   1.595   4.119   1.696 -0.2118  0.2828 -0.3694
  308TMC3    O1 4696   1.871   3.648   1.855 -0.0230  0.4153 -0.0362
  308TMC3    O2 4697   1.482   4.153   1.728 -0.1478  0.0093 -0.5919
  309MPD2     C 4698   1.476   3.857  17.604 -0.4015  0.1882 -0.6482
  309MPD2    C1 4699   1.415   3.914  17.494 -0.2620  0.3085  0.1995
  309MPD2    C2 4700   1.295   3.978  17.509 -0.2216  0.6484  0.4446
  309MPD2    C3 4701   1.244   4.003  17.629 -0.5135  0.7133 -0.5212
  309MPD2    C4 4702   1.314   3.955  17.737 -0.8005 -0.0604 -0.1234
  309MPD2    C5 4703   1.428   3.881  17.732  0.0489  0.4794 -1.0811
  309MPD2     H 4704   1.245   4.014  17.420 -2.7414  0.3566  1.7346
  309MPD2    H1 4705   1.284   3.982   0.087 -1.2611 -0.7869 -0.0714
  309MPD2    H2 4706   1.566   3.798  17.603  0.0985  0.9579 -0.7380
  309MPD2    H3 4707   1.474   3.831   0.065  0.8152  1.5658 -0.8534
  309MPD2     N 4708   1.140   4.102  17.646 -0.2642  0.0818  0.7866
  309MPD2    H5 4709   1.133   4.160  17.563  1.3906 -1.1714 -0.2313
  309MPD2    N1 4710   1.469   3.897  17.365 -0.2146 -0.0150 -0.0232
  309MPD2    H7 4711   1.406   3.904  17.285 -0.9249  2.2751  0.7273
  310TMC3    C1 4712   1.633   3.855  17.184  0.1262  0.0523 -0.3719
  310TMC3    C2 4713   1.555   3.915  17.093  0.1741 -0.1445  0.2534
  310TMC3    C3 4714   1.600   3.905  16.967  0.0522  0.1997  0.4956
  310TMC3    C4 4715   1.749   3.794  17.165  0.7002 -0.4900 -0.8926
  310TMC3    C5 4716   1.791   3.783  17.035  0.5009 -0.7756  0.2691
  310TMC3    C6 4717   1.720   3.845  16.940 -0.3321 -0.3855  0.4406
  310TMC3     C 4718   1.591   3.855  17.327 -0.5147 -0.7075 -0.6028
  310TMC3     O 4719   1.679   3.820  17.407  0.1215 -0.2592  0.1588
  310TMC3     H 4720   1.462   3.964  17.122 -0.4570 -0.8652 -0.5749
  310TMC3    H1 4721   1.782   3.727  17.243 -0.9741 -2.5783 -1.9778
  310TMC3    H2 4722   1.754   3.848  16.837 -4.5249 -3.9384 -1.0416
  310TMC3    C7 4723   1.866   3.665  17.004 -0.6151  0.4625 -0.2286
  310TMC3    C8 4724   1.527   3.985  16.872 -0.2392 -0.2595  1.0431
  310TMC3    O1 4725   1.851   3.612  16.896 -0.5462 -0.0075 -0.3290
  310TMC3    O2 4726   1.408   4.006  16.888 -0.0486  0.0084 -0.1706
  311MPD2     C 4727   3.608   0.397  12.817  0.0160  0.1377  0.0292
  311MPD2    C1 4728   3.631   0.391  12.950 -0.5163  0.4699 -0.1275
  311MPD2    C2 4729   3.526   0.353  13.032 -0.1665  0.3564  0.2984
  311MPD2    C3 4730   3.420   0.271  12.981  0.7774 -0.7536 -0.0723
  311MPD2    C4 4731   3.417   0.250  12.849 -0.0047  0.0202 -0.0829
  311MPD2    C5 4732   3.502   0.326  12.768  0.0501 -0.7052  0.4306
  311MPD2     H 4733   3.523   0.380  13.137  0.2166 -0.5648  0.5440
  311MPD2    H1 4734   3.346   0.192  12.791  3.1552 -2.5738 -1.3819
  311MPD2    H2 4735   3.662   0.457  12.745 -0.0551  0.2156  0.0411
  311MPD2    H3 4736   3.493   0.323  12.660 -0.9652 -1.3451  0.5337
  311MPD2     N 4737   3.314   0.227  13.064  0.2753 -0.1656  0.4079
  311MPD2    H5 4738   3.326   0.242  13.163  3.0179  2.5535 -0.3586
  311MPD2    N1 4739   3.741   0.459  13.004 -0.4197 -0.7691 -0.2120
  311MPD2    H7 4740   3.753   0.475  13.104 -0.3878  1.1622 -0.5292
  312TMC3    C1 4741   3.129   0.105  13.140  0.2018 -0.6603 -0.0196
  312TMC3    C2 4742   2.993   0.094  13.112 -0.6939 -0.0189  0.1012
  312TMC3    C3 4743   2.925   0.014  13.196 -0.3553  0.4422 -0.6373
  312TMC3    C4 4744   3.196   0.022  13.225 -0.4423  0.7798 -0.2776
  312TMC3    C5 4745   3.128   4.656  13.281 -0.2217 -0.0521 -0.0359
  312TMC3    C6 4746   2.995   4.653  13.265  0.5612 -0.0102 -0.8035
  312TMC3     C 4747   3.206   0.159  13.024  1.1785 -0.1536 -0.2125
  312TMC3     O 4748   3.151   0.159  12.916 -0.5930  0.5239 -0.3081
  312TMC3     H 4749   2.941   0.149  13.035  0.0708  0.6399  0.0523
  312TMC3    H1 4750   3.303   0.008  13.228 -0.3799  0.8709 -2.0121
  312TMC3    H2 4751   2.931   4.589  13.325  0.8899  1.0628  0.6974
  312TMC3    C7 4752   3.164   4.611  13.414 -0.5144 -0.9240  0.1181
  312TMC3    C8 4753   2.784   4.736  13.185  0.1879 -0.3168 -0.6615
  312TMC3    O1 4754   3.099   4.513  13.453 -0.0207  0.2683 -0.2672
  312TMC3    O2 4755   2.738   4.627  13.222  0.2401  0.7666 -0.4762
  313MPD2     C 4756   2.126   0.170  11.579 -0.6136  0.1541  0.1774
  313MPD2    C1 4757   2.219   0.203  11.484 -0.1043 -0.3498 -0.0428
  313MPD2    C2 4758   2.267   0.101  11.398 -0.2905 -0.1329  0.0166
  313MPD2    C3 4759   2.223   4.703  11.410 -0.5443 -0.1661 -0.5864
  313MPD2    C4 4760   2.131   4.679  11.506 -0.4312 -0.4576  0.0788
  313MPD2    C5 4761   2.089   0.039  11.596 -0.3380 -0.2217  0.1776
  313MPD2     H 4762   2.328   0.128  11.313 -0.1526 -0.1441  0.1129
  313MPD2    H1 4763   2.091   4.582  11.535  0.2567 -1.8080 -3.4524
  313MPD2    H2 4764   2.101   0.240  11.658  0.3632  0.4153  0.2626
  313MPD2    H3 4765   2.028   0.016  11.682 -1.5309 -0.4176 -0.7124
  313MPD2     N 4766   2.260   4.611  11.309 -0.5136  0.1247 -0.3527
  313MPD2    H5 4767   2.313   4.642  11.228 -4.4569  1.8457 -2.2317
  313MPD2    N1 4768   2.281   0.329  11.485 -0.2362  0.8139 -0.0974
  313MPD2    H7 4769   2.372   0.345  11.442 -2.1722  1.7346 -3.8535
  314TMC3    C1 4770   2.334   0.546  11.536 -0.2761 -0.7780 -0.0405
  314TMC3    C2 4771   2.466   0.512  11.545 -0.0318  0.4524 -0.3104
  314TMC3    C3 4772   2.549   0.606  11.503  0.1708 -0.0962 -0.2240
  314TMC3    C4 4773   2.290   0.654  11.471 -0.2192  0.0579 -0.0469
  314TMC3    C5 4774   2.376   0.744  11.425  0.6544 -0.2746  0.2619
  314TMC3    C6 4775   2.510   0.720  11.447 -0.7533 -0.2791  0.1370
  314TMC3     C 4776   2.234   0.444  11.546 -0.9507  0.7966 -0.5773
  314TMC3     O 4777   2.122   0.478  11.584  0.2215 -1.0074  0.2840
  314TMC3     H 4778   2.504   0.423  11.594 -0.3445  0.0175 -0.8584
  314TMC3    H1 4779   2.185   0.680  11.469 -0.5858 -1.2960  1.4165
  314TMC3    H2 4780   2.585   0.794  11.422 -2.1052  1.5774  1.6134
  314TMC3    C7 4781   2.333   0.819  11.313 -0.9059 -0.0875 -0.8102
  314TMC3    C8 4782   2.688   0.578  11.487 -0.3603  0.2240  0.3206
  314TMC3    O1 4783   2.213   0.824  11.306  0.5111 -0.1570  0.4205
  314TMC3    O2 4784   2.744   0.638  11.398  0.0572 -0.1716 -0.0349
  315MPD2     C 4785   2.553   3.757   0.125 -0.3851  0.0511 -0.3268
  315MPD2    C1 4786   2.660   3.777   0.210 -0.6702  0.8357 -0.2890
  315MPD2    C2 4787   2.724   3.900   0.210  0.5807  0.2858 -0.3411
  315MPD2    C3 4788   2.680   4.010   0.145  0.7058  0.0507 -0.0779
  315MPD2    C4 4789   2.571   3.990   0.057 -0.5049 -0.2802  0.1118
  315MPD2    C5 4790   2.515   3.862   0.046  0.0989  0.6356  0.5139
  315MPD2     H 4791   2.811   3.902   0.275 -0.2334  0.3519  0.7538
  315MPD2    H1 4792   2.535   4.066  17.740  1.1869  0.0484 -0.3924
  315MPD2    H2 4793   2.504   3.661   0.114 -0.2982 -0.5017  4.3364
  315MPD2    H3 4794   2.442   3.842  17.718  0.2684 -0.4284  0.6210
  315MPD2     N 4795   2.732   4.137   0.170 -0.8834 -0.3699 -0.1346
  315MPD2    H5 4796   2.803   4.140   0.242  1.5606 -0.2170 -2.5471
  315MPD2    N1 4797   2.697   3.674   0.299 -0.1695 -0.3697  0.4858
  315MPD2    H7 4798   2.764   3.705   0.369  0.6680 -1.1750  0.0511
  316TMC3    C1 4799   2.737   4.372   0.171  0.1615 -0.2886 -0.2745
  316TMC3    C2 4800   2.850   4.375   0.250  0.2967  0.4231 -0.1365
  316TMC3    C3 4801   2.857   4.484   0.334  0.1391  0.2419  0.1068
  316TMC3    C4 4802   2.637   4.468   0.171 -0.4660  0.4354  0.1508
  316TMC3    C5 4803   2.665   4.584   0.239  0.7208 -0.1176  0.3247
  316TMC3    C6 4804   2.777   4.595   0.318 -0.2778  0.3267 -0.2222
  316TMC3     C 4805   2.695   4.251   0.102 -0.6071  0.3425  0.4185
  316TMC3     O 4806   2.621   4.258   0.003  0.2115 -0.1326 -0.2057
  316TMC3     H 4807   2.926   4.300   0.231  0.6003  0.8154 -0.4527
  316TMC3    H1 4808   2.541   4.446   0.125 -1.3237  1.3477  1.4915
  316TMC3    H2 4809   2.780   4.679   0.387  0.0703  0.0256  0.1311
  316TMC3    C7 4810   2.559   4.685   0.241 -0.2948  0.1879  0.9002
  316TMC3    C8 4811   2.962   4.499   0.431  0.2603 -0.4882 -0.3844
  316TMC3    O1 4812   2.549   0.009   0.345  0.0631  0.1669  0.1822
  316TMC3    O2 4813   2.951   4.581   0.519 -0.1875 -0.2328  0.1569
  317MPD2     C 4814   4.690   2.291  12.628 -0.1498  0.0959 -0.7315
  317MPD2    C1 4815   0.090   2.255  12.661 -0.2519 -0.3983  0.4594
  317MPD2    C2 4816   0.116   2.223  12.792 -0.8414  0.5180  0.7624
  317MPD2    C3 4817   0.018   2.195  12.882  0.6107 -0.2604  0.2626
  317MPD2    C4 4818   4.625   2.237  12.856 -0.5026  0.4588 -0.5302
  317MPD2    C5 4819   4.597   2.280  12.729  0.4194  0.1666  0.4536
  317MPD2     H 4820   0.220   2.205  12.818 -0.9755  0.4573  1.2583
  317MPD2    H1 4821   4.541   2.205  12.916 -0.0314 -2.4178 -1.3830
  317MPD2    H2 4822   4.666   2.326  12.528  1.9329  0.8357 -0.9574
  317MPD2    H3 4823   4.497   2.312  12.698  2.1007  1.4761 -3.6582
  317MPD2     N 4824   0.067   2.126  12.998  0.8152  0.4135  0.9433
  317MPD2    H5 4825   0.165   2.109  13.019  0.8886  0.3565  0.5478
  317MPD2    N1 4826   0.199   2.266  12.571 -0.1108  0.0105  0.2556
  317MPD2    H7 4827   0.291   2.250  12.610  0.6893 -0.9835 -2.0144
  318TMC3    C1 4828   0.075   2.042  13.217  0.9708  0.1005  0.3113
  318TMC3    C2 4829   0.030   1.946  13.307  0.5073 -0.7584 -0.0600
  318TMC3    C3 4830   0.117   1.897  13.399 -0.0302  0.7084 -0.2564
  318TMC3    C4 4831   0.194   2.109  13.238 -0.6452  0.7664 -1.0189
  318TMC3    C5 4832   0.269   2.066  13.343  0.5170  0.2560 -0.3552
  318TMC3    C6 4833   0.238   1.955  13.422 -0.4751 -0.6918  0.5499
  318TMC3     C 4834   4.733   2.080  13.100  0.4789 -0.4829  0.3836
  318TMC3     O 4835   4.612   2.061  13.108  0.1392 -0.0816  0.3832
  318TMC3     H 4836   4.673   1.896  13.291  0.8839 -0.8466 -2.0265
  318TMC3    H1 4837   0.221   2.206  13.198  0.0363  0.3124 -1.6672
  318TMC3    H2 4838   0.314   1.911  13.485 -0.9391 -1.9302  0.2294
  318TMC3    C7 4839   0.394   2.147  13.369  0.2793 -0.4279  0.1163
  318TMC3    C8 4840   0.105   1.759  13.449  0.0882  0.4462 -0.9185
  318TMC3    O1 4841   0.397   2.270  13.340  0.4431  0.1399 -0.1742
  318TMC3    O2 4842   0.210   1.697  13.448  0.7716 -0.1073  0.2029
  319MPD2     C 4843   1.141   3.462  16.638  0.0303  0.8375 -0.1623
  319MPD2    C1 4844   1.036   3.426  16.716 -0.3943  0.3933 -0.9389
  319MPD2    C2 4845   0.928   3.368  16.663  0.1112  0.4929  0.2702
  319MPD2    C3 4846   0.910   3.347  16.524 -0.2256 -0.1429  0.7122
  319MPD2    C4 4847   1.020   3.381  16.446 -0.3346  0.5597 -0.2052
  319MPD2    C5 4848   1.130   3.444  16.497 -0.1118  0.8339  0.0592
  319MPD2     H 4849   0.852   3.341  16.735  1.1905 -0.4384  1.0432
  319MPD2    H1 4850   1.007   3.373  16.339 -0.9829 -0.6181 -0.0377
  319MPD2    H2 4851   1.222   3.520  16.682 -0.2936  1.4203 -0.3311
  319MPD2    H3 4852   1.206   3.489  16.434  0.1876  0.1825 -0.0479
  319MPD2     N 4853   0.786   3.314  16.464 -0.8206  0.4982 -0.1186
  319MPD2    H5 4854   0.785   3.312  16.362 -0.8412  0.0400 -0.1131
  319MPD2    N1 4855   1.029   3.442  16.853  0.2044  0.6779  0.5052
  319MPD2    H7 4856   0.942   3.424  16.901  0.6806  0.8612  1.4424
  320TMC3    C1 4857   0.551   3.256  16.474 -0.3582  0.3898  0.1435
  320TMC3    C2 4858   0.535   3.338  16.370  0.0303 -0.1931 -0.3135
  320TMC3    C3 4859   0.407   3.349  16.320 -0.0685  0.3801 -0.0966
  320TMC3    C4 4860   0.458   3.165  16.518  0.5336 -0.2335  0.2409
  320TMC3    C5 4861   0.332   3.181  16.473 -0.3272 -0.1478  0.2286
  320TMC3    C6 4862   0.304   3.276  16.375  0.0325 -0.6981  0.5527
  320TMC3     C 4863   0.682   3.260  16.541  0.0459  0.5859 -0.7269
  320TMC3     O 4864   0.668   3.226  16.658  0.8049 -0.0882 -0.1882
  320TMC3     H 4865   0.591   3.428  16.347  0.9463 -0.2797  1.5349
  320TMC3    H1 4866   0.487   3.094  16.595 -0.3114 -1.6758 -0.7684
  320TMC3    H2 4867   0.204   3.282  16.332 -0.4353  2.1266  2.0652
  320TMC3    C7 4868   0.233   3.087  16.517 -0.2035 -0.4936  0.1948
  320TMC3    C8 4869   0.366   3.474  16.264 -0.1000  1.0044 -0.1894
  320TMC3    O1 4870   0.132   3.077  16.449  0.2717 -0.1328  0.0988
  320TMC3    O2 4871   0.406   3.585  16.300  0.1868 -0.7182  0.8620
  321TMC3    C1 4872   1.075   3.545  17.056 -0.2814  0.2247 -0.7135
  321TMC3    C2 4873   0.953   3.604  17.053 -1.0086 -0.1742  0.1110
  321TMC3    C3 4874   0.910   3.662  17.164 -0.2493 -0.1278 -0.5865
  321TMC3    C4 4875   1.161   3.553  17.160 -0.2307 -0.5939 -0.3878
  321TMC3    C5 4876   1.126   3.618  17.272  0.3929 -0.1912 -0.1396
  321TMC3    C6 4877   0.998   3.672  17.278  0.5845 -0.2068  0.0179
  321TMC3     C 4878   1.126   3.491  16.933  1.2736  0.2841 -0.8364
  321TMC3     O 4879   1.247   3.482  16.920  0.4168 -0.6021 -0.1051
  321TMC3     H 4880   0.902   3.618  16.958 -2.0556 -1.3255  0.4968
  321TMC3    H1 4881   1.252   3.496  17.150 -0.3210 -0.6595 -0.8309
  321TMC3    H2 4882   0.959   3.739  17.353 -0.1160  0.5000 -0.9669
  321TMC3    C7 4883   1.149   3.541  17.388 -0.0420 -0.0609 -0.1071
  321TMC3    C8 4884   0.785   3.601  17.205 -0.0906  0.0424 -0.5562
  321TMC3    O1 4885   1.059   3.554  17.467  0.0187 -0.6779 -0.9741
  321TMC3    O2 4886   0.694   3.588  17.124 -0.0599  0.0394  0.3187
  322MPD2     C 4887   4.330   0.187  14.091 -0.4546  0.4692 -0.4787
  322MPD2    C1 4888   4.378   0.077  14.161 -0.0849  0.3793  0.2540
  322MPD2    C2 4889   4.393   4.692  14.101 -0.1683  0.0475 -0.4810
  322MPD2    C3 4890   4.365   4.673  13.967 -0.0787  0.1565  0.4295
  322MPD2    C4 4891   4.310   0.041  13.894  0.4705  0.6880 -0.6504
  322MPD2    C5 4892   4.282   0.166  13.960 -0.1500  0.4589 -0.1278
  322MPD2     H 4893   4.444   4.616  14.159 -0.5533  0.4774  0.4212
  322MPD2    H1 4894   4.286   0.034  13.788 -1.4485  0.3037 -0.1883
  322MPD2    H2 4895   4.304   0.281  14.137  0.9223 -0.4819  2.2423
  322MPD2    H3 4896   4.244   0.251  13.903 -2.9547 -1.0136 -0.4653
  322MPD2     N 4897   4.383   4.541  13.914 -0.1341 -0.1682 -0.1301
  322MPD2    H5 4898   4.423   4.481  13.985 -0.3487 -0.5586 -0.3433
  322MPD2    N1 4899   4.420   0.113  14.293 -0.6576 -0.5361 -0.0281
  322MPD2    H7 4900   4.413   0.209  14.326 -2.0426  0.3214 -2.7277
  323TMC3    C1 4901   4.522   0.082  14.504 -0.4168 -0.2526  0.0979
  323TMC3    C2 4902   4.619   0.175  14.484  0.4426 -0.5838  0.0081
  323TMC3    C3 4903   4.705   0.207  14.580  0.3354 -0.8143 -0.0329
  323TMC3    C4 4904   4.524   0.001  14.610  0.0607  0.3099  0.4393
  323TMC3    C5 4905   4.602   0.050  14.715  0.1671 -0.1085 -0.1180
  323TMC3    C6 4906   4.684   0.157  14.707  0.1638  0.2762 -1.0089
  323TMC3     C 4907   4.454   0.022  14.390  0.3811 -0.4011  0.0182
  323TMC3     O 4908   4.431   4.639  14.375 -0.0213  0.0624  0.4512
  323TMC3     H 4909   4.642   0.206  14.383 -0.0468 -0.7589 -0.1605
  323TMC3    H1 4910   4.464   4.652  14.631  0.9394 -0.4955 -0.4237
  323TMC3    H2 4911   4.736   0.203  14.790 -0.9911 -1.6689  0.7940
  323TMC3    C7 4912   4.625   4.692  14.816 -0.1642 -0.3495 -0.1194
  323TMC3    C8 4913   0.089   0.272  14.534 -0.6266  0.1353  0.5262
  323TMC3    O1 4914   4.575   4.582  14.800  0.6509 -0.4442  0.7167
  323TMC3    O2 4915   0.103   0.299  14.415  0.1183  0.0343 -0.8196
  324MPD2     C 4916   1.621   0.971  14.254 -1.3086 -0.0584 -0.4974
  324MPD2    C1 4917   1.617   1.101  14.300 -0.1332 -0.1005  0.3057
  324MPD2    C2 4918   1.500   1.173  14.274  0.2321 -0.1954 -0.2903
  324MPD2    C3 4919   1.394   1.116  14.209  0.3962  0.1784  0.1485
  324MPD2    C4 4920   1.399   0.980  14.181 -0.0968  0.4824 -0.1056
  324MPD2    C5 4921   1.512   0.914  14.194 -0.2959  0.3288  0.8719
  324MPD2     H 4922   1.483   1.272  14.315 -0.1357 -0.5625  0.4421
  324MPD2    H1 4923   1.321   0.928  14.127  1.6174 -2.3582  0.1366
  324MPD2    H2 4924   1.712   0.914  14.267 -1.5189  0.1921  2.0954
  324MPD2    H3 4925   1.510   0.812  14.157  0.4473  0.8827 -0.7233
  324MPD2     N 4926   1.272   1.186  14.187 -1.0549  0.2602  0.5454
  324MPD2    H5 4927   1.197   1.121  14.165  0.3459 -0.8068 -1.1318
  324MPD2    N1 4928   1.731   1.148  14.372 -0.5778 -0.5383 -0.8449
  324MPD2    H7 4929   1.808   1.082  14.377 -1.5659 -1.6271  0.1071
  325TMC3    C1 4930   1.124   1.365  14.191  0.3264 -0.0615  0.1548
  325TMC3    C2 4931   1.018   1.280  14.178  0.4685 -0.2636  0.5043
  325TMC3    C3 4932   0.892   1.335  14.184  0.1358 -0.3188 -0.7756
  325TMC3    C4 4933   1.105   1.498  14.207 -0.9137  0.1185 -0.0182
  325TMC3    C5 4934   0.974   1.540  14.220 -0.1306 -0.2114 -0.5290
  325TMC3    C6 4935   0.867   1.459  14.216 -0.3511  0.0442 -0.2989
  325TMC3     C 4936   1.258   1.324  14.200 -0.0204  0.0095 -0.1968
  325TMC3     O 4937   1.349   1.409  14.212 -0.0429 -0.1035 -0.0452
  325TMC3     H 4938   1.029   1.172  14.175  1.6705 -0.1901  2.4656
  325TMC3    H1 4939   1.189   1.566  14.213 -1.8411  1.1504  1.3085
  325TMC3    H2 4940   0.767   1.500  14.220  0.5154  1.9234  1.9728
  325TMC3    C7 4941   0.953   1.677  14.249 -0.3373 -0.0351  0.2906
  325TMC3    C8 4942   0.787   1.247  14.145  0.8667  0.2381 -0.0055
  325TMC3    O1 4943   1.035   1.752  14.204  0.0290  0.2645  0.0688
  325TMC3    O2 4944   0.806   1.164  14.054  0.0047  0.1860  0.5971
  326MPD2     C 4945   2.201   2.470  10.653 -0.2118 -0.0375  0.4467
  326MPD2    C1 4946   2.283   2.418  10.741 -0.2571 -0.2820 -0.1829
  326MPD2    C2 4947   2.387   2.497  10.790  0.3361 -0.2306  0.0175
  326MPD2    C3 4948   2.403   2.625  10.743 -0.5467 -0.4422 -0.4773
  326MPD2    C4 4949   2.319   2.667  10.645  0.7470 -0.0205  0.1417
  326MPD2    C5 4950   2.215   2.590  10.598  0.8294  0.2052 -0.2703
  326MPD2     H 4951   2.442   2.465  10.878 -0.5872 -3.1420 -0.4732
  326MPD2    H1 4952   2.329   2.763  10.595 -2.0958 -0.0402 -0.4507
  326MPD2    H2 4953   2.113   2.416  10.619 -0.2755 -0.9041  1.9737
  326MPD2    H3 4954   2.146   2.630  10.525 -1.9392 -2.7856  0.7148
  326MPD2     N 4955   2.496   2.717  10.787 -0.0389 -0.3240 -0.1045
  326MPD2    H5 4956   2.488   2.812  10.751  2.2180  0.8867  2.5588
  326MPD2    N1 4957   2.253   2.293  10.797  0.5222 -0.1466  0.3995
  326MPD2    H7 4958   2.166   2.250  10.765  2.0494 -0.9816 -2.6338
  327TMC3    C1 4959   2.261   2.096  10.925 -0.2531 -0.7728 -0.4567
  327TMC3    C2 4960   2.128   2.098  10.928 -0.8236  0.1254  0.0258
  327TMC3    C3 4961   2.056   2.004  10.996  0.3209 -0.2985  0.7887
  327TMC3    C4 4962   2.329   1.993  10.983 -0.0034 -0.1417  0.3200
  327TMC3    C5 4963   2.261   1.893  11.047  0.2596 -0.3649 -0.2260
  327TMC3    C6 4964   2.124   1.900  11.061  0.0306  0.1166 -0.2180
  327TMC3     C 4965   2.331   2.211  10.874 -0.9632 -0.0312  0.0323
  327TMC3     O 4966   2.449   2.222  10.901 -0.2469  0.2107  0.3056
  327TMC3     H 4967   2.084   2.195  10.905  1.1211  1.1600  0.6970
  327TMC3    H1 4968   2.437   1.989  10.974  0.1095  1.7222  0.6881
  327TMC3    H2 4969   2.070   1.823  11.114 -0.1382  0.6314  0.3602
  327TMC3    C7 4970   2.322   1.790  11.122  0.1601 -1.0945  0.0025
  327TMC3    C8 4971   1.915   2.019  11.021 -0.3791  0.2639  0.6122
  327TMC3    O1 4972   2.248   1.696  11.147 -0.1823 -0.0249  0.1830
  327TMC3    O2 4973   1.855   1.951  11.102  0.5653 -0.3887  0.0243
  328MPD2     C 4974   4.606   1.783  17.179 -0.1365  0.1339  0.0770
  328MPD2    C1 4975   4.596   1.895  17.258  0.0041 -0.3871 -0.0797
  328MPD2    C2 4976   4.579   2.022  17.195 -0.0041 -1.3608  0.1081
  328MPD2    C3 4977   4.559   2.030  17.054  0.5825  0.3308  0.0067
  328MPD2    C4 4978   4.560   1.908  16.982 -0.6138 -0.1487  0.0532
  328MPD2    C5 4979   4.587   1.790  17.047 -0.1385  0.1710  0.0301
  328MPD2     H 4980   4.566   2.111  17.255  0.7706  0.2312 -2.0587
  328MPD2    H1 4981   4.550   1.903  16.874  0.0385  0.3217 -0.0301
  328MPD2    H2 4982   4.617   1.685  17.225  1.6316  0.0971 -0.4246
  328MPD2    H3 4983   4.576   1.692  17.002 -3.0718  0.1168  0.8486
  328MPD2     N 4984   4.542   2.151  16.984 -0.4275  0.0732 -0.1179
  328MPD2    H5 4985   4.516   2.141  16.887 -0.9430  1.3375 -0.1118
  328MPD2    N1 4986   4.595   1.898  17.399 -0.0337  0.5215  0.1657
  328MPD2    H7 4987   4.590   1.991  17.439 -1.4880  1.6024 -2.4636
  329TMC3    C1 4988   4.546   1.847  17.623  0.1308 -0.3340 -0.8646
  329TMC3    C2 4989   4.570   1.978  17.646 -0.4177 -0.4459  0.1169
  329TMC3    C3 4990   4.474   2.045  17.717  0.1569 -0.1245  0.2248
  329TMC3    C4 4991   4.443   1.788  17.688 -0.2605  0.3494 -1.1491
  329TMC3    C5 4992   4.355   1.864   0.021  0.2977  0.1240 -0.8351
  329TMC3    C6 4993   4.367   1.992   0.038 -0.2906  0.1286  0.4235
  329TMC3     C 4994   4.582   1.799  17.494  0.2674  0.3948 -0.1577
  329TMC3     O 4995   4.575   1.681  17.466 -0.8817  0.0827  0.2540
  329TMC3     H 4996   4.654   2.026  17.597 -0.0821 -1.2813 -0.1326
  329TMC3    H1 4997   4.429   1.682  17.669  2.4727 -0.0986 -0.6330
  329TMC3    H2 4998   4.281   2.053   0.064  0.2003  1.3687 -0.9196
  329TMC3    C7 4999   4.236   1.790   0.069  0.9543  0.4323 -0.0362
  329TMC3    C8 5000   4.495   2.186  17.728  0.3257  0.5645  0.0095
  329TMC3    O1 5001   4.220   1.679   0.027  0.2752  0.4326 -0.8012
  329TMC3    O2 5002   4.581   2.229  17.654  0.1882  0.2999 -0.4590
  330TMC3    C1 5003   3.226   1.596  10.055 -0.3659  0.1470  0.0022
  330TMC3    C2 5004   3.154   1.484  10.005  0.4847 -0.3425  0.4371
  330TMC3    C3 5005   3.137   1.375  10.076  0.9265  0.4569 -0.2337
  330TMC3    C4 5006   3.260   1.607  10.189 -0.3941  0.4591  0.1266
  330TMC3    C5 5007   3.227   1.489  10.266  0.0497  0.5028 -0.3309
  330TMC3    C6 5008   3.167   1.382  10.208 -0.1530  0.0483 -0.1149
  330TMC3     C 5009   3.256   1.701   9.962 -0.2453 -0.0199  0.7097
  330TMC3     O 5010   3.340   1.786   9.983 -0.2252 -0.0198  0.3243
  330TMC3     H 5011   3.151   1.464   9.899 -1.9863 -2.8790  1.0174
  330TMC3    H1 5012   3.316   1.690  10.230  1.8787 -0.2745 -1.4470
  330TMC3    H2 5013   3.139   1.295  10.267 -1.2221 -0.3642 -1.2440
  330TMC3    C7 5014   3.260   1.482  10.408  0.4566  0.1089  0.0601
  330TMC3    C8 5015   3.068   1.259  10.017  0.4756 -0.6561  0.1107
  330TMC3    O1 5016   3.233   1.377  10.469 -0.6564 -0.0040  0.5626
  330TMC3    O2 5017   3.079   1.232   9.898 -0.6943 -0.0175 -0.1606
  331MPD2     C 5018   0.939   0.649  12.991  0.2937  0.2187 -0.1444
  331MPD2    C1 5019   0.880   0.584  12.876  0.1408 -0.5808 -0.3113
  331MPD2    C2 5020   0.891   0.445  12.867  0.8653 -0.9295 -0.4231
  331MPD2    C3 5021   0.948   0.373  12.973 -0.5662 -0.2969  0.6316
  331MPD2    C4 5022   1.012   0.437  13.077  0.4070 -0.4960  0.4206
  331MPD2    C5 5023   1.008   0.577  13.081  0.0643 -0.2147  0.2020
  331MPD2     H 5024   0.853   0.392  12.781  1.1876 -0.5092 -0.8274
  331MPD2    H1 5025   1.059   0.387  13.162  0.0533  1.3570  1.6975
  331MPD2    H2 5026   0.944   0.757  12.993 -1.8857  0.3087  1.2251
  331MPD2    H3 5027   1.054   0.622  13.168 -0.3982  1.6282 -0.5170
  331MPD2     N 5028   0.951   0.237  12.947  0.1258  0.0122 -0.5507
  331MPD2    H5 5029   0.902   0.208  12.864 -0.3054  2.6579 -1.2193
  331MPD2    N1 5030   0.818   0.659  12.774 -0.4147 -0.0759 -0.6282
  331MPD2    H7 5031   0.868   0.744  12.751  2.4982 -1.4284  0.7029
  332TMC3    C1 5032   1.026   0.018  12.963  0.4588 -0.3635 -0.3641
  332TMC3    C2 5033   0.974   0.004  12.834 -0.0815 -0.7774 -0.2393
  332TMC3    C3 5034   0.959   4.610  12.789 -0.6853  0.1277 -0.3921
  332TMC3    C4 5035   1.051   4.645  13.046 -0.0709 -0.0729  0.8468
  332TMC3    C5 5036   1.033   4.518  12.996  0.2327  0.2297 -1.1609
  332TMC3    C6 5037   0.974   4.496  12.868  0.4784 -0.3111 -0.5785
  332TMC3     C 5038   1.026   0.152  13.027 -0.0920  0.0874  0.1054
  332TMC3     O 5039   1.064   0.158  13.140 -0.0591 -0.0989  0.0791
  332TMC3     H 5040   0.980   0.083  12.761 -0.7836 -1.9014 -1.5149
  332TMC3    H1 5041   1.087   4.658  13.148 -1.8339  1.3889  1.2869
  332TMC3    H2 5042   0.984   4.400  12.818 -0.7328 -0.5255 -0.4161
  332TMC3    C7 5043   1.084   4.411  13.068  0.2980  0.2487 -0.9105
  332TMC3    C8 5044   0.929   4.589  12.648 -0.4440  0.3373  0.3670
  332TMC3    O1 5045   1.028   4.303  13.068 -0.3981 -0.3292  0.2434
  332TMC3    O2 5046   0.944   4.686  12.582 -0.4547  0.0825  0.3139
  333MPD2     C 5047   1.125   1.129  11.771  0.0419  0.2742  0.2061
  333MPD2    C1 5048   1.223   1.060  11.701  0.7150  0.1565  0.1767
  333MPD2    C2 5049   1.204   0.927  11.691 -0.0003  0.0038  0.0779
  333MPD2    C3 5050   1.097   0.869  11.738 -0.6784  0.2011 -0.5770
  333MPD2    C4 5051   0.997   0.933  11.804  0.4703 -0.2633  0.6247
  333MPD2    C5 5052   1.015   1.069  11.829 -0.3483 -0.5295 -0.1791
  333MPD2     H 5053   1.261   0.867  11.623  1.0503  0.0131  0.9547
  333MPD2    H1 5054   0.911   0.879  11.842  1.2967 -0.7192  1.8509
  333MPD2    H2 5055   1.133   1.236  11.787 -0.9795  0.5832 -1.4076
  333MPD2    H3 5056   0.937   1.120  11.884  1.3218  0.1926  1.5391
  333MPD2     N 5057   1.081   0.734  11.703 -0.0847  0.4585  0.3678
  333MPD2    H5 5058   1.146   0.694  11.636 -1.4993 -1.6962  0.2720
  333MPD2    N1 5059   1.326   1.131  11.627  0.1894 -0.0565 -0.2885
  333MPD2    H7 5060   1.330   1.231  11.646  0.9789 -0.2960  0.7820
  334TMC3    C1 5061   1.530   1.157  11.516  0.3446 -0.2624 -0.5984
  334TMC3    C2 5062   1.653   1.098  11.500 -0.1609  0.0445  0.4370
  334TMC3    C3 5063   1.754   1.166  11.432 -0.0598  0.2476 -0.2984
  334TMC3    C4 5064   1.502   1.286  11.474 -0.1794 -0.7457  0.2465
  334TMC3    C5 5065   1.604   1.347  11.404 -0.7295 -0.7269  0.0386
  334TMC3    C6 5066   1.733   1.299  11.390 -0.0342  0.0064  0.7780
  334TMC3     C 5067   1.426   1.070  11.559 -0.6525 -0.5488  0.6427
  334TMC3     O 5068   1.447   0.950  11.549 -0.0056  0.1833 -0.5470
  334TMC3     H 5069   1.679   1.003  11.546  0.6319 -0.5776 -1.2843
  334TMC3    H1 5070   1.397   1.312  11.470 -0.1324 -0.9822 -2.4311
  334TMC3    H2 5071   1.811   1.352  11.337 -0.4398 -0.3118 -0.1370
  334TMC3    C7 5072   1.594   1.485  11.359 -0.2588  0.2362 -0.2914
  334TMC3    C8 5073   1.887   1.122  11.458 -0.0106 -0.4281 -0.3090
  334TMC3    O1 5074   1.684   1.536  11.297  1.1469 -0.0308  0.0026
  334TMC3    O2 5075   1.909   1.037  11.543  0.2781 -0.1743 -0.1367
  335TMC3    C1 5076   0.645   2.005  17.483  0.6957  0.1467  0.5713
  335TMC3    C2 5077   0.569   2.015  17.366  0.4404  0.7638 -0.4393
  335TMC3    C3 5078   0.636   1.985  17.248  0.2487 -0.0567 -0.1202
  335TMC3    C4 5079   0.777   1.958  17.488 -0.7127  0.5908 -0.3539
  335TMC3    C5 5080   0.835   1.930  17.366 -0.4819  0.3691 -0.4566
  335TMC3    C6 5081   0.769   1.947  17.243 -0.4012  0.2429 -0.2639
  335TMC3     C 5082   0.613   2.096  17.595 -0.0246 -0.6805  0.0662
  335TMC3     O 5083   0.532   2.183  17.563 -0.3818 -0.1355 -1.1169
  335TMC3     H 5084   0.470   2.057  17.373 -0.2800 -0.9312 -0.3655
  335TMC3    H1 5085   0.844   1.983  17.569  0.9263  0.2235 -1.5967
  335TMC3    H2 5086   0.818   1.902  17.158 -0.0492 -0.3874  0.2690
  335TMC3    C7 5087   0.965   1.876  17.359 -0.2188  0.2341 -0.3994
  335TMC3    C8 5088   0.541   1.917  17.157 -0.1082  0.5059  0.5731
  335TMC3    O1 5089   1.030   1.887  17.255  0.2110  0.1864 -0.0287
  335TMC3    O2 5090   0.592   1.880  17.049 -0.7328  0.0921  0.2425
  336MPD2     C 5091   0.533   4.593  16.732 -0.4795  0.0092 -0.2404
  336MPD2    C1 5092   0.601   4.544  16.625 -0.1909  0.3700 -0.0894
  336MPD2    C2 5093   0.656   4.416  16.637 -0.3606  0.0333 -0.2496
  336MPD2    C3 5094   0.634   4.334  16.747 -0.8932 -0.0133  0.1542
  336MPD2    C4 5095   0.576   4.392  16.851 -0.2414 -0.1343 -0.6891
  336MPD2    C5 5096   0.526   4.515  16.847  0.1976 -0.4351 -0.6339
  336MPD2     H 5097   0.719   4.376  16.558 -0.7719  3.0652 -2.0975
  336MPD2    H1 5098   0.559   4.324  16.933  2.4970 -1.6384 -1.3750
  336MPD2    H2 5099   0.498   4.695  16.747 -1.2831 -0.6601  2.4118
  336MPD2    H3 5100   0.481   4.560  16.935  0.8861  1.6577 -1.3557
  336MPD2     N 5101   0.658   4.191  16.752 -0.4215  0.6297  0.7305
  336MPD2    H5 5102   0.658   4.145  16.843  0.8352 -0.3251  0.2401
  336MPD2    N1 5103   0.620   4.619  16.510 -0.4550 -0.2509 -0.4713
  336MPD2    H7 5104   0.666   4.566  16.437  0.8545 -0.5543  0.5872
  337TMC3    C1 5105   0.574   0.045  16.336  0.4207  0.6334  0.0554
  337TMC3    C2 5106   0.465   0.121  16.299  0.6343 -0.8720  0.7408
  337TMC3    C3 5107   0.419   0.122  16.166  0.3039 -1.2231  1.0260
  337TMC3    C4 5108   0.644   4.708  16.243 -0.0900  0.1516  0.8988
  337TMC3    C5 5109   0.596   4.726  16.113  0.6272 -0.1005 -0.1731
  337TMC3    C6 5110   0.488   0.065  16.067 -0.1319  0.1578  0.7356
  337TMC3     C 5111   0.565   0.004  16.476  0.2232 -0.9435  0.3555
  337TMC3     O 5112   0.502   0.081  16.548 -0.0351 -0.0961  0.3730
  337TMC3     H 5113   0.412   0.187  16.366 -3.4055 -0.5778 -2.7718
  337TMC3    H1 5114   0.732   4.651  16.268 -1.3766 -1.4615  1.6983
  337TMC3    H2 5115   0.451   0.046  15.967  0.9826 -2.3520  0.8083
  337TMC3    C7 5116   0.649   4.624  16.021 -0.2594  0.0832 -0.4928
  337TMC3    C8 5117   0.316   0.219  16.134 -0.4311 -0.2659  0.7649
  337TMC3    O1 5118   0.579   4.586  15.927 -0.0781 -0.0698  0.3211
  337TMC3    O2 5119   0.314   0.316  16.204  0.1068 -0.4341  0.5547
  338MPD2     C 5120   1.276   4.690   1.280  0.1799  0.2213  0.4685
  338MPD2    C1 5121   1.154   4.661   1.219 -0.0583  0.4970 -0.3212
  338MPD2    C2 5122   1.037   0.004   1.234 -0.2123  0.8648  0.1418
  338MPD2    C3 5123   1.041   0.115   1.311  0.6395 -0.0946 -0.3507
  338MPD2    C4 5124   1.163   0.151   1.370  0.4358  0.1284 -0.7181
  338MPD2    C5 5125   1.275   0.068   1.358 -0.4333 -0.4432 -0.2089
  338MPD2     H 5126   0.945   4.719   1.182 -1.0151  0.8002  1.5797
  338MPD2    H1 5127   1.170   0.244   1.424 -1.1006  0.8917 -1.8125
  338MPD2    H2 5128   1.360   4.622   1.273 -0.1187  0.0623 -1.6047
  338MPD2    H3 5129   1.365   0.085   1.416 -0.6834 -0.0543  0.0639
  338MPD2     N 5130   0.923   0.186   1.331 -0.2911  0.0388 -0.2826
  338MPD2    H5 5131   0.845   0.159   1.272 -0.1883  1.2997 -0.9992
  338MPD2    N1 5132   1.138   4.531   1.156  0.2029  0.1522  0.2186
  338MPD2    H7 5133   1.051   4.523   1.105  0.1861  0.3009  0.2254
  339TMC3    C1 5134   0.738   0.281   1.430  0.1128 -0.5572 -0.4484
  339TMC3    C2 5135   0.687   0.213   1.538 -0.4862 -0.4727 -0.8311
  339TMC3    C3 5136   0.582   0.127   1.528 -0.3032 -0.0313  0.1226
  339TMC3    C4 5137   0.686   0.253   1.309 -0.2234  0.0652  0.1979
  339TMC3    C5 5138   0.572   0.175   1.297 -0.3083  0.2053 -0.2602
  339TMC3    C6 5139   0.522   0.100   1.406  0.3366 -0.4073  0.0205
  339TMC3     C 5140   0.889   0.273   1.432 -0.4114 -0.4955  0.5471
  339TMC3     O 5141   0.951   0.288   1.536  0.2912 -0.6857  0.1677
  339TMC3     H 5142   0.742   0.219   1.632  3.5520 -0.5565 -3.1715
  339TMC3    H1 5143   0.721   0.285   1.212  0.7386 -1.4258  0.0526
  339TMC3    H2 5144   0.453   0.017   1.392 -0.1628 -0.3334  2.0570
  339TMC3    C7 5145   0.565   0.117   1.161 -0.1411 -1.0699  0.4716
  339TMC3    C8 5146   0.579   0.016   1.623 -0.7430  0.1661  0.0525
  339TMC3    O1 5147   0.666   0.100   1.096 -0.0439 -0.3848  0.4421
  339TMC3    O2 5148   0.669   0.027   1.708  0.4735 -0.8772 -0.4773
  340MPD2     C 5149   0.848   2.336  10.183  0.0315 -0.4542 -0.7266
  340MPD2    C1 5150   0.811   2.204  10.204 -0.1545  0.6051  0.0491
  340MPD2    C2 5151   0.772   2.162  10.324 -0.0427 -0.7405 -0.5651
  340MPD2    C3 5152   0.757   2.254  10.431 -0.1112 -0.3644 -0.5352
  340MPD2    C4 5153   0.790   2.387  10.406  0.8435 -0.3353 -0.0604
  340MPD2    C5 5154   0.834   2.429  10.285 -0.2564 -1.1289 -0.0409
  340MPD2     H 5155   0.750   2.057  10.339  0.6742 -0.8425 -0.2145
  340MPD2    H1 5156   0.774   2.449  10.493  0.4450  2.3914 -2.0763
  340MPD2    H2 5157   0.889   2.369  10.089  0.1807 -1.1741 -0.9141
  340MPD2    H3 5158   0.857   2.535  10.273 -1.0289 -0.8896  0.5971
  340MPD2     N 5159   0.722   2.224  10.566  1.0732 -0.2559 -0.6653
  340MPD2    H5 5160   0.722   2.295  10.638 -1.5216  1.3944 -2.2819
  340MPD2    N1 5161   0.822   2.119  10.087 -0.1206  0.0506  0.2973
  340MPD2    H7 5162   0.852   2.166  10.002  2.3931  0.8884  1.6481
  341TMC3    C1 5163   0.786   1.927   9.954 -0.2146  0.6160 -0.3329
  341TMC3    C2 5164   0.722   1.813   9.947 -0.2637  0.4064  0.2367
  341TMC3    C3 5165   0.741   1.740   9.833  0.5999  0.0989 -0.5325
  341TMC3    C4 5166   0.881   1.964   9.857  0.3399  0.1372  0.0037
  341TMC3    C5 5167   0.895   1.894   9.743  0.4329  0.4676  0.4542
  341TMC3    C6 5168   0.818   1.785   9.725 -0.2702 -0.0264 -0.0726
  341TMC3     C 5169   0.781   1.989  10.084 -0.3708  0.0176  0.1522
  341TMC3     O 5170   0.740   1.915  10.171  0.0033 -0.3061  0.4707
  341TMC3     H 5171   0.667   1.780  10.035  1.4109  1.1968  1.5651
  341TMC3    H1 5172   0.951   2.045   9.874 -0.7329  0.8097  1.2987
  341TMC3    H2 5173   0.821   1.722   9.637  1.3178  0.7347 -0.5681
  341TMC3    C7 5174   1.018   1.910   9.664 -0.7485  0.2842  0.5623
  341TMC3    C8 5175   0.662   1.619   9.821  1.0113  0.1198 -0.3244
  341TMC3    O1 5176   1.070   2.021   9.649  0.9023 -0.3153  0.5337
  341TMC3    O2 5177   0.631   1.573   9.930  0.3837 -0.3347 -0.5911
  342MPD2     C 5178   3.469   0.407  17.249  0.1465 -0.5008  0.0318
  342MPD2    C1 5179   3.566   0.386  17.344 -0.3385  0.6054  0.0994
  342MPD2    C2 5180   3.608   0.498  17.418 -0.0266 -0.2834 -0.0061
  342MPD2    C3 5181   3.542   0.622  17.408 -0.6414 -0.8400 -0.5439
  342MPD2    C4 5182   3.431   0.630  17.326  0.1875  0.0968  0.4002
  342MPD2    C5 5183   3.408   0.529  17.240 -0.1709  0.5538 -0.6367
  342MPD2     H 5184   3.689   0.475  17.487 -0.2012 -0.9899 -0.0386
  342MPD2    H1 5185   3.383   0.726  17.311  1.4838  1.0889  2.5710
  342MPD2    H2 5186   3.445   0.323  17.184 -1.3404  0.8862 -1.2031
  342MPD2    H3 5187   3.329   0.545  17.167 -0.4523  0.7398 -0.2902
  342MPD2     N 5188   3.564   0.727  17.494 -0.2124 -0.0449  0.8384
  342MPD2    H5 5189   3.491   0.796  17.499 -0.8111 -0.7617  2.0160
  342MPD2    N1 5190   3.628   0.260  17.356  0.2881  0.3164  0.1989
  342MPD2    H7 5191   3.704   0.252  17.423  0.1028  0.0625  0.3773
  343TMC3    C1 5192   3.652   0.023  17.370 -0.4190 -0.0407  0.2478
  343TMC3    C2 5193   3.785   0.022  17.343 -0.6089  0.2711 -0.0374
  343TMC3    C3 5194   3.849   4.640  17.347 -0.3610 -0.5336  0.3989
  343TMC3    C4 5195   3.589   4.654  17.409  0.4645 -0.4121  0.6554
  343TMC3    C5 5196   3.662   4.539  17.434  0.2509  0.4330  0.0744
  343TMC3    C6 5197   3.792   4.521  17.394  0.0156  0.5797  0.1407
  343TMC3     C 5198   3.575   0.135  17.318 -1.4627  0.8874 -0.0426
  343TMC3     O 5199   3.468   0.118  17.259 -0.8265 -0.4190  0.2304
  343TMC3     H 5200   3.833   0.109  17.300  0.7326 -0.1459  0.6102
  343TMC3    H1 5201   3.482   4.650  17.427 -0.0168  1.1604 -1.8848
  343TMC3    H2 5202   3.851   4.432  17.414 -1.2663 -0.5429 -1.0155
  343TMC3    C7 5203   3.600   4.419  17.486 -1.0028  0.2038  0.0380
  343TMC3    C8 5204   3.981   4.652  17.308  0.5367 -0.2812 -0.7413
  343TMC3    O1 5205   3.496   4.377  17.441 -0.0577 -0.5046  0.5340
  343TMC3    O2 5206   4.048   0.014  17.328 -0.7155 -0.2851 -0.9904
  344MPD2     C 5207   0.037   4.334  11.438  0.2119  0.4837  0.4395
  344MPD2    C1 5208   4.656   4.333  11.366 -0.0018 -0.0685  0.2699
  344MPD2    C2 5209   4.629   4.448  11.288 -0.4232  0.1131 -0.4076
  344MPD2    C3 5210   4.709   4.565  11.303  0.3391 -0.0855 -0.8293
  344MPD2    C4 5211   0.075   4.569  11.386 -0.4238  1.1812  0.0832
  344MPD2    C5 5212   0.114   4.447  11.444 -0.0465 -0.0086 -0.1445
  344MPD2     H 5213   4.555   4.437  11.210 -0.1920 -0.6787 -0.5193
  344MPD2    H1 5214   0.139   4.655  11.401  0.1638  0.8566 -0.5834
  344MPD2    H2 5215   0.072   4.249  11.496  2.4275  0.2528 -1.2303
  344MPD2    H3 5216   0.200   4.449  11.509  1.1105  0.2087 -1.6834
  344MPD2     N 5217   4.688   4.687  11.226  0.1730 -0.6970  0.1253
  344MPD2    H5 5218   0.011   0.028  11.247  0.9731 -0.4206 -3.1871
  344MPD2    N1 5219   4.567   4.226  11.369  0.0593  1.1407 -0.2498
  344MPD2    H7 5220   4.478   4.231  11.320  0.0428 -1.5977 -0.5121
  345TMC3    C1 5221   4.638   0.081  11.035 -0.4385  0.3171  0.4998
  345TMC3    C2 5222   4.686   0.192  11.104  0.1804 -0.3449 -0.5072
  345TMC3    C3 5223   4.708   0.297  11.023 -0.1025 -0.1119  0.5408
  345TMC3    C4 5224   4.618   0.076  10.898  0.3187 -0.8407  0.1132
  345TMC3    C5 5225   4.664   0.178  10.827 -0.0744  0.0219  0.5162
  345TMC3    C6 5226   4.703   0.292  10.885 -0.2093  0.4084 -0.3130
  345TMC3     C 5227   4.607   4.697  11.111 -0.4323  0.4856 -0.1594
  345TMC3     O 5228   4.518   4.629  11.063  0.2320 -0.6408  0.2453
  345TMC3     H 5229   4.681   0.210  11.211  0.4955 -0.1287 -0.5284
  345TMC3    H1 5230   4.583   4.723  10.852 -3.4959  0.5429  0.2827
  345TMC3    H2 5231   4.729   0.379  10.826  0.7402  0.9631  0.8978
  345TMC3    C7 5232   4.667   0.169  10.675 -0.0556  0.1503 -0.3550
  345TMC3    C8 5233   0.011   0.430  11.075 -0.8404  0.2155 -0.4296
  345TMC3    O1 5234   4.726   0.264  10.618 -0.4228 -0.0063 -0.5818
  345TMC3    O2 5235   4.727   0.525  11.004 -0.2387  0.2071  0.6425
  346MPD2     C 5236   4.477   1.831  14.433  0.2364  0.2898 -0.3796
  346MPD2    C1 5237   4.597   1.766  14.402 -0.0304  0.1144  0.0174
  346MPD2    C2 5238   4.686   1.760  14.501  0.4154 -0.4774  0.7722
  346MPD2    C3 5239   4.669   1.813  14.625 -0.8736 -0.5411  0.2793
  346MPD2    C4 5240   4.550   1.876  14.657  0.0774  0.3811  0.0467
  346MPD2    C5 5241   4.456   1.884  14.557 -0.3146 -0.3537 -0.2286
  346MPD2     H 5242   0.044   1.715  14.481  0.7570  0.2974  0.6567
  346MPD2    H1 5243   4.535   1.938  14.744 -3.8051  1.2138 -1.1799
  346MPD2    H2 5244   4.395   1.830  14.362 -2.4607  0.3107  2.7314
  346MPD2    H3 5245   4.364   1.939  14.572 -0.2779 -0.1578 -0.6938
  346MPD2     N 5246   0.043   1.802  14.711 -0.0387  0.2055  0.6296
  346MPD2    H5 5247   0.126   1.756  14.676 -0.9861 -0.8981 -0.1405
  346MPD2    N1 5248   4.623   1.704  14.275  0.4122 -0.1053  0.3692
  346MPD2    H7 5249   4.719   1.673  14.264  0.8461  1.4590 -0.2900
  347TMC3    C1 5250   0.200   1.842  14.878 -0.0694  0.1541  0.0049
  347TMC3    C2 5251   0.286   1.773  14.792 -0.0383  0.2228 -0.2169
  347TMC3    C3 5252   0.419   1.787  14.820  0.6804 -0.0732  0.0381
  347TMC3    C4 5253   0.249   1.909  14.989  0.3501  0.6400  0.4989
  347TMC3    C5 5254   0.382   1.910  15.017  0.0824 -0.6568  0.7588
  347TMC3    C6 5255   0.473   1.855  14.931  0.0452  0.5887  0.6404
  347TMC3     C 5256   0.066   1.864  14.832  0.4001  0.0865 -0.8582
  347TMC3     O 5257   4.728   1.945  14.885  0.1686 -0.3463 -0.5271
  347TMC3     H 5258   0.258   1.714  14.706 -2.8502 -0.2686  1.0453
  347TMC3    H1 5259   0.185   1.976  15.045 -1.3505 -2.5116  2.3357
  347TMC3    H2 5260   0.581   1.867  14.939  0.1933  0.0283 -0.5135
  347TMC3    C7 5261   0.431   2.011  15.107 -0.1676  0.1596  0.6150
  347TMC3    C8 5262   0.503   1.775  14.707 -0.3625 -0.7143 -0.4114
  347TMC3    O1 5263   0.554   2.027  15.110 -0.3886 -0.0350 -0.2148
  347TMC3    O2 5264   0.488   1.678  14.637  0.3580  0.8650 -0.1281
  348MPD2     C 5265   3.754   1.169  12.398  0.5046 -0.0102  0.0433
  348MPD2    C1 5266   3.697   1.117  12.281 -0.0860  0.4096 -0.0934
  348MPD2    C2 5267   3.639   1.204  12.195  0.1254  0.8879 -0.0470
  348MPD2    C3 5268   3.664   1.343  12.195  0.4130 -0.6996  0.0019
  348MPD2    C4 5269   3.733   1.385  12.308 -0.6778 -0.1810 -0.0060
  348MPD2    C5 5270   3.765   1.303  12.409  0.2007  0.0849  1.2788
  348MPD2     H 5271   3.587   1.162  12.110  0.3555  0.8084 -0.1500
  348MPD2    H1 5272   3.762   1.489  12.320  1.4108 -0.7803  0.0398
  348MPD2    H2 5273   3.802   1.109  12.474 -2.1935 -1.2358  0.7719
  348MPD2    H3 5274   3.815   1.344  12.496  2.0710  0.5336 -0.0188
  348MPD2     N 5275   3.615   1.421  12.094  0.0002  0.5439 -0.8308
  348MPD2    H5 5276   3.550   1.376  12.031 -1.8006  0.7341  0.8538
  348MPD2    N1 5277   3.679   0.975  12.254  0.0530 -0.4448  0.1250
  348MPD2    H7 5278   3.613   0.962  12.178  1.1307 -0.5931 -0.7664
  349TMC3    C1 5279   3.674   0.745  12.294 -0.0514  0.4091 -0.2305
  349TMC3    C2 5280   3.719   0.639  12.363  0.0878 -0.4044 -0.0047
  349TMC3    C3 5281   3.643   0.522  12.361  0.1263  0.0063 -0.1732
  349TMC3    C4 5282   3.567   0.739  12.207  0.3236  0.1875 -0.2100
  349TMC3    C5 5283   3.504   0.618  12.197  0.3299  0.4008  0.1035
  349TMC3    C6 5284   3.527   0.514  12.277 -0.4558 -0.4784  0.2152
  349TMC3     C 5285   3.734   0.873  12.324 -0.0900 -0.7701 -0.4597
  349TMC3     O 5286   3.828   0.873  12.402  0.3355  0.5275 -0.2047
  349TMC3     H 5287   3.810   0.650  12.422 -0.6662 -1.1160  1.2850
  349TMC3    H1 5288   3.539   0.830  12.155  1.0374  1.2661  1.3097
  349TMC3    H2 5289   3.461   0.430  12.291  0.0418 -0.8219  0.5023
  349TMC3    C7 5290   3.387   0.618  12.110 -0.2941 -0.3838  1.1657
  349TMC3    C8 5291   3.688   0.409  12.440  0.8059 -0.0038  0.9179
  349TMC3    O1 5292   3.288   0.551  12.138 -0.3085  0.0245  0.2228
  349TMC3    O2 5293   3.801   0.426  12.486  0.2782  0.3276  0.6948
  350MPD2     C 5294   2.067   4.396  10.387  0.2397 -0.2429  0.0082
  350MPD2    C1 5295   2.056   4.273  10.455  0.2960  0.2684  0.7159
  350MPD2    C2 5296   2.109   4.259  10.581 -0.0567  0.7086 -0.4881
  350MPD2    C3 5297   2.176   4.365  10.644 -0.0931  0.1602 -0.4873
  350MPD2    C4 5298   2.202   4.484  10.575  0.7136 -0.3332 -0.3672
  350MPD2    C5 5299   2.141   4.496  10.457  0.2162  0.2929 -0.5675
  350MPD2     H 5300   2.117   4.162  10.627 -1.5434  1.1597  0.7053
  350MPD2    H1 5301   2.246   4.572  10.621 -1.5781 -0.2995  1.7182
  350MPD2    H2 5302   2.035   4.418  10.285  0.5153  4.8565  0.9951
  350MPD2    H3 5303   2.126   4.593  10.411 -0.8766  0.4718  0.1673
  350MPD2     N 5304   2.223   4.340  10.780  0.3599  0.0310  0.0136
  350MPD2    H5 5305   2.193   4.251  10.818  1.7253 -0.7725 -0.7784
  350MPD2    N1 5306   1.993   4.158  10.395 -0.3749  0.2443  0.0253
  350MPD2    H7 5307   1.988   4.071  10.449  1.8005  0.2937  0.3113
  351TMC3    C1 5308   1.898   4.029  10.217 -0.1933 -0.2555 -0.3201
  351TMC3    C2 5309   1.959   3.912  10.257 -0.1155  0.6329  0.1207
  351TMC3    C3 5310   1.904   3.796  10.213 -0.3344  0.1067 -0.0492
  351TMC3    C4 5311   1.783   4.030  10.150 -0.2438 -0.4156 -0.1471
  351TMC3    C5 5312   1.716   3.909  10.130 -0.6357 -0.7808 -0.3369
  351TMC3    C6 5313   1.773   3.791  10.160 -0.2970  0.3044 -0.2100
  351TMC3     C 5314   1.927   4.159  10.273 -0.3891 -0.1028 -0.5734
  351TMC3     O 5315   1.905   4.255  10.202  0.0760  0.1725  0.4245
  351TMC3     H 5316   2.045   3.909  10.322 -0.3119 -0.0727  0.3572
  351TMC3    H1 5317   1.739   4.124  10.122 -2.9228 -1.7988 -0.5918
  351TMC3    H2 5318   1.728   3.697  10.131 -0.2177 -0.1325  1.0520
  351TMC3    C7 5319   1.588   3.917  10.060  0.9211 -0.0585  0.2902
  351TMC3    C8 5320   1.966   3.673  10.248 -0.2939 -0.3351 -0.8304
  351TMC3    O1 5321   1.541   4.031  10.065  0.0211 -0.3794 -0.1872
  351TMC3    O2 5322   2.053   3.684  10.331 -0.1753 -0.2490 -0.5490
  352MPD2     C 5323   0.921   1.909   1.189  0.6821  0.4215  0.7505
  352MPD2    C1 5324   0.831   1.802   1.206 -0.1471  0.2755  0.2798
  352MPD2    C2 5325   0.889   1.677   1.204 -0.2706  0.6834 -0.2540
  352MPD2    C3 5326   1.020   1.657   1.174 -0.0982 -0.2897  0.5048
  352MPD2    C4 5327   1.105   1.764   1.158 -0.1763  0.2066 -0.3883
  352MPD2    C5 5328   1.053   1.890   1.156  0.4891 -0.6940 -0.3759
  352MPD2     H 5329   0.821   1.596   1.228  1.3889 -1.0064 -1.3444
  352MPD2    H1 5330   1.209   1.769   1.131  0.3796  2.2503  2.1210
  352MPD2    H2 5331   0.872   2.006   1.190  0.5897  0.3774  0.4522
  352MPD2    H3 5332   1.115   1.972   1.121  1.3782 -0.8999  0.7082
  352MPD2     N 5333   1.075   1.530   1.150 -0.1817 -0.1938 -0.0394
  352MPD2    H5 5334   1.173   1.519   1.124  0.0891 -0.8806  1.2285
  352MPD2    N1 5335   0.696   1.839   1.211  0.6313  0.0868 -0.3010
  352MPD2    H7 5336   0.677   1.938   1.197  2.0731  0.4090 -0.0501
  353TMC3    C1 5337   1.069   1.289   1.116  0.5571 -0.4223  0.2808
  353TMC3    C2 5338   1.206   1.271   1.114 -1.3190  0.0267  0.1675
  353TMC3    C3 5339   1.252   1.142   1.111  0.6421  0.0746  0.9161
  353TMC3    C4 5340   0.976   1.182   1.117  0.0616 -0.9495  0.0730
  353TMC3    C5 5341   1.024   1.059   1.125 -0.8566 -0.3443 -0.1441
  353TMC3    C6 5342   1.160   1.042   1.113 -0.3253  0.4049 -0.1789
  353TMC3     C 5343   1.000   1.414   1.145 -0.1402 -0.2467  0.2175
  353TMC3     O 5344   0.882   1.402   1.161  0.5280 -0.0215 -0.2299
  353TMC3     H 5345   1.271   1.356   1.134 -1.8215  0.7925 -1.3947
  353TMC3    H1 5346   0.868   1.193   1.116  0.0944 -0.5755  0.4846
  353TMC3    H2 5347   1.191   0.938   1.105 -0.4692  0.3691 -0.2827
  353TMC3    C7 5348   0.929   0.953   1.088  0.3128 -0.3794  1.0541
  353TMC3    C8 5349   1.390   1.117   1.083 -0.3483 -0.4602 -0.9969
  353TMC3    O1 5350   0.969   0.854   1.033  0.7246  0.4958  0.3206
  353TMC3    O2 5351   1.458   1.217   1.070  0.0875  0.4915  0.0007
  354TMC3    C1 5352   2.891   1.733  13.460  0.5365 -0.3398  0.3648
  354TMC3    C2 5353   2.872   1.869  13.468 -0.3481 -0.2838 -0.1105
  354TMC3    C3 5354   2.874   1.947  13.357  0.3947 -0.1263 -0.5471
  354TMC3    C4 5355   2.922   1.679  13.338 -1.1959 -0.7261  0.0207
  354TMC3    C5 5356   2.934   1.766  13.232  0.4022  0.2335  0.0516
  354TMC3    C6 5357   2.912   1.899  13.237  0.5635 -0.7120  0.2511
  354TMC3     C 5358   2.863   1.650  13.579  0.2306  0.0992 -0.3563
  354TMC3     O 5359   2.862   1.698  13.689  0.4944 -0.3543  0.1219
  354TMC3     H 5360   2.829   1.912  13.558 -1.4058  0.0093 -0.7542
  354TMC3    H1 5361   2.978   1.586  13.335 -2.2726 -1.4106  1.1191
  354TMC3    H2 5362   2.896   1.949  13.143  1.4019 -0.4059  0.2792
  354TMC3    C7 5363   3.002   1.725  13.109  0.2130 -0.6621 -0.9838
  354TMC3    C8 5364   2.888   2.091  13.363  0.1219  0.6435 -0.3014
  354TMC3    O1 5365   3.006   1.603  13.092 -0.5066  0.3365 -0.1128
  354TMC3    O2 5366   2.934   2.131  13.260 -0.4188 -0.0075  0.7885
  355MPD2     C 5367   3.005   2.906  12.336  0.8468 -0.1723  0.4201
  355MPD2    C1 5368   3.102   2.867  12.237 -0.3158  0.1671  0.0363
  355MPD2    C2 5369   3.196   2.767  12.264  0.4907 -0.1759  0.3545
  355MPD2    C3 5370   3.196   2.709  12.386 -0.0435  0.4422  0.1347
  355MPD2    C4 5371   3.118   2.748  12.484 -0.9324 -0.0652  0.7559
  355MPD2    C5 5372   3.021   2.841  12.455 -0.5607  0.2630 -0.4770
  355MPD2     H 5373   3.256   2.732  12.180 -0.5077 -1.2000  0.0822
  355MPD2    H1 5374   3.115   2.706  12.584 -1.4561 -0.2808  0.6528
  355MPD2    H2 5375   2.929   2.983  12.323 -0.2022 -0.8935  2.2131
  355MPD2    H3 5376   2.946   2.851  12.532 -0.5853  1.0169 -0.6011
  355MPD2     N 5377   3.300   2.625  12.414 -0.3459  0.6025 -0.2592
  355MPD2    H5 5378   3.309   2.599  12.512  0.3311 -1.4917 -0.8732
  355MPD2    N1 5379   3.098   2.941  12.112  0.5010  0.1471 -0.2883
  355MPD2    H7 5380   3.069   3.038  12.106  1.7324  0.4985 -0.5482
  356TMC3    C1 5381   3.499   2.717  12.358  0.1917  0.0019  0.3289
  356TMC3    C2 5382   3.518   2.785  12.239  0.1066  0.6065 -0.3740
  356TMC3    C3 5383   3.517   2.926  12.244 -0.0434 -0.4842  0.5084
  356TMC3    C4 5384   3.471   2.790  12.476  0.6493  0.3967 -0.2537
  356TMC3    C5 5385   3.462   2.929  12.473 -0.1605  0.4825 -0.0146
  356TMC3    C6 5386   3.491   2.998  12.357 -0.8907  0.3748 -0.6136
  356TMC3     C 5387   3.411   2.603  12.336 -0.0899  0.0642  0.3188
  356TMC3     O 5388   3.412   2.564  12.219  0.4560  0.5404 -0.0690
  356TMC3     H 5389   3.536   2.731  12.148  1.6807 -1.1031  0.9491
  356TMC3    H1 5390   3.448   2.736  12.567  1.0119 -1.8682 -1.4974
  356TMC3    H2 5391   3.475   3.105  12.355  1.9094  0.8054 -0.5327
  356TMC3    C7 5392   3.429   2.994  12.593 -0.4296  0.4961 -0.9094
  356TMC3    C8 5393   3.573   2.991  12.127  0.2725 -0.2015 -0.0096
  356TMC3    O1 5394   3.395   2.924  12.685  0.1654  0.0854 -0.4499
  356TMC3    O2 5395   3.555   2.925  12.027  0.3189  0.5921  0.1508
  357MPD2     C 5396   1.831   3.365   1.601 -0.7229  0.5428 -0.2217
  357MPD2    C1 5397   1.888   3.357   1.472  0.0754 -0.6216  0.3138
  357MPD2    C2 5398   1.800   3.399   1.368 -0.0434  0.2934  0.4116
  357MPD2    C3 5399   1.661   3.424   1.397 -0.1412 -0.1416  0.6924
  357MPD2    C4 5400   1.617   3.443   1.528 -0.0709  0.4794  0.8891
  357MPD2    C5 5401   1.706   3.414   1.632 -0.5380 -0.2264  0.4450
  357MPD2     H 5402   1.821   3.388   1.262  2.2641 -3.0298  1.2266
  357MPD2    H1 5403   1.520   3.488   1.546 -0.4761 -0.1355  0.2394
  357MPD2    H2 5404   1.887   3.325   1.685 -0.6784 -0.5596 -0.7652
  357MPD2    H3 5405   1.671   3.413   1.735 -0.7608  1.3143  0.3970
  357MPD2     N 5406   1.566   3.446   1.297  0.2835  0.1100  0.1719
  357MPD2    H5 5407   1.467   3.440   1.320  0.9142 -0.2179  2.7527
  357MPD2    N1 5408   2.011   3.300   1.458  0.2568 -0.5354  0.8366
  357MPD2    H7 5409   2.074   3.278   1.535  0.1289 -2.3332  0.4289
  358TMC3    C1 5410   2.195   3.208   1.365 -0.3791 -0.2950  0.4851
  358TMC3    C2 5411   2.292   3.215   1.268  0.1310 -0.8146 -0.1512
  358TMC3    C3 5412   2.420   3.185   1.303 -0.4501 -0.1212  0.2440
  358TMC3    C4 5413   2.222   3.172   1.493 -0.8639 -0.0361 -0.0836
  358TMC3    C5 5414   2.352   3.143   1.522 -0.3498  0.0683  0.0649
  358TMC3    C6 5415   2.452   3.136   1.427  0.7129 -0.5433 -0.1463
  358TMC3     C 5416   2.069   3.277   1.339  0.3087 -0.3706 -0.0705
  358TMC3     O 5417   2.028   3.295   1.229  0.5186  0.3524 -0.0426
  358TMC3     H 5418   2.271   3.266   1.175  0.7541  0.4025  0.3723
  358TMC3    H1 5419   2.149   3.141   1.566 -0.6252 -0.2391  0.0677
  358TMC3    H2 5420   2.552   3.146   1.469 -0.4855 -3.1002  3.3296
  358TMC3    C7 5421   2.378   3.139   1.668  0.2519 -0.5924  1.1453
  358TMC3    C8 5422   2.521   3.194   1.201 -0.1363 -0.3860  0.4373
  358TMC3    O1 5423   2.307   3.207   1.743  0.1787 -0.2823 -0.4522
  358TMC3    O2 5424   2.484   3.196   1.085  0.5381  0.2774 -0.1532
  359MPD2     C 5425   3.609   1.270  12.737  0.5743 -0.3553 -0.0097
  359MPD2    C1 5426   3.522   1.357  12.683  0.4565 -0.3043 -0.8473
  359MPD2    C2 5427   3.393   1.316  12.651 -0.1493 -0.0600  0.0883
  359MPD2    C3 5428   3.345   1.190  12.695 -0.4011  0.1288  0.0711
  359MPD2    C4 5429   3.436   1.107  12.760  0.1220 -0.7384 -0.0690
  359MPD2    C5 5430   3.565   1.150  12.786  0.1084 -0.3267 -0.6789
  359MPD2     H 5431   3.323   1.375  12.593 -1.7723 -2.2030 -0.1538
  359MPD2    H1 5432   3.408   1.009  12.796 -0.7354 -0.7264 -0.7091
  359MPD2    H2 5433   3.716   1.284  12.750  0.5908 -0.5643  0.0892
  359MPD2    H3 5434   3.637   1.078  12.825  0.6680 -0.6124 -2.2748
  359MPD2     N 5435   3.209   1.159  12.692  0.2555  0.4353 -0.4539
  359MPD2    H5 5436   3.194   1.070  12.739 -1.2552  1.2771  0.6523
  359MPD2    N1 5437   3.562   1.491  12.645  0.2275  0.1460  0.1560
  359MPD2    H7 5438   3.497   1.549  12.592  0.7004  0.7694  0.2517
  360TMC3    C1 5439   3.687   1.675  12.601  0.6800  0.5038  0.6357
  360TMC3    C2 5440   3.805   1.710  12.537 -0.8253  0.5025  0.8167
  360TMC3    C3 5441   3.783   1.775  12.420  0.5105  0.0589  0.1548
  360TMC3    C4 5442   3.565   1.720  12.562 -0.3430 -0.1252 -0.3136
  360TMC3    C5 5443   3.553   1.779  12.438 -0.1969  0.2843  0.3953
  360TMC3    C6 5444   3.660   1.808  12.362  0.5517  0.2880 -0.2757
  360TMC3     C 5445   3.683   1.549  12.669  0.5772  0.5012 -0.1798
  360TMC3     O 5446   3.781   1.501  12.722  0.1704  0.2856 -0.2970
  360TMC3     H 5447   3.903   1.667  12.551 -0.7148  1.0276  1.6654
  360TMC3    H1 5448   3.484   1.722  12.633  2.0847 -2.8328  2.5117
  360TMC3    H2 5449   3.640   1.857  12.268  1.9879 -0.2539 -0.8496
  360TMC3    C7 5450   3.453   1.700  12.366  0.7292  0.1246  0.2425
  360TMC3    C8 5451   3.903   1.832  12.363  0.3754 -0.0099 -0.0538
  360TMC3    O1 5452   3.390   1.633  12.446 -0.0965 -0.3260 -0.0679
  360TMC3    O2 5453   4.002   1.850  12.431  0.1153  0.0308  0.4067
  361MPD2     C 5454   0.091   0.657  16.722 -0.6795  0.1326 -0.6770
  361MPD2    C1 5455   0.023   0.698  16.829 -0.2418 -0.3730 -0.0018
  361MPD2    C2 5456   0.053   0.653  16.955  0.2556 -0.2263 -0.4916
  361MPD2    C3 5457   0.162   0.565  16.972 -0.8745 -0.5366 -0.6171
  361MPD2    C4 5458   0.223   0.516  16.861  0.4507 -0.1167 -0.2861
  361MPD2    C5 5459   0.187   0.561  16.740  0.5485  0.3198  0.2823
  361MPD2     H 5460   4.737   0.689  17.042  3.0757  1.9232  0.3883
  361MPD2    H1 5461   0.292   0.433  16.870 -0.7668 -1.2083 -1.0676
  361MPD2    H2 5462   0.091   0.695  16.620  0.4423 -0.4196 -0.8895
  361MPD2    H3 5463   0.251   0.532  16.657 -1.2808  0.5389 -1.2144
  361MPD2     N 5464   0.196   0.501  17.094  0.3480  0.0097 -0.1546
  361MPD2    H5 5465   0.258   0.422  17.085  0.4995  0.0442  0.5296
  361MPD2    N1 5466   4.657   0.792  16.829 -0.3526  0.2572  0.4042
  361MPD2    H7 5467   4.629   0.834  16.917  1.3412  3.5694 -0.6500
  362TMC3    C1 5468   4.493   0.941  16.745  0.0993  0.0921  0.5688
  362TMC3    C2 5469   4.400   0.895  16.835  0.1035 -0.5492 -0.1568
  362TMC3    C3 5470   4.284   0.970  16.847  0.7466 -0.1349 -1.0848
  362TMC3    C4 5471   4.479   1.057  16.671  0.1975  0.8783  0.5934
  362TMC3    C5 5472   4.357   1.129  16.695 -0.8819 -0.4597  0.8377
  362TMC3    C6 5473   4.255   1.076  16.768 -0.3793  0.9844 -0.4515
  362TMC3     C 5474   4.621   0.871  16.722 -0.1107 -0.2625 -0.1255
  362TMC3     O 5475   4.680   0.894  16.616 -0.9030  0.4653 -0.3460
  362TMC3     H 5476   4.434   0.816  16.901  3.0769  0.4742 -0.4562
  362TMC3    H1 5477   4.547   1.084  16.591  0.3383  0.0403  0.4257
  362TMC3    H2 5478   4.157   1.121  16.771  0.5713  3.1349 -1.1545
  362TMC3    C7 5479   4.337   1.248  16.616 -0.7477  0.6175  0.5627
  362TMC3    C8 5480   4.187   0.912  16.940  0.7116 -0.3789 -0.2808
  362TMC3    O1 5481   4.223   1.290  16.608 -0.1357  0.2654 -0.1989
  362TMC3    O2 5482   4.210   0.800  16.985 -0.4490  0.0887 -0.3934
  363TMC3    C1 5483   2.377   3.099   9.632 -0.0455 -0.1499  0.7736
  363TMC3    C2 5484   2.477   3.083   9.725 -0.4984  0.1514  0.0698
  363TMC3    C3 5485   2.488   3.178   9.819  0.0180 -0.2456 -0.5558
  363TMC3    C4 5486   2.284   3.210   9.645  0.3482 -0.1957 -0.9998
  363TMC3    C5 5487   2.303   3.296   9.749 -0.3833  0.8460  0.2086
  363TMC3    C6 5488   2.394   3.278   9.841  0.0555 -0.0912  0.3675
  363TMC3     C 5489   2.351   2.996   9.532  0.0568 -0.2676 -0.7855
  363TMC3     O 5490   2.245   2.987   9.468  0.1233  0.3190  1.4639
  363TMC3     H 5491   2.519   2.983   9.728 -0.8753 -0.0102 -0.0093
  363TMC3    H1 5492   2.190   3.209   9.591  0.7201 -1.9258 -1.6353
  363TMC3    H2 5493   2.403   3.324   9.938  0.8313  1.3653 -0.4004
  363TMC3    C7 5494   2.205   3.404   9.782 -0.8886  0.6670 -0.1222
  363TMC3    C8 5495   2.593   3.167   9.913 -0.8465 -0.0577 -0.5127
  363TMC3    O1 5496   2.094   3.399   9.732  0.0267 -0.3118  0.6102
  363TMC3    O2 5497   2.606   3.234  10.010 -0.2961 -0.3767 -0.6853
  364MPD2     C 5498   1.517   2.344  11.040  0.0902  0.2624  0.0043
  364MPD2    C1 5499   1.569   2.346  10.913  0.7104 -1.2411 -0.5769
  364MPD2    C2 5500   1.680   2.268  10.878 -0.0290 -0.1969 -0.4879
  364MPD2    C3 5501   1.739   2.192  10.979  0.1982  0.0797 -0.4866
  364MPD2    C4 5502   1.689   2.183  11.101 -0.3223 -0.2031 -0.1800
  364MPD2    C5 5503   1.575   2.257  11.126 -0.4919 -0.5673  0.1180
  364MPD2     H 5504   1.727   2.269  10.781 -1.4338 -1.1723 -1.1889
  364MPD2    H1 5505   1.737   2.124  11.178 -0.1957 -1.0068 -0.8776
  364MPD2    H2 5506   1.442   2.419  11.065 -0.9678 -0.6132 -0.5109
  364MPD2    H3 5507   1.533   2.254  11.226  0.8687  0.2853  0.7340
  364MPD2     N 5508   1.861   2.123  10.950  0.0632 -0.5908 -0.3332
  364MPD2    H5 5509   1.901   2.144  10.860  1.7758  1.0735  0.8326
  364MPD2    N1 5510   1.523   2.450  10.832  0.8238 -0.3545 -0.3250
  364MPD2    H7 5511   1.465   2.522  10.875  1.4848  0.5316 -0.9197
  365TMC3    C1 5512   1.485   2.557  10.623  0.3916 -0.4931  0.5370
  365TMC3    C2 5513   1.493   2.543  10.490 -0.8674  0.2754 -0.3944
  365TMC3    C3 5514   1.519   2.651  10.408  0.5100 -0.2669 -0.4976
  365TMC3    C4 5515   1.511   2.681  10.684  0.4498 -0.2967  0.4960
  365TMC3    C5 5516   1.533   2.789  10.597 -0.2214  0.0206  0.1177
  365TMC3    C6 5517   1.532   2.780  10.459  0.3601 -0.5923  0.3820
  365TMC3     C 5518   1.518   2.437  10.697 -0.8473 -0.9232  0.1021
  365TMC3     O 5519   1.540   2.338  10.631  0.1990  0.1717 -0.5364
  365TMC3     H 5520   1.459   2.447  10.451 -0.3640 -0.4278  0.9137
  365TMC3    H1 5521   1.515   2.695  10.791 -0.4137 -0.1734  0.5126
  365TMC3    H2 5522   1.546   2.872  10.403 -4.7197 -0.7271 -1.1274
  365TMC3    C7 5523   1.559   2.917  10.660 -0.2782  0.6099  1.2209
  365TMC3    C8 5524   1.538   2.632  10.264 -0.3693 -0.3327  0.0351
  365TMC3    O1 5525   1.639   3.001  10.617 -0.1935  0.2900  0.0902
  365TMC3    O2 5526   1.529   2.728  10.191  0.1207 -0.2315 -0.6774
  366MPD2     C 5527   0.055   3.479  15.640 -0.0990  0.2658 -0.2583
  366MPD2    C1 5528   0.153   3.579  15.638 -0.3779  0.5443 -0.7555
  366MPD2    C2 5529   0.288   3.556  15.643  0.5318 -0.0032 -0.6119
  366MPD2    C3 5530   0.334   3.425  15.659  0.2608  0.0264  0.4671
  366MPD2    C4 5531   0.238   3.325  15.662  0.4601 -0.0257 -0.2532
  366MPD2    C5 5532   0.107   3.354  15.650  0.3690 -0.7059 -1.0426
  366MPD2     H 5533   0.358   3.639  15.642 -1.3321  1.5691 -2.0216
  366MPD2    H1 5534   0.271   3.222  15.665 -2.7869 -1.0578 -0.3957
  366MPD2    H2 5535   4.687   3.496  15.656  0.2469  1.6215  0.6481
  366MPD2    H3 5536   0.031   3.277  15.651  1.4548 -1.7640 -1.0788
  366MPD2     N 5537   0.474   3.417  15.666  1.0236  0.3379 -0.1391
  366MPD2    H5 5538   0.528   3.497  15.636 -0.8200  0.0797 -4.1739
  366MPD2    N1 5539   0.123   3.714  15.654 -0.3274  0.1788  0.3196
  366MPD2    H7 5540   0.195   3.785  15.645  0.2009 -0.6361 -1.7998
  367TMC3    C1 5541   0.017   3.911  15.699  0.1605 -0.3072  0.1332
  367TMC3    C2 5542   0.123   3.948  15.781 -0.7577  0.0928  1.0057
  367TMC3    C3 5543   0.126   4.083  15.814  0.7178  0.3466 -0.4073
  367TMC3    C4 5544   4.661   3.993  15.652 -0.3404  0.2570  0.1219
  367TMC3    C5 5545   4.673   4.125  15.687 -0.1378  0.0388 -1.0519
  367TMC3    C6 5546   0.036   4.170  15.765  0.3355 -0.3866 -0.0077
  367TMC3     C 5547   4.735   3.770  15.669  0.5546  0.2139  0.1444
  367TMC3     O 5548   4.626   3.725  15.639 -0.2822 -0.3987  0.1502
  367TMC3     H 5549   0.187   3.870  15.821  0.9931  1.3689  0.6878
  367TMC3    H1 5550   4.589   3.963  15.577 -0.1409  0.1971 -0.0443
  367TMC3    H2 5551   0.048   4.277  15.779 -1.0209 -0.4119  1.3736
  367TMC3    C7 5552   4.628   4.233  15.598  0.2780  0.2173  0.1829
  367TMC3    C8 5553   0.247   4.139  15.878 -0.0479 -0.4955 -0.2260
  367TMC3    O1 5554   4.689   4.340  15.596  0.1604  0.0721 -0.4607
  367TMC3    O2 5555   0.335   4.054  15.891  0.5075 -0.0369  0.2194
  368MPD2     C 5556   1.260   0.781  12.881  0.3402  0.1875 -0.2296
  368MPD2    C1 5557   1.309   0.907  12.894 -0.2936  1.1085 -0.1940
  368MPD2    C2 5558   1.448   0.916  12.909  0.1661 -0.0411  0.2251
  368MPD2    C3 5559   1.527   0.803  12.912  0.2654  0.0846  1.3464
  368MPD2    C4 5560   1.466   0.680  12.899  0.4943  0.2098  0.0308
  368MPD2    C5 5561   1.335   0.664  12.881 -1.1723 -0.6267  0.1494
  368MPD2     H 5562   1.496   1.010  12.930  2.5632 -1.6476  2.0090
  368MPD2    H1 5563   1.527   0.591  12.885  3.2464  1.8332  1.7156
  368MPD2    H2 5564   1.153   0.769  12.876  0.2620  1.0078 -0.5034
  368MPD2    H3 5565   1.286   0.567  12.881 -0.0005 -1.2119  2.0202
  368MPD2     N 5566   1.664   0.825  12.940  0.1897 -1.0226  0.2987
  368MPD2    H5 5567   1.683   0.922  12.965  0.0939 -0.6066 -1.2676
  368MPD2    N1 5568   1.224   1.019  12.890 -0.2527 -0.4207 -0.3969
  368MPD2    H7 5569   1.131   0.996  12.856 -1.3708 -1.0391  3.0772
  369TMC3    C1 5570   1.150   1.235  12.874 -0.4264  0.9944 -0.7329
  369TMC3    C2 5571   1.194   1.353  12.831 -0.1428 -0.4353 -0.5544
  369TMC3    C3 5572   1.133   1.473  12.870  0.7668 -0.0544  0.0247
  369TMC3    C4 5573   1.037   1.227  12.956  0.0397  0.2656  0.1198
  369TMC3    C5 5574   0.965   1.344  12.963 -0.4967  0.2970  0.2360
  369TMC3    C6 5575   1.004   1.470  12.925 -0.0619 -0.3750 -0.3830
  369TMC3     C 5576   1.263   1.146  12.898  0.4937  0.1022  0.0749
  369TMC3     O 5577   1.375   1.198  12.922  0.2095 -0.2496 -0.0123
  369TMC3     H 5578   1.289   1.352  12.779  0.2434 -0.2149  0.1543
  369TMC3    H1 5579   1.008   1.136  13.008  3.6729 -1.2769 -0.5269
  369TMC3    H2 5580   0.946   1.559  12.945  1.1191  0.6546 -1.4972
  369TMC3    C7 5581   0.858   1.344  13.055 -0.4316 -0.0481 -0.2620
  369TMC3    C8 5582   1.208   1.593  12.847 -0.2313 -0.5347  0.0409
  369TMC3    O1 5583   0.871   1.273  13.153 -0.1789  0.2366 -0.4230
  369TMC3    O2 5584   1.326   1.587  12.815  0.4015  0.1121 -0.3429
  370TMC3    C1 5585   0.645   1.465  16.411  0.3016 -0.1355 -0.3737
  370TMC3    C2 5586   0.563   1.392  16.492 -0.4328 -0.1339 -0.4192
  370TMC3    C3 5587   0.529   1.262  16.476  0.1773 -0.7287 -0.2525
  370TMC3    C4 5588   0.702   1.392  16.303  0.2585 -0.1692 -0.0490
  370TMC3    C5 5589   0.677   1.257  16.289 -0.0208  0.3890  0.0171
  370TMC3    C6 5590   0.590   1.189  16.373 -0.1970  0.5827  0.8007
  370TMC3     C 5591   0.646   1.605  16.412  0.4335  0.3135  0.1188
  370TMC3     O 5592   0.565   1.659  16.487 -0.1760 -0.0849  0.7424
  370TMC3     H 5593   0.539   1.449  16.582  0.1323  0.3496 -0.5721
  370TMC3    H1 5594   0.776   1.438  16.238 -0.0649 -0.9890 -0.9895
  370TMC3    H2 5595   0.570   1.085  16.351 -3.5859  1.1873  0.9878
  370TMC3    C7 5596   0.782   1.179  16.228  0.8919 -0.2548  0.1406
  370TMC3    C8 5597   0.505   1.181  16.602  0.7118 -0.5239  0.5452
  370TMC3    O1 5598   0.894   1.222  16.237 -0.1125 -0.1278  0.2225
  370TMC3    O2 5599   0.539   1.066  16.605  0.0533 -0.3022 -0.8671
  371TMC3    C1 5600   1.928   4.376  15.682 -0.2080  0.6659 -0.4392
  371TMC3    C2 5601   1.873   4.441  15.789 -0.2250  1.1050 -0.1622
  371TMC3    C3 5602   1.851   4.578  15.789  0.2659 -0.3501 -0.2657
  371TMC3    C4 5603   1.970   4.449  15.575  0.8315 -0.2052 -0.1196
  371TMC3    C5 5604   1.947   4.586  15.574  0.2921  0.0695 -0.3606
  371TMC3    C6 5605   1.885   4.648  15.680 -0.0801 -0.1206 -0.7842
  371TMC3     C 5606   2.007   4.257  15.705 -0.3329  0.0755  0.2500
  371TMC3     O 5607   2.121   4.259  15.658  0.0939  0.5556  0.2407
  371TMC3     H 5608   1.861   4.387  15.883  0.5934  2.0481  0.4787
  371TMC3    H1 5609   2.012   4.393  15.492  1.4400  2.3608 -1.5336
  371TMC3    H2 5610   1.861   0.015  15.673 -1.7664 -0.3816  1.1542
  371TMC3    C7 5611   2.010   4.667  15.475 -0.4323 -0.1738 -0.4752
  371TMC3    C8 5612   1.840   4.652  15.920 -0.0303  0.0652 -0.2741
  371TMC3    O1 5613   1.993   0.054  15.478 -0.3309 -0.0922  0.5757
  371TMC3    O2 5614   1.889   4.597  16.016  0.0265  0.4764  0.1490
  372MPD2     C 5615   1.893   0.815  13.339 -0.6308  0.0815 -0.2193
  372MPD2    C1 5616   1.961   0.733  13.429  0.1453  0.1390  0.3352
  372MPD2    C2 5617   1.885   0.661  13.521 -0.5594 -0.5526 -0.2024
  372MPD2    C3 5618   1.748   0.672  13.525 -0.3087 -0.0185 -0.3732
  372MPD2    C4 5619   1.678   0.732  13.420  0.9986  0.0011  0.6371
  372MPD2    C5 5620   1.755   0.810  13.334 -0.4046 -0.2592 -0.2801
  372MPD2     H 5621   1.939   0.602  13.594  0.1902  0.9810  0.4745
  372MPD2    H1 5622   1.570   0.742  13.418  0.6838 -3.6335 -2.0029
  372MPD2    H2 5623   1.944   0.880  13.269  0.8259  0.0201  0.7701
  372MPD2    H3 5624   1.707   0.862  13.252 -0.8898  1.8645  1.3534
  372MPD2     N 5625   1.685   0.622  13.640  0.0734  0.1830 -0.3562
  372MPD2    H5 5626   1.742   0.558  13.695  1.0683  1.3566 -0.0227
  372MPD2    N1 5627   2.101   0.702  13.420  0.3991 -0.2437 -0.0478
  372MPD2    H7 5628   2.142   0.635  13.484  1.2783 -0.2079 -0.5742
  373TMC3    C1 5629   1.512   0.546  13.772 -0.6711  0.6391 -0.3934
  373TMC3    C2 5630   1.430   0.583  13.880 -0.2839 -0.6105 -0.1345
  373TMC3    C3 5631   1.399   0.480  13.964 -0.8552  0.1210 -0.8921
  373TMC3    C4 5632   1.548   0.419  13.748 -0.3513  0.3501 -0.0001
  373TMC3    C5 5633   1.513   0.312  13.830 -0.1145  0.1604 -0.1901
  373TMC3    C6 5634   1.437   0.350  13.942 -0.3219 -0.2265  0.2073
  373TMC3     C 5635   1.549   0.650  13.673  0.0046 -0.1563 -0.4907
  373TMC3     O 5636   1.481   0.742  13.638  0.0309 -0.3267  0.0234
  373TMC3     H 5637   1.392   0.682  13.905  1.0153 -0.3011  0.6427
  373TMC3    H1 5638   1.611   0.401  13.662  0.8827  0.8686  0.7983
  373TMC3    H2 5639   1.421   0.286  14.028  0.2862  1.6860  1.7323
  373TMC3    C7 5640   1.585   0.189  13.827 -0.0058 -0.3371 -0.2241
  373TMC3    C8 5641   1.376   0.512  14.103  0.6387 -0.0007 -0.9763
  373TMC3    O1 5642   1.679   0.200  13.747 -1.1698 -0.0578  0.0638
  373TMC3    O2 5643   1.282   0.457  14.153 -0.2127  0.4296 -0.6210
  374TMC3    C1 5644   2.531   1.326   9.912 -0.0095 -0.5016  0.4430
  374TMC3    C2 5645   2.615   1.416   9.978 -0.6084 -0.5018 -0.0457
  374TMC3    C3 5646   2.749   1.430   9.938  0.7533 -0.3628 -0.7081
  374TMC3    C4 5647   2.573   1.246   9.811  0.0969 -0.0307 -0.7290
  374TMC3    C5 5648   2.707   1.247   9.785 -0.3079 -0.0735 -0.6439
  374TMC3    C6 5649   2.793   1.342   9.836 -0.1088 -0.3071 -0.0162
  374TMC3     C 5650   2.400   1.293   9.971  0.4484  0.8763 -0.6731
  374TMC3     O 5651   2.341   1.207   9.907  0.2941 -0.1537 -0.3206
  374TMC3     H 5652   2.581   1.479  10.059 -2.6807 -0.0850 -1.2403
  374TMC3    H1 5653   2.503   1.177   9.764 -0.4151  0.2000 -0.3087
  374TMC3    H2 5654   2.896   1.350   9.804  0.1052  0.9669  0.9851
  374TMC3    C7 5655   2.757   1.148   9.691 -0.0299 -0.2143 -0.9118
  374TMC3    C8 5656   2.818   1.555   9.963  0.0440 -0.1886 -0.2971
  374TMC3    O1 5657   2.673   1.074   9.645 -0.2115 -0.2584  0.0532
  374TMC3    O2 5658   2.886   1.600   9.872  0.3029  0.2582 -0.2896
  375MPD2     C 5659   2.006   1.291  16.824  0.2088 -0.2016  0.3135
  375MPD2    C1 5660   2.045   1.418  16.840 -0.2880  0.3347 -0.5808
  375MPD2    C2 5661   2.135   1.468  16.750 -0.7376 -0.7514 -0.2180
  375MPD2    C3 5662   2.175   1.395  16.636 -0.6090  0.1993  0.1058
  375MPD2    C4 5663   2.132   1.271  16.621  0.2284  0.2552 -0.1808
  375MPD2    C5 5664   2.047   1.220  16.715  0.3186 -0.1118  0.6518
  375MPD2     H 5665   2.158   1.574  16.756  0.8271 -1.0882 -0.2267
  375MPD2    H1 5666   2.161   1.211  16.535  1.0170  1.6538 -0.8798
  375MPD2    H2 5667   1.942   1.236  16.893 -0.5007 -1.0694 -1.0415
  375MPD2    H3 5668   2.005   1.121  16.699 -1.6146  0.9460 -0.9534
  375MPD2     N 5669   2.261   1.438  16.532  0.6372  0.4400 -0.0027
  375MPD2    H5 5670   2.269   1.378  16.451  0.3821  0.0109  0.2916
  375MPD2    N1 5671   1.989   1.502  16.940  0.2901  0.6953  0.5074
  375MPD2    H7 5672   2.028   1.596  16.944  2.9737 -0.3340 -1.2100
  376TMC3    C1 5673   2.436   1.562  16.443 -0.6536  0.2575 -0.0214
  376TMC3    C2 5674   2.569   1.587  16.467 -0.0519  0.2902  0.3266
  376TMC3    C3 5675   2.644   1.635  16.367 -0.2384 -0.4487 -0.2279
  376TMC3    C4 5676   2.397   1.549  16.319 -0.6903 -0.1276  0.5225
  376TMC3    C5 5677   2.474   1.589  16.218 -0.1130  0.7308 -0.2779
  376TMC3    C6 5678   2.595   1.640  16.240 -0.1738  0.2337  0.0026
  376TMC3     C 5679   2.345   1.549  16.551 -0.4676  0.3227  0.0231
  376TMC3     O 5680   2.367   1.604  16.660 -0.3372 -0.8394 -0.3649
  376TMC3     H 5681   2.606   1.566  16.567 -1.8008 -0.0539  0.8981
  376TMC3    H1 5682   2.293   1.530  16.293 -1.1944  1.9082  1.0655
  376TMC3    H2 5683   2.663   1.668  16.159 -1.6382 -1.0890 -1.6873
  376TMC3    C7 5684   2.411   1.612  16.085 -0.2618  0.0102 -0.2939
  376TMC3    C8 5685   2.784   1.678  16.387 -0.2980  0.1168  0.4906
  376TMC3    O1 5686   2.465   1.694  16.016 -1.0147 -0.0109  0.4124
  376TMC3    O2 5687   2.862   1.689  16.296 -0.7512  1.0195 -0.1619
  377MPD2     C 5688   0.364   1.508  12.468  0.5972  0.2387 -0.6457
  377MPD2    C1 5689   0.453   1.483  12.570 -0.4658  1.2412 -0.0632
  377MPD2    C2 5690   0.405   1.472  12.696 -0.0081  0.5201  0.2948
  377MPD2    C3 5691   0.269   1.482  12.719 -0.2301 -0.0686 -0.6479
  377MPD2    C4 5692   0.179   1.522  12.613  0.6902  0.4022  0.8243
  377MPD2    C5 5693   0.226   1.530  12.488  0.3650 -0.3125  0.2400
  377MPD2     H 5694   0.473   1.434  12.772  2.1973 -1.0569 -2.4690
  377MPD2    H1 5695   0.074   1.513  12.637  0.8786  1.5985  2.1414
  377MPD2    H2 5696   0.409   1.516  12.369 -3.0214 -0.7002 -2.3625
  377MPD2    H3 5697   0.163   1.555  12.404 -1.7369 -2.5249  1.1678
  377MPD2     N 5698   0.202   1.463  12.842 -0.1667 -0.1192 -0.5524
  377MPD2    H5 5699   0.114   1.509  12.864 -0.8361 -0.8849 -1.6301
  377MPD2    N1 5700   0.590   1.478  12.538  0.1731 -0.4643 -0.0577
  377MPD2    H7 5701   0.615   1.515  12.447  2.7203 -0.8373  0.5095
  378TMC3    C1 5702   0.961   1.521  12.395  0.2623  0.4179  0.6827
  378TMC3    C2 5703   0.836   1.525  12.450 -0.6041  0.6524 -0.1659
  378TMC3    C3 5704   0.811   1.432  12.545  0.6238 -0.2422  0.2321
  378TMC3    C4 5705   1.054   1.421  12.429 -0.6675 -0.5453 -0.3823
  378TMC3    C5 5706   1.014   1.327  12.522  0.1248  0.0275  0.6075
  378TMC3    C6 5707   0.896   1.332  12.584 -0.2754  0.1654 -0.6130
  378TMC3     C 5708   0.997   1.630  12.304  0.8193  0.2880  0.3441
  378TMC3     O 5709   0.915   1.715  12.282  1.0512  0.4378 -0.0756
  378TMC3     H 5710   0.767   1.608  12.440 -2.1666 -0.4373  1.5857
  378TMC3    H1 5711   1.130   1.409  12.352 -0.8073 -3.0797 -0.1199
  378TMC3    H2 5712   0.880   1.257  12.661  0.7571 -3.3670 -3.8444
  378TMC3    C7 5713   1.099   1.214  12.544 -0.0031 -0.2260  0.1395
  378TMC3    C8 5714   0.690   1.432  12.617 -0.1464 -0.6580 -0.0593
  378TMC3    O1 5715   1.051   1.121  12.605  0.4865 -0.2746 -0.3827
  378TMC3    O2 5716   0.691   1.386  12.730  0.7696 -0.7598 -0.1335
  379MPD2     C 5717   1.515   4.234  16.412 -0.0791 -0.1878 -0.1566
  379MPD2    C1 5718   1.411   4.189  16.489 -0.1347  0.8340  0.2182
  379MPD2    C2 5719   1.435   4.118  16.609 -0.1336  0.3023  0.4458
  379MPD2    C3 5720   1.567   4.101  16.652  0.0119  0.5366 -0.4259
  379MPD2    C4 5721   1.668   4.144  16.570  0.4099  0.3608  0.1583
  379MPD2    C5 5722   1.639   4.208  16.448 -0.3638  0.0868 -0.0559
  379MPD2     H 5723   1.358   4.068  16.667 -0.9627 -1.0468 -1.8225
  379MPD2    H1 5724   1.773   4.134  16.598  0.8064 -1.0342 -1.8371
  379MPD2    H2 5725   1.491   4.275  16.315  3.4406 -0.4468 -1.1378
  379MPD2    H3 5726   1.716   4.245  16.381  1.3084 -1.0685  1.2035
  379MPD2     N 5727   1.604   4.035  16.773  0.6383  0.6465 -0.2877
  379MPD2    H5 5728   1.704   4.020  16.781 -0.1221 -2.4469  3.1108
  379MPD2    N1 5729   1.287   4.203  16.431 -0.0939  0.3516 -0.0861
  379MPD2    H7 5730   1.286   4.235  16.335  0.3045  0.4341 -0.0602
  380TMC3    C1 5731   1.064   4.176  16.385  0.2710  0.0627 -0.1599
  380TMC3    C2 5732   1.093   4.094  16.284 -0.5047 -0.8576 -0.3855
  380TMC3    C3 5733   1.004   4.086  16.182  0.0148 -0.1039  0.5082
  380TMC3    C4 5734   0.948   4.242  16.388 -0.0811 -0.0996  0.0660
  380TMC3    C5 5735   0.856   4.228  16.290  0.6625  0.5181 -0.0562
  380TMC3    C6 5736   0.889   4.150  16.181  0.3111 -0.4605  0.2566
  380TMC3     C 5737   1.162   4.184  16.491 -0.0667  0.2924  0.2984
  380TMC3     O 5738   1.117   4.183  16.606 -0.2328  0.5186 -0.6590
  380TMC3     H 5739   1.176   4.024  16.286  0.8482  0.8235  2.0681
  380TMC3    H1 5740   0.946   4.309  16.473 -1.7242  2.0130 -1.6271
  380TMC3    H2 5741   0.842   4.156  16.083  3.4433  1.0929 -1.1570
  380TMC3    C7 5742   0.744   4.319  16.279 -0.6022  0.4068  0.3205
  380TMC3    C8 5743   1.059   4.045  16.056  0.1449 -0.5849 -0.6274
  380TMC3    O1 5744   0.759   4.424  16.346  0.1356 -0.1541  0.2922
  380TMC3    O2 5745   1.176   4.076  16.036 -0.3506  0.0535  0.0500
  381TMC3    C1 5746   0.726   0.521  16.545  0.5536  0.1457 -0.2668
  381TMC3    C2 5747   0.754   0.646  16.486  0.1027  1.2679 -0.4489
  381TMC3    C3 5748   0.738   0.766  16.553  0.1266 -0.2954 -0.4922
  381TMC3    C4 5749   0.681   0.523  16.678 -0.5516 -0.0410 -0.1259
  381TMC3    C5 5750   0.667   0.645  16.741  0.0986 -0.6531  0.1724
  381TMC3    C6 5751   0.685   0.770  16.680 -1.1156 -0.1533  0.4278
  381TMC3     C 5752   0.735   0.403  16.461  0.7669  0.1733  0.5407
  381TMC3     O 5753   0.747   0.293  16.521 -0.1968 -0.6010  0.4382
  381TMC3     H 5754   0.808   0.645  16.392  2.1578 -0.8304  0.7280
  381TMC3    H1 5755   0.672   0.432  16.735  2.0093 -0.5143 -0.4445
  381TMC3    H2 5756   0.677   0.864  16.733  0.0218  1.3028 -1.9783
  381TMC3    C7 5757   0.626   0.631  16.885  0.2096 -0.3854  0.6413
  381TMC3    C8 5758   0.832   0.870  16.508  0.8460 -0.2076 -0.0377
  381TMC3    O1 5759   0.686   0.546  16.949  0.3714  0.3928  0.3370
  381TMC3    O2 5760   0.918   0.837  16.431  0.2886 -0.4973  0.0058
  382MPD2     C 5761   0.290   3.045  17.197 -0.2919  0.7236 -0.0287
  382MPD2    C1 5762   0.204   3.130  17.256 -0.5829 -0.4422  0.1708
  382MPD2    C2 5763   0.103   3.086  17.337 -0.4206 -0.5183  0.2468
  382MPD2    C3 5764   0.079   2.956  17.344 -0.2735  0.4241 -0.6448
  382MPD2    C4 5765   0.172   2.867  17.295 -0.3888  0.1270  0.3386
  382MPD2    C5 5766   0.280   2.910  17.218  0.4465 -0.0772  0.7222
  382MPD2     H 5767   0.029   3.153  17.380 -0.9137 -1.3861  0.7450
  382MPD2    H1 5768   0.160   2.762  17.321 -1.7016  0.2960  0.4166
  382MPD2    H2 5769   0.377   3.074  17.138 -1.8544  0.8566 -2.2801
  382MPD2    H3 5770   0.355   2.840  17.185  0.5247 -0.5870  1.9992
  382MPD2     N 5771   4.693   2.915  17.404 -0.2838 -0.3472 -0.1399
  382MPD2    H5 5772   4.636   2.991  17.439 -1.2941 -0.6570 -1.1023
  382MPD2    N1 5773   0.217   3.269  17.229  0.1917  0.1748  0.0801
  382MPD2    H7 5774   0.156   3.333  17.278  1.5522  1.1466  0.5029
  383TMC3    C1 5775   4.505   2.782  17.455  0.4702 -0.6472 -0.3304
  383TMC3    C2 5776   4.432   2.684  17.399 -0.9987 -0.6831 -0.1098
  383TMC3    C3 5777   4.295   2.668  17.439  0.0954  0.5699  0.6735
  383TMC3    C4 5778   4.450   2.869  17.545 -0.3167 -0.4720  0.2742
  383TMC3    C5 5779   4.327   2.842  17.594 -0.1714 -0.4877  0.1812
  383TMC3    C6 5780   4.242   2.749  17.537  0.3704 -0.0090 -0.1101
  383TMC3     C 5781   4.642   2.793  17.415  0.2341 -0.3419 -0.4468
  383TMC3     O 5782   4.701   2.683  17.396  0.1631 -0.1788  0.4849
  383TMC3     H 5783   4.477   2.615  17.329  0.5996  0.6980 -0.4463
  383TMC3    H1 5784   4.509   2.952  17.582 -0.2538  0.1155 -1.1162
  383TMC3    H2 5785   4.142   2.729  17.572 -0.1052  0.3841 -1.2371
  383TMC3    C7 5786   4.270   2.921  17.701 -0.1598 -0.1199 -0.3034
  383TMC3    C8 5787   4.206   2.579  17.372  0.1837  0.0917  0.1580
  383TMC3    O1 5788   4.329   3.030  17.715 -0.6210  0.1983  0.6570
  383TMC3    O2 5789   4.087   2.608  17.386  0.0985  0.4747  0.2794
  384MPD2     C 5790   1.445   3.844  12.127  0.1032 -0.3425  0.5311
  384MPD2    C1 5791   1.562   3.895  12.186 -0.3959 -0.0640  0.2955
  384MPD2    C2 5792   1.677   3.864  12.119 -0.6140 -0.5040 -1.2307
  384MPD2    C3 5793   1.676   3.783  12.007  0.2102  0.3031  0.2864
  384MPD2    C4 5794   1.559   3.736  11.956  0.3905  0.0519 -0.3002
  384MPD2    C5 5795   1.440   3.763  12.018 -0.1327 -0.1183 -0.3743
  384MPD2     H 5796   1.774   3.891  12.160 -1.4551 -1.3239  1.3099
  384MPD2    H1 5797   1.550   3.666  11.874 -0.3262 -0.3992  0.1600
  384MPD2    H2 5798   1.352   3.869  12.177  1.3572  2.8948  1.1950
  384MPD2    H3 5799   1.343   3.730  11.981  0.1105  1.1315 -2.1129
  384MPD2     N 5800   1.795   3.755  11.937 -0.0839 -0.0188  0.0111
  384MPD2    H5 5801   1.787   3.674  11.875 -0.5356 -0.1815  0.2835
  384MPD2    N1 5802   1.551   3.971  12.301 -0.1853  0.5623 -0.0741
  384MPD2    H7 5803   1.461   3.963  12.348  0.1187  0.2786  0.4549
  385TMC3    C1 5804   2.021   3.760  11.893 -0.1634  0.7081 -0.1146
  385TMC3    C2 5805   2.014   3.620  11.896  0.6455 -0.2160  0.3317
  385TMC3    C3 5806   2.130   3.559  11.943 -0.1579  0.2264  0.1219
  385TMC3    C4 5807   2.135   3.831  11.912  0.6084  0.2738  0.1351
  385TMC3    C5 5808   2.249   3.767  11.952 -0.5639  0.1223  0.3573
  385TMC3    C6 5809   2.247   3.634  11.971 -0.1773  0.3565  0.3523
  385TMC3     C 5810   1.912   3.830  11.948 -1.1738  0.2844 -0.7543
  385TMC3     O 5811   1.938   3.934  12.007  0.3629  0.0030 -0.1430
  385TMC3     H 5812   1.922   3.565  11.906 -0.2044  0.8455 -1.6570
  385TMC3    H1 5813   2.144   3.938  11.896 -1.5349  0.4782  0.3291
  385TMC3    H2 5814   2.334   3.577  12.002  0.3015  1.9220  1.9269
  385TMC3    C7 5815   2.325   3.827  12.060  0.3486  0.4769 -0.1240
  385TMC3    C8 5816   2.132   3.416  11.982 -0.3707  0.1540  0.7784
  385TMC3    O1 5817   2.427   3.776  12.105 -0.1005 -0.1980 -0.3463
  385TMC3    O2 5818   2.217   3.371  12.057 -0.2691 -0.2842  0.6158
  386TMC3    C1 5819   2.492   1.326  12.152  0.7046 -0.4963  0.5626
  386TMC3    C2 5820   2.511   1.412  12.049 -0.0267 -0.8010 -0.1286
  386TMC3    C3 5821   2.444   1.537  12.057 -0.4282 -0.1518 -0.0622
  386TMC3    C4 5822   2.425   1.363  12.266 -0.2076  0.0955 -0.4117
  386TMC3    C5 5823   2.373   1.491  12.269 -0.1848 -0.3147 -0.9415
  386TMC3    C6 5824   2.385   1.585  12.168  0.7537 -0.3196 -0.5285
  386TMC3     C 5825   2.589   1.213  12.146 -0.4868  0.2459 -0.5074
  386TMC3     O 5826   2.696   1.239  12.093  0.3605  0.5572  0.5661
  386TMC3     H 5827   2.556   1.370  11.959  1.1162 -0.2610  0.1961
  386TMC3    H1 5828   2.417   1.301  12.354  0.1908  1.0812  0.3262
  386TMC3    H2 5829   2.343   1.684  12.163  0.1859 -0.4562  1.5773
  386TMC3    C7 5830   2.297   1.537  12.381 -0.3510 -0.9646 -0.2588
  386TMC3    C8 5831   2.423   1.619  11.937  0.8035 -0.0420  0.2584
  386TMC3    O1 5832   2.293   1.660  12.399  0.1449  0.4082  0.2974
  386TMC3    O2 5833   2.412   1.739  11.953 -0.3969  0.4363  0.2948
  387MPD2     C 5834   4.144   1.054   9.851  0.0108 -0.3932  0.1991
  387MPD2    C1 5835   4.276   1.091   9.868  0.2011  0.5035 -0.5595
  387MPD2    C2 5836   4.378   1.003   9.851 -0.3058  0.0759 -0.2259
  387MPD2    C3 5837   4.353   0.877   9.803  0.3959 -0.1050  0.1027
  387MPD2    C4 5838   4.219   0.835   9.779 -0.2677 -0.4115  0.8482
  387MPD2    C5 5839   4.119   0.926   9.806  0.2149 -0.6596 -0.2216
  387MPD2     H 5840   4.483   1.022   9.872 -0.7277  0.5908  1.4096
  387MPD2    H1 5841   4.195   0.735   9.746  1.2019 -0.2421 -0.7292
  387MPD2    H2 5842   4.053   1.110   9.871  0.3061 -0.5816  2.1201
  387MPD2    H3 5843   4.017   0.891   9.800 -0.5547  1.1425  2.2709
  387MPD2     N 5844   4.454   0.780   9.805 -0.7124 -0.3668 -0.2200
  387MPD2    H5 5845   4.547   0.814   9.829 -1.2577  0.4279  0.7789
  387MPD2    N1 5846   4.312   1.219   9.918  0.1316  0.2327  0.3762
  387MPD2    H7 5847   4.412   1.233   9.927  0.4422 -1.0076 -1.0514
  388TMC3    C1 5848   4.309   1.402  10.049  0.5928  0.1977 -0.6116
  388TMC3    C2 5849   4.288   1.538  10.043 -0.5083 -0.1311  0.6008
  388TMC3    C3 5850   4.370   1.623  10.111  0.0853  0.5475 -0.1827
  388TMC3    C4 5851   4.415   1.347  10.114  0.2238 -0.3894 -0.9246
  388TMC3    C5 5852   4.503   1.441  10.173 -0.0457  0.5401 -0.8583
  388TMC3    C6 5853   4.482   1.578  10.180 -0.4272  1.0014 -0.9451
  388TMC3     C 5854   4.230   1.313   9.965 -0.6324 -0.6898 -0.3480
  388TMC3     O 5855   4.110   1.323   9.971  0.7825 -0.6679 -0.5963
  388TMC3     H 5856   4.206   1.582   9.987  0.1562 -1.0174 -1.0888
  388TMC3    H1 5857   4.431   1.240  10.116 -0.2711 -0.4507 -0.4388
  388TMC3    H2 5858   4.550   1.649  10.225 -2.0300  1.9215  0.0121
  388TMC3    C7 5859   4.634   1.386  10.209  0.4044  0.0903 -0.5691
  388TMC3    C8 5860   4.374   1.766  10.065 -0.5321  0.0864 -0.3262
  388TMC3    O1 5861   4.693   1.440  10.302 -0.1989 -0.4821 -0.6205
  388TMC3    O2 5862   4.491   1.807  10.060  1.2746 -0.8335  0.2870
  389MPD2     C 5863   3.987   4.567  11.392 -0.2664 -0.4321 -0.0291
  389MPD2    C1 5864   3.943   4.498  11.277 -0.3394 -0.1328  0.2591
  389MPD2    C2 5865   3.879   4.382  11.295  0.3671  0.1966 -1.1566
  389MPD2    C3 5866   3.851   4.335  11.418  0.1715  0.0940 -0.1248
  389MPD2    C4 5867   3.893   4.397  11.533  0.4452 -0.1545  0.2901
  389MPD2    C5 5868   3.959   4.518  11.519 -0.3819  0.0099 -0.2536
  389MPD2     H 5869   3.841   4.334  11.205  1.1421  1.8169 -2.3344
  389MPD2    H1 5870   3.873   4.363  11.634 -0.1101  1.1395  0.6107
  389MPD2    H2 5871   4.046   4.658  11.381  2.2058 -2.0838 -0.2703
  389MPD2    H3 5872   3.990   4.574  11.607  1.2819  0.0066 -0.8543
  389MPD2     N 5873   3.778   4.216  11.436 -0.8347  0.2631  0.2859
  389MPD2    H5 5874   3.759   4.188  11.531  0.2496  3.3348  1.3948
  389MPD2    N1 5875   3.972   4.565  11.156  0.6010 -0.2956 -0.5458
  389MPD2    H7 5876   4.046   4.634  11.163  1.2652 -0.9907 -0.7101
  390TMC3    C1 5877   3.661   4.018  11.396  0.0637 -0.3832  0.0873
  390TMC3    C2 5878   3.694   3.957  11.513  0.3197  0.2537 -0.0507
  390TMC3    C3 5879   3.621   3.845  11.547  0.4346 -0.7195  0.6486
  390TMC3    C4 5880   3.565   3.972  11.317 -0.1253 -0.1594 -0.4002
  390TMC3    C5 5881   3.507   3.852  11.344 -0.4435  0.0187 -0.0569
  390TMC3    C6 5882   3.531   3.785  11.463  0.5044 -0.2857 -0.4944
  390TMC3     C 5883   3.730   4.133  11.338 -0.9359  0.1725  0.0629
  390TMC3     O 5884   3.719   4.156  11.219  0.2185 -0.4611 -1.0686
  390TMC3     H 5885   3.776   4.001  11.569  2.3549 -0.7325 -2.2207
  390TMC3    H1 5886   3.546   4.021  11.222  2.9772  0.7663 -0.5225
  390TMC3    H2 5887   3.495   3.685  11.486 -0.7540  0.9889  3.1138
  390TMC3    C7 5888   3.386   3.823  11.279  0.9843 -0.4209 -0.2026
  390TMC3    C8 5889   3.660   3.757  11.650 -0.3378  0.9546  0.6105
  390TMC3    O1 5890   3.390   3.854  11.157 -0.2628 -0.3206 -0.7319
  390TMC3    O2 5891   3.696   3.641  11.615 -0.0840 -0.1568 -0.2738
  391MPD2     C 5892   3.154   1.459  11.497 -0.1841  0.7606  0.1886
  391MPD2    C1 5893   3.260   1.531  11.454  0.0417  0.1811  0.5810
  391MPD2    C2 5894   3.264   1.593  11.333  0.1036  0.7233 -0.1993
  391MPD2    C3 5895   3.149   1.584  11.249 -0.4382  0.4749 -0.7531
  391MPD2    C4 5896   3.037   1.518  11.292  0.7358 -0.1208  0.0144
  391MPD2    C5 5897   3.048   1.447  11.412 -0.2995 -0.3800 -0.4413
  391MPD2     H 5898   3.359   1.632  11.299 -0.1786  2.6221  1.1864
  391MPD2    H1 5899   2.943   1.512  11.238 -0.9500  2.5825  2.6242
  391MPD2    H2 5900   3.143   1.410  11.593  0.4952  0.0879 -0.0820
  391MPD2    H3 5901   2.968   1.383  11.448  0.4282 -1.1842 -0.2431
  391MPD2     N 5902   3.164   1.646  11.119  0.3295  0.0177 -1.0237
  391MPD2    H5 5903   3.239   1.711  11.097  2.1166 -1.9401 -0.6104
  391MPD2    N1 5904   3.369   1.571  11.536  0.3699 -0.1027  0.6554
  391MPD2    H7 5905   3.441   1.632  11.498 -0.1743  0.1623  0.0426
  392TMC3    C1 5906   3.096   1.733  10.914  0.0998  0.3027  0.1661
  392TMC3    C2 5907   3.061   1.701  10.789 -0.0352 -0.4901  0.5667
  392TMC3    C3 5908   3.087   1.788  10.693 -0.5943  0.5484  0.1597
  392TMC3    C4 5909   3.147   1.862  10.952  0.3158  0.3637  0.2765
  392TMC3    C5 5910   3.151   1.955  10.860  0.0379 -0.0487 -0.9294
  392TMC3    C6 5911   3.130   1.916  10.726 -0.2650  0.2588  0.4064
  392TMC3     C 5912   3.071   1.638  11.018  0.3485 -0.3868 -0.2245
  392TMC3     O 5913   2.965   1.579  11.017  0.0326  0.1167 -0.0469
  392TMC3     H 5914   3.024   1.600  10.774 -0.6343 -0.2538  0.4648
  392TMC3    H1 5915   3.168   1.889  11.055  0.2827  0.2399  0.3155
  392TMC3    H2 5916   3.140   1.993  10.651  1.7974 -0.0956  0.3229
  392TMC3    C7 5917   3.223   2.076  10.895  1.0701 -0.5452 -0.0893
  392TMC3    C8 5918   3.024   1.758  10.568 -0.1224 -0.4175 -0.0014
  392TMC3    O1 5919   3.278   2.075  11.005  0.1450  0.3151 -0.0992
  392TMC3    O2 5920   2.943   1.666  10.566  0.2748 -0.0417  0.2917
  393TMC3    C1 5921   1.405   4.247  11.258  0.5522 -0.2627  0.4855
  393TMC3    C2 5922   1.280   4.235  11.317  0.8722  0.6080 -1.0006
  393TMC3    C3 5923   1.252   4.112  11.370  0.0872 -0.2395 -0.8748
  393TMC3    C4 5924   1.504   4.157  11.255 -0.0317  0.4948  0.3249
  393TMC3    C5 5925   1.472   4.035  11.313  0.1562  0.9051  0.8371
  393TMC3    C6 5926   1.344   4.007  11.357 -0.2058 -0.6394  0.9868
  393TMC3     C 5927   1.452   4.379  11.222 -0.5467  0.4481  0.2414
  393TMC3     O 5928   1.375   4.454  11.165 -0.1104 -0.0151 -0.1895
  393TMC3     H 5929   1.212   4.320  11.313  0.1446  0.0195 -1.0952
  393TMC3    H1 5930   1.599   4.184  11.211  0.4329 -1.7845 -0.0728
  393TMC3    H2 5931   1.327   3.908  11.398  1.7345 -1.0670  0.7798
  393TMC3    C7 5932   1.554   3.927  11.283 -0.2994  0.8867 -0.2109
  393TMC3    C8 5933   1.139   4.077  11.452  0.3324 -0.8367  0.1046
  393TMC3    O1 5934   1.503   3.820  11.246  0.1298  0.1770  0.2590
  393TMC3    O2 5935   1.156   3.972  11.521  0.2622 -0.3456 -0.0970
  394TMC3    C1 5936   3.981   4.598  10.918 -0.3342  0.3275 -0.7769
  394TMC3    C2 5937   3.908   4.579  10.808 -0.3154  0.8421 -0.3184
  394TMC3    C3 5938   3.937   4.666  10.703 -0.1913 -0.2832  0.1347
  394TMC3    C4 5939   4.088   4.679  10.926 -0.0660  0.9819 -0.0823
  394TMC3    C5 5940   4.127   0.010  10.812  0.9389  0.7486  0.0237
  394TMC3    C6 5941   4.048   0.011  10.701  0.8174 -0.2590  0.1261
  394TMC3     C 5942   3.931   4.524  11.033 -1.1672 -0.2880  0.6957
  394TMC3     O 5943   3.854   4.437  10.996 -0.4954 -0.0439 -0.2505
  394TMC3     H 5944   3.809   4.533  10.810 -0.0663  0.3361  0.4905
  394TMC3    H1 5945   4.145   4.691  11.018 -1.3812  1.3786  0.6726
  394TMC3    H2 5946   4.064   0.067  10.610 -2.2927 -0.3355 -0.4820
  394TMC3    C7 5947   4.232   0.106  10.830 -0.4032 -0.2351 -1.3966
  394TMC3    C8 5948   3.900   4.616  10.571  0.2812  0.1688 -0.1517
  394TMC3    O1 5949   4.279   0.135  10.938 -0.6560 -0.0322  0.2387
  394TMC3    O2 5950   3.840   4.686  10.494 -0.0325 -0.1244 -0.5216
  395TMC3    C1 5951   3.239   1.765  14.418 -0.3116  0.3870  1.0310
  395TMC3    C2 5952   3.126   1.837  14.376 -0.0056  0.5585  0.0173
  395TMC3    C3 5953   3.122   1.976  14.397  0.2094 -0.8183  0.9715
  395TMC3    C4 5954   3.347   1.817  14.480  0.0366 -0.3728  0.1365
  395TMC3    C5 5955   3.340   1.959  14.492 -0.1644 -0.1026 -0.4916
  395TMC3    C6 5956   3.237   2.036  14.444 -0.2910  0.0137  0.9799
  395TMC3     C 5957   3.216   1.628  14.465 -1.0597  0.0692 -0.0461
  395TMC3     O 5958   3.275   1.583  14.561 -0.0283  0.1955 -0.7398
  395TMC3     H 5959   3.035   1.798  14.333  0.2544  1.1440 -1.0472
  395TMC3    H1 5960   3.426   1.762  14.529  0.0570  0.6119  1.1954
  395TMC3    H2 5961   3.253   2.143  14.438  0.9858 -0.2500 -0.3471
  395TMC3    C7 5962   3.439   2.029  14.569  0.4848 -0.1859  0.1077
  395TMC3    C8 5963   3.011   2.025  14.485 -0.2779 -0.1899 -0.2047
  395TMC3    O1 5964   3.405   2.141  14.607 -0.1392 -0.1404  0.0086
  395TMC3    O2 5965   3.038   2.121  14.551  0.0147 -1.0103  0.3870
  396MPD2     C 5966   2.763   2.750  17.678 -0.0503  0.5351 -0.8449
  396MPD2    C1 5967   2.870   2.802  17.614 -0.2358  0.1752 -0.1468
  396MPD2    C2 5968   2.854   2.917  17.538  0.0445 -0.4229 -0.5490
  396MPD2    C3 5969   2.734   2.987  17.541 -0.2973  0.0017  0.0189
  396MPD2    C4 5970   2.632   2.935  17.614 -0.3457 -0.0899  0.1163
  396MPD2    C5 5971   2.643   2.819  17.672  0.3786  0.2241 -0.8041
  396MPD2     H 5972   2.935   2.980  17.502  0.7022 -0.1856  1.3546
  396MPD2    H1 5973   2.532   2.979  17.615  0.8023  2.5364  0.2772
  396MPD2    H2 5974   2.775   2.665  17.745  1.4207 -0.3123 -2.1778
  396MPD2    H3 5975   2.557   2.772  17.717  0.8776 -0.5974 -0.7053
  396MPD2     N 5976   2.738   3.108  17.466 -0.1334  0.6746 -0.6501
  396MPD2    H5 5977   2.829   3.142  17.436 -0.3017  1.6862 -0.0277
  396MPD2    N1 5978   2.998   2.740  17.634 -0.4150  0.7270 -0.1263
  396MPD2    H7 5979   3.003   2.670  17.707  1.6995  1.7531  0.7001
  397TMC3    C1 5980   3.226   2.688  17.599  0.1150  0.1339 -0.0880
  397TMC3    C2 5981   3.317   2.676  17.493 -0.6316  0.0707 -0.0706
  397TMC3    C3 5982   3.341   2.545  17.446 -0.3198 -0.1150 -0.1250
  397TMC3    C4 5983   3.188   2.581  17.671  0.0433  0.0873  0.1512
  397TMC3    C5 5984   3.230   2.459  17.633  0.5299 -0.7957  0.2027
  397TMC3    C6 5985   3.304   2.439  17.519  0.2963  0.0130  0.3055
  397TMC3     C 5986   3.111   2.774  17.564 -0.2472 -0.8122 -0.3604
  397TMC3     O 5987   3.116   2.826  17.454 -0.2376  0.0679 -0.2865
  397TMC3     H 5988   3.322   2.753  17.417  0.4563 -2.8467 -2.9808
  397TMC3    H1 5989   3.159   2.604   0.022  2.5702  2.9651  0.2235
  397TMC3    H2 5990   3.333   2.337  17.496 -2.1204 -0.6198  0.0554
  397TMC3    C7 5991   3.144   2.351  17.671  0.4775 -0.2327  0.5947
  397TMC3    C8 5992   3.335   2.528  17.304 -0.4044 -0.0100 -0.1927
  397TMC3    O1 5993   3.155   2.246  17.606  0.1979 -0.0188 -0.8435
  397TMC3    O2 5994   3.363   2.623  17.233  0.0072 -0.4639 -0.4167
  398MPD2     C 5995   1.293   4.425   0.542 -0.4343 -0.5616  0.1898
  398MPD2    C1 5996   1.319   4.325   0.630  0.0958 -1.0255  0.1893
  398MPD2    C2 5997   1.421   4.341   0.721 -0.5065  0.4902  0.2974
  398MPD2    C3 5998   1.514   4.447   0.705  0.2132  0.2564 -0.2295
  398MPD2    C4 5999   1.482   4.546   0.620 -0.8178  0.0099  0.8030
  398MPD2    C5 6000   1.376   4.530   0.534 -0.2609 -0.5171 -0.5341
  398MPD2     H 6001   1.447   4.266   0.795  0.7444 -0.6262 -1.2896
  398MPD2    H1 6002   1.541   4.635   0.598 -0.8560  0.1091  1.1004
  398MPD2    H2 6003   1.205   4.427   0.479 -0.3163  0.8221  0.0618
  398MPD2    H3 6004   1.357   4.612   0.466  1.5105  1.3332  1.2156
  398MPD2     N 6005   1.637   4.438   0.782 -0.0018 -0.5843 -0.2941
  398MPD2    H5 6006   1.650   4.368   0.854 -1.9136 -0.2965  0.3226
  398MPD2    N1 6007   1.251   4.200   0.625 -0.0865  0.7225 -0.1173
  398MPD2    H7 6008   1.290   4.134   0.692 -1.2533 -0.3228 -0.4698
  399TMC3    C1 6009   1.106   4.022   0.551  0.1673 -0.1884 -0.4303
  399TMC3    C2 6010   1.072   3.990   0.678  0.0246 -0.1064 -0.3237
  399TMC3    C3 6011   0.991   3.884   0.699 -0.1334 -0.2633 -0.0042
  399TMC3    C4 6012   1.033   3.970   0.454 -0.3429  0.2033  0.2870
  399TMC3    C5 6013   0.936   3.879   0.475 -0.7741  1.0810 -0.5636
  399TMC3    C6 6014   0.921   3.823   0.598 -0.1150  0.2892  0.0539
  399TMC3     C 6015   1.160   4.158   0.529  0.4299  0.3326 -0.8505
  399TMC3     O 6016   1.110   4.226   0.443 -0.2227 -0.0622 -0.1189
  399TMC3     H 6017   1.118   4.055   0.752  0.1822 -0.4261 -0.1414
  399TMC3    H1 6018   1.040   4.022   0.359  1.0045 -0.4186  0.0378
  399TMC3    H2 6019   0.852   3.740   0.614  0.0409 -0.0197 -0.8977
  399TMC3    C7 6020   0.854   3.831   0.368 -0.2066  0.7155 -0.9283
  399TMC3    C8 6021   0.997   3.834   0.833  0.2297 -0.6052 -0.1421
  399TMC3    O1 6022   0.750   3.771   0.397  0.1785 -0.1466 -0.6055
  399TMC3    O2 6023   1.102   3.856   0.894 -0.3374 -0.0854  0.6808
  400TMC3    C1 6024   4.513   2.389  16.956  0.2068 -0.9677  0.4448
  400TMC3    C2 6025   4.400   2.377  16.875  0.0188  0.8618 -0.5920
  400TMC3    C3 6026   4.310   2.478  16.864 -0.0235  0.3995 -0.1830
  400TMC3    C4 6027   4.539   2.509  17.007 -0.3700 -0.0674 -0.4013
  400TMC3    C5 6028   4.450   2.612  16.980 -0.3770  0.2766 -0.0474
  400TMC3    C6 6029   4.333   2.602  16.916 -0.0763 -0.9496 -0.3108
  400TMC3     C 6030   4.562   2.276  17.028 -0.0142  0.3242 -0.1536
  400TMC3     O 6031   4.624   2.301  17.136 -0.2520 -0.8551 -0.2667
  400TMC3     H 6032   4.362   2.276  16.865 -0.1342  0.6504  2.2833
  400TMC3    H1 6033   4.630   2.521  17.064  0.3451  0.8636 -1.7303
  400TMC3    H2 6034   4.271   2.684  16.882  1.5206  1.1319  1.8402
  400TMC3    C7 6035   4.495   2.741  17.045 -0.9171  0.0477 -0.0039
  400TMC3    C8 6036   4.182   2.458  16.793 -0.7233 -0.0352 -0.0902
  400TMC3    O1 6037   4.610   2.745  17.096  0.0983 -0.2972 -0.1404
  400TMC3    O2 6038   4.103   2.550  16.801 -0.3377 -0.3916 -0.4035
  401MPD2     C 6039   2.589   0.991  17.408  0.1702 -0.0035 -0.6306
  401MPD2    C1 6040   2.670   0.945  17.507 -0.1127 -0.1630  0.5560
  401MPD2    C2 6041   2.652   0.815  17.551 -0.4578  0.0815  0.4915
  401MPD2    C3 6042   2.540   0.738  17.511 -0.0950  0.4569 -0.2988
  401MPD2    C4 6043   2.455   0.790  17.414 -0.1272 -0.2407  0.2740
  401MPD2    C5 6044   2.483   0.912  17.361  0.0053  0.4467 -0.5560
  401MPD2     H 6045   2.709   0.770  17.631 -0.3856  1.5416  1.2671
  401MPD2    H1 6046   2.374   0.731  17.373  0.9095 -0.9946 -0.7022
  401MPD2    H2 6047   2.600   1.092  17.370  1.0203 -0.0978 -0.6434
  401MPD2    H3 6048   2.412   0.960  17.295 -2.4571  0.6139  2.1850
  401MPD2     N 6049   2.518   0.615  17.570 -0.5505 -0.5837  0.3790
  401MPD2    H5 6050   2.582   0.598  17.647  0.5049 -0.5693 -0.4882
  401MPD2    N1 6051   2.774   1.020  17.567  0.2153  0.8074  0.3578
  401MPD2    H7 6052   2.833   0.978  17.638  0.7089 -0.3976 -0.7584
  402TMC3    C1 6053   2.468   0.392  17.628 -0.0570  0.3051  0.3122
  402TMC3    C2 6054   2.459   0.428   0.013  0.2129  0.4468 -0.3680
  402TMC3    C3 6055   2.529   0.351   0.096  0.2304  0.4677 -0.6055
  402TMC3    C4 6056   2.545   0.291  17.582 -0.1236  0.3097 -0.3056
  402TMC3    C5 6057   2.625   0.222  17.673 -0.2148  0.1584 -0.3267
  402TMC3    C6 6058   2.615   0.251   0.055 -0.6796  0.5139 -0.2001
  402TMC3     C 6059   2.459   0.502  17.528 -0.3256 -0.9415  0.0660
  402TMC3     O 6060   2.439   0.469  17.410 -0.2817  0.1233  0.6984
  402TMC3     H 6061   2.401   0.518   0.031  0.6718  0.4767  0.9722
  402TMC3    H1 6062   2.555   0.276  17.475  0.8166 -2.1784  0.1352
  402TMC3    H2 6063   2.658   0.187   0.132 -2.3110  1.4897  1.5381
  402TMC3    C7 6064   2.707   0.111  17.627  0.0731 -0.7863 -0.6119
  402TMC3    C8 6065   2.557   0.404   0.232 -0.3472  0.8070  0.1172
  402TMC3    O1 6066   2.679   0.050  17.522  0.2177 -0.6535  0.0276
  402TMC3    O2 6067   2.648   0.346   0.288 -0.1822  0.3958  0.1815
  403MPD2     C 6068   1.686   3.159  13.246  0.5503 -0.5720  0.4509
  403MPD2    C1 6069   1.635   3.267  13.310  0.1164  0.5808 -0.6419
  403MPD2    C2 6070   1.722   3.354  13.371  0.5889  0.5643  0.4409
  403MPD2    C3 6071   1.847   3.309  13.392 -0.1166  0.5305 -0.0441
  403MPD2    C4 6072   1.899   3.192  13.328 -0.2575  0.1929 -0.6862
  403MPD2    C5 6073   1.816   3.117  13.250  0.1119 -0.9762  0.4734
  403MPD2     H 6074   1.686   3.448  13.410 -1.5283  0.5427 -1.4449
  403MPD2    H1 6075   2.002   3.160  13.338 -1.0348 -1.3806  2.2604
  403MPD2    H2 6076   1.613   3.102  13.190  0.4923 -0.3462  0.2965
  403MPD2    H3 6077   1.862   3.033  13.199 -0.7989 -0.2523 -1.5436
  403MPD2     N 6078   1.925   3.396  13.476  0.3491  0.2104  0.4345
  403MPD2    H5 6079   1.880   3.481  13.508 -0.1506 -0.0248  0.3706
  403MPD2    N1 6080   1.492   3.281  13.310  0.1605 -0.3508  0.1141
  403MPD2    H7 6081   1.431   3.215  13.265 -2.7397  2.6351 -0.3209
  404TMC3    C1 6082   1.280   3.376  13.373 -0.3014  0.1384  0.1326
  404TMC3    C2 6083   1.227   3.375  13.500  0.2714  0.1472  0.2087
  404TMC3    C3 6084   1.102   3.322  13.526 -0.1740 -0.2294  0.2846
  404TMC3    C4 6085   1.223   3.317  13.270 -0.0926  0.4427 -0.3395
  404TMC3    C5 6086   1.102   3.259  13.299 -0.0811 -0.6598 -0.4217
  404TMC3    C6 6087   1.037   3.273  13.419  0.1415 -0.0959  0.3248
  404TMC3     C 6088   1.425   3.378  13.389  0.6470  0.7669  0.0295
  404TMC3     O 6089   1.480   3.451  13.471  0.4773 -0.5518 -0.4648
  404TMC3     H 6090   1.294   3.393  13.583 -2.3497  2.6115  1.7761
  404TMC3    H1 6091   1.279   3.298  13.179 -1.2833  0.3904 -1.0640
  404TMC3    H2 6092   0.941   3.224  13.425  0.1792 -0.0015  1.6421
  404TMC3    C7 6093   1.022   3.201  13.189  0.3384 -0.9618  0.0664
  404TMC3    C8 6094   1.103   3.222  13.624 -0.6438 -0.0811 -0.2520
  404TMC3    O1 6095   0.903   3.212  13.190 -0.2529  0.0163 -0.4175
  404TMC3    O2 6096   1.081   3.107  13.602 -0.2428 -0.5921  0.0567
  405MPD2     C 6097   1.586   4.490  14.960  0.5845 -0.2514 -0.3880
  405MPD2    C1 6098   1.595   4.420  14.840 -1.3974  0.4179  0.1167
  405MPD2    C2 6099   1.522   4.469  14.732  0.2086  0.1057 -0.1841
  405MPD2    C3 6100   1.444   4.577  14.745 -0.4319 -0.1280 -0.0770
  405MPD2    C4 6101   1.422   4.643  14.863 -0.0153 -0.1270  0.2881
  405MPD2    C5 6102   1.505   4.597  14.971 -0.7274  0.4944  0.1981
  405MPD2     H 6103   1.517   4.410  14.642  1.3159  2.6529 -1.9039
  405MPD2    H1 6104   1.353   4.725  14.883 -0.0236 -0.0873  0.0929
  405MPD2    H2 6105   1.629   4.458  15.054  0.1527 -1.2782 -0.5354
  405MPD2    H3 6106   1.496   4.654  15.063  0.2800 -1.0553  1.2541
  405MPD2     N 6107   1.375   4.601  14.625  0.6777 -0.4209  0.4763
  405MPD2    H5 6108   1.393   4.552  14.537  0.2523  0.2928 -0.0050
  405MPD2    N1 6109   1.662   4.298  14.839  0.0520 -0.0460  0.2476
  405MPD2    H7 6110   1.700   4.282  14.932 -1.7552 -0.0826  0.9867
  406TMC3    C1 6111   1.037   4.687  14.324  0.0368 -0.5993  1.0379
  406TMC3    C2 6112   1.025   4.548  14.298  0.1655  1.2256 -0.5465
  406TMC3    C3 6113   1.100   4.469  14.377 -0.2023  0.6209  0.1180
  406TMC3    C4 6114   1.108   4.738  14.426 -0.1592  0.1798 -0.4818
  406TMC3    C5 6115   1.182   4.652  14.500 -0.0474  0.2231  0.5270
  406TMC3    C6 6116   1.180   4.517  14.477 -0.0236 -0.3078 -0.9857
  406TMC3     C 6117   0.914   0.024  14.326 -0.4887 -0.9247  1.2293
  406TMC3     O 6118   0.917   0.142  14.297  0.1461  0.4556  0.2986
  406TMC3     H 6119   0.957   4.506  14.225  1.0249 -0.6819 -0.2359
  406TMC3    H1 6120   1.113   0.106  14.446  0.1918  0.2381 -0.8708
  406TMC3    H2 6121   1.227   4.446  14.544 -0.4461 -0.0874 -0.4568
  406TMC3    C7 6122   1.272   4.694  14.609 -0.0039 -0.6971 -0.1137
  406TMC3    C8 6123   1.115   4.327  14.340  0.2093 -0.6993  0.2123
  406TMC3    O1 6124   1.244   0.056  14.681  0.1217 -0.4190 -0.0245
  406TMC3    O2 6125   1.028   4.269  14.276 -0.0480 -0.0491  0.0960
  407MPD2     C 6126   3.569   1.373  10.284  0.2383 -0.9588  0.3149
  407MPD2    C1 6127   3.589   1.482  10.206  0.2385  0.7194  0.1791
  407MPD2    C2 6128   3.663   1.584  10.267  0.3866 -0.5988 -0.3067
  407MPD2    C3 6129   3.706   1.574  10.403  0.1855  0.0383 -0.5860
  407MPD2    C4 6130   3.683   1.462  10.475  0.9179 -0.6368 -0.2861
  407MPD2    C5 6131   3.616   1.363  10.409  0.0236 -0.0798 -0.5898
  407MPD2     H 6132   3.679   1.673  10.207  2.0808 -0.2115  0.7314
  407MPD2    H1 6133   3.715   1.438  10.576  0.7481  1.4165  0.2509
  407MPD2    H2 6134   3.506   1.292  10.249  0.9433 -1.2529 -0.2876
  407MPD2    H3 6135   3.595   1.277  10.472  0.5633  0.4743  0.3572
  407MPD2     N 6136   3.772   1.674  10.470  0.1911 -0.6912 -0.0313
  407MPD2    H5 6137   3.778   1.649  10.568 -0.7455  0.6097  0.3591
  407MPD2    N1 6138   3.561   1.495  10.065 -0.6391  0.0248 -0.0345
  407MPD2    H7 6139   3.594   1.583  10.027  1.4336 -0.0827  1.5657
  408TMC3    C1 6140   3.502   1.438   9.845 -0.0870 -0.5750  0.7981
  408TMC3    C2 6141   3.594   1.529   9.803  0.2778  0.4881 -0.3270
  408TMC3    C3 6142   3.566   1.599   9.688  0.9022  0.0056 -0.2014
  408TMC3    C4 6143   3.385   1.417   9.775  0.6402 -0.4268 -0.2196
  408TMC3    C5 6144   3.366   1.488   9.659 -0.5050  0.0607  0.1510
  408TMC3    C6 6145   3.452   1.576   9.613 -0.0357 -0.0450 -0.0906
  408TMC3     C 6146   3.503   1.398   9.984  0.2038 -0.0604  0.8591
  408TMC3     O 6147   3.451   1.296  10.017 -0.2176 -0.0364  0.2913
  408TMC3     H 6148   3.677   1.564   9.863 -0.9340  0.3201  1.4396
  408TMC3    H1 6149   3.313   1.342   9.807  1.1115 -0.0610  1.6728
  408TMC3    H2 6150   3.421   1.647   9.537  0.6917  2.2507  1.7710
  408TMC3    C7 6151   3.251   1.445   9.579 -0.5214 -0.0507  0.6520
  408TMC3    C8 6152   3.670   1.695   9.629  0.5230 -0.5214  0.2698
  408TMC3    O1 6153   3.151   1.413   9.639 -0.4562  0.3548  0.2975
  408TMC3    O2 6154   3.619   1.780   9.556  0.7107  0.0999 -0.0029
  409MPD2     C 6155   3.408   1.708  16.642 -0.1197 -0.1044  0.0575
  409MPD2    C1 6156   3.410   1.738  16.777  0.2796 -0.2550  0.4997
  409MPD2    C2 6157   3.426   1.872  16.808 -0.3342 -1.0387  0.0605
  409MPD2    C3 6158   3.425   1.981  16.713  0.6923  0.2836  0.1149
  409MPD2    C4 6159   3.405   1.945  16.584  0.3206  0.7630 -0.1934
  409MPD2    C5 6160   3.396   1.811  16.548  0.4614  0.4094 -0.6882
  409MPD2     H 6161   3.427   1.893  16.914  1.9345  1.1332 -0.4013
  409MPD2    H1 6162   3.399   2.022  16.509  1.3443  0.8510 -0.1808
  409MPD2    H2 6163   3.401   1.605  16.611  0.9510  0.3961 -1.8492
  409MPD2    H3 6164   3.368   1.780  16.448 -2.7603  0.5589  0.1348
  409MPD2     N 6165   3.459   2.114  16.750  1.0601  0.7634 -0.3278
  409MPD2    H5 6166   3.457   2.178  16.671 -0.2702 -0.8062 -1.5609
  409MPD2    N1 6167   3.404   1.646  16.882 -0.5926 -0.2067 -0.0392
  409MPD2    H7 6168   3.396   1.680  16.978 -0.9630 -0.5598  0.0590
  410TMC3    C1 6169   3.539   2.290  16.890 -0.3783 -0.1634  0.1632
  410TMC3    C2 6170   3.637   2.319  16.981 -0.0646 -0.3426  0.0754
  410TMC3    C3 6171   3.711   2.431  16.957  0.0057 -0.2626 -0.4802
  410TMC3    C4 6172   3.505   2.372  16.786 -0.2613  0.1904  0.1911
  410TMC3    C5 6173   3.576   2.488  16.778 -0.5718 -0.2467 -0.2129
  410TMC3    C6 6174   3.682   2.517  16.861  0.3918  0.2991  0.9497
  410TMC3     C 6175   3.514   2.154  16.873  0.4291 -0.7775 -0.1691
  410TMC3     O 6176   3.534   2.079  16.970 -0.5868  0.3639 -0.6747
  410TMC3     H 6177   3.672   2.247  17.055  1.6699 -0.7647 -1.1456
  410TMC3    H1 6178   3.415   2.354  16.728 -1.2237  1.6764  1.2127
  410TMC3    H2 6179   3.751   2.597  16.837  2.1350 -0.5977  3.0059
  410TMC3    C7 6180   3.566   2.555  16.650  0.0798 -0.7409  0.1832
  410TMC3    C8 6181   3.840   2.447  17.028 -0.2614 -0.1925  0.2614
  410TMC3    O1 6182   3.480   2.501  16.580 -0.4159  0.7681  0.4036
  410TMC3    O2 6183   3.874   2.557  17.060 -0.6563  0.2803 -0.5510
  411MPD2     C 6184   3.805   3.129  14.670 -0.2217 -0.2312  0.1359
  411MPD2    C1 6185   3.754   3.171  14.547 -0.4764 -0.4941 -0.9110
  411MPD2    C2 6186   3.762   3.081  14.439  0.5769 -0.6739  0.0917
  411MPD2    C3 6187   3.807   2.942  14.452 -0.3958 -0.4009  0.1599
  411MPD2    C4 6188   3.860   2.910  14.571 -0.0078  0.2651 -0.1982
  411MPD2    C5 6189   3.856   2.998  14.682 -0.3095  0.7173  0.4810
  411MPD2     H 6190   3.718   3.111  14.344 -1.0151 -1.0109  0.7186
  411MPD2    H1 6191   3.895   2.815  14.609 -2.0681 -0.4312 -0.0346
  411MPD2    H2 6192   3.807   3.187  14.761  0.6923  0.4109 -0.2941
  411MPD2    H3 6193   3.893   2.964  14.778 -0.1290 -0.3333  0.0466
  411MPD2     N 6194   3.793   2.842  14.350 -0.0830  0.5403 -0.2732
  411MPD2    H5 6195   3.814   2.745  14.371  1.2009  0.9284  0.2188
  411MPD2    N1 6196   3.680   3.294  14.544  0.3738 -0.7632  0.6328
  411MPD2    H7 6197   3.685   3.351  14.628 -1.7928 -1.3976  1.2089
  412TMC3    C1 6198   3.757   2.750  14.135 -0.2430 -0.3919 -0.1629
  412TMC3    C2 6199   3.761   2.629  14.192 -0.3462  0.2287 -0.0918
  412TMC3    C3 6200   3.766   2.522  14.114  0.0780  0.3137  0.8234
  412TMC3    C4 6201   3.785   2.767  14.002 -0.2222  0.2133  0.3215
  412TMC3    C5 6202   3.792   2.657  13.930 -0.0895 -0.3590  0.8092
  412TMC3    C6 6203   3.780   2.534  13.979 -0.0174 -0.6216  0.0527
  412TMC3     C 6204   3.744   2.862  14.224  0.5689 -0.3169  0.0359
  412TMC3     O 6205   3.718   2.970  14.164 -0.2088 -0.4402 -0.8119
  412TMC3     H 6206   3.757   2.614  14.299  3.3913  1.0383  0.1305
  412TMC3    H1 6207   3.762   2.861  13.953  1.6032 -0.1181 -1.1608
  412TMC3    H2 6208   3.788   2.445  13.917  1.1162 -1.3563  1.2898
  412TMC3    C7 6209   3.738   2.676  13.798  0.3869  0.6503 -0.3210
  412TMC3    C8 6210   3.725   2.394  14.174  0.0224  0.6843  0.6034
  412TMC3    O1 6211   3.770   2.779  13.735  0.1157  0.1228 -0.0811
  412TMC3    O2 6212   3.732   2.374  14.297  0.7785 -0.4133 -0.0220
  413MPD2     C 6213   1.061   1.026  15.825 -0.5659  0.0237 -0.0207
  413MPD2    C1 6214   0.962   0.978  15.748 -0.0413  0.0150 -0.2337
  413MPD2    C2 6215   0.967   0.851  15.697  0.2162 -0.4034  0.3954
  413MPD2    C3 6216   1.072   0.770  15.723 -0.1176  0.4544 -0.0135
  413MPD2    C4 6217   1.183   0.826  15.787 -0.0358  0.0294  0.0384
  413MPD2    C5 6218   1.177   0.953  15.844 -0.1870  1.0157 -0.2541
  413MPD2     H 6219   0.881   0.812  15.645  2.2158 -2.1654 -1.6139
  413MPD2    H1 6220   1.277   0.774  15.797  0.2448  1.0736  2.9121
  413MPD2    H2 6221   1.042   1.125  15.864  1.3731 -0.0016  0.9912
  413MPD2    H3 6222   1.259   0.986  15.906 -1.0153  1.7920  0.4228
  413MPD2     N 6223   1.066   0.639  15.675  0.0301  0.4589  0.5460
  413MPD2    H5 6224   0.979   0.618  15.628  1.5503 -4.3245 -0.1432
  413MPD2    N1 6225   0.837   1.048  15.739  0.1673 -0.1630  0.2865
  413MPD2    H7 6226   0.822   1.127  15.801 -1.6898  0.9628 -1.6115
  414TMC3    C1 6227   1.084   0.409  15.672  0.2848  0.1555  0.2125
  414TMC3    C2 6228   1.146   0.295  15.718  0.0648  0.5349 -0.4077
  414TMC3    C3 6229   1.114   0.178  15.661  0.0190 -0.8551 -0.4708
  414TMC3    C4 6230   1.013   0.411  15.554  0.3200  0.3870 -0.2566
  414TMC3    C5 6231   0.985   0.293  15.493  0.0001 -0.5699  0.1239
  414TMC3    C6 6232   1.033   0.175  15.551 -0.0318  0.2617 -0.2980
  414TMC3     C 6233   1.151   0.530  15.695 -0.1678  0.1627 -0.3228
  414TMC3     O 6234   1.262   0.516  15.739  0.3552  0.6108 -0.2986
  414TMC3     H 6235   1.215   0.305  15.802  0.6481 -0.6864 -0.7279
  414TMC3    H1 6236   1.008   0.498  15.489  0.6293  0.3382 -0.3448
  414TMC3    H2 6237   1.006   0.083  15.499 -2.2177 -0.1085  1.5051
  414TMC3    C7 6238   1.035   0.301  15.356 -0.8490  0.2051  0.4738
  414TMC3    C8 6239   1.225   0.086  15.655  0.0688  0.4560 -0.1822
  414TMC3    O1 6240   0.983   0.372  15.269 -0.3149 -0.0248  0.0361
  414TMC3    O2 6241   1.261   0.057  15.542  0.5966 -0.2211 -0.2824
  415TMC3    C1 6242   0.774   3.904  10.226 -0.3954  0.3758 -0.7643
  415TMC3    C2 6243   0.763   4.030  10.183 -0.7072  0.2264 -0.5771
  415TMC3    C3 6244   0.710   4.048  10.052 -1.2962  0.1671  0.2732
  415TMC3    C4 6245   0.725   3.802  10.149  0.3629  0.4871 -0.5052
  415TMC3    C5 6246   0.682   3.823  10.021 -0.0757 -0.3833 -0.0581
  415TMC3    C6 6247   0.656   3.946   9.974 -0.1854  0.8286 -0.0396
  415TMC3     C 6248   0.807   3.867  10.363 -0.0314  0.2831 -0.7352
  415TMC3     O 6249   0.784   3.753  10.397 -0.1929  0.0313  0.7417
  415TMC3     H 6250   0.789   4.105  10.257  3.3001 -0.9749 -0.7679
  415TMC3    H1 6251   0.748   3.703  10.187  0.4440  0.4058 -0.7651
  415TMC3    H2 6252   0.620   3.955   9.872  0.1544 -2.6475 -0.4614
  415TMC3    C7 6253   0.665   3.708   9.934  0.1441 -0.5691 -0.5727
  415TMC3    C8 6254   0.717   4.177   9.980 -0.1984 -0.3952 -0.6165
  415TMC3    O1 6255   0.575   3.712   9.856  0.2242  0.5713 -0.1728
  415TMC3    O2 6256   0.706   4.159   9.860  0.2375  0.6839 -0.4130
  416MPD2     C 6257   3.332   2.409  11.725  0.7661 -0.4354 -0.2316
  416MPD2    C1 6258   3.202   2.372  11.689  0.1750 -0.7152 -0.0464
  416MPD2    C2 6259   3.186   2.278  11.589  0.5362 -0.0953 -0.6080
  416MPD2    C3 6260   3.301   2.245  11.511  0.5829 -0.2509  0.0954
  416MPD2    C4 6261   3.429   2.288  11.547 -0.8167  0.4693 -0.3929
  416MPD2    C5 6262   3.444   2.362  11.659  0.3094  0.1230  0.1764
  416MPD2     H 6263   3.084   2.248  11.568  0.6756 -2.0426  1.4638
  416MPD2    H1 6264   3.522   2.246  11.509 -1.1017  0.3124 -0.9196
  416MPD2    H2 6265   3.343   2.468  11.815  2.1930 -2.8533  1.1954
  416MPD2    H3 6266   3.541   2.400  11.689  0.7737  0.2698 -1.5263
  416MPD2     N 6267   3.272   2.159  11.402  0.0396 -0.5026 -0.1324
  416MPD2    H5 6268   3.174   2.135  11.385  0.0728 -0.7302 -0.0033
  416MPD2    N1 6269   3.093   2.428  11.760  0.0783  0.2422  0.2667
  416MPD2    H7 6270   3.132   2.480  11.839  1.2586  2.0576 -1.5060
  417TMC3    C1 6271   2.880   2.498  11.822  0.6315 -0.3146 -0.5487
  417TMC3    C2 6272   2.924   2.498  11.951 -0.1704  0.4639  0.3713
  417TMC3    C3 6273   2.867   2.593  12.035  0.0304  0.0740  0.2517
  417TMC3    C4 6274   2.781   2.585  11.774  0.1131  0.3550 -0.5553
  417TMC3    C5 6275   2.734   2.685  11.860 -0.0364 -0.0862 -0.1284
  417TMC3    C6 6276   2.771   2.677  11.993  0.3902 -0.3397 -0.4440
  417TMC3     C 6277   2.962   2.418  11.734 -0.0253  0.3121 -0.6806
  417TMC3     O 6278   2.900   2.381  11.633 -0.0122 -0.2604 -0.0291
  417TMC3     H 6279   2.991   2.417  11.976 -1.0525 -0.7727 -1.3450
  417TMC3    H1 6280   2.749   2.573  11.671 -0.2719  0.8035 -0.4856
  417TMC3    H2 6281   2.726   2.749  12.061  1.3318  0.5974 -0.8056
  417TMC3    C7 6282   2.750   2.816  11.795  0.8364 -1.0098  0.9128
  417TMC3    C8 6283   2.882   2.573  12.180  0.2869  0.0307  0.8758
  417TMC3    O1 6284   2.746   2.822  11.678 -0.6997 -0.4595 -0.1088
  417TMC3    O2 6285   2.820   2.649  12.247  0.0388 -0.8642  0.2927
  418TMC3    C1 6286   2.073   4.360   0.851 -0.4776 -0.2593  0.1159
  418TMC3    C2 6287   1.973   4.415   0.773  0.6171 -0.2120  0.8328
  418TMC3    C3 6288   1.862   4.470   0.830 -0.0636  0.3032  0.3602
  418TMC3    C4 6289   2.069   4.371   0.986  0.0585 -0.0787  0.4730
  418TMC3    C5 6290   1.955   4.424   1.038 -0.4951 -0.4866 -0.5707
  418TMC3    C6 6291   1.850   4.467   0.965  0.3048 -0.8889  0.0134
  418TMC3     C 6292   2.175   4.265   0.810  0.4972  0.6504  0.1640
  418TMC3     O 6293   2.273   4.246   0.879 -0.0490 -0.6196  0.6772
  418TMC3     H 6294   1.974   4.395   0.666 -0.1782  1.3562  0.5287
  418TMC3    H1 6295   2.147   4.327   1.047  0.1982  0.2516  0.5321
  418TMC3    H2 6296   1.757   4.502   1.008 -0.3915 -1.9493 -0.6213
  418TMC3    C7 6297   1.933   4.390   1.180 -0.8345 -0.2828 -0.9918
  418TMC3    C8 6298   1.752   4.505   0.744  0.4844 -0.0279 -0.1824
  418TMC3    O1 6299   2.021   4.320   1.233 -0.3473  0.0047 -0.0293
  418TMC3    O2 6300   1.784   4.549   0.631  0.1506 -0.2364  0.5163
  419MPD2     C 6301   1.151   2.504  12.226  0.1310 -0.0331  0.8100
  419MPD2    C1 6302   1.053   2.589  12.180 -0.5654  0.0108  0.5071
  419MPD2    C2 6303   0.953   2.635  12.265  0.4607  0.3734 -0.4421
  419MPD2    C3 6304   0.957   2.610  12.395 -0.2935 -0.2409 -0.3218
  419MPD2    C4 6305   1.058   2.528  12.444 -0.2442 -0.1896 -0.8582
  419MPD2    C5 6306   1.153   2.481  12.361  0.5815 -0.0884 -0.1077
  419MPD2     H 6307   0.870   2.680  12.212  0.4674 -0.1611 -0.9158
  419MPD2    H1 6308   1.055   2.485  12.543  1.0033 -2.3173 -1.7398
  419MPD2    H2 6309   1.238   2.469  12.170 -1.7642  0.5367 -2.4624
  419MPD2    H3 6310   1.226   2.411  12.401  1.9438  0.4960 -1.5661
  419MPD2     N 6311   0.850   2.658  12.473  0.7104 -0.1854 -0.0666
  419MPD2    H5 6312   0.777   2.707  12.424  0.8946  1.4839  1.3060
  419MPD2    N1 6313   1.057   2.630  12.045  0.7763 -0.6980  0.1729
  419MPD2    H7 6314   0.976   2.676  12.006  0.1466 -1.0721  1.0367
  420TMC3    C1 6315   0.716   2.704  12.660  0.9125 -0.1514 -0.2137
  420TMC3    C2 6316   0.603   2.687  12.583  0.1991  0.3849 -0.0990
  420TMC3    C3 6317   0.480   2.689  12.637  0.3680 -0.2343 -0.2415
  420TMC3    C4 6318   0.704   2.710  12.790  0.2671  0.0426 -0.1018
  420TMC3    C5 6319   0.578   2.728  12.838 -0.2129 -0.5655 -0.4021
  420TMC3    C6 6320   0.463   2.720  12.769 -0.1957 -0.4541  0.5786
  420TMC3     C 6321   0.840   2.646  12.612 -0.3597 -0.8705  0.5458
  420TMC3     O 6322   0.923   2.607  12.691  0.2596  0.0575  0.2713
  420TMC3     H 6323   0.612   2.679  12.476 -1.8599 -0.3087 -0.2315
  420TMC3    H1 6324   0.787   2.694  12.858  0.6408  2.2700 -0.0589
  420TMC3    H2 6325   0.369   2.734  12.822  0.3281 -0.6786  1.5668
  420TMC3    C7 6326   0.563   2.718  12.986  0.3368 -0.5615 -0.8022
  420TMC3    C8 6327   0.368   2.706  12.547 -0.0631 -0.0383 -0.0528
  420TMC3    O1 6328   0.487   2.629  13.021 -0.0116 -0.2243 -0.1029
  420TMC3    O2 6329   0.387   2.760  12.438  0.9056  0.6101 -0.9991
  421TMC3    C1 6330   2.124   3.477  13.586  0.1439 -0.1456 -0.3239
  421TMC3    C2 6331   2.080   3.609  13.564 -0.0790 -0.3542 -0.1686
  421TMC3    C3 6332   2.138   3.703  13.643 -0.0038  0.5844  0.8219
  421TMC3    C4 6333   2.219   3.434  13.678 -0.5050  0.4457  0.3066
  421TMC3    C5 6334   2.277   3.536  13.745  1.2841  0.6048 -0.0121
  421TMC3    C6 6335   2.234   3.668  13.730 -0.1609 -0.3353  0.3110
  421TMC3     C 6336   2.054   3.371  13.516 -0.3665  0.1175  0.4392
  421TMC3     O 6337   2.107   3.259  13.518  0.1745 -0.4607 -0.2893
  421TMC3     H 6338   2.005   3.623  13.487  0.6798  0.5013 -0.7490
  421TMC3    H1 6339   2.259   3.333  13.676 -2.9618 -0.5691  1.4154
  421TMC3    H2 6340   2.271   3.748  13.794 -0.9618  0.7020 -0.5231
  421TMC3    C7 6341   2.338   3.512  13.880 -0.1181 -0.5238  0.2379
  421TMC3    C8 6342   2.051   3.809  13.692 -0.4131  0.2313 -0.1095
  421TMC3    O1 6343   2.408   3.599  13.933 -0.2731 -0.0570  0.3189
  421TMC3    O2 6344   2.085   3.882  13.783  0.2033 -0.8015 -0.4336
  422TMC3    C1 6345   4.192   0.630  12.981 -0.8158  0.3306 -0.6053
  422TMC3    C2 6346   4.165   0.706  13.082 -0.5844 -0.2083 -0.0334
  422TMC3    C3 6347   4.044   0.714  13.138  0.1177  0.0399  0.2127
  422TMC3    C4 6348   4.091   0.558  12.923 -0.2133  0.1526 -0.0846
  422TMC3    C5 6349   3.965   0.542  12.998 -0.0150  0.0921  0.2166
  422TMC3    C6 6350   3.947   0.629  13.102 -0.2088  0.6316 -0.1311
  422TMC3     C 6351   4.318   0.647  12.914 -0.5938  0.2384 -0.1386
  422TMC3     O 6352   4.365   0.757  12.900 -0.1975  0.0029  0.1381
  422TMC3     H 6353   4.248   0.761  13.126 -0.2926 -0.7614  0.1036
  422TMC3    H1 6354   4.102   0.490  12.839  1.4625  0.6411 -0.2435
  422TMC3    H2 6355   3.872   0.605  13.178  1.6114 -0.1003  1.4394
  422TMC3    C7 6356   3.856   0.473  12.931  0.0071 -0.0237 -0.0824
  422TMC3    C8 6357   4.013   0.813  13.234  0.5063  0.0781 -0.1856
  422TMC3    O1 6358   3.885   0.416  12.827 -0.0817 -0.6138  0.2281
  422TMC3    O2 6359   4.107   0.873  13.290 -0.1336 -0.2533  0.1062
  423MPD2     C 6360   0.090   1.380   0.964 -0.3754 -0.5267  0.3745
  423MPD2    C1 6361   0.178   1.463   0.899  0.1367 -0.9042  0.5892
  423MPD2    C2 6362   0.243   1.421   0.790  0.5594  1.1883  0.0836
  423MPD2    C3 6363   0.203   1.302   0.726 -0.3716  0.5150  0.3752
  423MPD2    C4 6364   0.114   1.218   0.792 -1.2425 -0.1004 -0.7134
  423MPD2    C5 6365   0.061   1.257   0.915 -0.5192  0.4875 -0.8862
  423MPD2     H 6366   0.308   1.490   0.736  0.2871 -0.3560 -2.2614
  423MPD2    H1 6367   0.089   1.120   0.753  1.5828 -0.8694 -0.6441
  423MPD2    H2 6368   0.045   1.411   1.058 -1.8318  1.4774 -0.9927
  423MPD2    H3 6369   4.733   1.184   0.961  0.0859 -0.2271 -1.1436
  423MPD2     N 6370   0.257   1.264   0.601 -0.2880 -0.5106  0.7020
  423MPD2    H5 6371   0.240   1.166   0.581 -0.1166 -0.7799  1.8573
  423MPD2    N1 6372   0.220   1.587   0.952  0.2556  0.3089  0.4952
  423MPD2    H7 6373   0.301   1.627   0.907 -1.2444  0.2370 -2.2835
  424TMC3    C1 6374   0.251   1.744   1.125 -0.0972 -0.3278  0.8510
  424TMC3    C2 6375   0.383   1.708   1.129  0.6229 -0.6083 -0.3674
  424TMC3    C3 6376   0.464   1.804   1.189  0.2717  0.7709  0.5727
  424TMC3    C4 6377   0.187   1.855   1.183  0.0291  0.4962 -0.4450
  424TMC3    C5 6378   0.275   1.940   1.245  0.2675  0.1447 -0.8007
  424TMC3    C6 6379   0.411   1.913   1.252 -0.9226  0.5255 -0.9632
  424TMC3     C 6380   0.162   1.650   1.062  0.6447 -0.5179 -0.7120
  424TMC3     O 6381   0.055   1.635   1.119 -0.7684 -0.2941  0.2030
  424TMC3     H 6382   0.421   1.627   1.068  2.8254 -1.4051  2.0575
  424TMC3    H1 6383   0.081   1.871   1.167 -0.2289  2.0736  2.8637
  424TMC3    H2 6384   0.477   1.972   1.314 -0.1035 -0.0464 -1.2963
  424TMC3    C7 6385   0.228   2.049   1.334 -0.3470 -0.2965  0.5627
  424TMC3    C8 6386   0.589   1.758   1.237  0.3298  0.8220 -0.8396
  424TMC3    O1 6387   0.311   2.098   1.410 -0.0098 -0.2399  0.3228
  424TMC3    O2 6388   0.599   1.636   1.256  0.0916 -0.0085 -1.0286
  425MPD2     C 6389   4.373   0.645  17.712 -0.0563 -0.4573 -0.3864
  425MPD2    C1 6390   4.293   0.662  17.602 -0.3408 -0.8802 -0.7642
  425MPD2    C2 6391   4.166   0.722  17.622  0.1063 -0.1079 -0.2861
  425MPD2    C3 6392   4.127   0.758  17.749  0.7787 -0.4980 -0.0164
  425MPD2    C4 6393   4.206   0.731   0.110  1.0112  0.5223 -0.8812
  425MPD2    C5 6394   4.327   0.674   0.089 -0.2652 -0.3859  0.2081
  425MPD2     H 6395   4.096   0.739  17.541  0.2503  1.5313 -0.0636
  425MPD2    H1 6396   4.177   0.759   0.211  4.1659  2.6018 -0.5618
  425MPD2    H2 6397   4.471   0.601  17.698  1.2441  2.4488 -0.5154
  425MPD2    H3 6398   4.396   0.656   0.171  0.6349  2.2666  0.0384
  425MPD2     N 6399   3.998   0.822   0.008  0.7996  0.2409  0.4684
  425MPD2    H5 6400   3.937   0.821  17.678 -1.0075 -0.5718  1.8542
  425MPD2    N1 6401   4.341   0.612  17.476 -0.3208 -0.0940  0.1162
  425MPD2    H7 6402   4.418   0.547  17.476 -1.0186 -0.9356 -1.9082
  426TMC3    C1 6403   4.329   0.557  17.246 -0.1337 -0.2284  0.5812
  426TMC3    C2 6404   4.240   0.539  17.137  0.3202 -0.5775  0.1893
  426TMC3    C3 6405   4.291   0.506  17.014 -0.5463 -0.2678 -0.1086
  426TMC3    C4 6406   4.468   0.526  17.240 -0.1677 -0.1905  0.2738
  426TMC3    C5 6407   4.509   0.491  17.116  0.1013 -0.1366 -0.1072
  426TMC3    C6 6408   4.425   0.477  17.008 -0.0964 -0.4444  0.4117
  426TMC3     C 6409   4.273   0.629  17.362  0.3653  0.0794 -0.2348
  426TMC3     O 6410   4.174   0.692  17.337 -0.0570  0.0533 -0.3666
  426TMC3     H 6411   4.134   0.559  17.138  0.3895 -0.2084 -0.8313
  426TMC3    H1 6412   4.534   0.562  17.318 -0.6265 -0.1699  0.6522
  426TMC3    H2 6413   4.461   0.432  16.916 -2.6327 -0.3177 -0.6258
  426TMC3    C7 6414   4.579   0.367  17.120  0.2597  0.0642  0.2596
  426TMC3    C8 6415   4.211   0.426  16.917  0.3504  0.3391  0.0063
  426TMC3    O1 6416   4.656   0.348  17.025  0.5894  0.1728  0.4189
  426TMC3    O2 6417   4.254   0.407  16.805  0.1050  0.5359 -0.3472
  427MPD2     C 6418   2.814   2.834  15.767 -0.4337 -0.0117  0.0279
  427MPD2    C1 6419   2.815   2.817  15.629  0.3986  0.2753  0.1860
  427MPD2    C2 6420   2.711   2.863  15.551  0.3922 -0.0701 -0.0698
  427MPD2    C3 6421   2.607   2.930  15.612  0.2340  0.4531 -0.3199
  427MPD2    C4 6422   2.611   2.960  15.752  0.8006  1.5484 -0.1470
  427MPD2    C5 6423   2.717   2.913  15.820  0.3922  0.7063  0.6067
  427MPD2     H 6424   2.706   2.842  15.444  0.1402 -1.7893  0.2720
  427MPD2    H1 6425   2.532   3.012  15.804  0.3402 -1.0816  1.7694
  427MPD2    H2 6426   2.897   2.795  15.825  0.4242  1.0727 -0.4761
  427MPD2    H3 6427   2.723   2.929  15.927  2.3865  0.8851  0.4625
  427MPD2     N 6428   2.488   2.969  15.549 -0.2892  0.5820  0.0985
  427MPD2    H5 6429   2.424   3.020  15.608 -0.3360 -0.9987  1.4113
  427MPD2    N1 6430   2.902   2.731  15.558  0.7693 -0.3398 -0.5287
  427MPD2    H7 6431   2.887   2.720  15.458  2.0684  1.8524 -0.9654
  428TMC3    C1 6432   3.087   2.616  15.503  0.0607 -0.9625  0.3468
  428TMC3    C2 6433   3.025   2.533  15.414  0.5114  0.1550  0.1152
  428TMC3    C3 6434   3.100   2.501  15.305 -0.1688  0.2289 -0.9573
  428TMC3    C4 6435   3.215   2.667  15.485  0.1257  0.5641  0.2885
  428TMC3    C5 6436   3.287   2.626  15.377 -0.4151 -0.0039  0.5193
  428TMC3    C6 6437   3.230   2.545  15.278  0.0928 -0.6458 -0.2857
  428TMC3     C 6438   3.008   2.670  15.607 -0.6898 -0.7197  0.8880
  428TMC3     O 6439   3.053   2.675  15.720  0.0389 -0.0112 -0.3814
  428TMC3     H 6440   2.937   2.485  15.457 -0.1985 -1.6858 -3.3947
  428TMC3    H1 6441   3.255   2.745  15.550  1.4762  2.3802 -2.7114
  428TMC3    H2 6442   3.283   2.508  15.191  0.9658  2.1234 -0.9391
  428TMC3    C7 6443   3.397   2.709  15.346 -0.5221 -0.6038  0.6443
  428TMC3    C8 6444   3.059   2.372  15.247 -0.0777  0.4892 -0.8791
  428TMC3    O1 6445   3.460   2.766  15.438  0.1439  0.2846  0.1287
  428TMC3    O2 6446   3.010   2.298  15.327 -0.3271 -0.6984  0.1967
  429MPD2     C 6447   3.501   2.715   0.145 -0.1605 -0.6440  0.2106
  429MPD2    C1 6448   3.581   2.675   0.040  0.8012  0.8194  0.4898
  429MPD2    C2 6449   3.652   2.770  17.722 -0.5412  0.3977  0.2998
  429MPD2    C3 6450   3.641   2.905  17.745 -0.3038 -0.1664  0.6526
  429MPD2    C4 6451   3.558   2.941   0.092 -0.4169 -0.4973  0.8202
  429MPD2    C5 6452   3.492   2.850   0.165 -0.6232  0.1063  0.3148
  429MPD2     H 6453   3.717   2.723  17.648 -0.8654 -0.8945  0.8368
  429MPD2    H1 6454   3.554   3.046   0.117 -0.5715 -0.4074  0.4135
  429MPD2    H2 6455   3.445   2.644   0.204 -0.1780 -2.1004 -1.5311
  429MPD2    H3 6456   3.429   2.880   0.248 -1.4716 -0.7727 -0.0196
  429MPD2     N 6457   3.705   2.999  17.661 -0.6504  0.6399 -0.3505
  429MPD2    H5 6458   3.765   2.959  17.590  0.9421 -0.7256  1.7742
  429MPD2    N1 6459   3.614   2.543   0.008 -0.6257 -0.7468 -0.3483
  429MPD2    H7 6460   3.680   2.526  17.684 -1.6000 -2.5831 -0.8111
  430TMC3    C1 6461   3.793   3.208  17.583  0.4204  0.0220 -0.7759
  430TMC3    C2 6462   3.781   3.340  17.551 -0.3472  0.3265  0.6001
  430TMC3    C3 6463   3.877   3.397  17.468  0.0802  0.2070 -0.8604
  430TMC3    C4 6464   3.906   3.130  17.549  0.2591  0.6906 -0.9430
  430TMC3    C5 6465   4.006   3.197  17.471 -0.1827  0.7754  0.2390
  430TMC3    C6 6466   3.988   3.327  17.430  0.1836  0.4050 -0.1897
  430TMC3     C 6467   3.681   3.137  17.645 -0.0912  0.8988 -0.1815
  430TMC3     O 6468   3.594   3.212  17.687 -0.5370  0.0687  0.0502
  430TMC3     H 6469   3.690   3.395  17.573 -0.6370  1.2034 -2.8968
  430TMC3    H1 6470   3.919   3.028  17.582  2.4148  0.5284 -2.2627
  430TMC3    H2 6471   4.074   3.388  17.404 -0.9353  1.9969 -0.1575
  430TMC3    C7 6472   4.102   3.110  17.411  0.4774  0.2441 -0.2604
  430TMC3    C8 6473   3.839   3.504  17.387  0.2461 -0.6520 -0.5255
  430TMC3    O1 6474   4.078   2.994  17.406 -0.1370  0.4443  0.4100
  430TMC3    O2 6475   3.793   3.600  17.445 -0.6833 -0.2616 -1.3667
  431MPD2     C 6476   0.335   2.950  12.016 -0.6242 -0.4354  0.8327
  431MPD2    C1 6477   0.455   2.939  12.082  0.1840 -0.7626  0.0745
  431MPD2    C2 6478   0.565   2.891  12.014  0.4627 -0.0864  0.3842
  431MPD2    C3 6479   0.559   2.848  11.875 -0.6004 -0.3465 -0.2973
  431MPD2    C4 6480   0.435   2.859  11.818  0.2494  0.3887  0.2631
  431MPD2    C5 6481   0.329   2.912  11.884 -0.5870  0.5462 -0.3345
  431MPD2     H 6482   0.660   2.908  12.062  0.6778 -1.2179  0.3644
  431MPD2    H1 6483   0.426   2.837  11.713  2.5082  1.3565 -0.1287
  431MPD2    H2 6484   0.250   2.999  12.063 -0.6802  0.3146 -0.0323
  431MPD2    H3 6485   0.239   2.939  11.829  0.2639  1.8581 -1.0834
  431MPD2     N 6486   0.675   2.812  11.801  0.4075  0.5555  0.3674
  431MPD2    H5 6487   0.679   2.772  11.707 -1.1487  0.3736  0.3871
  431MPD2    N1 6488   0.448   2.980  12.215 -0.7861  0.6430 -0.4331
  431MPD2    H7 6489   0.357   3.019  12.239 -1.0362  0.5792 -1.3000
  432TMC3    C1 6490   0.896   2.737  11.765 -0.0443 -0.1128  0.5417
  432TMC3    C2 6491   0.969   2.841  11.704  0.0768  0.1710  0.4662
  432TMC3    C3 6492   1.108   2.845  11.707 -0.4520  0.7844 -0.6260
  432TMC3    C4 6493   0.973   2.632  11.810  0.7058  0.3744  0.2443
  432TMC3    C5 6494   1.107   2.643  11.827  0.1940  0.2333 -0.0966
  432TMC3    C6 6495   1.177   2.752  11.782  0.5622  0.7936 -0.5601
  432TMC3     C 6496   0.795   2.776  11.862 -0.6617 -0.3682  0.2991
  432TMC3     O 6497   0.837   2.784  11.976 -0.1552 -0.5269 -0.2572
  432TMC3     H 6498   0.917   2.931  11.671 -0.2452 -0.3820 -0.5067
  432TMC3    H1 6499   0.919   2.550  11.855 -0.1559  0.9137  0.1848
  432TMC3    H2 6500   1.284   2.762  11.798  0.7697 -0.4673 -1.1475
  432TMC3    C7 6501   1.147   2.584  11.953  0.4363 -0.1553  0.0151
  432TMC3    C8 6502   1.185   2.969  11.681  0.0142  0.1242 -0.0173
  432TMC3    O1 6503   1.260   2.537  11.965 -0.2219  0.2692  0.3363
  432TMC3    O2 6504   1.154   3.031  11.580  0.5859  0.2064 -0.5397
  433MPD2     C 6505   3.783   1.328  10.873 -0.2379  0.3639 -0.8706
  433MPD2    C1 6506   3.923   1.344  10.858 -0.6908  0.9153 -0.5220
  433MPD2    C2 6507   3.985   1.420  10.961  0.0556  0.6593 -0.2951
  433MPD2    C3 6508   3.914   1.476  11.059  0.2023  0.0546  0.3378
  433MPD2    C4 6509   3.776   1.474  11.057  0.4924  0.4635  0.5609
  433MPD2    C5 6510   3.712   1.400  10.966  0.1192 -0.0547  0.5184
  433MPD2     H 6511   4.092   1.438  10.959  0.1137  0.1824 -1.2207
  433MPD2    H1 6512   3.715   1.514  11.137 -1.8712  0.3274 -1.1960
  433MPD2    H2 6513   3.727   1.264  10.807 -0.8384 -0.3365  0.3222
  433MPD2    H3 6514   3.604   1.390  10.967  0.0980  0.2934  2.4804
  433MPD2     N 6515   3.982   1.523  11.177  0.2252  0.5448  0.0966
  433MPD2    H5 6516   4.082   1.507  11.173  0.2012  0.4007  0.0638
  433MPD2    N1 6517   3.997   1.254  10.777  0.0077 -0.4180 -0.6172
  433MPD2    H7 6518   3.943   1.174  10.747 -0.5529 -1.0872  2.1870
  434TMC3    C1 6519   4.193   1.143  10.722 -0.2014 -0.4838 -0.1183
  434TMC3    C2 6520   4.305   1.119  10.806  0.0920 -0.4221  0.2236
  434TMC3    C3 6521   4.360   0.996  10.818  0.6637 -0.2047 -0.4280
  434TMC3    C4 6522   4.142   1.044  10.644  0.2593 -0.2008  0.8035
  434TMC3    C5 6523   4.219   0.929  10.647 -0.2933 -0.4743 -0.0129
  434TMC3    C6 6524   4.321   0.897  10.739 -0.0303  0.1034  0.4503
  434TMC3     C 6525   4.128   1.270  10.744  0.5116 -0.2407  0.0287
  434TMC3     O 6526   4.192   1.375  10.761  0.1531 -0.2218 -0.2831
  434TMC3     H 6527   4.337   1.201  10.868  2.7312 -0.6032 -0.9045
  434TMC3    H1 6528   4.059   1.065  10.576 -0.3815 -1.4012  1.2226
  434TMC3    H2 6529   4.399   0.823  10.726  1.6701  2.5845 -3.1949
  434TMC3    C7 6530   4.167   0.827  10.561 -0.4774 -0.1245  0.3432
  434TMC3    C8 6531   4.435   0.970  10.938 -0.1179 -0.2782  0.0722
  434TMC3    O1 6532   4.126   0.856  10.453  1.2308  0.4655 -0.4391
  434TMC3    O2 6533   4.519   1.045  10.984  0.1364 -0.4749  0.3014
  435MPD2     C 6534   1.188   1.634  15.575  0.3778  0.3229 -0.1580
  435MPD2    C1 6535   1.089   1.591  15.667 -0.7461  0.0866  0.0405
  435MPD2    C2 6536   1.127   1.498  15.766  0.5567  0.2610  0.1453
  435MPD2    C3 6537   1.254   1.449  15.772 -0.2439  0.2487  0.4648
  435MPD2    C4 6538   1.351   1.496  15.678 -0.2286 -0.0182 -0.2844
  435MPD2    C5 6539   1.314   1.579  15.577  0.9298 -0.0570  0.1758
  435MPD2     H 6540   1.056   1.473  15.843 -1.6418 -1.6092 -2.4749
  435MPD2    H1 6541   1.457   1.479  15.686 -0.6130 -1.8613  0.8929
  435MPD2    H2 6542   1.166   1.702  15.493 -1.3091  3.1915  2.6725
  435MPD2    H3 6543   1.385   1.616  15.503  0.6336 -1.2748 -0.7162
  435MPD2     N 6544   1.279   1.346  15.862 -0.2549 -0.6271 -0.0660
  435MPD2    H5 6545   1.210   1.328  15.935  1.9357 -0.2477  2.1002
  435MPD2    N1 6546   0.956   1.639  15.672 -0.3357  0.1900  0.4801
  435MPD2    H7 6547   0.901   1.596  15.745  0.9554 -2.7419 -0.2667
  436TMC3    C1 6548   0.591   1.743  15.778 -0.7894  0.0497 -0.2818
  436TMC3    C2 6549   0.725   1.731  15.744 -0.3341 -0.3738 -0.7728
  436TMC3    C3 6550   0.770   1.763  15.618  0.4597  0.0272  0.4222
  436TMC3    C4 6551   0.497   1.779  15.686 -0.7528 -0.0449  0.4107
  436TMC3    C5 6552   0.549   1.793  15.555  0.0096 -0.0046  0.3047
  436TMC3    C6 6553   0.681   1.794  15.518 -0.1160 -0.3631  0.2502
  436TMC3     C 6554   0.559   1.666  15.896  0.2208  0.0904  0.5054
  436TMC3     O 6555   0.643   1.593  15.940 -0.3189 -0.0437 -0.3431
  436TMC3     H 6556   0.797   1.700  15.818  0.2667  0.6951 -0.9060
  436TMC3    H1 6557   0.392   1.795  15.708 -0.6458 -0.1221  0.9918
  436TMC3    H2 6558   0.711   1.836  15.422 -1.6133  1.1307  0.4332
  436TMC3    C7 6559   0.460   1.770  15.446  0.4488 -0.5470  0.3129
  436TMC3    C8 6560   0.906   1.729  15.584 -0.3716  0.1198 -0.3113
  436TMC3    O1 6561   0.341   1.778  15.464 -0.0579  0.8486  0.1633
  436TMC3    O2 6562   0.955   1.783  15.488  0.5095  0.5744  0.1171
  437TMC3    C1 6563   4.682   3.646  12.890  0.7222 -0.0848  0.4774
  437TMC3    C2 6564   4.587   3.729  12.952  0.0604  0.4770 -0.2197
  437TMC3    C3 6565   4.576   3.857  12.906  0.0829  0.1992  0.4876
  437TMC3    C4 6566   0.034   3.691  12.798 -1.2056  0.1351 -0.6500
  437TMC3    C5 6567   0.010   3.814  12.748  0.6217 -0.2540  0.0510
  437TMC3    C6 6568   4.653   3.900  12.802  0.5489  0.4370 -0.0302
  437TMC3     C 6569   4.700   3.513  12.929  0.3012  0.6677 -0.1387
  437TMC3     O 6570   0.069   3.460  12.898  0.4314  0.1850  0.1670
  437TMC3     H 6571   4.534   3.704  13.043  1.5269 -1.5860  0.0591
  437TMC3    H1 6572   0.106   3.617  12.765 -1.1035 -0.0631  0.0196
  437TMC3    H2 6573   4.647   4.003  12.771  0.9395 -0.3550 -2.6972
  437TMC3    C7 6574   0.122   3.882  12.681  1.1266  0.8030  0.0037
  437TMC3    C8 6575   4.471   3.943  12.953  0.6214 -0.0717 -0.7974
  437TMC3    O1 6576   0.112   3.981  12.612 -0.0669  0.3770 -0.4940
  437TMC3    O2 6577   4.376   3.885  13.002  0.5174 -0.4089 -0.6962
  438MPD2     C 6578   2.023   4.564  17.681 -0.6396 -0.2429  0.3110
  438MPD2    C1 6579   2.062   4.442  17.641  0.3420  0.0123 -0.2147
  438MPD2    C2 6580   2.074   4.334  17.727  0.5985  0.2665 -0.2105
  438MPD2    C3 6581   2.011   4.340   0.100 -1.2151 -0.1533  0.1325
  438MPD2    C4 6582   1.970   4.470   0.135  0.0600 -0.7336  0.1223
  438MPD2    C5 6583   2.004   4.579   0.067  0.1573 -0.3397  0.2727
  438MPD2     H 6584   2.122   4.240  17.703  1.7784  0.4960  1.1677
  438MPD2    H1 6585   1.942   4.491   0.238 -0.0825 -0.9059  0.1186
  438MPD2    H2 6586   2.039   4.656  17.625 -2.6919  0.7085  1.2853
  438MPD2    H3 6587   1.998   4.680   0.104  1.8819 -0.3612  0.6100
  438MPD2     N 6588   2.008   4.234   0.197  0.1561 -0.2210 -0.0416
  438MPD2    H5 6589   1.956   4.265   0.279  0.3875  1.0524 -0.3758
  438MPD2    N1 6590   2.120   4.428  17.511  0.0575  0.3046  0.1205
  438MPD2    H7 6591   2.191   4.356  17.499 -1.1931 -0.6395 -1.7199
  439TMC3    C1 6592   2.169   4.435  17.289 -0.5160  0.0434 -0.5602
  439TMC3    C2 6593   2.108   4.428  17.162  0.4903  0.3707  0.0604
  439TMC3    C3 6594   2.179   4.351  17.071  0.2983 -0.2797  1.0160
  439TMC3    C4 6595   2.290   4.382  17.319  0.2283 -0.0894 -0.0472
  439TMC3    C5 6596   2.342   4.292  17.232 -0.3956  0.3211 -0.5036
  439TMC3    C6 6597   2.294   4.282  17.105  0.0956  0.0416 -0.5351
  439TMC3     C 6598   2.088   4.490  17.393 -0.0999 -0.3559 -0.2417
  439TMC3     O 6599   1.977   4.547  17.370  0.1435  0.3944 -0.2475
  439TMC3     H 6600   2.005   4.462  17.148  0.4873 -0.0867 -0.9969
  439TMC3    H1 6601   2.338   4.392  17.416  0.0327  1.4813 -0.1136
  439TMC3    H2 6602   2.332   4.210  17.034  0.2441  0.6068 -1.0250
  439TMC3    C7 6603   2.425   4.192  17.287 -1.0505  0.0984 -0.3446
  439TMC3    C8 6604   2.121   4.299  16.950  0.5076  0.1138 -0.5524
  439TMC3    O1 6605   2.492   4.240  17.377 -0.3889 -0.0437  0.4595
  439TMC3    O2 6606   2.139   4.182  16.932  0.3545 -0.2937 -0.3685
  440MPD2     C 6607   1.133   4.323  14.764  0.4553 -0.5405 -0.4149
  440MPD2    C1 6608   1.139   4.384  14.887 -0.0223 -0.0249  0.0559
  440MPD2    C2 6609   1.224   4.344  14.989  0.5955  0.0590 -0.3432
  440MPD2    C3 6610   1.311   4.238  14.971  0.3762 -0.0109  0.6003
  440MPD2    C4 6611   1.292   4.166  14.858  0.0820 -0.3976  0.0571
  440MPD2    C5 6612   1.203   4.204  14.763 -0.2524 -0.2517  0.6212
  440MPD2     H 6613   1.230   4.416  15.070  0.3696  0.9643 -1.1263
  440MPD2    H1 6614   1.343   4.072  14.840 -1.9602 -1.5087  0.0464
  440MPD2    H2 6615   1.079   4.356  14.675  0.0059 -0.0318  0.0470
  440MPD2    H3 6616   1.197   4.145  14.672 -3.4451  0.6803  0.2176
  440MPD2     N 6617   1.395   4.192  15.078  0.3645 -0.4204  0.1432
  440MPD2    H5 6618   1.439   4.101  15.079 -0.4523 -0.8160  0.9332
  440MPD2    N1 6619   1.060   4.492  14.920  0.2393  0.2339 -0.2491
  440MPD2    H7 6620   1.082   4.546  15.003 -1.0947  0.9582 -0.3670
  441TMC3    C1 6621   1.476   4.182  15.300 -0.1634 -0.6356 -0.3201
  441TMC3    C2 6622   1.526   4.245  15.407  0.0094 -0.7399 -0.3062
  441TMC3    C3 6623   1.523   4.180  15.527 -0.3598 -0.3340  0.0432
  441TMC3    C4 6624   1.425   4.056  15.309  0.5056  0.1599 -0.0158
  441TMC3    C5 6625   1.428   3.993  15.429 -0.3823  0.2354  0.4323
  441TMC3    C6 6626   1.494   4.048  15.533  0.5833 -0.9019  0.1718
  441TMC3     C 6627   1.417   4.263  15.191 -0.7717 -0.0522 -0.3703
  441TMC3     O 6628   1.398   4.381  15.219  0.0594  0.2478 -0.5565
  441TMC3     H 6629   1.544   4.352  15.405  2.4094 -1.1962 -3.0792
  441TMC3    H1 6630   1.382   3.999  15.227  0.8117 -0.8821  0.5523
  441TMC3    H2 6631   1.503   4.009  15.634 -1.5909 -0.7171  0.4427
  441TMC3    C7 6632   1.293   3.933  15.458 -0.4281  0.1587  0.4503
  441TMC3    C8 6633   1.551   4.254  15.640 -0.7659  1.2640 -0.7511
  441TMC3    O1 6634   1.230   3.891  15.367 -0.7900  0.7662  0.0697
  441TMC3    O2 6635   1.605   4.198  15.736  0.1429  0.1049  0.7802
  442MPD2     C 6636   3.957   0.772  16.659 -0.1463 -0.5319  0.0928
  442MPD2    C1 6637   3.830   0.711  16.691 -0.5960  0.3354  0.1713
  442MPD2    C2 6638   3.820   0.574  16.702  0.1773  0.1442  0.4699
  442MPD2    C3 6639   3.921   0.489  16.660 -0.9602  0.8178 -0.1720
  442MPD2    C4 6640   4.042   0.548  16.617 -0.7303 -0.0932  0.0766
  442MPD2    C5 6641   4.060   0.686  16.628 -0.1306  0.0860 -0.4193
  442MPD2     H 6642   3.725   0.527  16.722  0.1509  0.7363  1.7636
  442MPD2    H1 6643   4.135   0.501  16.587 -0.6253  0.0316  0.2100
  442MPD2    H2 6644   3.972   0.879  16.658 -1.0157 -0.4082 -0.0499
  442MPD2    H3 6645   4.157   0.732  16.612  0.1044  0.2523  1.4167
  442MPD2     N 6646   3.917   0.345  16.652  0.7081 -0.3641 -0.1751
  442MPD2    H5 6647   4.000   0.290  16.629  1.5159  0.9616 -0.3927
  442MPD2    N1 6648   3.708   0.786  16.720 -0.3060  0.7270 -0.1626
  442MPD2    H7 6649   3.632   0.739  16.768  2.5476 -0.5222  3.0967
  443TMC3    C1 6650   3.581   0.985  16.769  1.7473  0.1465 -0.4832
  443TMC3    C2 6651   3.526   1.098  16.711 -0.3313  0.4296 -0.6872
  443TMC3    C3 6652   3.385   1.101  16.703 -0.0180  0.0358 -0.2851
  443TMC3    C4 6653   3.502   0.904  16.841 -0.3776 -0.1410 -0.1471
  443TMC3    C5 6654   3.364   0.924  16.845  0.0032 -0.5699  0.4119
  443TMC3    C6 6655   3.300   1.022  16.771 -0.2850 -0.0216 -0.6498
  443TMC3     C 6656   3.693   0.918  16.692 -1.1352  0.1071 -0.1235
  443TMC3     O 6657   3.767   0.993  16.628 -0.4479 -0.6594  0.2175
  443TMC3     H 6658   3.594   1.154  16.647 -2.0112  4.4756  1.0740
  443TMC3    H1 6659   3.551   0.832  16.906  1.2121  1.3683  0.3470
  443TMC3    H2 6660   3.196   1.012  16.741 -1.0937  1.9488  1.5376
  443TMC3    C7 6661   3.299   0.859  16.955 -0.5163  0.1393  0.0172
  443TMC3    C8 6662   3.320   1.198  16.621  0.8584 -0.6386 -0.2178
  443TMC3    O1 6663   3.350   0.756  16.990  0.1199 -0.0025  0.6467
  443TMC3    O2 6664   3.224   1.246  16.681  0.2211 -0.2610  0.6921
  444MPD2     C 6665   4.239   4.586  17.183 -0.3645 -0.1148  0.1374
  444MPD2    C1 6666   4.144   4.497  17.207  0.2879 -0.7394 -0.3675
  444MPD2    C2 6667   4.164   4.359  17.180 -0.1650  0.0097  0.3261
  444MPD2    C3 6668   4.278   4.318  17.123 -0.0563 -0.1396 -0.6918
  444MPD2    C4 6669   4.368   4.410  17.091  0.1890 -0.3340  0.7325
  444MPD2    C5 6670   4.358   4.540  17.132  0.6047  0.4398 -0.1727
  444MPD2     H 6671   4.085   4.291  17.209 -1.6032  1.1005 -0.9929
  444MPD2    H1 6672   4.457   4.394  17.032 -0.0510 -2.7001  1.0279
  444MPD2    H2 6673   4.225   4.694  17.187  1.7216  0.1839 -0.3399
  444MPD2    H3 6674   4.433   4.612  17.100  1.7541 -0.1127  1.2218
  444MPD2     N 6675   4.293   4.185  17.093 -0.1381 -0.5631 -0.0606
  444MPD2    H5 6676   4.219   4.117  17.105 -0.6214 -0.2992 -1.5682
  444MPD2    N1 6677   4.017   4.530  17.258 -0.6237 -0.4620  0.6418
  444MPD2    H7 6678   3.950   4.454  17.262 -0.5833 -0.5809 -0.8568
  445TMC3    C1 6679   4.412   3.994  17.007 -0.5232 -0.8119 -0.3957
  445TMC3    C2 6680   4.314   3.959  16.915  0.5830 -0.2318 -0.1493
  445TMC3    C3 6681   4.342   3.857  16.824 -0.0565  0.1948  0.3060
  445TMC3    C4 6682   4.536   3.935  17.015  1.3457 -0.0211 -0.0483
  445TMC3    C5 6683   4.552   3.833  16.925 -0.1602 -0.8274 -0.0741
  445TMC3    C6 6684   4.460   3.790  16.830  0.0892 -0.4364  0.1614
  445TMC3     C 6685   4.417   4.129  17.060 -0.0271  0.3484  0.3557
  445TMC3     O 6686   4.528   4.177  17.079  0.2446  0.5564  0.0426
  445TMC3     H 6687   4.228   4.025  16.912 -0.4013 -1.5788 -1.6312
  445TMC3    H1 6688   4.594   3.945  17.106 -0.6010 -0.5964  1.2688
  445TMC3    H2 6689   4.495   3.721  16.754 -0.5790 -0.9185  0.2930
  445TMC3    C7 6690   4.688   3.797  16.915  0.6021  0.2116 -0.2401
  445TMC3    C8 6691   4.253   3.837  16.717  0.0323 -0.5254 -0.4821
  445TMC3    O1 6692   0.028   3.876  16.964  1.1044  0.3552 -0.1348
  445TMC3    O2 6693   4.161   3.918  16.710 -0.1911 -0.3768  0.5061
  446MPD2     C 6694   3.967   0.807  11.577 -0.2000 -0.2214  0.2503
  446MPD2    C1 6695   3.927   0.878  11.467  0.1470 -0.1409  0.6161
  446MPD2    C2 6696   4.025   0.957  11.404 -0.0736  0.1407  0.1579
  446MPD2    C3 6697   4.157   0.966  11.451  0.2432 -0.2587 -0.3323
  446MPD2    C4 6698   4.186   0.892  11.564 -0.2509  1.1112 -0.4150
  446MPD2    C5 6699   4.092   0.816  11.625 -0.2076 -0.1191  0.5081
  446MPD2     H 6700   3.987   1.005  11.315 -0.7471 -0.2990  0.2071
  446MPD2    H1 6701   4.286   0.877  11.603 -1.0353  0.2414  1.2657
  446MPD2    H2 6702   3.895   0.757  11.640 -0.2170  1.6676  1.7069
  446MPD2    H3 6703   4.125   0.760  11.713  2.6340 -0.9314 -1.0704
  446MPD2     N 6704   4.261   1.045  11.395 -0.4641 -0.0342  0.3265
  446MPD2    H5 6705   4.346   1.060  11.449 -0.9089  1.4711  0.6086
  446MPD2    N1 6706   3.799   0.885  11.419  0.0853 -0.1199  0.7125
  446MPD2    H7 6707   3.787   0.959  11.350  0.2219  0.3841  1.2251
  447TMC3    C1 6708   4.355   1.204  11.247 -1.0838 -0.1753  0.8044
  447TMC3    C2 6709   4.319   1.309  11.164 -0.0433 -0.8798 -0.0708
  447TMC3    C3 6710   4.421   1.374  11.103 -0.0119  0.5779 -0.3478
  447TMC3    C4 6711   4.484   1.163  11.260 -1.0745  0.6712  0.1466
  447TMC3    C5 6712   4.581   1.235  11.208 -0.2886  0.5695 -0.4936
  447TMC3    C6 6713   4.552   1.342  11.125  0.3802 -0.5699 -0.5683
  447TMC3     C 6714   4.249   1.106  11.271 -0.0097 -0.5094  0.4606
  447TMC3     O 6715   4.154   1.105  11.195 -0.0799 -0.0995  0.2983
  447TMC3     H 6716   4.214   1.330  11.149 -0.7104 -2.2123  2.6636
  447TMC3    H1 6717   4.507   1.083  11.329  0.7814  2.4792  1.6398
  447TMC3    H2 6718   4.629   1.405  11.083 -0.3513 -0.6306 -2.0290
  447TMC3    C7 6719   4.706   1.234  11.281 -0.3702 -0.2275 -1.3632
  447TMC3    C8 6720   4.383   1.496  11.029 -0.3325  0.2917  0.2459
  447TMC3    O1 6721   0.011   1.133  11.337 -0.3416 -0.6171  0.0511
  447TMC3    O2 6722   4.281   1.553  11.058  0.6542 -0.4838  0.1798
  448TMC3    C1 6723   2.340   1.340  17.463  0.3568 -0.0773 -0.2239
  448TMC3    C2 6724   2.304   1.223  17.407  0.5312  0.3128  0.0633
  448TMC3    C3 6725   2.251   1.128  17.486 -0.3521 -0.7239  0.0155
  448TMC3    C4 6726   2.325   1.368  17.603  0.2102 -0.9506  0.0098
  448TMC3    C5 6727   2.269   1.264  17.682 -1.2352 -0.2234 -1.0902
  448TMC3    C6 6728   2.225   1.145  17.620 -0.1111  0.2197 -0.1684
  448TMC3     C 6729   2.425   1.422  17.377  0.5463  0.0917 -0.0434
  448TMC3     O 6730   2.509   1.487  17.437  0.7106  0.5702  0.5760
  448TMC3     H 6731   2.342   1.198  17.308 -1.5747  0.3773 -0.7675
  448TMC3    H1 6732   2.369   1.454  17.653  1.7412 -2.2673  0.9510
  448TMC3    H2 6733   2.184   1.065  17.680  1.5788 -0.5708 -0.0726
  448TMC3    C7 6734   2.225   1.309   0.066  0.7045 -0.4334 -0.0945
  448TMC3    C8 6735   2.184   1.017  17.420  0.6703 -0.1959  0.2511
  448TMC3    O1 6736   2.263   1.423   0.087  0.3182  0.4806 -0.3994
  448TMC3    O2 6737   2.155   0.920  17.488 -0.3738 -0.0794  0.5369
  449MPD2     C 6738   3.973   4.243  14.850 -0.5157 -0.2171  0.2657
  449MPD2    C1 6739   3.886   4.171  14.766 -0.6692  0.3993  0.2969
  449MPD2    C2 6740   3.762   4.129  14.810 -0.0277 -0.0818  0.2379
  449MPD2    C3 6741   3.726   4.157  14.945  0.0384 -0.9168  0.3534
  449MPD2    C4 6742   3.808   4.226  15.029 -0.5784  0.0881 -0.1623
  449MPD2    C5 6743   3.930   4.276  14.974  0.1077  0.0146  0.6428
  449MPD2     H 6744   3.691   4.071  14.753  0.0746  0.1758 -0.1473
  449MPD2    H1 6745   3.777   4.254  15.129  3.4005  3.4005  0.1518
  449MPD2    H2 6746   4.059   4.293  14.809 -0.8057 -2.0898 -2.5936
  449MPD2    H3 6747   3.995   4.335  15.037 -0.6800  1.1240  0.4182
  449MPD2     N 6748   3.600   4.114  14.992 -0.5364 -0.3296  0.3055
  449MPD2    H5 6749   3.548   4.087  14.909 -1.0718 -0.2885  0.6278
  449MPD2    N1 6750   3.922   4.129  14.638  0.0559 -0.1265 -0.2461
  449MPD2    H7 6751   3.863   4.055  14.600 -1.2496  0.2098  1.1396
  450TMC3    C1 6752   4.014   4.090  14.427 -0.1263 -0.5792 -0.1590
  450TMC3    C2 6753   4.002   4.172  14.319 -0.0599  0.4310  0.7284
  450TMC3    C3 6754   3.918   4.133  14.221 -0.0014  0.4538  0.5771
  450TMC3    C4 6755   3.941   3.977  14.440 -0.6492 -1.0205  0.3833
  450TMC3    C5 6756   3.853   3.943  14.339  0.4434 -0.0989  0.7348
  450TMC3    C6 6757   3.846   4.015  14.225  0.2245 -0.1958 -0.0937
  450TMC3     C 6758   4.030   4.161  14.553  0.0953  0.6841 -0.4942
  450TMC3     O 6759   4.115   4.248  14.566  0.2817 -0.3586 -0.2622
  450TMC3     H 6760   4.070   4.256  14.307  1.5289 -0.6561  2.0013
  450TMC3    H1 6761   3.964   3.910  14.522 -0.9499 -2.6276 -0.8368
  450TMC3    H2 6762   3.769   3.994  14.152  0.8808  1.9300 -1.4103
  450TMC3    C7 6763   3.726   3.915  14.408  0.0095  0.4114 -0.2517
  450TMC3    C8 6764   3.959   4.176  14.086  0.1803  0.1906  0.1772
  450TMC3    O1 6765   3.741   3.900  14.527 -0.5125 -0.3292  0.3034
  450TMC3    O2 6766   3.955   4.087  14.003  0.4443  0.2250 -0.8873
  451MPD2     C 6767   4.363   2.852   1.271 -0.5250 -0.3827  0.1886
  451MPD2    C1 6768   4.413   2.933   1.175 -0.5715 -0.1170 -0.5891
  451MPD2    C2 6769   4.437   2.880   1.050 -0.3367  0.3742  0.5827
  451MPD2    C3 6770   4.415   2.747   1.019 -0.4180  0.2071  0.0924
  451MPD2    C4 6771   4.369   2.669   1.116  0.1187  0.0395 -0.7082
  451MPD2    C5 6772   4.341   2.719   1.237 -0.6069 -0.2084  0.1896
  451MPD2     H 6773   4.475   2.948   0.974  0.7934 -0.6296  0.2331
  451MPD2    H1 6774   4.358   2.562   1.101 -1.3132  0.4218 -2.3909
  451MPD2    H2 6775   4.330   2.902   1.361 -0.8021 -2.6982  1.3916
  451MPD2    H3 6776   4.307   2.655   1.318  2.0691 -0.3271  1.2257
  451MPD2     N 6777   4.448   2.695   0.887  0.3085  0.1830  0.2708
  451MPD2    H5 6778   4.446   2.594   0.883  2.3638  0.0936  1.2837
  451MPD2    N1 6779   4.437   3.073   1.205  0.6398 -0.1203 -0.2830
  451MPD2    H7 6780   4.388   3.114   1.284 -1.7511  0.2479 -1.9682
  452TMC3    C1 6781   4.514   2.706   0.652 -0.5355 -0.1537 -0.2409
  452TMC3    C2 6782   4.496   2.574   0.631 -0.9162  0.3007 -0.0207
  452TMC3    C3 6783   4.549   2.517   0.518  0.0100  0.3747  0.3908
  452TMC3    C4 6784   4.600   2.782   0.580  0.1396 -0.1036  0.4393
  452TMC3    C5 6785   4.644   2.723   0.466 -0.0402 -0.1130 -0.5623
  452TMC3    C6 6786   4.622   2.591   0.436  1.0657 -0.4746  0.1102
  452TMC3     C 6787   4.453   2.765   0.767  0.1243  0.0612 -0.1432
  452TMC3     O 6788   4.442   2.888   0.746 -0.5365  0.6196  0.2312
  452TMC3     H 6789   4.449   2.503   0.698 -2.4589 -0.4137 -1.8539
  452TMC3    H1 6790   4.601   2.891   0.583 -0.1096 -0.1671  2.5846
  452TMC3    H2 6791   4.671   2.561   0.345  3.2374  1.0422  0.7803
  452TMC3    C7 6792   0.018   2.781   0.405 -0.4105 -0.0315 -0.7944
  452TMC3    C8 6793   4.533   2.373   0.484  1.0164  0.2614 -0.4287
  452TMC3    O1 6794   0.038   2.774   0.285 -0.0642  0.6684 -0.1079
  452TMC3    O2 6795   4.452   2.312   0.557 -0.3847  0.2301  0.2063
  453TMC3    C1 6796   1.753   0.053  12.437  0.9084  0.1130  0.0995
  453TMC3    C2 6797   1.697   4.702  12.527  0.0014  0.1664  0.0302
  453TMC3    C3 6798   1.585   0.013  12.584 -0.0239 -0.1682  0.3021
  453TMC3    C4 6799   1.712   0.179  12.417  0.0244  0.1279  0.1224
  453TMC3    C5 6800   1.593   0.220  12.473 -0.9595 -0.1126  0.2323
  453TMC3    C6 6801   1.525   0.132  12.553  0.1059 -0.1711 -0.2721
  453TMC3     C 6802   1.900   0.030  12.393  1.0358 -0.4254 -0.6097
  453TMC3     O 6803   1.973   0.126  12.377  0.0298  0.3529 -0.4867
  453TMC3     H 6804   1.745   4.609  12.555 -0.6880 -0.7960 -1.9916
  453TMC3    H1 6805   1.768   0.245  12.352 -0.5622  0.8484  0.3416
  453TMC3    H2 6806   1.442   0.167  12.614  0.1259 -1.1497  0.3079
  453TMC3    C7 6807   1.527   0.332  12.414 -0.4985 -0.0467  0.1912
  453TMC3    C8 6808   1.518   4.678  12.685 -0.4336 -0.3471  0.2802
  453TMC3    O1 6809   1.557   0.369  12.303  0.3148 -0.1492 -0.4788
  453TMC3    O2 6810   1.396   4.683  12.686  0.0752 -0.0132  0.3966
  454MPD2     C 6811   0.314   4.106  16.694  0.1127  0.0384  0.7342
  454MPD2    C1 6812   0.280   4.235  16.653  0.3291 -0.3642  0.8183
  454MPD2    C2 6813   0.243   4.330  16.742 -0.1556  0.4294  0.3236
  454MPD2    C3 6814   0.222   4.296  16.875  0.5633  0.8147 -0.3931
  454MPD2    C4 6815   0.263   4.173  16.918  0.3968  0.2991  0.6527
  454MPD2    C5 6816   0.307   4.080  16.830 -0.4716 -0.2217  0.1954
  454MPD2     H 6817   0.217   4.426  16.700 -0.3277  0.6108  0.8495
  454MPD2    H1 6818   0.253   4.143  17.022  0.3120  0.7953  0.7849
  454MPD2    H2 6819   0.323   4.026  16.621  3.3481  1.4494 -0.3829
  454MPD2    H3 6820   0.321   3.980  16.870 -1.2358 -0.4205 -0.0513
  454MPD2     N 6821   0.151   4.383  16.956  0.3461 -0.1412 -0.0009
  454MPD2    H5 6822   0.111   4.335  17.036  1.2857  0.1933  0.6734
  454MPD2    N1 6823   0.255   4.276  16.523 -0.1956  0.4126 -0.3872
  454MPD2    H7 6824   0.211   4.367  16.519  0.7939  0.8144 -1.9071
  455TMC3    C1 6825   4.679   4.472  16.876 -0.2291  0.5520  0.6073
  455TMC3    C2 6826   4.603   4.584  16.853  0.6180 -0.7114 -0.0309
  455TMC3    C3 6827   4.482   4.566  16.798  0.0401  1.1337  0.1623
  455TMC3    C4 6828   4.639   4.354  16.825  0.0845  0.5209  0.0369
  455TMC3    C5 6829   4.518   4.338  16.757  0.3242 -0.0643 -0.0588
  455TMC3    C6 6830   4.440   4.449  16.747  0.2720 -0.1508  0.0603
  455TMC3     C 6831   0.081   4.489  16.907  0.2270 -0.3626 -0.2112
  455TMC3     O 6832   0.130   4.596  16.867  0.2415  0.3014  0.3956
  455TMC3     H 6833   4.625   4.682  16.893  1.1969 -1.3453  1.1920
  455TMC3    H1 6834   4.689   4.262  16.854 -4.2641 -1.2525  2.0514
  455TMC3    H2 6835   4.341   4.453  16.704  1.1908  1.8721 -1.9307
  455TMC3    C7 6836   4.500   4.216  16.671  0.4879 -0.0701  0.4965
  455TMC3    C8 6837   4.386   4.677  16.794  0.2334 -0.3664 -0.2150
  455TMC3    O1 6838   4.404   4.224  16.596  0.2623 -0.0207  0.0213
  455TMC3    O2 6839   4.446   0.047  16.799 -0.2621 -0.2237 -0.1451
  456MPD2     C 6840   2.413   4.545  16.594 -0.4223 -0.2228 -0.0470
  456MPD2    C1 6841   2.477   4.526  16.710 -0.3419  0.6767 -0.3061
  456MPD2    C2 6842   2.436   4.606  16.819  0.1751 -0.5777 -0.1455
  456MPD2    C3 6843   2.332   4.696  16.807 -0.4725 -0.3834 -0.1884
  456MPD2    C4 6844   2.285   4.717  16.682 -0.2005  0.4126 -0.3709
  456MPD2    C5 6845   2.326   4.645  16.575  0.1086  0.2190 -0.3042
  456MPD2     H 6846   2.487   4.593  16.914  0.9514 -1.2149 -0.6450
  456MPD2    H1 6847   2.204   0.048  16.661  0.7498  1.7601  0.4467
  456MPD2    H2 6848   2.438   4.490  16.503  0.5162  1.3596 -0.7358
  456MPD2    H3 6849   2.286   4.653  16.474 -0.3396 -1.6719 -0.2674
  456MPD2     N 6850   2.294   0.031  16.928  0.5289  0.7266 -0.2670
  456MPD2    H5 6851   2.343   0.006  17.013 -0.6521 -1.5837 -0.2733
  456MPD2    N1 6852   2.586   4.435  16.722 -0.6504  0.0806 -0.5043
  456MPD2    H7 6853   2.614   4.375  16.645  0.7582  0.2775 -0.1561
  457TMC3    C1 6854   2.193   0.188  17.073 -0.3277 -0.6790 -0.7200
  457TMC3    C2 6855   2.132   0.319  17.083  0.5567 -0.3519  0.5692
  457TMC3    C3 6856   2.135   0.370  17.210  0.0085  0.2111 -0.1109
  457TMC3    C4 6857   2.204   0.101  17.179 -0.7465 -0.3958  0.2955
  457TMC3    C5 6858   2.187   0.158  17.306  0.3576  0.8045  0.4397
  457TMC3    C6 6859   2.156   0.290  17.318 -0.2954  0.9019 -0.3482
  457TMC3     C 6860   2.206   0.139  16.941  0.0957  0.2455  0.4406
  457TMC3     O 6861   2.149   0.196  16.848 -0.0872  0.1376 -0.0835
  457TMC3     H 6862   2.096   0.372  16.996  1.4049  2.7667  2.1218
  457TMC3    H1 6863   2.244   0.002  17.166  0.2021  0.2656 -1.7886
  457TMC3    H2 6864   2.163   0.351  17.407 -0.1178  1.0880 -0.4888
  457TMC3    C7 6865   2.223   0.084  17.429 -0.2190  0.2026 -0.3677
  457TMC3    C8 6866   2.095   0.508  17.230  0.2359  0.0596 -0.3289
  457TMC3    O1 6867   2.291   4.722  17.427 -0.0538  0.4072 -0.1116
  457TMC3    O2 6868   2.068   0.546  17.344  0.3227  0.4313  0.0678
  458MPD2     C 6869   0.618   3.982  12.732  0.4101 -0.1360  1.2255
  458MPD2    C1 6870   0.579   3.892  12.825 -0.1286  0.4122 -0.1720
  458MPD2    C2 6871   0.451   3.843  12.821 -0.2246  0.0866  0.7921
  458MPD2    C3 6872   0.360   3.898  12.735  0.3423 -0.3934  0.3133
  458MPD2    C4 6873   0.400   3.997  12.651 -0.5281  1.0572 -0.6745
  458MPD2    C5 6874   0.530   4.036  12.647 -0.8198 -0.0681 -0.6937
  458MPD2     H 6875   0.424   3.757  12.882  0.4348 -0.9129 -0.3232
  458MPD2    H1 6876   0.331   4.044  12.582  0.0234  3.5896  0.5308
  458MPD2    H2 6877   0.719   4.023  12.737  0.9051 -0.9305 -2.0314
  458MPD2    H3 6878   0.568   4.103  12.571 -0.0770  0.3446  0.0459
  458MPD2     N 6879   0.235   3.836  12.743 -0.6430 -0.3653  0.0950
  458MPD2    H5 6880   0.220   3.767  12.816  0.4042 -0.1736  0.4956
  458MPD2    N1 6881   0.675   3.856  12.917  0.1600  0.2024 -0.7468
  458MPD2    H7 6882   0.764   3.905  12.912  0.0692  0.4384 -0.1010
  459TMC3    C1 6883   0.763   3.780  13.120 -0.4528  0.4602 -0.0387
  459TMC3    C2 6884   0.885   3.820  13.086 -0.6538 -0.0269 -0.6931
  459TMC3    C3 6885   0.992   3.796  13.171 -0.4627 -0.5564  1.0012
  459TMC3    C4 6886   0.738   3.710  13.241 -0.4453  0.3504 -0.1214
  459TMC3    C5 6887   0.849   3.696  13.320  0.0417 -0.3353 -0.3972
  459TMC3    C6 6888   0.976   3.733  13.292 -0.7707 -0.1321 -0.2500
  459TMC3     C 6889   0.650   3.777  13.029 -0.2584 -0.2182  0.5530
  459TMC3     O 6890   0.543   3.725  13.060 -0.0399  0.4215  0.2648
  459TMC3     H 6891   0.899   3.862  12.988 -0.3758  0.4448 -0.4520
  459TMC3    H1 6892   0.652   3.644  13.249  0.0910 -0.4512 -0.9564
  459TMC3    H2 6893   1.050   3.712  13.367 -1.3869  0.7836  0.6174
  459TMC3    C7 6894   0.824   3.625  13.446 -0.4798 -0.7201  0.4046
  459TMC3    C8 6895   1.120   3.812  13.109  0.2621 -0.9508  0.1080
  459TMC3    O1 6896   0.920   3.566  13.491  0.5348 -0.0305  0.1717
  459TMC3    O2 6897   1.116   3.873  13.005 -0.0801  0.2555  0.0186
  460MPD2     C 6898   4.573   1.715  10.812 -0.1533 -0.3257  0.4820
  460MPD2    C1 6899   4.458   1.660  10.861 -0.0605 -0.5268 -0.4192
  460MPD2    C2 6900   4.341   1.730  10.835 -0.2777 -0.0024 -0.2113
  460MPD2    C3 6901   4.336   1.849  10.760  0.3646 -0.0102 -0.0004
  460MPD2    C4 6902   4.458   1.913  10.727  0.5001  0.5047 -0.4584
  460MPD2    C5 6903   4.570   1.842  10.756 -0.1697  0.3553 -0.5305
  460MPD2     H 6904   4.247   1.690  10.872 -0.9920  1.7829 -0.1073
  460MPD2    H1 6905   4.465   2.011  10.682  2.3507  0.2808 -0.6746
  460MPD2    H2 6906   4.669   1.668  10.830 -0.3586 -0.8966  0.0890
  460MPD2    H3 6907   4.655   1.904  10.730  0.2560 -0.1634 -0.3615
  460MPD2     N 6908   4.209   1.898  10.722 -0.7365  0.3691  1.1228
  460MPD2    H5 6909   4.129   1.843  10.751 -0.3439  0.1294  1.7316
  460MPD2    N1 6910   4.476   1.542  10.938  0.2867 -0.0610  0.0947
  460MPD2    H7 6911   4.566   1.495  10.936  0.2358 -0.2417  1.9485
  461TMC3    C1 6912   4.038   2.009  10.599 -0.4698  0.4963 -0.1573
  461TMC3    C2 6913   3.971   1.893  10.587  0.8092  0.3418 -0.4327
  461TMC3    C3 6914   3.843   1.899  10.529 -0.0018 -0.0285 -0.0936
  461TMC3    C4 6915   3.989   2.134  10.562  0.1690 -0.3848  0.1317
  461TMC3    C5 6916   3.870   2.131  10.500 -0.1917  0.2160  0.4375
  461TMC3    C6 6917   3.793   2.020  10.498 -1.0153  0.3578  0.5812
  461TMC3     C 6918   4.182   2.001  10.636 -0.2351 -0.2631  0.0132
  461TMC3     O 6919   4.254   2.083  10.577  0.2802 -0.0996  0.1507
  461TMC3     H 6920   4.027   1.801  10.594 -1.3848 -0.8597  1.3897
  461TMC3    H1 6921   4.064   2.212  10.557  0.9667 -0.9794  2.6142
  461TMC3    H2 6922   3.697   2.013  10.447 -0.2282  0.7340 -0.9402
  461TMC3    C7 6923   3.826   2.237  10.409 -0.0703 -0.4453 -0.1448
  461TMC3    C8 6924   3.806   1.798  10.423  0.3371  0.2512  0.0192
  461TMC3    O1 6925   3.731   2.208  10.337 -0.0866  0.0569 -0.9076
  461TMC3    O2 6926   3.783   1.845  10.315 -0.2605  0.3017 -0.2960
  462TMC3    C1 6927   4.099   2.841   0.701 -0.0017 -0.0721  1.0769
  462TMC3    C2 6928   4.168   2.846   0.583  0.7205  0.2797  0.0880
  462TMC3    C3 6929   4.146   2.747   0.492 -0.2390 -0.0876  0.0546
  462TMC3    C4 6930   3.998   2.748   0.732 -0.1278 -0.0290 -0.3439
  462TMC3    C5 6931   3.983   2.645   0.637 -0.1459 -0.8115 -0.2848
  462TMC3    C6 6932   4.049   2.652   0.508 -0.4082 -0.2664  0.9481
  462TMC3     C 6933   4.098   2.965   0.779  0.3412 -0.1515 -0.6249
  462TMC3     O 6934   4.006   2.981   0.855  0.2813  0.7066  0.1743
  462TMC3     H 6935   4.239   2.924   0.559  1.8297 -0.7941 -0.0967
  462TMC3    H1 6936   3.950   2.738   0.828  0.5748 -1.0105 -0.1018
  462TMC3    H2 6937   4.020   2.585   0.428  0.2518 -1.5928  1.8032
  462TMC3    C7 6938   3.881   2.541   0.650  0.1761 -0.3170 -1.1307
  462TMC3    C8 6939   4.251   2.737   0.386 -0.3194 -0.3488 -0.6306
  462TMC3    O1 6940   3.859   2.475   0.552  0.4321  0.3521  0.3296
  462TMC3    O2 6941   4.328   2.832   0.385  0.2856  0.5657 -0.1588
  463MPD2     C 6942   0.207   2.101   1.795  0.3254  0.3312  0.4718
  463MPD2    C1 6943   0.075   2.059   1.799  0.2701 -0.4027  0.0363
  463MPD2    C2 6944   4.730   2.129   1.888  0.1614  0.1608  0.7122
  463MPD2    C3 6945   0.033   2.252   1.940  0.2171  0.4992  0.0733
  463MPD2    C4 6946   0.165   2.290   1.929  0.0110  0.3544  0.0261
  463MPD2    C5 6947   0.246   2.209   1.857  0.0385 -0.0236 -0.1905
  463MPD2     H 6948   4.633   2.081   1.888 -0.5660  1.6260  1.2727
  463MPD2    H1 6949   0.203   2.382   1.972 -1.8203  1.6339 -1.0564
  463MPD2    H2 6950   0.274   2.044   1.733  0.2177  0.6319  0.0797
  463MPD2    H3 6951   0.349   2.239   1.845  0.7931 -2.3820  0.3147
  463MPD2     N 6952   4.687   2.333   2.008 -0.0284  0.0056  0.2165
  463MPD2    H5 6953   4.725   2.420   2.044  3.1398 -1.8177  1.3276
  463MPD2    N1 6954   0.024   1.945   1.730 -0.2757  1.0429 -0.4378
  463MPD2    H7 6955   4.666   1.920   1.748 -0.1708  1.8941  1.3089
  464TMC3    C1 6956   0.013   1.780   1.568 -0.2719 -0.5445 -0.3676
  464TMC3    C2 6957   4.638   1.839   1.525 -0.3338 -0.4174  0.5849
  464TMC3    C3 6958   4.566   1.783   1.432  0.3776 -0.3754 -0.7899
  464TMC3    C4 6959   0.056   1.664   1.511 -0.0570  0.3903 -0.8341
  464TMC3    C5 6960   4.710   1.601   1.423 -0.2708  0.6247  0.6660
  464TMC3    C6 6961   4.595   1.658   1.380 -0.4089 -0.3981 -0.0570
  464TMC3     C 6962   0.095   1.857   1.655  0.4057  0.9058  0.6782
  464TMC3     O 6963   0.214   1.836   1.657  0.0859  0.2143 -0.3108
  464TMC3     H 6964   4.600   1.932   1.565  1.9718  0.9464 -0.3824
  464TMC3    H1 6965   0.157   1.633   1.536 -0.8903 -0.3836  1.6423
  464TMC3    H2 6966   4.540   1.616   1.297  3.0150 -2.4338 -1.3060
  464TMC3    C7 6967   0.005   1.465   1.383  0.2078 -0.0327 -0.2581
  464TMC3    C8 6968   4.432   1.834   1.394  0.0568  0.9006  0.4415
  464TMC3    O1 6969   0.117   1.422   1.414 -0.9004 -0.1954  0.1703
  464TMC3    O2 6970   4.401   1.805   1.274 -0.2933  0.6912 -0.1508
  465MPD2     C 6971   1.765   4.303  16.971 -0.6014 -0.4708  0.3523
  465MPD2    C1 6972   1.661   4.319  17.062  0.2600  0.0356  0.0038
  465MPD2    C2 6973   1.534   4.360  17.021  0.6375 -0.6681 -0.2561
  465MPD2    C3 6974   1.514   4.389  16.885 -0.3258  0.4773  0.1104
  465MPD2    C4 6975   1.620   4.379  16.796 -0.4596  0.0124 -0.2594
  465MPD2    C5 6976   1.740   4.338  16.838  0.2205 -0.6275 -0.7474
  465MPD2     H 6977   1.453   4.362  17.094  0.7235  2.3801 -0.2502
  465MPD2    H1 6978   1.618   4.426  16.698  0.8679 -2.4702 -1.4709
  465MPD2    H2 6979   1.866   4.272  16.996 -0.4117 -1.3578 -1.5284
  465MPD2    H3 6980   1.821   4.324  16.766  2.3752  2.8283  1.0081
  465MPD2     N 6981   1.389   4.436  16.838  0.1988 -0.5197 -0.2309
  465MPD2    H5 6982   1.323   4.461  16.911 -0.2159  1.3009 -1.2383
  465MPD2    N1 6983   1.676   4.288  17.198 -0.4236 -0.2149 -0.0413
  465MPD2    H7 6984   1.595   4.302  17.259 -2.5293 -0.8386 -2.6897
  466TMC3    C1 6985   1.015   4.530  16.810 -0.2425  0.6533  0.2065
  466TMC3    C2 6986   0.993   4.647  16.738 -0.7188 -0.2642  0.2259
  466TMC3    C3 6987   1.082   4.680  16.640  0.1264  0.4802 -0.3765
  466TMC3    C4 6988   1.132   4.462  16.802 -0.4690  0.0429 -0.1577
  466TMC3    C5 6989   1.217   4.501  16.701 -0.2925 -0.2754  0.4447
  466TMC3    C6 6990   1.184   4.600  16.611  0.0385 -0.0660 -0.0426
  466TMC3     C 6991   0.945   4.512  16.936 -0.2908  0.3650 -0.3711
  466TMC3     O 6992   0.978   4.427  17.015  0.0649 -0.7956  0.2624
  466TMC3     H 6993   0.931   4.724  16.782 -1.1666 -1.3528  1.4973
  466TMC3    H1 6994   1.137   4.361  16.843 -1.1184  1.0063  2.3070
  466TMC3    H2 6995   1.260   4.628  16.539 -0.3551 -2.5172 -1.4278
  466TMC3    C7 6996   1.355   4.460  16.706 -1.0817  0.7110 -0.2939
  466TMC3    C8 6997   1.074   0.063  16.566 -0.8864 -0.3866  0.1672
  466TMC3    O1 6998   1.418   4.473  16.600 -0.1302 -0.3249  0.8551
  466TMC3    O2 6999   1.090   0.061  16.447  0.0441  0.0449 -0.0732
  467TMC3    C1 7000   2.566   2.652  14.109 -0.0377 -0.3789  0.1915
  467TMC3    C2 7001   2.531   2.775  14.075  0.0280  0.5139  0.4720
  467TMC3    C3 7002   2.433   2.840  14.150 -0.1515  0.9791  0.7639
  467TMC3    C4 7003   2.509   2.582  14.213  0.4382  0.0537  0.0914
  467TMC3    C5 7004   2.405   2.648  14.280  0.0916 -0.5071  0.2550
  467TMC3    C6 7005   2.381   2.782  14.258  0.0558  0.5683 -0.1327
  467TMC3     C 7006   2.684   2.597  14.048 -0.5354  0.0640 -0.2304
  467TMC3     O 7007   2.686   2.484  14.025  0.3606  0.1928  0.2186
  467TMC3     H 7008   2.590   2.831  14.003  0.2462  0.5123  0.6511
  467TMC3    H1 7009   2.551   2.486  14.242 -0.4657 -0.9970 -1.9722
  467TMC3    H2 7010   2.317   2.844  14.320  3.1697  0.5461  3.0885
  467TMC3    C7 7011   2.364   2.589  14.404  0.2497 -0.5491 -0.3418
  467TMC3    C8 7012   2.440   2.981  14.153 -0.7570 -0.0146  0.1615
  467TMC3    O1 7013   2.432   2.491  14.450  0.1079 -0.4980 -0.1945
  467TMC3    O2 7014   2.454   3.039  14.255 -0.6683  0.2376 -0.0497
  468MPD2     C 7015   1.412   1.963  11.358  0.0348  0.2463 -0.4391
  468MPD2    C1 7016   1.540   1.913  11.387  0.5372 -0.7502  0.4621
  468MPD2    C2 7017   1.559   1.783  11.387 -0.4699 -0.2261 -0.1263
  468MPD2    C3 7018   1.452   1.698  11.367 -0.0176 -0.0566  0.0246
  468MPD2    C4 7019   1.323   1.740  11.364 -0.5964 -0.3503 -0.2484
  468MPD2    C5 7020   1.304   1.876  11.353 -0.2411  0.2336 -0.0102
  468MPD2     H 7021   1.660   1.744  11.390 -0.9976 -1.5168  0.6317
  468MPD2    H1 7022   1.239   1.673  11.351  2.1483 -4.0978  1.4415
  468MPD2    H2 7023   1.396   2.070  11.366 -1.4490  0.0268 -0.5255
  468MPD2    H3 7024   1.205   1.919  11.339 -0.3412 -0.2408 -0.7470
  468MPD2     N 7025   1.470   1.552  11.379 -0.1101 -0.4297 -0.6718
  468MPD2    H5 7026   1.386   1.496  11.388 -0.8995  0.7230 -0.7700
  468MPD2    N1 7027   1.655   1.993  11.413 -0.0887 -0.6676  0.0036
  468MPD2    H7 7028   1.742   1.941  11.415  1.1574  1.4161  0.0691
  469TMC3    C1 7029   1.801   2.159  11.477 -0.9236 -0.2494 -0.3772
  469TMC3    C2 7030   1.887   2.068  11.438 -1.1143  0.7152  0.1239
  469TMC3    C3 7031   2.007   2.058  11.508  0.5441 -0.2362  0.3391
  469TMC3    C4 7032   1.823   2.245  11.585 -0.2124 -0.4735 -0.5559
  469TMC3    C5 7033   1.940   2.222  11.657  0.0813 -0.6813 -0.3676
  469TMC3    C6 7034   2.036   2.130  11.621 -0.6502  0.0626 -0.3855
  469TMC3     C 7035   1.659   2.121  11.450  0.3673  0.1603 -0.2212
  469TMC3     O 7036   1.565   2.192  11.483 -0.0414 -0.2975  0.2580
  469TMC3     H 7037   1.879   2.026  11.338  2.3107 -0.5133  0.3605
  469TMC3    H1 7038   1.746   2.314  11.618  0.4447  0.9137 -1.9520
  469TMC3    H2 7039   2.134   2.130  11.668 -0.9540 -1.2206  0.2692
  469TMC3    C7 7040   1.961   2.302  11.777 -0.4240  0.5725  0.2728
  469TMC3    C8 7041   2.063   1.929  11.482  0.1999 -0.0807 -0.2272
  469TMC3    O1 7042   1.910   2.415  11.783  0.5038  0.4237 -0.6685
  469TMC3    O2 7043   2.005   1.859  11.399  0.6307 -0.1916 -0.4324
  470TMC3    C1 7044   3.168   2.317   0.982  0.1718 -0.3286  0.3130
  470TMC3    C2 7045   3.225   2.436   1.006  0.5677 -0.2780  0.1061
  470TMC3    C3 7046   3.242   2.474   1.139 -0.2060  0.3669 -0.2208
  470TMC3    C4 7047   3.137   2.227   1.081 -1.0859  0.9504  0.3416
  470TMC3    C5 7048   3.153   2.258   1.212 -1.5655 -0.1235  0.5503
  470TMC3    C6 7049   3.197   2.384   1.237  0.5797  0.3771  0.5662
  470TMC3     C 7050   3.141   2.285   0.839  0.2174 -0.7128 -0.5532
  470TMC3     O 7051   3.193   2.353   0.751  0.1604 -0.4709 -0.7708
  470TMC3     H 7052   3.239   2.513   0.930 -1.6971 -0.0851 -0.1254
  470TMC3    H1 7053   3.105   2.125   1.066 -0.0775  0.8058 -0.7668
  470TMC3    H2 7054   3.185   2.417   1.339  2.0967  1.7693  0.3026
  470TMC3    C7 7055   3.075   2.185   1.313 -0.6252 -0.1385  0.4267
  470TMC3    C8 7056   3.306   2.596   1.189  0.3322  0.2624 -0.0912
  470TMC3    O1 7057   3.050   2.068   1.299 -0.0527  0.0446 -0.3235
  470TMC3    O2 7058   3.287   2.623   1.311 -0.0474 -0.5040 -0.1187
  471MPD2     C 7059   3.835   3.732  16.930 -0.0986  0.7137  0.3571
  471MPD2    C1 7060   3.864   3.602  16.914 -0.3119 -0.3293 -0.0618
  471MPD2    C2 7061   3.882   3.526  17.022  0.4878  0.1818  0.2303
  471MPD2    C3 7062   3.864   3.571  17.152  0.1176  0.4067 -0.4279
  471MPD2    C4 7063   3.828   3.704  17.171  0.1042 -0.0951 -0.3254
  471MPD2    C5 7064   3.816   3.781  17.054 -0.1163  0.3204 -0.2054
  471MPD2     H 7065   3.880   3.419  17.005  2.3743  0.3199 -0.8328
  471MPD2    H1 7066   3.811   3.751  17.267 -1.6040 -0.0901 -0.6238
  471MPD2    H2 7067   3.839   3.808  16.852  0.6280  0.9058  0.5898
  471MPD2    H3 7068   3.805   3.887  17.073 -3.0230  0.3363 -1.9047
  471MPD2     N 7069   3.875   3.481  17.257  0.5716 -0.4843  0.6661
  471MPD2    H5 7070   3.898   3.385  17.233 -0.7095 -0.7691  0.6286
  471MPD2    N1 7071   3.859   3.532  16.791  0.6720  0.1534 -0.7430
  471MPD2    H7 7072   3.889   3.435  16.787  0.3029  0.0919 -2.0040
  472TMC3    C1 7073   3.829   3.494  16.554  0.2088  0.1991 -0.3424
  472TMC3    C2 7074   3.775   3.539  16.439  0.1664  0.3778  0.6878
  472TMC3    C3 7075   3.769   3.456  16.328 -0.6959  0.1651 -0.3533
  472TMC3    C4 7076   3.861   3.362  16.569  0.3156 -0.6160 -0.0249
  472TMC3    C5 7077   3.847   3.282  16.461  0.2883 -0.5406  0.1103
  472TMC3    C6 7078   3.813   3.328  16.337 -0.1626 -0.1119 -0.6357
  472TMC3     C 7079   3.827   3.592  16.672 -0.2481  0.1266 -0.0232
  472TMC3     O 7080   3.811   3.709  16.648 -0.8711  0.2393 -0.0122
  472TMC3     H 7081   3.743   3.642  16.433  1.3975  0.7624  0.7641
  472TMC3    H1 7082   3.882   3.319  16.666  0.3464  0.9802  0.6778
  472TMC3    H2 7083   3.803   3.274  16.244 -1.1939 -0.4201 -0.3520
  472TMC3    C7 7084   3.823   3.138  16.480  0.7857  0.0562 -0.8885
  472TMC3    C8 7085   3.643   3.454  16.259  0.3573 -0.2004  0.2543
  472TMC3    O1 7086   3.878   3.088  16.576 -0.4454  0.3466  0.1712
  472TMC3    O2 7087   3.639   3.502  16.143 -0.0610 -0.0466 -0.0712
  473MPD2     C 7088   4.135   0.585  14.176  0.2648 -0.2442  0.5873
  473MPD2    C1 7089   4.078   0.683  14.085  0.8076  0.0794 -0.3257
  473MPD2    C2 7090   4.095   0.813  14.124  0.0570 -0.3005  0.3241
  473MPD2    C3 7091   4.175   0.851  14.232  0.4248 -0.1350 -0.0722
  473MPD2    C4 7092   4.241   0.752  14.309 -0.5727 -0.2531 -0.3469
  473MPD2    C5 7093   4.220   0.626  14.274  0.3224 -0.4070  1.5790
  473MPD2     H 7094   4.046   0.892  14.068  1.3737  0.6989  0.5822
  473MPD2    H1 7095   4.311   0.780  14.386  1.2420 -2.9773 -1.0156
  473MPD2    H2 7096   4.131   0.477  14.162 -2.2065 -0.1063  0.2421
  473MPD2    H3 7097   4.264   0.545  14.331 -2.4026 -1.5667  2.0452
  473MPD2     N 7098   4.198   0.980  14.264  0.5892 -0.5327  0.0759
  473MPD2    H5 7099   4.270   1.006  14.330  0.0767  1.6815 -0.2247
  473MPD2    N1 7100   3.986   0.637  13.984 -0.1384 -0.5938 -1.1227
  473MPD2    H7 7101   3.926   0.713  13.952 -0.9500  0.0802  1.9451
  474TMC3    C1 7102   4.177   1.221  14.242 -0.2381 -0.5769 -0.3694
  474TMC3    C2 7103   4.107   1.329  14.204 -0.3648 -0.1062 -0.3294
  474TMC3    C3 7104   4.160   1.451  14.230  0.7217 -0.2542  0.6252
  474TMC3    C4 7105   4.288   1.234  14.327  0.5234 -0.3707 -0.5903
  474TMC3    C5 7106   4.326   1.358  14.356  0.1191  0.2087 -0.4715
  474TMC3    C6 7107   4.268   1.474  14.310  0.4102  0.4591 -0.3578
  474TMC3     C 7108   4.127   1.085  14.214  0.0572  0.6105  0.3373
  474TMC3     O 7109   4.011   1.088  14.170 -0.3271 -0.3709 -0.1097
  474TMC3     H 7110   4.021   1.311  14.140 -0.7305 -2.9227  0.9470
  474TMC3    H1 7111   4.343   1.150  14.368 -1.6202 -1.6322 -0.3408
  474TMC3    H2 7112   4.301   1.574  14.337  0.6921  0.0552  0.7568
  474TMC3    C7 7113   4.444   1.369  14.436 -0.0037  0.2512  0.3866
  474TMC3    C8 7114   4.071   1.554  14.184 -0.4777 -0.0509 -0.6245
  474TMC3    O1 7115   4.515   1.270  14.442  0.3791 -0.5039  0.0486
  474TMC3    O2 7116   3.960   1.525  14.142 -0.1190 -0.0015 -0.1800
  475MPD2     C 7117   2.037   3.854  11.130 -0.1256  0.2420  0.0925
  475MPD2    C1 7118   2.026   3.977  11.190 -1.3395 -0.5413 -1.0047
  475MPD2    C2 7119   1.907   4.016  11.245 -0.6408 -0.2394  0.6887
  475MPD2    C3 7120   1.794   3.936  11.231  0.5729  0.0165  0.3755
  475MPD2    C4 7121   1.806   3.815  11.160  0.4993  0.2212 -0.1643
  475MPD2    C5 7122   1.928   3.781  11.103 -0.3070  0.0968  0.2534
  475MPD2     H 7123   1.902   4.108  11.303  1.9651 -0.6578  1.5855
  475MPD2    H1 7124   1.720   3.750  11.150  0.7624 -0.4071  1.7285
  475MPD2    H2 7125   2.133   3.827  11.086  0.6151  3.3907 -0.2709
  475MPD2    H3 7126   1.929   3.692  11.042 -1.1169  0.5321 -0.3956
  475MPD2     N 7127   1.677   3.974  11.291 -0.0410 -0.5462  0.3436
  475MPD2    H5 7128   1.673   4.055  11.352  0.8095  1.2305 -1.9899
  475MPD2    N1 7129   2.131   4.076  11.189 -0.2924  0.7389  0.2112
  475MPD2    H7 7130   2.126   4.159  11.248  1.3349  0.4320  0.7972
  476TMC3    C1 7131   2.326   4.187  11.135 -0.2551 -0.3611  0.4606
  476TMC3    C2 7132   2.331   4.235  11.007  0.3483  0.2507 -0.2389
  476TMC3    C3 7133   2.320   4.367  10.987  0.4954  0.1703  0.0825
  476TMC3    C4 7134   2.311   4.272  11.234  0.9049 -0.0980  0.1057
  476TMC3    C5 7135   2.314   4.410  11.219  0.4167 -0.2042 -0.0790
  476TMC3    C6 7136   2.312   4.455  11.094 -0.2065  0.3572  0.2319
  476TMC3     C 7137   2.253   4.064  11.132 -1.3299 -0.2681 -0.7675
  476TMC3     O 7138   2.301   3.973  11.064  0.3933 -0.2631  0.1280
  476TMC3     H 7139   2.341   4.163  10.927 -0.2667  1.7734 -1.6861
  476TMC3    H1 7140   2.319   4.225  11.331 -2.9512  0.6894  0.7958
  476TMC3    H2 7141   2.285   4.556  11.066 -0.0530  0.6519  1.1293
  476TMC3    C7 7142   2.233   4.477  11.317  1.0556 -0.6468  0.5120
  476TMC3    C8 7143   2.291   4.428  10.861 -0.0357  0.0446 -0.9338
  476TMC3    O1 7144   2.187   4.410  11.408 -0.0259  0.1488  0.3240
  476TMC3    O2 7145   2.345   4.536  10.834 -0.2446  0.1121  0.5021
  477MPD2     C 7146   0.401   1.011  12.137 -0.2001  0.4458  0.3008
  477MPD2    C1 7147   0.381   0.893  12.064 -0.5682  1.0931 -1.2171
  477MPD2    C2 7148   0.391   0.772  12.125  0.3580  0.1547  0.0414
  477MPD2    C3 7149   0.406   0.764  12.263 -0.5854  0.2266 -0.3446
  477MPD2    C4 7150   0.440   0.876  12.330  0.4425  0.2320  0.2995
  477MPD2    C5 7151   0.432   0.996  12.268  0.3782  0.0905 -0.3608
  477MPD2     H 7152   0.357   0.686  12.070 -0.7159  1.0442 -0.6966
  477MPD2    H1 7153   0.473   0.875  12.434 -1.4695 -0.3981  0.8879
  477MPD2    H2 7154   0.412   1.103  12.080 -0.5011 -0.2237 -0.8426
  477MPD2    H3 7155   0.449   1.089  12.321 -1.0102 -0.1638  0.5183
  477MPD2     N 7156   0.394   0.641  12.320 -0.1385 -0.2075 -0.2467
  477MPD2    H5 7157   0.357   0.567  12.262 -0.0715 -0.1539 -0.3567
  477MPD2    N1 7158   0.348   0.913  11.930 -0.5458  0.0675 -0.2725
  477MPD2    H7 7159   0.346   1.011  11.902  0.8998  0.3207  0.5245
  478TMC3    C1 7160   0.259   0.868  11.718 -0.1728  0.3771  0.0528
  478TMC3    C2 7161   0.258   1.000  11.710 -0.6627 -0.0024  0.4486
  478TMC3    C3 7162   0.151   1.063  11.645  0.0663  0.0598  0.1774
  478TMC3    C4 7163   0.166   0.788  11.662 -0.7292 -0.1745 -0.4778
  478TMC3    C5 7164   0.064   0.852  11.589  0.3059 -0.2061  0.5804
  478TMC3    C6 7165   0.047   0.991  11.598  0.2268  0.2327 -0.9048
  478TMC3     C 7166   0.315   0.815  11.841 -0.6583  0.7742 -0.2366
  478TMC3     O 7167   0.300   0.695  11.855 -0.3866  0.4442  0.0434
  478TMC3     H 7168   0.341   1.062  11.744  1.1558 -2.3125  0.2193
  478TMC3    H1 7169   0.170   0.680  11.663  1.0996 -0.1100 -1.2062
  478TMC3    H2 7170   4.711   1.050  11.546 -1.5838 -1.3269 -0.0692
  478TMC3    C7 7171   4.710   0.775  11.518  0.4772 -0.2007 -0.2955
  478TMC3    C8 7172   0.134   1.198  11.693 -0.1867 -0.3163 -0.3735
  478TMC3    O1 7173   4.689   0.662  11.565  0.1268  0.2700  0.2518
  478TMC3    O2 7174   0.230   1.236  11.762 -0.4578  0.1172  0.0046
  479MPD2     C 7175   3.583   2.748  15.023  0.9591 -0.2914 -0.1992
  479MPD2    C1 7176   3.547   2.773  15.156  0.2670 -0.1385 -0.5115
  479MPD2    C2 7177   3.613   2.875  15.225 -0.3755  0.3357  0.1569
  479MPD2    C3 7178   3.702   2.959  15.165 -0.8274 -0.2883  0.4035
  479MPD2    C4 7179   3.722   2.942  15.032  0.4257 -0.6268  0.5227
  479MPD2    C5 7180   3.663   2.836  14.962 -0.1987  0.8361  0.4106
  479MPD2     H 7181   3.594   2.895  15.330  1.1660  0.6920  0.3561
  479MPD2    H1 7182   3.791   3.004  14.975  2.7020 -1.7771  2.0556
  479MPD2    H2 7183   3.550   2.660  14.971  1.7112 -1.2196  0.8921
  479MPD2    H3 7184   3.690   2.811  14.861  2.9337 -0.8582  1.6763
  479MPD2     N 7185   3.780   3.049  15.238 -0.1345  0.3536 -0.2646
  479MPD2    H5 7186   3.855   3.097  15.190 -0.5367  2.3141  1.0890
  479MPD2    N1 7187   3.442   2.691  15.211 -0.3344 -0.0174 -0.6091
  479MPD2    H7 7188   3.387   2.632  15.151  1.3867 -2.2663  0.0447
  480TMC3    C1 7189   3.520   3.075  15.632  0.1759 -0.2904 -0.4979
  480TMC3    C2 7190   3.424   3.155  15.572  0.5447  0.2753 -0.2439
  480TMC3    C3 7191   3.438   3.195  15.446 -0.0754 -0.3623  0.2679
  480TMC3    C4 7192   3.639   3.052  15.571 -0.2543 -0.5144 -0.8285
  480TMC3    C5 7193   3.648   3.088  15.441 -0.6380 -0.0712  0.2519
  480TMC3    C6 7194   3.558   3.171  15.379 -0.6232  0.0296 -0.2072
  480TMC3     C 7195   3.488   3.001  15.755  0.1065 -0.4172 -0.2539
  480TMC3     O 7196   3.581   2.931  15.798  0.5475  0.5123  1.0010
  480TMC3     H 7197   3.326   3.179  15.611 -0.6613 -1.7272 -2.0432
  480TMC3    H1 7198   3.710   2.979  15.609 -1.2339 -0.2675  1.4491
  480TMC3    H2 7199   3.571   3.196  15.274  1.6385  3.0109  0.7859
  480TMC3    C7 7200   3.779   3.075  15.372 -1.0533 -0.4211  0.1157
  480TMC3    C8 7201   3.323   3.181  15.359 -0.4530 -0.0932 -0.6514
  480TMC3    O1 7202   3.870   3.127  15.431 -0.2936  0.5835 -0.1842
  480TMC3    O2 7203   3.235   3.109  15.405  0.3891 -0.4483 -0.3983
  481MPD2     C 7204   1.012   2.504  14.142  0.4551  0.1431 -0.0134
  481MPD2    C1 7205   0.888   2.442  14.135 -0.4835  0.5503  0.4627
  481MPD2    C2 7206   0.825   2.396  14.256  0.1518  0.8935  0.5733
  481MPD2    C3 7207   0.875   2.444  14.376 -0.9459  0.3103  0.1194
  481MPD2    C4 7208   0.996   2.507  14.381 -0.4215  0.4919  0.1969
  481MPD2    C5 7209   1.064   2.532  14.262  0.0726 -0.2424  0.1936
  481MPD2     H 7210   0.725   2.356  14.249 -1.3587  4.9090 -0.9750
  481MPD2    H1 7211   1.044   2.544  14.471  0.3714 -1.2046  0.4733
  481MPD2    H2 7212   1.064   2.537  14.052 -2.6259 -0.9433 -2.2053
  481MPD2    H3 7213   1.160   2.581  14.257  0.4286 -1.0975 -1.5662
  481MPD2     N 7214   0.804   2.427  14.501  0.8042 -0.6695  0.0840
  481MPD2    H5 7215   0.851   2.446  14.589 -0.3400  0.9855  0.3424
  481MPD2    N1 7216   0.840   2.435  14.003  0.3335  0.4619  0.4143
  481MPD2    H7 7217   0.888   2.485  13.928 -1.2545  2.1036  0.4956
  482TMC3    C1 7218   0.685   2.370  13.840  0.5164  0.4197 -0.0191
  482TMC3    C2 7219   0.587   2.279  13.800  0.0526 -0.4335  0.3432
  482TMC3    C3 7220   0.499   2.317  13.706 -0.1932 -0.2800  0.0061
  482TMC3    C4 7221   0.695   2.494  13.784 -0.2091  0.3074  0.6245
  482TMC3    C5 7222   0.608   2.526  13.684 -0.4351  0.2908  0.2033
  482TMC3    C6 7223   0.511   2.438  13.639  0.2492  0.0870  0.3685
  482TMC3     C 7224   0.732   2.358  13.972  0.4398  0.1164 -0.3761
  482TMC3     O 7225   0.666   2.295  14.052  0.1741  0.6631 -0.4738
  482TMC3     H 7226   0.587   2.180  13.843 -2.0051 -0.3733  0.5021
  482TMC3    H1 7227   0.757   2.573  13.824 -2.3801  0.3925  3.8409
  482TMC3    H2 7228   0.434   2.483  13.577 -0.0688 -1.3290 -0.2579
  482TMC3    C7 7229   0.609   2.661  13.640 -0.4010 -0.1380  0.8246
  482TMC3    C8 7230   0.377   2.234  13.705  0.4952 -0.3322 -0.3094
  482TMC3    O1 7231   0.654   2.744  13.718  0.2670 -0.3912  0.0525
  482TMC3    O2 7232   0.387   2.117  13.741 -0.0497  0.0764  0.2790
  483TMC3    C1 7233   2.939   1.166  17.620  0.1670 -0.1084  0.7001
  483TMC3    C2 7234   2.912   1.273  17.699 -0.0827 -0.6341 -0.6167
  483TMC3    C3 7235   2.954   1.266   0.082 -0.7596 -0.1715 -0.2730
  483TMC3    C4 7236   3.003   1.051  17.665 -0.0371 -0.0479 -0.0148
  483TMC3    C5 7237   3.049   1.048   0.044 -0.5012  0.2396  0.0350
  483TMC3    C6 7238   3.024   1.155   0.124  0.0907 -0.0197 -0.6788
  483TMC3     C 7239   2.834   1.138  17.530 -0.4442 -0.0287  0.2586
  483TMC3     O 7240   2.800   1.211  17.440 -0.0261  0.0537 -0.2656
  483TMC3     H 7241   2.853   1.360  17.672 -1.0780 -1.1432 -0.0955
  483TMC3    H1 7242   3.037   0.985  17.586  1.3062 -1.7632  1.9948
  483TMC3    H2 7243   3.060   1.153   0.226  2.0110  1.2287 -1.3271
  483TMC3    C7 7244   3.135   0.940   0.094 -0.3186  0.4486 -1.3971
  483TMC3    C8 7245   2.909   1.367   0.169  0.4423 -1.5003 -0.3810
  483TMC3    O1 7246   3.189   0.955   0.204  0.4171 -0.7656  0.3007
  483TMC3    O2 7247   2.916   1.483   0.133 -0.5064 -0.4093  0.3133
  484MPD2     C 7248   1.437   3.727  13.251  0.4216  0.8068  0.0017
  484MPD2    C1 7249   1.352   3.760  13.153 -0.1275 -0.0443  0.1150
  484MPD2    C2 7250   1.410   3.821  13.045 -0.3429  0.2839  0.0681
  484MPD2    C3 7251   1.544   3.832  13.026 -0.7546 -0.0780  1.0707
  484MPD2    C4 7252   1.629   3.798  13.125  0.6096  1.1302  0.4452
  484MPD2    C5 7253   1.570   3.738  13.237  0.3156 -0.8269  0.0428
  484MPD2     H 7254   1.342   3.865  12.973  1.5554 -0.6331 -2.2926
  484MPD2    H1 7255   1.734   3.824  13.131  0.3188  1.7522  3.0145
  484MPD2    H2 7256   1.403   3.685  13.345  0.3282 -0.7275 -0.7184
  484MPD2    H3 7257   1.633   3.722  13.324  0.0140  2.4608  0.8772
  484MPD2     N 7258   1.608   3.875  12.908 -0.1965  0.2266 -0.4452
  484MPD2    H5 7259   1.708   3.879  12.927 -0.8928  2.3670  2.7692
  484MPD2    N1 7260   1.219   3.759  13.184  0.2806  0.2457  0.1749
  484MPD2    H7 7261   1.194   3.718  13.273  1.0690  2.3813  1.3753
  485TMC3    C1 7262   1.647   3.943  12.686  0.0023 -0.1596  0.0586
  485TMC3    C2 7263   1.764   3.998  12.727 -0.5121  0.2831 -0.0697
  485TMC3    C3 7264   1.817   4.101  12.656  0.1418 -0.5196  0.6215
  485TMC3    C4 7265   1.591   3.989  12.570 -0.1405  0.2665  0.1470
  485TMC3    C5 7266   1.642   4.089  12.492 -0.0496  0.2614  0.3773
  485TMC3    C6 7267   1.750   4.145  12.543  0.0748 -0.3207  0.1290
  485TMC3     C 7268   1.557   3.886  12.782 -0.1387  0.5885  0.1568
  485TMC3     O 7269   1.435   3.889  12.761  0.3070  0.9252 -0.0482
  485TMC3     H 7270   1.825   3.964  12.809 -0.7345  1.7883  0.7046
  485TMC3    H1 7271   1.501   3.934  12.545  0.7637  0.2544 -3.0798
  485TMC3    H2 7272   1.802   4.221  12.485 -0.1281  0.9883  1.6357
  485TMC3    C7 7273   1.656   4.047  12.350 -0.5318  0.1065 -0.0148
  485TMC3    C8 7274   1.963   4.068  12.640  1.0364 -0.3107  0.5780
  485TMC3    O1 7275   1.765   4.063  12.305  0.5185  0.4868 -0.5260
  485TMC3    O2 7276   2.027   4.036  12.740  0.2745 -0.0406 -0.7629
  486MPD2     C 7277   3.324   2.648  13.117  0.0628  0.1278  0.1594
  486MPD2    C1 7278   3.316   2.632  12.979 -0.1199 -0.4439 -0.0781
  486MPD2    C2 7279   3.256   2.735  12.902  0.2370  0.2620  0.0309
  486MPD2    C3 7280   3.206   2.850  12.963 -0.8132  0.3174  0.3024
  486MPD2    C4 7281   3.198   2.855  13.098  0.2881  0.2886  0.5386
  486MPD2    C5 7282   3.257   2.758  13.172  0.3864  0.5118 -0.3991
  486MPD2     H 7283   3.247   2.737  12.794 -1.5228  0.0814  0.1799
  486MPD2    H1 7284   3.146   2.931  13.155 -0.9367  2.0353 -2.9139
  486MPD2    H2 7285   3.373   2.576  13.181 -1.7980 -0.7896  0.5494
  486MPD2    H3 7286   3.262   2.775  13.279 -0.6162  0.5172 -0.3584
  486MPD2     N 7287   3.145   2.946  12.882 -0.2126  0.2513  0.0674
  486MPD2    H5 7288   3.151   2.936  12.781  0.4538 -1.0839  0.2469
  486MPD2    N1 7289   3.373   2.520  12.923  0.5605  0.2694 -0.0890
  486MPD2    H7 7290   3.433   2.467  12.986 -1.1126 -0.0692  1.2059
  487TMC3    C1 7291   3.455   2.382  12.747  0.1293 -0.3897 -0.4128
  487TMC3    C2 7292   3.410   2.299  12.639  0.3486  0.1800 -0.2417
  487TMC3    C3 7293   3.478   2.178  12.613 -0.6163  0.9006  0.3054
  487TMC3    C4 7294   3.554   2.333  12.833  0.3249 -0.5868 -0.6764
  487TMC3    C5 7295   3.592   2.201  12.819  0.0154  0.3134 -1.0713
  487TMC3    C6 7296   3.565   2.133  12.701 -0.0042 -0.5688 -0.0498
  487TMC3     C 7297   3.373   2.497  12.786  0.2022  0.0054 -0.6298
  487TMC3     O 7298   3.298   2.550  12.705  0.0859 -0.1973  0.2289
  487TMC3     H 7299   3.330   2.342  12.579 -1.7263 -2.0536  0.9267
  487TMC3    H1 7300   3.575   2.385  12.925  0.7742 -0.8548 -0.6285
  487TMC3    H2 7301   3.609   2.036  12.677 -3.2984 -1.7525 -1.2837
  487TMC3    C7 7302   3.594   2.128  12.942  0.3957 -0.5201  0.0121
  487TMC3    C8 7303   3.377   2.070  12.591  0.2437 -0.7499 -0.1928
  487TMC3    O1 7304   3.624   2.183  13.047  0.1277 -0.4647 -0.3231
  487TMC3    O2 7305   3.401   1.998  12.499  0.1662 -0.3922  0.3843
  488MPD2     C 7306   3.338   0.024  16.631  0.3859 -0.6316 -0.3034
  488MPD2    C1 7307   3.353   0.151  16.681  0.6882 -0.4073  0.1729
  488MPD2    C2 7308   3.306   0.195  16.802  0.1130  0.1397 -0.0391
  488MPD2    C3 7309   3.247   0.095  16.885 -0.3213 -0.4460  0.5376
  488MPD2    C4 7310   3.240   4.708  16.835 -0.0099  0.0560 -0.6917
  488MPD2    C5 7311   3.276   4.669  16.705 -0.4213  0.5848  0.1000
  488MPD2     H 7312   3.314   0.298  16.833 -1.5565 -0.9016  3.8494
  488MPD2    H1 7313   3.207   4.623  16.893  1.0849 -0.8641 -1.4201
  488MPD2    H2 7314   3.358   4.735  16.528 -2.4249 -0.8452 -0.7834
  488MPD2    H3 7315   3.251   4.568  16.674  2.6378 -0.6997  1.7675
  488MPD2     N 7316   3.204   0.115  17.022 -0.3145  0.7502  0.3643
  488MPD2    H5 7317   3.183   0.034  17.079 -1.9720  1.7142  1.1272
  488MPD2    N1 7318   3.413   0.249  16.597 -0.1839 -0.2105 -0.1370
  488MPD2    H7 7319   3.413   0.346  16.627  1.8397 -0.5158  0.8552
  489TMC3    C1 7320   3.121   0.216  17.211 -0.0506  0.4791 -0.1027
  489TMC3    C2 7321   3.028   0.317  17.225 -0.7189  0.5573  0.2584
  489TMC3    C3 7322   2.980   0.342  17.350 -0.0516 -0.4915  0.0407
  489TMC3    C4 7323   3.175   0.149  17.322  0.3323  0.2352 -0.6912
  489TMC3    C5 7324   3.121   0.181  17.445  0.1200 -0.1170  0.2329
  489TMC3    C6 7325   3.014   0.273  17.455 -0.5459 -0.2320 -0.3935
  489TMC3     C 7326   3.193   0.235  17.089 -0.6097 -0.1229  0.5867
  489TMC3     O 7327   3.191   0.348  17.038 -0.1403  0.0460  0.1787
  489TMC3     H 7328   2.989   0.373  17.141 -0.7721 -0.0750 -0.1413
  489TMC3    H1 7329   3.255   0.077  17.310  0.4544  0.1645  0.6299
  489TMC3    H2 7330   2.992   0.312  17.554  1.1564 -1.3580  0.4345
  489TMC3    C7 7331   3.207   0.170  17.560 -0.1040 -0.1726 -0.6532
  489TMC3    C8 7332   2.955   0.485  17.370  0.4729 -0.1972 -0.3729
  489TMC3    O1 7333   3.178   0.239  17.655  0.4806  0.2401  0.4473
  489TMC3    O2 7334   2.861   0.510  17.443 -0.3505  0.4396  0.4530
  490MPD2     C 7335   4.109   4.028  17.497 -0.1633 -0.1407  0.6006
  490MPD2    C1 7336   4.074   4.029  17.631 -0.2594 -0.0630  0.7381
  490MPD2    C2 7337   4.160   4.083  17.721 -0.1402  0.2206  0.2201
  490MPD2    C3 7338   4.287   4.118  17.683  0.0259  0.4027  0.5764
  490MPD2    C4 7339   4.324   4.113  17.554 -0.0474 -0.1559 -0.4544
  490MPD2    C5 7340   4.228   4.077  17.459  0.1271  0.6675 -0.2360
  490MPD2     H 7341   4.126   4.069   0.072  2.4204 -0.7292  0.9584
  490MPD2    H1 7342   4.421   4.150  17.525 -0.2848  1.6679  1.1311
  490MPD2    H2 7343   4.050   3.977  17.422 -0.5172  1.8385 -0.4533
  490MPD2    H3 7344   4.252   4.072  17.353  0.9322  0.7986 -0.0587
  490MPD2     N 7345   4.384   4.147   0.030 -1.0787 -0.5068  0.2260
  490MPD2    H5 7346   4.480   4.151  17.751 -1.6829 -0.0336 -1.6307
  490MPD2    N1 7347   3.958   3.952  17.669  0.2438 -0.2868 -0.4249
  490MPD2    H7 7348   3.944   3.924   0.015  0.0919 -1.7786 -0.8718
  491TMC3    C1 7349   3.756   3.838  17.661  0.5579 -0.5297 -0.5235
  491TMC3    C2 7350   3.789   3.783   0.033  0.4116  0.2648 -0.0505
  491TMC3    C3 7351   3.689   3.711   0.091 -0.2071  0.6368 -0.1864
  491TMC3    C4 7352   3.629   3.835  17.612  0.5218 -0.2470 -0.7119
  491TMC3    C5 7353   3.530   3.770  17.682 -0.4491 -0.1270  0.4453
  491TMC3    C6 7354   3.568   3.705   0.046 -0.1552  0.6647 -0.2457
  491TMC3     C 7355   3.848   3.930  17.597 -0.1753  0.0204  1.0799
  491TMC3     O 7356   3.804   3.981  17.493 -1.1246 -0.2846 -0.1418
  491TMC3     H 7357   3.887   3.793   0.078  0.1980 -2.0695  0.9033
  491TMC3    H1 7358   3.608   3.882  17.517  0.8353  2.1802  0.3995
  491TMC3    H2 7359   3.495   3.647   0.101  0.2921 -0.3117 -0.6860
  491TMC3    C7 7360   3.396   3.752  17.628 -0.2441  0.4299  0.0088
  491TMC3    C8 7361   3.705   3.683   0.239 -0.1857  0.2694  0.3820
  491TMC3    O1 7362   3.324   3.687  17.693 -0.3949 -0.2367  0.5350
  491TMC3    O2 7363   3.606   3.702   0.310  0.6232 -0.0131 -0.1655
  492MPD2     C 7364   4.384   3.875  12.040  0.3366  0.3554  0.0691
  492MPD2    C1 7365   4.354   3.794  11.940  0.3418  0.7704  0.0878
  492MPD2    C2 7366   4.311   3.664  11.971 -0.1336 -0.1183 -0.2700
  492MPD2    C3 7367   4.291   3.621  12.102 -0.3204  0.8380 -0.2941
  492MPD2    C4 7368   4.322   3.711  12.203  0.0294  0.5891  0.0831
  492MPD2    C5 7369   4.366   3.835  12.164  0.5214 -0.3546 -0.2444
  492MPD2     H 7370   4.310   3.590  11.892  1.7892 -0.9886  0.5128
  492MPD2    H1 7371   4.325   3.685  12.308 -0.1262 -0.9650 -0.3112
  492MPD2    H2 7372   4.419   3.976  12.019  2.7567 -0.9535 -2.2964
  492MPD2    H3 7373   4.384   3.903  12.246  0.2090  0.2575 -0.6870
  492MPD2     N 7374   4.243   3.493  12.145  0.6453 -0.4729  0.0149
  492MPD2    H5 7375   4.210   3.485  12.240 -1.3587  0.8021 -0.5857
  492MPD2    N1 7376   4.357   3.843  11.811  0.1580 -0.4084  0.0721
  492MPD2    H7 7377   4.390   3.936  11.788 -0.7542 -0.2274 -0.4883
  493TMC3    C1 7378   4.377   3.840  11.575  0.0069  0.3911  0.6261
  493TMC3    C2 7379   4.447   3.959  11.575 -0.8265 -0.3725 -0.0708
  493TMC3    C3 7380   4.473   4.018  11.456 -0.0131 -0.0325 -0.0009
  493TMC3    C4 7381   4.335   3.774  11.461  0.6319  0.1562 -0.0324
  493TMC3    C5 7382   4.351   3.846  11.348 -0.0513  0.8964  0.1010
  493TMC3    C6 7383   4.418   3.963  11.344  0.3876  0.7264 -0.6505
  493TMC3     C 7384   4.358   3.762  11.700  0.1409 -0.5211 -0.2364
  493TMC3     O 7385   4.305   3.658  11.669 -0.1325  0.1450 -0.6446
  493TMC3     H 7386   4.497   4.004  11.659 -1.8460 -1.6780  1.2374
  493TMC3    H1 7387   4.260   3.695  11.469  0.6407 -0.0856 -2.3776
  493TMC3    H2 7388   4.427   4.010  11.246 -2.2776  0.2632 -1.1222
  493TMC3    C7 7389   4.288   3.794  11.225 -1.2711 -0.0757 -0.5495
  493TMC3    C8 7390   4.574   4.129  11.459 -0.0253 -0.0383  0.1999
  493TMC3    O1 7391   4.241   3.872  11.148  0.1806 -0.0445 -0.1220
  493TMC3    O2 7392   4.650   4.100  11.547  0.1455 -0.2982  0.2879
  494TMC3    C1 7393   4.269   0.947   0.532 -0.4562  0.2574  0.8027
  494TMC3    C2 7394   4.382   0.874   0.568  0.3734  0.1756 -0.0307
  494TMC3    C3 7395   4.471   0.843   0.471  0.2344  0.0376 -0.1006
  494TMC3    C4 7396   4.253   0.993   0.405  0.1525 -0.2361 -0.3487
  494TMC3    C5 7397   4.335   0.948   0.306  0.1920 -0.3818  0.2374
  494TMC3    C6 7398   4.444   0.869   0.338 -0.7238  0.0603  0.8911
  494TMC3     C 7399   4.207   1.027   0.628  0.2069  0.0820 -0.4173
  494TMC3     O 7400   4.093   1.073   0.597  0.2429 -0.1307  0.1577
  494TMC3     H 7401   4.397   0.842   0.670  3.0287 -0.9900 -0.7822
  494TMC3    H1 7402   4.171   1.059   0.379  0.9881  0.8383 -0.2758
  494TMC3    H2 7403   4.504   0.831   0.256  1.6886  0.1490  2.6199
  494TMC3    C7 7404   4.377   1.042   0.205 -0.2332 -0.0260 -0.2319
  494TMC3    C8 7405   4.574   0.745   0.502  0.3684  1.1795  0.0351
  494TMC3    O1 7406   4.499   1.047   0.174 -0.1163 -0.0222  0.0308
  494TMC3    O2 7407   4.560   0.672   0.602 -0.6549  0.4229  0.1589
  495TMC3    C1 7408   3.521   3.461  14.473 -0.4912 -0.5268 -0.2853
  495TMC3    C2 7409   3.431   3.484  14.365 -0.2345  0.6873 -0.4103
  495TMC3    C3 7410   3.298   3.487  14.404  0.2270 -0.0786  0.3266
  495TMC3    C4 7411   3.481   3.461  14.608 -0.1500 -0.2743 -0.7605
  495TMC3    C5 7412   3.348   3.491  14.632 -0.4328 -0.1569 -0.2388
  495TMC3    C6 7413   3.257   3.495  14.530 -0.4486 -0.1998  0.7596
  495TMC3     C 7414   3.617   3.355  14.435  0.9558  0.0210 -0.3403
  495TMC3     O 7415   3.605   3.318  14.322  0.2057  0.1541  0.0912
  495TMC3     H 7416   3.463   3.485  14.261 -0.1145  1.2226 -0.3638
  495TMC3    H1 7417   3.550   3.449  14.691  1.4560 -0.6234 -2.1411
  495TMC3    H2 7418   3.152   3.508  14.554 -0.5576  0.2950  0.0167
  495TMC3    C7 7419   3.305   3.463  14.766 -1.0171  0.2084 -0.0293
  495TMC3    C8 7420   3.224   3.386  14.335 -0.5620  0.1049  0.4973
  495TMC3    O1 7421   3.385   3.503  14.851  0.2065 -0.2001 -0.5270
  495TMC3    O2 7422   3.100   3.387  14.338  0.0187  0.0658 -0.3871
  496MPD2     C 7423   1.107   2.866  16.027  0.1448  0.1201 -0.2445
  496MPD2    C1 7424   1.021   2.761  16.008  0.2936 -0.1540 -1.0348
  496MPD2    C2 7425   0.901   2.760  16.073  0.6266 -0.2275  0.4694
  496MPD2    C3 7426   0.874   2.859  16.166  0.5395  0.3399 -0.3078
  496MPD2    C4 7427   0.965   2.964  16.187 -0.0754 -0.1424  0.0856
  496MPD2    C5 7428   1.077   2.967  16.112  0.2245  0.2787 -0.1971
  496MPD2     H 7429   0.839   2.673  16.057  0.9091 -0.1837 -0.9115
  496MPD2    H1 7430   0.951   3.043  16.260  1.4721  2.4812 -2.4563
  496MPD2    H2 7431   1.193   2.879  15.963  1.1993 -2.3526  0.6772
  496MPD2    H3 7432   1.131   3.060  16.101 -1.5144  1.3599  0.4797
  496MPD2     N 7433   0.755   2.838  16.245 -0.5541  0.3461  0.0877
  496MPD2    H5 7434   0.697   2.759  16.220  0.4557  0.7530 -3.4503
  496MPD2    N1 7435   1.061   2.671  15.912 -0.5720  0.6376 -0.2672
  496MPD2    H7 7436   1.149   2.700  15.871  0.4691  0.3168  1.7588
  497TMC3    C1 7437   0.610   2.863  16.422  0.3562 -0.4209  0.1823
  497TMC3    C2 7438   0.511   2.822  16.335  0.5571 -0.0349 -1.0236
  497TMC3    C3 7439   0.399   2.757  16.377  0.4172  0.4515  0.1895
  497TMC3    C4 7440   0.597   2.856  16.558 -0.5377  0.1256 -0.2330
  497TMC3    C5 7441   0.483   2.788  16.599 -0.1973  0.0403  0.2013
  497TMC3    C6 7442   0.390   2.732  16.514 -0.6727  0.1489 -0.3211
  497TMC3     C 7443   0.729   2.909  16.363  0.2391  0.8671 -0.4572
  497TMC3     O 7444   0.809   2.961  16.442 -0.6615 -0.0247 -0.6298
  497TMC3     H 7445   0.514   2.858  16.233 -1.8012  1.0644 -0.6920
  497TMC3    H1 7446   0.680   2.879  16.623  0.3153 -1.7593 -0.6444
  497TMC3    H2 7447   0.302   2.691  16.561 -0.4727 -0.3132 -0.3527
  497TMC3    C7 7448   0.488   2.735  16.732 -0.2434 -0.0389 -0.2173
  497TMC3    C8 7449   0.280   2.724  16.291 -0.1211 -1.1440 -0.6569
  497TMC3    O1 7450   0.443   2.623  16.752 -0.1655 -0.1726  0.1025
  497TMC3    O2 7451   0.180   2.672  16.339 -0.3988 -0.6955  0.0214
  498MPD2     C 7452   0.885   4.647   9.897 -0.1705 -0.0251 -0.4161
  498MPD2    C1 7453   0.901   4.621  10.030 -0.1779  0.1581  0.3387
  498MPD2    C2 7454   0.881   4.496  10.078 -0.5840 -0.1153 -0.3273
  498MPD2    C3 7455   0.812   4.404   9.996 -0.2260 -0.6409  0.2843
  498MPD2    C4 7456   0.784   4.435   9.865 -0.1166  0.5360 -0.1361
  498MPD2    C5 7457   0.822   4.555   9.819 -0.8312  0.0908 -0.2191
  498MPD2     H 7458   0.905   4.472  10.181  0.5171  2.1275 -0.0564
  498MPD2    H1 7459   0.729   4.369   9.799 -0.2926  0.5065  0.0393
  498MPD2    H2 7460   0.905   0.005   9.852  0.2277 -0.2449 -0.7113
  498MPD2    H3 7461   0.822   4.571   9.712  1.8728  0.9328 -0.0948
  498MPD2     N 7462   0.782   4.279  10.052  0.0913  0.0250  0.5954
  498MPD2    H5 7463   0.801   4.259  10.150 -1.3986 -3.3006  0.2139
  498MPD2    N1 7464   0.960   4.720  10.111 -0.1658  0.5595  0.3028
  498MPD2    H7 7465   0.945   4.707  10.210  2.8402 -0.7442  0.5960
  499TMC3    C1 7466   1.048   0.185  10.174 -0.4265 -0.1182 -0.1237
  499TMC3    C2 7467   0.978   0.171  10.292  0.5315 -0.0916  1.0209
  499TMC3    C3 7468   1.008   0.252  10.399 -0.2581  0.4941  0.2717
  499TMC3    C4 7469   1.162   0.256  10.174  0.4160 -0.2333 -0.3334
  499TMC3    C5 7470   1.192   0.319  10.293  0.3783 -0.3028  0.0621
  499TMC3    C6 7471   1.116   0.336  10.397 -0.3533  0.1623  0.6715
  499TMC3     C 7472   1.017   0.101  10.063  0.4000  0.5266 -0.8324
  499TMC3     O 7473   1.075   0.116   9.959 -0.1981 -0.4043 -0.1388
  499TMC3     H 7474   0.880   0.125  10.296  2.1216 -3.5409  0.4853
  499TMC3    H1 7475   1.221   0.261  10.083 -0.6243  0.1659 -0.9839
  499TMC3    H2 7476   1.134   0.392  10.488 -1.2612 -1.5911  1.9219
  499TMC3    C7 7477   1.324   0.358  10.308 -0.2820 -0.6718  0.4760
  499TMC3    C8 7478   0.919   0.242  10.519 -0.0015 -0.1511  0.2479
  499TMC3    O1 7479   1.408   0.303  10.232  0.4072 -0.2212  0.1217
  499TMC3    O2 7480   0.828   0.160  10.502 -0.1218  1.1497 -0.4196
  500MPD2     C 7481   3.202   0.455  11.174 -0.3613  0.1607  0.7817
  500MPD2    C1 7482   3.295   0.501  11.088 -0.0020 -0.0691 -0.4017
  500MPD2    C2 7483   3.250   0.603  11.000  0.5437  0.6288  0.0893
  500MPD2    C3 7484   3.117   0.646  10.991  0.4554 -0.5048  0.6321
  500MPD2    C4 7485   3.027   0.587  11.081 -0.3958  0.4124  0.2204
  500MPD2    C5 7486   3.070   0.495  11.174 -0.2179 -0.1110 -0.2050
  500MPD2     H 7487   3.317   0.659  10.936  1.2601 -2.3473 -1.7697
  500MPD2    H1 7488   2.922   0.608  11.096 -0.5027  0.2471 -0.2942
  500MPD2    H2 7489   3.229   0.375  11.242 -3.2667 -1.6593 -0.2264
  500MPD2    H3 7490   3.002   0.440  11.238 -1.1430  0.1197 -0.9954
  500MPD2     N 7491   3.063   0.740  10.895 -0.4520  0.5086  0.4091
  500MPD2    H5 7492   2.961   0.736  10.890 -0.4234  1.5307 -0.8650
  500MPD2    N1 7493   3.422   0.444  11.066  0.2014  0.4408 -0.2027
  500MPD2    H7 7494   3.467   0.478  10.982  1.2682  1.8696  0.9251
  501TMC3    C1 7495   3.603   0.304  11.099 -0.3007 -0.7643  0.1939
  501TMC3    C2 7496   3.618   0.290  10.967  0.5806 -0.1630 -0.3775
  501TMC3    C3 7497   3.731   0.235  10.916 -0.1535  0.0768 -0.2001
  501TMC3    C4 7498   3.697   0.250  11.185 -0.0172 -0.0694  0.7125
  501TMC3    C5 7499   3.821   0.213  11.138  0.8614 -0.1565 -0.2542
  501TMC3    C6 7500   3.831   0.210  11.004  0.4619 -0.3283 -0.2719
  501TMC3     C 7501   3.480   0.352  11.153 -1.2200 -0.2147 -0.6741
  501TMC3     O 7502   3.467   0.357  11.271 -0.0346 -0.1783  0.3822
  501TMC3     H 7503   3.545   0.324  10.894 -0.2068 -0.6364  0.2024
  501TMC3    H1 7504   3.678   0.244  11.292 -0.6184  0.4351  0.6390
  501TMC3    H2 7505   3.934   0.188  10.978  0.6040 -1.2830  1.0934
  501TMC3    C7 7506   3.931   0.178  11.224  0.4951 -0.5394 -0.0268
  501TMC3    C8 7507   3.773   0.277  10.790  0.5500 -0.1247  0.5827
  501TMC3    O1 7508   4.016   0.101  11.184  0.0338 -0.0650 -0.6088
  501TMC3    O2 7509   3.675   0.301  10.725  0.4103  0.4992 -0.1002
  502TMC3    C1 7510   2.771   3.603  15.476 -0.4441  0.0607  0.0445
  502TMC3    C2 7511   2.791   3.735  15.493 -0.4363 -0.3886  0.3639
  502TMC3    C3 7512   2.751   3.815  15.390  0.4066  0.1761 -0.7620
  502TMC3    C4 7513   2.676   3.561  15.386 -0.0230 -0.5382  0.0400
  502TMC3    C5 7514   2.613   3.657  15.311  0.5623  0.0662  0.4185
  502TMC3    C6 7515   2.674   3.776  15.287  0.1122  0.4825 -0.6797
  502TMC3     C 7516   2.770   3.513  15.593  0.3579  0.5875  0.3278
  502TMC3     O 7517   2.816   3.405  15.567  0.6909  0.3012  0.0998
  502TMC3     H 7518   2.845   3.777  15.577  3.2707  1.7578 -3.1133
  502TMC3    H1 7519   2.660   3.455  15.369  2.7349 -1.0131  0.3611
  502TMC3    H2 7520   2.627   3.850  15.224 -0.1373  1.2874  0.4401
  502TMC3    C7 7521   2.469   3.660  15.336 -0.0570 -0.4209  0.0312
  502TMC3    C8 7522   2.782   3.955  15.388  0.6596  0.2805 -0.2860
  502TMC3    O1 7523   2.402   3.726  15.262 -0.3824 -0.5738  0.2772
  502TMC3    O2 7524   2.809   4.006  15.282  0.3212 -0.1205  0.9726
  503MPD2     C 7525   0.386   4.551  17.233 -0.6004 -0.0997  0.3905
  503MPD2    C1 7526   0.391   4.609  17.358 -0.1824  0.9516  1.1262
  503MPD2    C2 7527   0.472   4.548  17.454 -0.2004 -0.1038  0.4564
  503MPD2    C3 7528   0.536   4.432  17.439 -0.3202  0.0800  0.3172
  503MPD2    C4 7529   0.519   4.360  17.320 -0.4148 -0.1534 -0.5943
  503MPD2    C5 7530   0.437   4.423  17.228 -0.1918  0.3166  0.3286
  503MPD2     H 7531   0.488   4.599  17.548  1.8484  0.1739 -0.0364
  503MPD2    H1 7532   0.549   4.256  17.311 -0.9800 -0.3890  0.1943
  503MPD2    H2 7533   0.331   4.588  17.148  0.6764  2.4642  0.6913
  503MPD2    H3 7534   0.415   4.363  17.141  0.5255 -0.5740  0.7621
  503MPD2     N 7535   0.617   4.386  17.546  0.6613  0.1444  0.4879
  503MPD2    H5 7536   0.605   4.436  17.633 -0.5048  0.8524 -0.0730
  503MPD2    N1 7537   0.349   4.736  17.392  0.4318  0.5286 -0.2433
  503MPD2    H7 7538   0.350   0.019  17.491  0.6709  1.4496 -0.4523
  504TMC3    C1 7539   0.778   4.261  17.658 -0.4504  0.8441 -0.0035
  504TMC3    C2 7540   0.706   4.269   0.022  0.2372 -0.2594  0.0314
  504TMC3    C3 7541   0.777   4.263   0.135 -0.4282 -0.1786  0.5532
  504TMC3    C4 7542   0.910   4.251  17.648 -0.2021 -0.2703 -0.0227
  504TMC3    C5 7543   0.980   4.241   0.016 -0.0220  0.6472  0.5139
  504TMC3    C6 7544   0.911   4.245   0.136  0.1974  0.5876  0.0113
  504TMC3     C 7545   0.710   4.279  17.539 -0.7494  0.3720 -0.1354
  504TMC3     O 7546   0.743   4.210  17.445 -0.0328  0.4224  0.4944
  504TMC3     H 7547   0.598   4.271   0.033  0.0202  2.6359 -2.5014
  504TMC3    H1 7548   0.959   4.247  17.551  1.8956  0.5104  1.0111
  504TMC3    H2 7549   0.963   4.221   0.227  0.8742 -0.2645 -0.6040
  504TMC3    C7 7550   1.075   4.128   0.015 -1.0975  0.5002 -0.1019
  504TMC3    C8 7551   0.700   4.202   0.243 -0.2909  0.1401  0.1154
  504TMC3    O1 7552   1.080   4.067   0.121 -0.1191 -0.1764 -0.2323
  504TMC3    O2 7553   0.596   4.147   0.212 -0.2660  0.5864 -0.3016
  505MPD2     C 7554   1.041   2.733  10.454 -0.2539  0.0427  0.4312
  505MPD2    C1 7555   1.140   2.828  10.433 -0.0606  0.3777  0.6865
  505MPD2    C2 7556   1.171   2.921  10.533  0.6341 -0.1539  0.3681
  505MPD2    C3 7557   1.105   2.933  10.653 -0.2789 -0.2683  0.2875
  505MPD2    C4 7558   1.001   2.835  10.671 -0.2558  0.5951  0.4389
  505MPD2    C5 7559   0.979   2.740  10.572  0.2406 -0.5551  0.6718
  505MPD2     H 7560   1.244   3.000  10.527 -0.5941  0.7285 -2.8666
  505MPD2    H1 7561   0.946   2.821  10.763  3.4598  1.4043  2.7603
  505MPD2    H2 7562   1.028   2.650  10.386  1.8040 -0.6617  0.8992
  505MPD2    H3 7563   0.911   2.658  10.593  1.1385 -1.2792  0.7476
  505MPD2     N 7564   1.125   3.050  10.729  0.2162 -0.5996 -0.5175
  505MPD2    H5 7565   1.202   3.107  10.698  0.7087 -1.0251 -0.0806
  505MPD2    N1 7566   1.200   2.827  10.305  0.3442 -0.1332  0.0911
  505MPD2    H7 7567   1.171   2.756  10.238  0.8175  0.7322 -1.0207
  506TMC3    C1 7568   1.306   2.955  10.123 -0.0225 -0.1573 -0.0003
  506TMC3    C2 7569   1.194   2.965  10.048 -0.0087  0.1478 -0.2948
  506TMC3    C3 7570   1.195   3.068   9.957  0.0532 -0.1788 -0.1755
  506TMC3    C4 7571   1.411   3.034  10.097  0.1039  0.4768 -0.2868
  506TMC3    C5 7572   1.408   3.140  10.013  0.0327 -0.0340  0.3188
  506TMC3    C6 7573   1.295   3.161   9.948  1.1949  0.3618 -0.3744
  506TMC3     C 7574   1.286   2.933  10.267 -0.2558 -0.0824  0.4058
  506TMC3     O 7575   1.342   3.025  10.331 -0.1202  0.1152 -0.4073
  506TMC3     H 7576   1.114   2.894  10.070 -0.7488  1.4732  1.2890
  506TMC3    H1 7577   1.502   3.010  10.151 -0.2609 -0.6158 -0.1430
  506TMC3    H2 7578   1.287   3.241   9.876 -3.0799  1.8432  1.7594
  506TMC3    C7 7579   1.467   3.259  10.065  0.8761 -0.4119  0.0186
  506TMC3    C8 7580   1.071   3.101   9.900 -0.0693  0.3495 -0.3912
  506TMC3    O1 7581   1.482   3.358   9.990  0.0517 -0.3043 -0.3587
  506TMC3    O2 7582   1.000   3.009   9.857  0.4188  0.0690  0.0298
  507TMC3    C1 7583   1.690   3.905  14.870 -0.1635 -0.8381 -0.3605
  507TMC3    C2 7584   1.719   3.830  14.762 -0.5801  0.8896  0.2293
  507TMC3    C3 7585   1.737   3.894  14.641  0.1337 -0.2837  0.0677
  507TMC3    C4 7586   1.698   4.038  14.876 -0.0722 -0.4393 -0.3366
  507TMC3    C5 7587   1.740   4.094  14.755 -0.1153  0.2678  0.2711
  507TMC3    C6 7588   1.755   4.030  14.638  0.0284  0.3272  0.3391
  507TMC3     C 7589   1.558   3.871  14.927  0.0864  0.5160 -0.2595
  507TMC3     O 7590   1.512   3.938  15.017 -0.2000 -0.2656 -0.6515
  507TMC3     H 7591   1.721   3.722  14.765 -1.8376  0.8198 -1.4476
  507TMC3    H1 7592   1.681   4.091  14.968  1.4559  1.8717 -1.3954
  507TMC3    H2 7593   1.805   4.085  14.560  2.6059 -3.1653 -0.4579
  507TMC3    C7 7594   1.695   4.225  14.727  0.0854  0.6627 -0.3076
  507TMC3    C8 7595   1.636   3.853  14.546  0.0330  0.2048  0.1725
  507TMC3    O1 7596   1.667   4.238  14.607  0.3377 -0.5005  0.3072
  507TMC3    O2 7597   1.585   3.744  14.559 -0.3273  0.2886  0.3653
  508MPD2     C 7598   2.137   1.414  15.915  0.1225 -0.4936  0.6208
  508MPD2    C1 7599   2.229   1.517  15.930  0.0961 -0.0347 -0.0766
  508MPD2    C2 7600   2.247   1.604  15.822 -0.3194 -0.1172 -0.3237
  508MPD2    C3 7601   2.164   1.604  15.714 -0.1933 -0.7803 -0.4052
  508MPD2    C4 7602   2.067   1.505  15.701  0.5736 -0.0900  0.1365
  508MPD2    C5 7603   2.049   1.416  15.807  0.5364 -0.1565  0.4622
  508MPD2     H 7604   2.313   1.689  15.836 -1.7380  0.8667  0.3778
  508MPD2    H1 7605   1.990   1.502  15.625  0.5628  1.8242  0.0764
  508MPD2    H2 7606   2.134   1.331  15.985  0.4712  0.7174  2.0704
  508MPD2    H3 7607   1.966   1.347  15.793  1.4644 -0.8861 -1.4680
  508MPD2     N 7608   2.166   1.714  15.625  0.4213  0.7698 -0.4833
  508MPD2    H5 7609   2.235   1.787  15.640  0.6298  0.5861 -0.5615
  508MPD2    N1 7610   2.300   1.532  16.056  0.2174 -0.0818  0.2598
  508MPD2    H7 7611   2.257   1.471  16.125  0.1814 -0.0695  0.2482
  509TMC3    C1 7612   2.061   2.099  15.431  0.3875 -0.0953 -1.3237
  509TMC3    C2 7613   2.193   2.130  15.413  0.7531  0.3052 -0.7061
  509TMC3    C3 7614   2.287   2.032  15.428  0.3919 -0.4928  0.5858
  509TMC3    C4 7615   2.014   1.972  15.457 -0.3467 -0.5913 -0.8845
  509TMC3    C5 7616   2.111   1.878  15.484  0.4652 -0.2834 -0.1273
  509TMC3    C6 7617   2.248   1.910  15.469 -0.0873 -0.2957  0.0809
  509TMC3     C 7618   1.965   2.201  15.451  0.5318  0.2197  1.0255
  509TMC3     O 7619   1.853   2.161  15.431 -0.0130 -0.1962  0.3050
  509TMC3     H 7620   2.228   2.228  15.383  0.2157  1.5591  2.7659
  509TMC3    H1 7621   1.909   1.946  15.467 -0.9669  2.4429  0.2368
  509TMC3    H2 7622   2.326   1.835  15.479 -1.2716 -1.7447 -1.6042
  509TMC3    C7 7623   2.080   1.743  15.527 -0.6993 -0.2509  0.5823
  509TMC3    C8 7624   2.424   2.069  15.455 -0.0729 -0.2885  0.2071
  509TMC3    O1 7625   1.962   1.701  15.509  0.1713  0.2857  0.2772
  509TMC3    O2 7626   2.510   1.997  15.406 -0.4268 -0.6271 -0.2147
  510MPD2     C 7627   0.301   3.536  14.778 -0.0517  0.1330 -0.0341
  510MPD2    C1 7628   0.310   3.400  14.801 -0.3814  0.0702 -0.3720
  510MPD2    C2 7629   0.404   3.331  14.727 -0.8841 -0.0753 -0.2413
  510MPD2    C3 7630   0.499   3.390  14.641 -0.0878  0.2311 -0.5435
  510MPD2    C4 7631   0.502   3.530  14.639  0.2868  1.0758  0.1032
  510MPD2    C5 7632   0.409   3.599  14.712 -0.4540  0.4384  0.2941
  510MPD2     H 7633   0.401   3.224  14.744 -2.2641 -0.0504 -0.3427
  510MPD2    H1 7634   0.567   3.596  14.583  1.6270 -0.9113 -0.6783
  510MPD2    H2 7635   0.227   3.601  14.823  1.7634  1.1643  1.4842
  510MPD2    H3 7636   0.414   3.707  14.712 -1.1858  0.4728  1.0313
  510MPD2     N 7637   0.603   3.307  14.588 -0.1416 -0.3102 -0.6798
  510MPD2    H5 7638   0.617   3.214  14.624 -1.4344 -0.2433 -0.0186
  510MPD2    N1 7639   0.223   3.340  14.899 -0.2937 -0.2168  0.0624
  510MPD2    H7 7640   0.161   3.403  14.949  2.1411  1.5134  0.8829
  511TMC3    C1 7641   0.080   3.165  14.993 -0.1102 -0.7890  0.0800
  511TMC3    C2 7642   0.059   3.217  15.118 -0.9845 -0.7281  0.2781
  511TMC3    C3 7643   4.685   3.168  15.178 -0.6914 -0.7438  0.1358
  511TMC3    C4 7644   0.016   3.058  14.936  0.3851 -0.6608 -0.4585
  511TMC3    C5 7645   4.644   3.016  15.003 -0.0432  0.7576 -0.7852
  511TMC3    C6 7646   4.609   3.073  15.117  0.4080  0.1652  0.1816
  511TMC3     C 7647   0.205   3.206  14.923 -0.2680  0.7709  0.3887
  511TMC3     O 7648   0.266   3.109  14.879  0.2335  0.2086 -0.2918
  511TMC3     H 7649   0.131   3.284  15.164  0.8403 -2.6355  0.2176
  511TMC3    H1 7650   0.048   3.015  14.842  0.5293  2.1171 -1.6705
  511TMC3    H2 7651   4.512   3.042  15.156  0.6858 -0.1036  0.6537
  511TMC3    C7 7652   4.577   2.893  14.957  0.3132  0.4165 -0.2657
  511TMC3    C8 7653   4.647   3.219  15.306  0.1540  0.3937  0.3710
  511TMC3    O1 7654   4.606   2.855  14.847  0.0975  0.2552 -0.2570
  511TMC3    O2 7655   4.693   3.323  15.346 -0.5645 -0.5115  0.3472
  512TMC3    C1 7656   3.864   2.625  13.448  0.1375  0.4900  0.2544
  512TMC3    C2 7657   3.986   2.628  13.516  0.2815  0.7878 -0.0141
  512TMC3    C3 7658   4.033   2.511  13.572  0.1674 -0.0322  0.4565
  512TMC3    C4 7659   3.799   2.506  13.415  0.2188  0.4106 -0.5502
  512TMC3    C5 7660   3.851   2.394  13.475 -0.2464  0.3983 -0.2993
  512TMC3    C6 7661   3.971   2.391  13.545  0.0886  0.6998  0.1381
  512TMC3     C 7662   3.833   2.744  13.372  0.0421  0.3248 -0.2477
  512TMC3     O 7663   3.870   2.849  13.424  0.4043 -0.0670 -0.5580
  512TMC3     H 7664   4.039   2.722  13.526 -0.1216  0.7731  2.1341
  512TMC3    H1 7665   3.696   2.513  13.382  0.1330 -0.6229 -0.5126
  512TMC3    H2 7666   4.004   2.298  13.590  1.5457  0.2084 -1.9669
  512TMC3    C7 7667   3.803   2.272  13.419 -0.1226  0.7435 -0.6057
  512TMC3    C8 7668   4.154   2.515  13.650 -0.5636 -0.2131  0.2685
  512TMC3    O1 7669   3.746   2.291  13.315  0.1976  0.2347 -0.1370
  512TMC3    O2 7670   4.209   2.410  13.668 -0.4963  0.2074 -0.1872
  513MPD2     C 7671   1.253   2.287  13.474 -0.8471  0.3087 -0.4501
  513MPD2    C1 7672   1.357   2.359  13.432  0.5424  0.1796 -0.0307
  513MPD2    C2 7673   1.406   2.448  13.519  0.2574 -0.2936  0.9724
  513MPD2    C3 7674   1.359   2.465  13.647 -0.7708 -0.1934  0.6175
  513MPD2    C4 7675   1.257   2.389  13.689  0.8855  0.0044  0.4020
  513MPD2    C5 7676   1.208   2.300  13.601  0.1460  0.1102 -0.2240
  513MPD2     H 7677   1.490   2.507  13.486  1.6657 -2.0591  1.4274
  513MPD2    H1 7678   1.202   2.409  13.781  0.4297 -0.1032  0.1526
  513MPD2    H2 7679   1.207   2.211  13.412 -0.3813 -0.5447  0.2397
  513MPD2    H3 7680   1.138   2.224  13.635  2.1278 -1.7079 -0.2227
  513MPD2     N 7681   1.423   2.567  13.719  0.2731 -0.3949 -0.6092
  513MPD2    H5 7682   1.480   2.628  13.661  0.2003 -0.2831 -0.5621
  513MPD2    N1 7683   1.413   2.360  13.304 -0.1552  0.1243  0.0624
  513MPD2    H7 7684   1.494   2.419  13.289  0.5760 -0.6715  0.8873
  514TMC3    C1 7685   1.438   2.327  13.075  0.1904  0.0966  0.0728
  514TMC3    C2 7686   1.378   2.390  12.971 -0.3503 -0.8228 -0.1643
  514TMC3    C3 7687   1.443   2.498  12.914 -0.2394  0.4584  0.4821
  514TMC3    C4 7688   1.568   2.354  13.106  0.2367 -0.0007  0.3981
  514TMC3    C5 7689   1.628   2.460  13.055 -0.0173  0.0844 -0.2588
  514TMC3    C6 7690   1.566   2.539  12.960  0.7878  0.3693 -0.3561
  514TMC3     C 7691   1.355   2.308  13.189 -0.2955 -0.2481 -0.6067
  514TMC3     O 7692   1.239   2.271  13.169 -0.8681 -0.0440  0.5695
  514TMC3     H 7693   1.276   2.367  12.943  0.8226 -3.4431 -2.2091
  514TMC3    H1 7694   1.611   2.306  13.194 -0.3086  1.7533  1.6200
  514TMC3    H2 7695   1.612   2.632  12.927  1.3627  0.1351 -0.2176
  514TMC3    C7 7696   1.684   2.545  13.163  0.1033  0.2525  0.1925
  514TMC3    C8 7697   1.372   2.562  12.807  1.0675 -0.2906 -0.5194
  514TMC3    O1 7698   1.657   2.493  13.271  0.7582 -0.9424 -0.0141
  514TMC3    O2 7699   1.262   2.510  12.784 -0.7929 -0.5089  0.1730
  515MPD2     C 7700   3.744   0.079  15.766  0.4367  0.6766 -0.5079
  515MPD2    C1 7701   3.760   0.043  15.634  0.6519  0.0485 -0.4118
  515MPD2    C2 7702   3.882   0.067  15.575 -0.2384 -0.7268 -0.1816
  515MPD2    C3 7703   3.978   0.153  15.632 -0.0707 -0.3865  0.6744
  515MPD2    C4 7704   3.960   0.198  15.769 -0.8248  0.3175 -0.0178
  515MPD2    C5 7705   3.849   0.146  15.834 -0.8674 -0.0488  0.0210
  515MPD2     H 7706   3.891   0.036  15.471 -1.5180 -0.2937 -0.4178
  515MPD2    H1 7707   4.024   0.271  15.817 -0.1614 -1.2092  1.4286
  515MPD2    H2 7708   3.662   0.037  15.822 -0.2903  0.2771 -1.8745
  515MPD2    H3 7709   3.827   0.176  15.936  1.7895 -0.8744  0.8448
  515MPD2     N 7710   4.090   0.197  15.566  0.1529  0.2378  0.1546
  515MPD2    H5 7711   4.151   0.255  15.622  0.8574 -1.0641  0.7388
  515MPD2    N1 7712   3.670   4.693  15.566 -0.0109 -0.1265  0.5257
  515MPD2    H7 7713   3.691   4.662  15.472 -3.8578 -3.8580  0.8944
  516TMC3    C1 7714   3.474   4.567  15.521 -0.0424 -0.1114  0.3203
  516TMC3    C2 7715   3.496   4.564  15.385 -0.6507  0.3023 -0.1319
  516TMC3    C3 7716   3.449   4.454  15.321  0.8940 -0.7437  0.2881
  516TMC3    C4 7717   3.405   4.466  15.595 -0.2114  0.5564 -0.2642
  516TMC3    C5 7718   3.361   4.360  15.524 -0.4499  0.2762  0.0914
  516TMC3    C6 7719   3.379   4.349  15.384  0.5312  0.0962  0.8725
  516TMC3     C 7720   3.546   4.654  15.611 -0.2923 -0.2906 -0.0365
  516TMC3     O 7721   3.501   4.670  15.722  0.0763  0.1476 -0.2659
  516TMC3     H 7722   3.550   4.644  15.336  1.2766  0.0961  1.6381
  516TMC3    H1 7723   3.389   4.475  15.702  0.9370  1.4943 -0.1661
  516TMC3    H2 7724   3.340   4.270  15.321 -0.6935  2.8298 -1.7871
  516TMC3    C7 7725   3.302   4.248  15.598  0.3734 -0.5361 -0.0846
  516TMC3    C8 7726   3.458   4.444  15.180  0.9499 -0.1451 -0.4869
  516TMC3    O1 7727   3.318   4.237  15.720  0.0653 -0.0724 -0.5592
  516TMC3    O2 7728   3.377   4.373  15.123  0.0119 -0.2559 -0.0472
  517MPD2     C 7729   3.636   1.497  17.708 -0.3012 -0.7531 -0.3479
  517MPD2    C1 7730   3.617   1.419   0.073 -0.0915  0.2138 -0.1994
  517MPD2    C2 7731   3.577   1.471   0.189 -0.2699  0.0248 -0.2730
  517MPD2    C3 7732   3.543   1.604   0.194 -0.0158 -0.4393  0.7321
  517MPD2    C4 7733   3.558   1.679   0.079  0.2785 -0.5871 -0.2346
  517MPD2    C5 7734   3.602   1.627  17.716 -0.4399 -0.4323 -0.1494
  517MPD2     H 7735   3.569   1.411   0.279  0.3795  1.2314  0.5791
  517MPD2    H1 7736   3.547   1.787   0.088  2.6242 -0.0943 -3.3969
  517MPD2    H2 7737   3.669   1.455  17.614  1.3117  0.1833 -0.1964
  517MPD2    H3 7738   3.610   1.696  17.632  0.1461  0.6160  0.7665
  517MPD2     N 7739   3.497   1.656   0.320  0.2043  0.3327  0.1111
  517MPD2    H5 7740   3.481   1.593   0.398 -0.8192  1.3303  0.6942
  517MPD2    N1 7741   3.645   1.277   0.070 -0.8296  0.1283 -0.1623
  517MPD2    H7 7742   3.648   1.227   0.159  1.7230 -0.6917 -0.7134
  518TMC3    C1 7743   3.680   1.063  17.738 -0.1257 -0.0883 -0.4750
  518TMC3    C2 7744   3.622   0.968  17.662  0.1035 -0.1565 -0.3653
  518TMC3    C3 7745   3.672   0.837  17.686 -0.2862  0.6202  0.5464
  518TMC3    C4 7746   3.780   1.039   0.076 -0.4572 -0.3112  0.1912
  518TMC3    C5 7747   3.815   0.914   0.106  0.3231 -0.1527  0.4580
  518TMC3    C6 7748   3.758   0.812   0.037  0.4668  0.0944 -0.5585
  518TMC3     C 7749   3.657   1.202  17.705 -0.5904 -0.7479 -0.3400
  518TMC3     O 7750   3.600   1.234  17.599  0.0564 -0.7086  0.3463
  518TMC3     H 7751   3.579   0.992  17.565 -4.1404 -0.9666  1.3438
  518TMC3    H1 7752   3.840   1.121   0.114 -0.9451  1.4522 -2.8550
  518TMC3    H2 7753   3.794   0.712   0.060 -1.8024 -0.2332  1.5156
  518TMC3    C7 7754   3.953   0.885   0.120 -0.4603 -0.4145  0.2394
  518TMC3    C8 7755   3.669   0.729  17.583 -0.1174  0.0248  0.5137
  518TMC3    O1 7756   4.015   0.945   0.208 -0.2680  0.2509 -0.4457
  518TMC3    O2 7757   3.750   0.640  17.607  0.9335  0.3264 -0.9766
  519MPD2     C 7758   0.582   3.939  14.846  0.8498  0.6177 -0.0419
  519MPD2    C1 7759   0.474   3.948  14.757  0.4169  0.4898  0.0190
  519MPD2    C2 7760   0.497   3.914  14.627 -0.0072  0.6898 -0.2329
  519MPD2    C3 7761   0.620   3.860  14.579 -0.0787 -0.2768  0.5874
  519MPD2    C4 7762   0.720   3.842  14.677  0.5491  0.0324  0.0714
  519MPD2    C5 7763   0.702   3.885  14.807  0.1850  0.1854  0.4997
  519MPD2     H 7764   0.412   3.919  14.560  0.6099 -0.2028 -1.0816
  519MPD2    H1 7765   0.814   3.794  14.652  0.5318  0.6282 -1.1144
  519MPD2    H2 7766   0.578   3.989  14.942 -0.6962 -1.0345  0.7498
  519MPD2    H3 7767   0.772   3.869  14.888  0.7924 -2.3227 -0.5009
  519MPD2     N 7768   0.652   3.831  14.446  0.1635 -0.4916 -0.2592
  519MPD2    H5 7769   0.748   3.801  14.432 -0.6127 -2.0020 -2.3259
  519MPD2    N1 7770   0.352   4.007  14.801  0.0948  0.6569 -0.2435
  519MPD2    H7 7771   0.349   4.042  14.896  1.4270 -1.0052  0.4184
  520TMC3    C1 7772   0.633   3.802  14.214  0.1376  0.2210 -0.1327
  520TMC3    C2 7773   0.589   3.864  14.098 -0.5666 -0.2096 -0.2730
  520TMC3    C3 7774   0.655   3.848  13.981 -0.2398  0.3501  0.2801
  520TMC3    C4 7775   0.747   3.726  14.218  0.4019  0.1785 -0.3758
  520TMC3    C5 7776   0.808   3.703  14.096  0.1747 -0.0469  0.4273
  520TMC3    C6 7777   0.767   3.763  13.981 -0.0672 -0.0053 -0.3784
  520TMC3     C 7778   0.576   3.844  14.338 -0.2368 -0.6920  0.4292
  520TMC3     O 7779   0.464   3.897  14.341  0.0873  0.1532  0.3029
  520TMC3     H 7780   0.502   3.928  14.108 -0.9942 -0.5008 -2.1618
  520TMC3    H1 7781   0.783   3.667  14.301 -0.1834 -2.8332 -2.2642
  520TMC3    H2 7782   0.809   3.726  13.889 -0.1498  2.2818 -1.3294
  520TMC3    C7 7783   0.937   3.639  14.109 -0.3972 -0.5770 -0.1390
  520TMC3    C8 7784   0.619   3.944  13.879 -0.6780 -0.0578 -0.2698
  520TMC3    O1 7785   0.958   3.556  14.196 -0.1028  0.2189  0.8187
  520TMC3    O2 7786   0.704   3.976  13.795 -0.1157  0.5523 -0.8000
  521MPD2     C 7787   1.115   1.637  17.599 -0.3702  0.3090  0.0565
  521MPD2    C1 7788   1.113   1.716  17.488 -0.0947 -0.2000  0.1595
  521MPD2    C2 7789   1.220   1.721  17.400 -0.2178  0.6149  0.6555
  521MPD2    C3 7790   1.334   1.646  17.427  0.1722 -0.1448 -0.3538
  521MPD2    C4 7791   1.338   1.567  17.541  0.6637  0.2339 -0.4841
  521MPD2    C5 7792   1.231   1.568  17.622 -0.2112  0.1343  0.3853
  521MPD2     H 7793   1.214   1.791  17.317  1.8016  0.2530  0.1937
  521MPD2    H1 7794   1.429   1.510  17.553 -0.3757 -1.4849 -0.6548
  521MPD2    H2 7795   1.031   1.617  17.664  0.4029  0.7805  1.2013
  521MPD2    H3 7796   1.235   1.499  17.705 -1.9074 -0.5029 -0.0691
  521MPD2     N 7797   1.441   1.659  17.338 -0.1937  0.0122 -0.1729
  521MPD2    H5 7798   1.413   1.722  17.264  0.7600 -0.1056 -0.6357
  521MPD2    N1 7799   0.993   1.794  17.465  0.1767  0.3251  0.3116
  521MPD2    H7 7800   0.916   1.780  17.531 -0.5371 -0.1030 -0.6085
  522TMC3    C1 7801   1.650   1.638  17.234 -0.5575 -0.5533 -0.0716
  522TMC3    C2 7802   1.740   1.540  17.202 -0.3628 -0.0202 -0.3756
  522TMC3    C3 7803   1.825   1.567  17.096 -0.6663  0.0047  0.1108
  522TMC3    C4 7804   1.616   1.751  17.152 -0.2415 -0.8280 -0.1230
  522TMC3    C5 7805   1.706   1.774  17.058 -0.0674  0.0897  0.2870
  522TMC3    C6 7806   1.812   1.684  17.025 -0.2986  0.2982  0.1254
  522TMC3     C 7807   1.564   1.603  17.340  0.1755 -0.2121 -0.5687
  522TMC3     O 7808   1.605   1.530  17.429  0.1165  0.0791 -0.5714
  522TMC3     H 7809   1.751   1.447  17.256 -0.7310  0.7297  0.9914
  522TMC3    H1 7810   1.556   1.828  17.199 -0.3491 -0.5824 -0.6658
  522TMC3    H2 7811   1.864   1.706  16.933  2.8036 -0.0123  1.8017
  522TMC3    C7 7812   1.696   1.892  16.989 -1.3274  0.5231  0.3870
  522TMC3    C8 7813   1.885   1.464  17.028  0.0611  0.7187  0.1034
  522TMC3    O1 7814   1.799   1.932  16.942  0.1592 -0.7896  0.3476
  522TMC3    O2 7815   1.851   1.356  17.066 -0.2351  0.0976 -0.0021
  523MPD2     C 7816   3.977   2.557  10.316 -0.1184  0.0434  0.8016
  523MPD2    C1 7817   3.891   2.451  10.309 -0.3023  0.1349  0.0981
  523MPD2    C2 7818   3.798   2.449  10.202  0.3809  0.2054  0.0771
  523MPD2    C3 7819   3.775   2.563  10.131 -0.0246  0.7340 -0.4306
  523MPD2    C4 7820   3.856   2.669  10.161 -0.5542  0.0879  0.3547
  523MPD2    C5 7821   3.962   2.671  10.245 -0.1163 -0.0633  0.2374
  523MPD2     H 7822   3.732   2.364  10.188  1.2499 -1.1022  4.0016
  523MPD2    H1 7823   3.841   2.764  10.111 -1.2219 -0.7779 -1.0916
  523MPD2    H2 7824   4.063   2.554  10.382  0.4040  0.4212  0.1354
  523MPD2    H3 7825   4.027   2.757  10.252 -1.2772  0.8969 -0.8885
  523MPD2     N 7826   3.669   2.579  10.035 -0.4711  0.2810  0.0000
  523MPD2    H5 7827   3.643   2.675  10.018 -0.2938  0.7760  2.5222
  523MPD2    N1 7828   3.912   2.346  10.403 -0.2695 -0.3593 -0.4412
  523MPD2    H7 7829   3.980   2.356  10.478  0.1069 -0.7427 -0.7276
  524TMC3    C1 7830   3.462   2.506   9.949 -0.1479  0.4495 -0.3842
  524TMC3    C2 7831   3.382   2.395   9.910  0.6506  0.2552 -0.2697
  524TMC3    C3 7832   3.253   2.415   9.898 -0.5868  0.0398  0.0810
  524TMC3    C4 7833   3.400   2.622   9.991  0.2370 -0.6887 -0.2855
  524TMC3    C5 7834   3.268   2.640   9.960  0.2520  0.5213 -0.3971
  524TMC3    C6 7835   3.188   2.531   9.912  0.1973  0.0921  0.0451
  524TMC3     C 7836   3.595   2.476   9.998  0.6018 -0.1377  1.0374
  524TMC3     O 7837   3.624   2.357   9.993  0.4060  0.5911 -0.0722
  524TMC3     H 7838   3.426   2.296   9.902 -1.1220 -0.3832 -2.4044
  524TMC3    H1 7839   3.450   2.710  10.030 -1.3740  1.2791 -2.6402
  524TMC3    H2 7840   3.083   2.550   9.892  0.5720  0.7650 -1.2766
  524TMC3    C7 7841   3.205   2.758  10.015 -0.1557 -0.2348  0.0783
  524TMC3    C8 7842   3.179   2.291   9.869  0.4202 -0.1242  0.6148
  524TMC3    O1 7843   3.257   2.823  10.107 -0.3549 -0.1558  0.5421
  524TMC3    O2 7844   3.238   2.185   9.857  0.5433 -0.3161  0.1148
  525MPD2     C 7845   1.971   3.630  14.594  0.2599 -0.0022  0.2304
  525MPD2    C1 7846   2.078   3.661  14.667  0.0904  0.8180 -0.1815
  525MPD2    C2 7847   2.166   3.762  14.626 -0.2038  0.2326  0.1271
  525MPD2    C3 7848   2.139   3.838  14.518 -0.2400  0.2854 -0.0940
  525MPD2    C4 7849   2.027   3.813  14.445  0.2230  0.5907 -0.1919
  525MPD2    C5 7850   1.946   3.706  14.481 -0.7066 -0.4895 -0.3631
  525MPD2     H 7851   2.246   3.792  14.693  0.5203  1.8917 -1.4972
  525MPD2    H1 7852   2.005   3.878  14.362  0.6040  0.6293 -0.2637
  525MPD2    H2 7853   1.903   3.549  14.618  0.4184  0.3223  1.7370
  525MPD2    H3 7854   1.857   3.691  14.420  1.4261 -2.4756 -3.0124
  525MPD2     N 7855   2.209   3.959  14.495  1.2396  0.3036 -0.1301
  525MPD2    H5 7856   2.159   4.023  14.435  1.9542  1.0081  0.0294
  525MPD2    N1 7857   2.096   3.598  14.794 -0.0533 -0.0977 -0.4106
  525MPD2    H7 7858   2.178   3.625  14.849 -0.7848  0.8870  0.1930
  526TMC3    C1 7859   2.071   3.450  14.977  0.2374 -0.3942  0.1238
  526TMC3    C2 7860   1.985   3.428  15.082 -0.2296 -0.1340 -0.1413
  526TMC3    C3 7861   2.041   3.401  15.204  0.0077 -0.0529  0.3394
  526TMC3    C4 7862   2.208   3.446  14.988 -0.0477  0.0402 -0.3183
  526TMC3    C5 7863   2.258   3.412  15.114  0.1448  0.6926 -0.3563
  526TMC3    C6 7864   2.178   3.392  15.223 -0.6023 -0.6165  0.0165
  526TMC3     C 7865   2.008   3.515  14.858  0.4014  0.0639  0.0518
  526TMC3     O 7866   1.894   3.484  14.830 -0.2511  0.5600 -0.2308
  526TMC3     H 7867   1.878   3.439  15.067  0.1252  2.1439 -1.0222
  526TMC3    H1 7868   2.273   3.479  14.908 -2.0760  3.6546 -0.4834
  526TMC3    H2 7869   2.217   3.361  15.319  3.2530  0.2447 -1.2974
  526TMC3    C7 7870   2.387   3.358  15.129  1.0682 -0.0693  0.0292
  526TMC3    C8 7871   1.962   3.379  15.321 -0.1194  0.2964 -0.2988
  526TMC3    O1 7872   2.433   3.337  15.240 -0.2483 -0.5782  0.7234
  526TMC3    O2 7873   2.013   3.367  15.432 -0.2473  0.5120 -0.2743
  527MPD2     C 7874   4.558   2.293   1.547  1.2005  0.4727  0.5978
  527MPD2    C1 7875   4.514   2.226   1.432  0.0548 -0.0069 -0.2434
  527MPD2    C2 7876   4.600   2.152   1.357  0.0011  0.1290 -0.5538
  527MPD2    C3 7877   0.003   2.143   1.398 -0.4138 -0.1494  0.7805
  527MPD2    C4 7878   0.042   2.203   1.517  0.5122  0.2319 -0.2524
  527MPD2    C5 7879   4.688   2.273   1.597 -0.0866 -0.1327  0.2693
  527MPD2     H 7880   4.565   2.115   1.262  0.2140 -1.9813  0.1833
  527MPD2    H1 7881   0.142   2.191   1.557  1.0761  2.9511 -0.9125
  527MPD2    H2 7882   4.494   2.360   1.604  1.7320  1.4943 -0.0130
  527MPD2    H3 7883   4.721   2.331   1.682  0.9291  2.6091 -1.9965
  527MPD2     N 7884   0.095   2.072   1.313  0.0549 -0.3358  0.8681
  527MPD2    H5 7885   0.057   2.008   1.244 -1.5521  0.4492  1.0141
  527MPD2    N1 7886   4.373   2.231   1.384 -0.4013  0.6697  0.1839
  527MPD2    H7 7887   4.348   2.158   1.317 -3.2020  0.9550  0.9012
  528TMC3    C1 7888   4.134   2.254   1.411 -0.0485 -0.3842 -0.2085
  528TMC3    C2 7889   4.118   2.194   1.289  0.3810 -0.3653 -0.4024
  528TMC3    C3 7890   3.994   2.175   1.247 -0.7807  0.6893  0.2572
  528TMC3    C4 7891   4.028   2.291   1.496 -0.2695 -0.7306  0.3820
  528TMC3    C5 7892   3.899   2.255   1.448 -1.2244 -0.0219  0.1998
  528TMC3    C6 7893   3.886   2.202   1.323 -1.1689  0.4566 -0.4597
  528TMC3     C 7894   4.270   2.293   1.451  0.0110 -0.0422  0.4106
  528TMC3     O 7895   4.283   2.345   1.562  0.3436 -0.2588 -0.4572
  528TMC3     H 7896   4.201   2.189   1.219  0.7896  2.1181 -0.1001
  528TMC3    H1 7897   4.047   2.340   1.591  0.3599 -0.1948 -0.0230
  528TMC3    H2 7898   3.790   2.213   1.273 -1.3682 -0.3341 -0.2502
  528TMC3    C7 7899   3.783   2.303   1.524  0.4752  0.9952  0.3924
  528TMC3    C8 7900   3.984   2.093   1.126  0.5948 -0.2160  0.4572
  528TMC3    O1 7901   3.802   2.366   1.628 -0.0601 -0.6063  0.0268
  528TMC3    O2 7902   4.091   2.082   1.066 -0.2900  0.1086  0.0881
  529MPD2     C 7903   1.780   0.158   0.710 -0.3502 -0.0294  0.8997
  529MPD2    C1 7904   1.862   0.260   0.759  0.5126 -0.2343  0.3118
  529MPD2    C2 7905   1.834   0.393   0.735  0.3341  0.9869  0.2732
  529MPD2    C3 7906   1.717   0.418   0.669  0.3623 -0.7423  0.5941
  529MPD2    C4 7907   1.634   0.316   0.621 -0.0930 -0.6167  0.1671
  529MPD2    C5 7908   1.669   0.186   0.636 -0.3885 -0.2932 -0.3845
  529MPD2     H 7909   1.913   0.465   0.754  1.3127 -0.1232  0.3923
  529MPD2    H1 7910   1.548   0.343   0.561 -0.0367  0.6015  0.6361
  529MPD2    H2 7911   1.807   0.053   0.718  1.1069  0.2769  0.0533
  529MPD2    H3 7912   1.606   0.117   0.582  1.8596 -2.2173 -0.5780
  529MPD2     N 7913   1.677   0.559   0.641  0.1304 -0.1823  0.1411
  529MPD2    H5 7914   1.593   0.563   0.583  0.1591 -1.0385  0.0341
  529MPD2    N1 7915   1.992   0.235   0.815  0.2185 -0.6692  0.5069
  529MPD2    H7 7916   2.048   0.319   0.826 -1.8489  1.0590 -2.1170
  530TMC3    C1 7917   2.183   0.112   0.875  0.2588  0.2670 -0.1158
  530TMC3    C2 7918   2.259   0.220   0.847 -0.4565 -0.6890  0.2870
  530TMC3    C3 7919   2.389   0.212   0.871 -0.2440  0.5652  0.3249
  530TMC3    C4 7920   2.233   4.732   0.935  0.3778  0.7696  0.0693
  530TMC3    C5 7921   2.367   4.731   0.963 -0.3369 -0.2877 -0.1749
  530TMC3    C6 7922   2.447   0.093   0.920  0.6983 -0.1296 -0.4849
  530TMC3     C 7923   2.041   0.106   0.843 -0.0166  0.1437  0.3553
  530TMC3     O 7924   1.986   4.734   0.834  0.3162  0.5302 -0.2080
  530TMC3     H 7925   2.224   0.301   0.784  0.1415 -2.4543 -2.3032
  530TMC3    H1 7926   2.169   4.645   0.942  0.4589  0.7305  0.3209
  530TMC3    H2 7927   2.553   0.084   0.939  0.5129  0.4835  0.8639
  530TMC3    C7 7928   2.419   4.606   1.011 -0.0109  0.2930 -0.4735
  530TMC3    C8 7929   2.458   0.340   0.890  0.3065  0.5704  0.0328
  530TMC3    O1 7930   2.526   4.572   0.969 -0.2543  0.0853 -0.1610
  530TMC3    O2 7931   2.383   0.431   0.930 -0.0805  0.4261 -0.1759
  531MPD2     C 7932   1.984   2.855  13.443  0.2049  0.3306 -0.4964
  531MPD2    C1 7933   1.854   2.813  13.463 -0.4130  0.6587 -1.0879
  531MPD2    C2 7934   1.788   2.746  13.360  0.9097  0.0551 -0.1638
  531MPD2    C3 7935   1.848   2.718  13.237 -0.6630 -0.7795  0.9095
  531MPD2    C4 7936   1.974   2.765  13.220 -0.7274  0.1594 -0.0853
  531MPD2    C5 7937   2.042   2.820  13.325 -0.1098 -0.1804 -0.1065
  531MPD2     H 7938   1.689   2.705  13.374  0.6164 -0.8315 -4.7436
  531MPD2    H1 7939   2.035   2.761  13.130  1.0700  1.4920  1.0743
  531MPD2    H2 7940   2.047   2.895  13.522  0.4622 -0.7862 -0.1304
  531MPD2    H3 7941   2.141   2.858  13.303 -0.8411  1.1785 -1.0953
  531MPD2     N 7942   1.782   2.641  13.137 -0.6389  0.9776  0.2273
  531MPD2    H5 7943   1.824   2.627  13.046 -1.0351 -0.9685  0.3356
  531MPD2    N1 7944   1.794   2.842  13.583 -0.0525  0.1546  0.2768
  531MPD2    H7 7945   1.846   2.883  13.659 -0.2731  3.0903 -1.1596
  532TMC3    C1 7946   1.651   2.790  13.762  0.3577  0.7868 -0.3021
  532TMC3    C2 7947   1.519   2.793  13.795 -0.2610  0.5152 -0.4553
  532TMC3    C3 7948   1.482   2.715  13.900 -0.3659 -0.2175 -0.0883
  532TMC3    C4 7949   1.749   2.763  13.851  0.2791 -0.2820 -0.3893
  532TMC3    C5 7950   1.710   2.699  13.967 -0.1706  0.9356  0.2889
  532TMC3    C6 7951   1.579   2.670  13.981 -0.1115  0.8464 -0.3288
  532TMC3     C 7952   1.675   2.781  13.617  0.3977  0.1751  0.1793
  532TMC3     O 7953   1.576   2.752  13.548  0.2987 -0.4061  0.2102
  532TMC3     H 7954   1.446   2.826  13.721 -0.9563 -1.7955 -0.7914
  532TMC3    H1 7955   1.853   2.759  13.824  0.1787 -2.0934 -0.5219
  532TMC3    H2 7956   1.560   2.593  14.054 -1.2110  0.4001 -1.0922
  532TMC3    C7 7957   1.808   2.627  14.045  0.6444 -0.3143 -0.1667
  532TMC3    C8 7958   1.396   2.605  13.852 -0.4106 -0.6258  0.1775
  532TMC3    O1 7959   1.825   2.657  14.166 -0.3317  0.3995  0.0427
  532TMC3    O2 7960   1.346   2.530  13.931 -0.4325  0.0427  0.2112
  533TMC3    C1 7961   2.315   4.150  14.571  0.4181 -1.0087 -0.2312
  533TMC3    C2 7962   2.436   4.203  14.610  0.3735 -0.5082 -0.9666
  533TMC3    C3 7963   2.431   4.315  14.695  0.1402 -0.0112  0.4564
  533TMC3    C4 7964   2.190   4.202  14.601 -0.7263  0.1208 -0.0063
  533TMC3    C5 7965   2.188   4.309  14.685  0.1346  0.2993  0.2590
  533TMC3    C6 7966   2.308   4.365  14.732  0.7719 -0.0105 -0.1986
  533TMC3     C 7967   2.318   4.007  14.561 -0.0158  0.2164 -0.0366
  533TMC3     O 7968   2.407   3.947  14.616 -0.3378 -0.6734  0.6936
  533TMC3     H 7969   2.524   4.139  14.618  1.2781  0.8847  0.1800
  533TMC3    H1 7970   2.103   4.149  14.565 -0.4256 -1.2589  1.3093
  533TMC3    H2 7971   2.304   4.456  14.790  3.5435  0.1188 -0.1690
  533TMC3    C7 7972   2.079   4.283  14.772 -0.0332  0.5756  0.0229
  533TMC3    C8 7973   2.554   4.381  14.743 -0.2895  0.2313 -0.3050
  533TMC3    O1 7974   2.053   4.170  14.799 -0.8986 -0.0436 -0.3337
  533TMC3    O2 7975   2.549   4.439  14.846  0.0669  0.0333 -0.3342
  534MPD2     C 7976   4.718   1.184   1.286  0.6255 -0.4814  0.6451
  534MPD2    C1 7977   4.613   1.274   1.296 -0.4289  0.2153  0.6898
  534MPD2    C2 7978   4.489   1.224   1.248  0.2964  0.7984  0.1715
  534MPD2    C3 7979   4.484   1.096   1.199 -0.4792  0.0991  0.1056
  534MPD2    C4 7980   4.585   1.014   1.195 -0.5047 -0.0860  0.8954
  534MPD2    C5 7981   4.705   1.062   1.231 -0.3401  0.3365  0.6592
  534MPD2     H 7982   4.396   1.278   1.255 -1.2280 -1.9374  1.0457
  534MPD2    H1 7983   4.587   0.910   1.164 -0.4150  0.5016 -1.0515
  534MPD2    H2 7984   0.083   1.215   1.300  0.6246  0.6351 -1.9218
  534MPD2    H3 7985   0.062   1.011   1.218  0.0508  0.9833  1.0124
  534MPD2     N 7986   4.358   1.038   1.161 -0.1781 -0.9148  0.0072
  534MPD2    H5 7987   4.369   0.943   1.129 -0.9209 -1.8005  2.3613
  534MPD2    N1 7988   4.621   1.409   1.346 -0.4464 -0.0769  0.3638
  534MPD2    H7 7989   4.534   1.459   1.343  0.0470  0.7534  0.0100
  535TMC3    C1 7990   4.137   1.014   1.089 -0.5129  0.4600  0.2786
  535TMC3    C2 7991   4.007   1.027   1.126 -0.3042 -0.1485 -0.0138
  535TMC3    C3 7992   3.921   0.939   1.068  0.8280  0.1802 -0.3551
  535TMC3    C4 7993   4.186   0.905   1.016 -1.4042  0.0558 -0.1038
  535TMC3    C5 7994   4.100   0.817   0.964  0.2276 -0.8767  0.0216
  535TMC3    C6 7995   3.966   0.838   0.983 -0.2998 -0.2823  0.1961
  535TMC3     C 7996   4.233   1.091   1.161  0.7414  0.2559 -0.0494
  535TMC3     O 7997   4.190   1.171   1.244 -0.2950  0.2004  0.2509
  535TMC3     H 7998   3.964   1.098   1.195 -0.9981  1.4607 -2.0899
  535TMC3    H1 7999   4.289   0.904   0.983 -1.9107 -0.9216 -1.6691
  535TMC3    H2 8000   3.893   0.768   0.944 -1.6410 -0.4329  2.9687
  535TMC3    C7 8001   4.142   0.742   0.845  0.8545  0.3520  0.5109
  535TMC3    C8 8002   3.777   0.939   1.098 -0.0096 -0.3351 -0.0673
  535TMC3    O1 8003   4.256   0.699   0.844 -0.0352 -0.2201  0.0920
  535TMC3    O2 8004   3.725   0.828   1.096 -0.5631 -0.0716  0.1016
  536MPD2     C 8005   2.329   3.265  16.899  0.0702  0.7090  0.0974
  536MPD2    C1 8006   2.395   3.384  16.920 -0.2745 -0.4790 -0.2351
  536MPD2    C2 8007   2.395   3.478  16.822  0.1667 -0.2031  0.6492
  536MPD2    C3 8008   2.326   3.445  16.703  0.3036  0.1668  0.3470
  536MPD2    C4 8009   2.255   3.324  16.685  0.2328  0.2162 -0.3130
  536MPD2    C5 8010   2.256   3.230  16.789  0.5443  0.1404  0.3452
  536MPD2     H 8011   2.444   3.571  16.848 -1.2322  0.8476 -0.5071
  536MPD2    H1 8012   2.185   3.311  16.603 -0.8935 -1.9155  0.9862
  536MPD2    H2 8013   2.326   3.186  16.974 -0.4630 -2.0128 -2.7851
  536MPD2    H3 8014   2.204   3.135  16.789  0.4379  0.2006  0.6072
  536MPD2     N 8015   2.320   3.538  16.592  0.0537  0.3203  0.1530
  536MPD2    H5 8016   2.281   3.503  16.505  0.6151  1.3801 -0.5343
  536MPD2    N1 8017   2.473   3.391  17.041  0.0623 -0.8282 -0.2173
  536MPD2    H7 8018   2.486   3.306  17.096  1.7477  0.5707  1.5392
  537TMC3    C1 8019   2.618   3.463  17.210  0.2453  0.1143 -0.5584
  537TMC3    C2 8020   2.735   3.531  17.230 -0.0543  0.4434  0.3957
  537TMC3    C3 8021   2.816   3.481  17.334 -0.5378 -0.2394  0.2570
  537TMC3    C4 8022   2.584   3.350  17.269  0.0702 -0.0304  0.5002
  537TMC3    C5 8023   2.668   3.307  17.361 -0.2735 -0.2968  0.0699
  537TMC3    C6 8024   2.783   3.368  17.400 -0.0510 -0.1423  0.0550
  537TMC3     C 8025   2.551   3.498  17.081 -0.3421  0.2565 -0.1013
  537TMC3     O 8026   2.585   3.599  17.024 -0.0007  0.3448 -0.2649
  537TMC3     H 8027   2.770   3.607  17.161 -1.5241  1.7562  1.0983
  537TMC3    H1 8028   2.495   3.293  17.245  0.3662  0.9498 -3.0132
  537TMC3    H2 8029   2.856   3.328  17.469 -0.1204 -1.1166 -0.4240
  537TMC3    C7 8030   2.631   3.179  17.425 -0.5333 -0.0883  0.3349
  537TMC3    C8 8031   2.925   3.566  17.377 -0.2261  0.2875  0.8257
  537TMC3    O1 8032   2.515   3.143  17.412 -0.1901  0.2170  0.1201
  537TMC3    O2 8033   2.969   3.536  17.486 -0.0409  0.7170  0.0108
  538TMC3    C1 8034   0.002   1.876  11.268  0.4418  0.1131  0.2613
  538TMC3    C2 8035   0.104   1.844  11.178  0.4351 -0.3859  0.1830
  538TMC3    C3 8036   0.086   1.889  11.050  0.0413 -0.2446  0.1246
  538TMC3    C4 8037   4.653   1.963  11.240 -0.0752 -0.5111 -0.0559
  538TMC3    C5 8038   4.655   2.022  11.119 -0.9488 -0.2002  0.7040
  538TMC3    C6 8039   4.738   1.982  11.015  0.5327  0.2951 -0.1171
  538TMC3     C 8040   0.021   1.861  11.410 -0.9950 -0.0113  1.0525
  538TMC3     O 8041   4.663   1.830  11.477  1.0661  0.6335  0.0530
  538TMC3     H 8042   0.168   1.761  11.206  2.0966  0.8806  0.1202
  538TMC3    H1 8043   4.591   1.998  11.322  0.4072  1.3456 -0.4939
  538TMC3    H2 8044   4.734   2.028  10.917  0.3674 -1.0269 -0.7364
  538TMC3    C7 8045   4.565   2.133  11.098 -0.2000 -0.4576 -0.0611
  538TMC3    C8 8046   0.151   1.825  10.944 -0.2051  0.1651  0.1633
  538TMC3    O1 8047   4.502   2.155  11.204  0.4233  0.3801 -0.0335
  538TMC3    O2 8048   0.198   1.714  10.967  0.2024 -0.5866 -0.8002
  539MPD2     C 8049   0.035   1.455  11.778  0.5629  1.1098 -0.5921
  539MPD2    C1 8050   4.711   1.378  11.682 -0.1260 -0.0974  0.5456
  539MPD2    C2 8051   4.601   1.426  11.616  0.6745 -0.2947 -0.3152
  539MPD2    C3 8052   4.541   1.549  11.652  1.0245  0.0211  0.9719
  539MPD2    C4 8053   4.616   1.628  11.730 -0.1036 -0.3563  0.1858
  539MPD2    C5 8054   4.729   1.586  11.798  0.1453 -0.0974 -0.2616
  539MPD2     H 8055   4.567   1.369  11.530  1.3282 -1.3738  0.1321
  539MPD2    H1 8056   4.584   1.728  11.755  0.7694 -0.0676  0.1691
  539MPD2    H2 8057   0.129   1.426  11.825 -0.6226 -0.7865  0.6234
  539MPD2    H3 8058   0.031   1.651  11.875 -0.6609  2.4958 -1.9902
  539MPD2     N 8059   4.436   1.609  11.581  0.2955  0.2470  0.2168
  539MPD2    H5 8060   4.423   1.708  11.600 -0.2084  0.1702  0.2783
  539MPD2    N1 8061   0.015   1.251  11.650 -0.6926  0.1018 -0.2340
  539MPD2    H7 8062   4.696   1.195  11.586 -1.3021 -0.3216  0.6759
  540TMC3    C1 8063   4.232   1.613  11.485 -0.6108 -0.2622  0.3382
  540TMC3    C2 8064   4.155   1.570  11.382  0.1410  0.3677 -0.3444
  540TMC3    C3 8065   4.023   1.603  11.392  0.8046  0.6376 -0.7899
  540TMC3    C4 8066   4.191   1.694  11.582 -0.2235  0.5099 -0.5293
  540TMC3    C5 8067   4.063   1.721  11.590 -0.5802 -0.4293  0.7556
  540TMC3    C6 8068   3.975   1.675  11.498  0.6005 -0.6354  0.1463
  540TMC3     C 8069   4.351   1.545  11.500 -0.1635  0.8551 -0.2213
  540TMC3     O 8070   4.358   1.433  11.446  0.0804  0.1359  0.7336
  540TMC3     H 8071   4.188   1.504  11.302 -2.0870 -1.9842  0.6914
  540TMC3    H1 8072   4.241   1.706  11.677 -0.5635  2.3800 -0.5812
  540TMC3    H2 8073   3.870   1.696  11.514  0.7443  0.5598 -0.4192
  540TMC3    C7 8074   4.010   1.758  11.716  0.0694 -0.1013 -0.1129
  540TMC3    C8 8075   3.927   1.570  11.293 -0.0345  0.0174  0.2031
  540TMC3    O1 8076   3.917   1.694  11.757  0.4115  0.1715  0.5677
  540TMC3    O2 8077   3.816   1.612  11.311 -0.1065  0.2636 -0.7582
  541MPD2     C 8078   2.872   2.342  13.639  0.3212 -0.3263  0.0493
  541MPD2    C1 8079   2.884   2.293  13.513 -0.6738 -0.3411 -0.1564
  541MPD2    C2 8080   2.904   2.384  13.414  0.2019 -0.3575 -0.0004
  541MPD2    C3 8081   2.931   2.521  13.434 -0.0995 -0.0049 -0.3792
  541MPD2    C4 8082   2.919   2.560  13.567  0.7446  0.3215  0.8200
  541MPD2    C5 8083   2.892   2.467  13.662  0.0995 -0.4083  0.0050
  541MPD2     H 8084   2.922   2.351  13.312  2.1081 -1.7295  0.7916
  541MPD2    H1 8085   2.911   2.667  13.582 -0.5837  0.3291  0.0479
  541MPD2    H2 8086   2.847   2.283  13.727  1.4704  0.3881  0.8482
  541MPD2    H3 8087   2.870   2.504  13.761  1.6138 -1.4353  0.7318
  541MPD2     N 8088   2.936   2.615  13.328 -0.1176  0.5789 -0.2099
  541MPD2    H5 8089   2.952   2.713  13.347 -0.6162  0.3999  1.1470
  541MPD2    N1 8090   2.878   2.147  13.487 -0.2775  0.2102 -0.0260
  541MPD2    H7 8091   2.839   2.102  13.570 -1.6361  0.3987 -0.5553
  542TMC3    C1 8092   2.905   2.659  13.091 -1.0353 -0.5666  0.1532
  542TMC3    C2 8093   2.912   2.602  12.968  0.1731  0.6600 -0.1791
  542TMC3    C3 8094   2.846   2.661  12.859  0.2186 -0.0683 -0.4448
  542TMC3    C4 8095   2.830   2.769  13.117  0.5717 -0.0852  0.2069
  542TMC3    C5 8096   2.774   2.820  13.004 -0.0502  0.7565  0.2727
  542TMC3    C6 8097   2.774   2.769  12.876 -0.3001  0.4290 -0.2513
  542TMC3     C 8098   2.953   2.574  13.196 -0.6235 -0.5006 -0.3715
  542TMC3     O 8099   3.027   2.483  13.163  0.0001  0.1629 -0.1357
  542TMC3     H 8100   2.969   2.511  12.953  0.0424  0.6530 -0.6386
  542TMC3    H1 8101   2.822   2.800  13.220  3.0002 -1.3410  0.7777
  542TMC3    H2 8102   2.736   2.825  12.791 -0.3404 -0.6760 -0.9541
  542TMC3    C7 8103   2.700   2.945  13.023  0.1127 -0.0841 -0.2014
  542TMC3    C8 8104   2.838   2.603  12.728 -0.1307 -0.3522  0.3482
  542TMC3    O1 8105   2.602   2.963  12.951  0.2539 -0.1605 -0.1401
  542TMC3    O2 8106   2.804   2.678  12.633 -0.3538  0.2269 -0.4814
  543TMC3    C1 8107   2.056   4.034   0.316  0.0438  0.1832  0.9439
  543TMC3    C2 8108   2.128   3.913   0.341  0.3273  0.6297  0.1497
  543TMC3    C3 8109   2.087   3.834   0.440 -0.8449 -0.0080 -0.2817
  543TMC3    C4 8110   1.959   4.079   0.406 -0.4833 -0.3610  0.2776
  543TMC3    C5 8111   1.947   4.006   0.523  0.6302 -0.4033  0.1103
  543TMC3    C6 8112   2.013   3.888   0.545 -0.1697 -0.7989 -0.0971
  543TMC3     C 8113   2.082   4.117   0.196 -0.0880 -0.2551 -0.5943
  543TMC3     O 8114   2.164   4.072   0.111  0.0963 -0.1790 -0.4464
  543TMC3     H 8115   2.192   3.878   0.261 -0.9899 -0.8449 -0.2648
  543TMC3    H1 8116   1.899   4.169   0.400  0.0297  0.0157  0.7489
  543TMC3    H2 8117   1.989   3.824   0.629 -0.3792 -1.2272 -0.4800
  543TMC3    C7 8118   1.866   4.052   0.638 -0.6352 -0.0357  0.9125
  543TMC3    C8 8119   2.107   3.690   0.426  0.4188 -0.4370 -0.2404
  543TMC3    O1 8120   1.775   4.126   0.602  0.1384 -0.3206 -0.1914
  543TMC3    O2 8121   2.167   3.650   0.326 -0.0726 -0.0731 -0.1599
  544MPD2     C 8122   2.043   3.201   0.566 -0.2351 -0.9121  0.6265
  544MPD2    C1 8123   2.049   3.257   0.444 -0.3752  0.2147  0.2900
  544MPD2    C2 8124   2.050   3.398   0.432 -0.3453  0.3871 -0.7942
  544MPD2    C3 8125   2.060   3.477   0.541  0.3782 -0.1693 -0.0966
  544MPD2    C4 8126   2.039   3.418   0.669 -1.0590 -0.1020 -0.0066
  544MPD2    C5 8127   2.043   3.280   0.676  0.2545 -0.2053  0.6936
  544MPD2     H 8128   2.064   3.443   0.334  2.3370 -0.5894 -0.8730
  544MPD2    H1 8129   2.044   3.473   0.762 -1.4264  1.0999 -0.6958
  544MPD2    H2 8130   2.061   3.095   0.584 -1.1888 -0.7442  2.5212
  544MPD2    H3 8131   2.039   3.230   0.772  0.5265  0.8129  1.2265
  544MPD2     N 8132   2.067   3.613   0.533  0.2804  0.1099  0.5534
  544MPD2    H5 8133   2.016   3.666   0.603  1.7112  1.5469  0.5038
  544MPD2    N1 8134   2.046   3.169   0.330 -0.3228 -0.0579 -0.3727
  544MPD2    H7 8135   2.050   3.068   0.338 -1.4352 -0.0851 -0.1737
  545TMC3    C1 8136   2.004   3.094   0.111  0.1453  0.4119  0.3684
  545TMC3    C2 8137   1.908   3.086   0.020 -0.2203  0.3589  0.6927
  545TMC3    C3 8138   1.899   2.974  17.688  0.0453  0.5400  0.2704
  545TMC3    C4 8139   2.105   3.011   0.116  0.6353  0.4583 -0.2160
  545TMC3    C5 8140   2.095   2.893   0.037  0.3683 -0.2322 -1.0904
  545TMC3    C6 8141   1.986   2.867  17.709 -0.2223 -0.2200  0.1823
  545TMC3     C 8142   2.007   3.205   0.201 -0.4435 -0.3810 -0.9376
  545TMC3     O 8143   1.955   3.313   0.160  0.2345  0.2293  0.4173
  545TMC3     H 8144   1.834   3.165   0.009 -0.1943  0.2719 -0.1515
  545TMC3    H1 8145   2.184   3.032   0.186 -0.6110  1.0667  1.0066
  545TMC3    H2 8146   1.970   2.782  17.644  0.6575  0.7783 -1.3397
  545TMC3    C7 8147   2.169   2.779   0.073 -0.2419  0.7582  0.2295
  545TMC3    C8 8148   1.772   2.946  17.628 -0.4115 -0.1786  0.6173
  545TMC3    O1 8149   2.113   2.673   0.060 -0.1963  0.0794 -0.2420
  545TMC3    O2 8150   1.674   2.993  17.681 -0.3431  0.5493  0.0705
  546MPD2     C 8151   3.589   4.071   0.117  0.4047  0.0635  0.0378
  546MPD2    C1 8152   3.489   4.110   0.035  0.5681  0.5198  0.2891
  546MPD2    C2 8153   3.510   4.210  17.690  0.2765  0.2571 -0.2111
  546MPD2    C3 8154   3.636   4.262  17.681 -0.3704  0.6856 -0.7583
  546MPD2    C4 8155   3.738   4.218   0.013  0.0617  0.0260  0.4341
  546MPD2    C5 8156   3.716   4.123   0.112  0.0521 -0.0882 -0.5491
  546MPD2     H 8157   3.431   4.252  17.629 -0.5203  0.0800  0.7083
  546MPD2    H1 8158   3.835   4.264   0.009 -0.3353  0.7871 -0.2554
  546MPD2    H2 8159   3.583   3.992   0.191  1.8448  0.4546  0.5611
  546MPD2    H3 8160   3.791   4.086   0.181  0.8967 -0.5901 -1.7430
  546MPD2     N 8161   3.676   4.366  17.594 -0.3009 -0.2830 -0.1199
  546MPD2    H5 8162   3.770   4.403  17.593 -1.5515  2.8382 -0.4017
  546MPD2    N1 8163   3.359   4.046   0.051 -0.4827 -0.0001  0.1248
  546MPD2    H7 8164   3.343   3.966   0.112 -0.4732  0.5975  0.9059
  547TMC3    C1 8165   3.118   4.011   0.008 -0.1385  0.7095  0.5568
  547TMC3    C2 8166   3.019   4.038  17.670  0.4002 -0.1478  0.4640
  547TMC3    C3 8167   2.926   3.941  17.641  0.6909  0.0418  0.0085
  547TMC3    C4 8168   3.131   3.886   0.067 -0.0683 -0.6430  0.1311
  547TMC3    C5 8169   3.037   3.789   0.033 -0.3707  0.2959 -0.1516
  547TMC3    C6 8170   2.939   3.817  17.696  0.0602 -0.1056  0.1842
  547TMC3     C 8171   3.242   4.092  17.737  0.5665  0.3674 -0.4449
  547TMC3     O 8172   3.232   4.185  17.659  0.2481 -0.1339 -0.2002
  547TMC3     H 8173   3.010   4.139  17.632  0.9493  0.1036  1.0011
  547TMC3    H1 8174   3.213   3.830   0.110  0.7880  0.3355 -0.2185
  547TMC3    H2 8175   2.868   3.737  17.679 -0.7888  0.9512 -1.1892
  547TMC3    C7 8176   3.038   3.668   0.109  0.2125 -0.1261  0.8223
  547TMC3    C8 8177   2.823   3.969  17.546  1.0713 -0.1915 -0.3993
  547TMC3    O1 8178   3.038   3.681   0.233 -0.1794  0.7746  0.2169
  547TMC3    O2 8179   2.824   4.077  17.493  0.0427 -0.2642 -0.5375
  548MPD2     C 8180   3.623   4.193  13.306 -0.3033  0.6049 -0.2478
  548MPD2    C1 8181   3.530   4.113  13.246 -0.3909  0.8831  0.2615
  548MPD2    C2 8182   3.591   4.022  13.156 -1.1657  1.1934 -0.1708
  548MPD2    C3 8183   3.725   4.003  13.150  0.5384 -0.1093  0.1588
  548MPD2    C4 8184   3.803   4.067  13.242 -0.5074 -0.2512 -0.2282
  548MPD2    C5 8185   3.754   4.175  13.303  0.6902 -0.0989  0.0334
  548MPD2     H 8186   3.532   3.951  13.101  0.1539  0.9251 -1.2548
  548MPD2    H1 8187   3.911   4.056  13.246 -0.4303  0.4499 -0.4147
  548MPD2    H2 8188   3.596   4.282  13.360  1.4423  1.1362 -0.2629
  548MPD2    H3 8189   3.815   4.231  13.374  0.0107 -0.3879  0.8372
  548MPD2     N 8190   3.779   3.914  13.062  0.2342  0.0228  0.0656
  548MPD2    H5 8191   3.717   3.868  12.996  0.3654 -0.6035  0.3772
  548MPD2    N1 8192   3.394   4.137  13.241 -0.0632  0.4781 -0.1369
  548MPD2    H7 8193   3.367   4.225  13.284 -1.1567  1.8719 -3.6862
  549TMC3    C1 8194   3.164   4.126  13.201  0.0263 -0.6664 -0.4124
  549TMC3    C2 8195   3.160   4.246  13.131  1.1863  0.4294 -0.1521
  549TMC3    C3 8196   3.042   4.309  13.108  0.0244  0.4235  0.0279
  549TMC3    C4 8197   3.049   4.064  13.238 -0.3151  0.4681  0.3890
  549TMC3    C5 8198   2.931   4.133  13.218 -0.0422 -0.1525 -0.1651
  549TMC3    C6 8199   2.926   4.256  13.155 -0.5728  0.2767  0.1312
  549TMC3     C 8200   3.297   4.051  13.208  0.3181  0.9180 -0.8573
  549TMC3     O 8201   3.295   3.929  13.180  0.4675 -0.2794  0.2205
  549TMC3     H 8202   3.255   4.283  13.094  0.6829  0.5148 -1.3605
  549TMC3    H1 8203   3.053   3.974  13.300  2.4535  0.1515 -0.2299
  549TMC3    H2 8204   2.830   4.297  13.128 -0.4961  0.5805  0.3309
  549TMC3    C7 8205   2.819   4.048  13.187 -0.2865  0.5808  0.0661
  549TMC3    C8 8206   3.030   4.388  12.989  0.1184 -0.1886 -0.0157
  549TMC3    O1 8207   2.706   4.077  13.226 -0.0295 -0.1041  0.9062
  549TMC3    O2 8208   2.920   4.399  12.936 -0.8996 -0.0246  0.3577
  550TMC3    C1 8209   2.513   2.520  12.701  0.0956  0.3043 -0.3161
  550TMC3    C2 8210   2.450   2.486  12.819  0.0717 -0.1357  0.6378
  550TMC3    C3 8211   2.401   2.583  12.901  0.4975  0.1533  0.1100
  550TMC3    C4 8212   2.502   2.645  12.650  0.3959 -0.3925 -0.2056
  550TMC3    C5 8213   2.460   2.741  12.733 -0.3071  0.2471  0.8501
  550TMC3    C6 8214   2.403   2.717  12.857 -0.1035 -0.3506 -0.6607
  550TMC3     C 8215   2.570   2.410  12.618  0.2638  0.0295 -0.7070
  550TMC3     O 8216   2.594   2.315  12.688  0.2261 -0.1206  0.6054
  550TMC3     H 8217   2.432   2.386  12.856 -0.8910  0.4300  1.7080
  550TMC3    H1 8218   2.545   2.677  12.556  1.0693  1.8090  0.8378
  550TMC3    H2 8219   2.359   2.795  12.918  2.7239  1.6054 -1.1285
  550TMC3    C7 8220   2.415   2.863  12.671  0.8777  0.4539 -0.3322
  550TMC3    C8 8221   2.268   2.561  12.964  0.3816 -0.9220 -0.4929
  550TMC3    O1 8222   2.347   2.836  12.572 -0.8235  0.5677  0.1672
  550TMC3    O2 8223   2.252   2.631  13.063 -0.0873  0.4997 -0.7178
  551TMC3    C1 8224   4.512   0.468  13.787 -0.0368  0.0433 -0.5130
  551TMC3    C2 8225   4.597   0.524  13.695 -0.5824 -0.2072 -0.3973
  551TMC3    C3 8226   4.656   0.642  13.732  0.4996  0.4058 -0.2781
  551TMC3    C4 8227   4.470   0.524  13.905  0.1023 -1.0754  0.0062
  551TMC3    C5 8228   4.531   0.644  13.940  0.4060  0.1898  0.4825
  551TMC3    C6 8229   4.623   0.704  13.855  0.6148 -0.2617  0.0153
  551TMC3     C 8230   4.401   0.409  13.705 -0.5594 -0.9010  0.6359
  551TMC3     O 8231   4.428   0.313  13.633 -0.5127  0.0938  0.5393
  551TMC3     H 8232   4.590   0.502  13.589 -2.1506  0.7511 -0.4955
  551TMC3    H1 8233   4.389   0.486  13.967 -1.8539  1.7158 -0.8966
  551TMC3    H2 8234   4.682   0.786  13.895  2.5965 -2.3242  1.3362
  551TMC3    C7 8235   4.550   0.678  14.085 -0.2906  0.1209  0.5068
  551TMC3    C8 8236   4.728   0.717  13.636 -0.4687  0.0634 -0.1807
  551TMC3    O1 8237   4.546   0.580  14.165 -0.1950 -0.4308  0.3864
  551TMC3    O2 8238   4.737   0.835  13.662 -0.1111  0.1043  0.1205
  552MPD2     C 8239   1.775   2.386  14.367  0.9311 -0.0578 -0.4717
  552MPD2    C1 8240   1.759   2.247  14.360  0.4341  0.1719 -0.3471
  552MPD2    C2 8241   1.824   2.162  14.450 -0.8498 -0.0875  0.1418
  552MPD2    C3 8242   1.879   2.211  14.562  0.0748 -0.0655 -0.2348
  552MPD2    C4 8243   1.886   2.350  14.576 -0.0337 -0.5233  0.0514
  552MPD2    C5 8244   1.833   2.436  14.483  0.0840 -0.4459  0.4544
  552MPD2     H 8245   1.807   2.058  14.423 -5.1170  0.2090  1.6391
  552MPD2    H1 8246   1.916   2.387  14.674  2.4598  0.9819 -1.2918
  552MPD2    H2 8247   1.732   2.459  14.300 -0.2580  0.9391  1.3817
  552MPD2    H3 8248   1.834   2.542  14.502  2.3297 -0.1455 -1.3143
  552MPD2     N 8249   1.957   2.134  14.654  0.2156 -0.1211 -0.5805
  552MPD2    H5 8250   1.992   2.178  14.738  1.7227 -3.8793  0.7441
  552MPD2    N1 8251   1.707   2.182  14.240  0.0703 -0.2356 -0.1073
  552MPD2    H7 8252   1.730   2.084  14.231 -0.0884 -0.5019  2.3855
  553TMC3    C1 8253   1.545   2.144  14.062 -0.3793 -0.2991 -0.6743
  553TMC3    C2 8254   1.487   2.199  13.947  0.1864 -0.0106  0.0009
  553TMC3    C3 8255   1.468   2.116  13.845 -0.7126  0.0959  0.4790
  553TMC3    C4 8256   1.567   2.012  14.087 -0.0825 -0.3784 -0.0734
  553TMC3    C5 8257   1.512   1.935  13.988  0.0492 -0.1030 -0.3284
  553TMC3    C6 8258   1.470   1.976  13.872 -0.1944  0.5718 -0.2490
  553TMC3     C 8259   1.604   2.237  14.158 -0.0658 -0.3297 -0.0937
  553TMC3     O 8260   1.556   2.350  14.170 -0.0559  0.1916  0.1684
  553TMC3     H 8261   1.501   2.304  13.925 -1.2552 -0.0140 -0.9155
  553TMC3    H1 8262   1.603   1.971  14.181 -0.4259  1.0513  0.6725
  553TMC3    H2 8263   1.454   1.904  13.793 -1.3773 -0.0555  0.5662
  553TMC3    C7 8264   1.523   1.792  14.008 -0.0930 -0.2584  0.6143
  553TMC3    C8 8265   1.540   2.156  13.723 -0.1661  0.2880  0.6882
  553TMC3    O1 8266   1.449   1.717  13.945  0.6630 -0.7589  0.1660
  553TMC3    O2 8267   1.630   2.236  13.743 -0.2304  0.0497 -0.3908
  554TMC3    C1 8268   3.596   1.604  11.947  0.4973  0.2638 -0.1699
  554TMC3    C2 8269   3.519   1.525  11.862  0.9163  0.1533 -0.3591
  554TMC3    C3 8270   3.497   1.574  11.737 -0.1183 -0.3906  0.5130
  554TMC3    C4 8271   3.646   1.730  11.910  0.2010 -0.9117 -0.0524
  554TMC3    C5 8272   3.631   1.773  11.779 -0.1205  0.1612 -0.3702
  554TMC3    C6 8273   3.553   1.694  11.694 -0.4147 -0.1464 -0.0305
  554TMC3     C 8274   3.653   1.553  12.073  0.2104 -0.3638  0.2467
  554TMC3     O 8275   3.741   1.622  12.128 -0.1141  0.4100  0.7902
  554TMC3     H 8276   3.465   1.438  11.899 -0.2099  0.0364 -2.2819
  554TMC3    H1 8277   3.702   1.790  11.981 -0.8223 -0.0546  0.0271
  554TMC3    H2 8278   3.530   1.734  11.597  0.0862 -1.1839 -0.5767
  554TMC3    C7 8279   3.690   1.883  11.710 -0.1209 -0.0410  0.4163
  554TMC3    C8 8280   3.398   1.509  11.656 -0.2566 -0.1094 -0.1229
  554TMC3    O1 8281   3.693   1.886  11.587  0.5175  0.1717 -0.1955
  554TMC3    O2 8282   3.359   1.400  11.697 -0.4245  0.2523  0.4824
  555TMC3    C1 8283   2.378   0.610  15.160  0.1641  0.2909  0.8366
  555TMC3    C2 8284   2.333   0.714  15.239 -0.7603 -1.0503 -0.0634
  555TMC3    C3 8285   2.311   0.677  15.367  0.3295 -0.0010 -0.4844
  555TMC3    C4 8286   2.403   0.481  15.207 -0.0774 -0.2669  0.6322
  555TMC3    C5 8287   2.389   0.463  15.347  0.1641  0.1076  0.0600
  555TMC3    C6 8288   2.333   0.556  15.428 -0.5774 -0.0488 -0.5845
  555TMC3     C 8289   2.403   0.629  15.020 -0.2325  0.6509  0.4830
  555TMC3     O 8290   2.477   0.542  14.973 -0.3618  0.6535 -0.2787
  555TMC3     H 8291   2.331   0.815  15.199 -2.0226 -0.8794  0.4184
  555TMC3    H1 8292   2.454   0.408  15.146  1.3764  0.8197  0.5424
  555TMC3    H2 8293   2.320   0.542  15.534  0.1183  1.0888 -0.3473
  555TMC3    C7 8294   2.355   0.328  15.385  0.5955  0.1601 -0.0754
  555TMC3    C8 8295   2.276   0.789  15.459 -0.3515  0.0509  0.3728
  555TMC3    O1 8296   2.280   0.316  15.478 -0.2562 -0.4350  0.0929
  555TMC3    O2 8297   2.192   0.872  15.423  0.2192  0.3155  0.7977
  556MPD2     C 8298   0.669   2.947  10.645  0.1432 -0.6778 -0.5898
  556MPD2    C1 8299   0.577   2.858  10.696 -0.3893 -0.0694 -0.3430
  556MPD2    C2 8300   0.520   2.763  10.617  0.0592 -0.8874 -0.8478
  556MPD2    C3 8301   0.550   2.752  10.484 -0.4278 -0.2585 -0.3178
  556MPD2    C4 8302   0.647   2.838  10.434 -0.6321  0.1151 -0.0146
  556MPD2    C5 8303   0.705   2.932  10.515 -0.7022  0.0162  0.5517
  556MPD2     H 8304   0.446   2.697  10.660  0.6814 -1.2170 -0.2703
  556MPD2    H1 8305   0.699   2.824  10.340  0.7641 -1.6531  1.0276
  556MPD2    H2 8306   0.726   3.015  10.707  1.8137 -0.1095 -2.7529
  556MPD2    H3 8307   0.788   2.989  10.476 -1.3774 -0.0248 -0.9311
  556MPD2     N 8308   0.503   2.640  10.416  0.8021 -0.3811 -0.5866
  556MPD2    H5 8309   0.460   2.578  10.484 -4.2131  2.5945 -0.9890
  556MPD2    N1 8310   0.541   2.865  10.833 -0.1634  1.0429  0.0388
  556MPD2    H7 8311   0.483   2.793  10.874 -0.9030  1.1667 -0.7942
  557TMC3    C1 8312   0.506   2.461  10.257 -0.0925  0.0149  0.4493
  557TMC3    C2 8313   0.530   2.401  10.136 -0.3749 -0.2176 -0.8973
  557TMC3    C3 8314   0.478   2.273  10.116 -0.5302  0.2787  0.1532
  557TMC3    C4 8315   0.443   2.388  10.353  0.5621  0.4062 -0.2556
  557TMC3    C5 8316   0.388   2.260  10.328  0.9705  0.1528  0.0527
  557TMC3    C6 8317   0.392   2.213  10.208 -0.2233 -0.3604  0.0043
  557TMC3     C 8318   0.544   2.602  10.289 -0.2809 -0.3187  0.2855
  557TMC3     O 8319   0.600   2.664  10.201 -0.2950  0.5889  0.1637
  557TMC3     H 8320   0.564   2.459  10.051 -3.2673 -0.7824 -2.4503
  557TMC3    H1 8321   0.454   2.415  10.457 -1.9884  1.1714 -0.1710
  557TMC3    H2 8322   0.350   2.116  10.184 -0.6765 -0.5455  1.5596
  557TMC3    C7 8323   0.351   2.182  10.445 -0.1366 -0.1368  0.1909
  557TMC3    C8 8324   0.480   2.231   9.973 -0.5598  0.7446  0.5735
  557TMC3    O1 8325   0.300   2.240  10.542 -0.0760 -0.4209 -0.1584
  557TMC3    O2 8326   0.573   2.266   9.906  0.0928 -0.6716 -0.6336
  558TMC3    C1 8327   3.038   0.879  10.701 -0.4174  0.0141 -0.1202
  558TMC3    C2 8328   2.923   0.921  10.753  0.3749  0.2778 -0.2931
  558TMC3    C3 8329   2.838   0.987  10.665  0.7853 -0.2149 -0.4124
  558TMC3    C4 8330   3.081   0.900  10.571  0.5468  0.7331  0.2674
  558TMC3    C5 8331   2.982   0.946  10.490  0.5221  0.2972 -0.1054
  558TMC3    C6 8332   2.863   1.003  10.531  0.0344 -0.4241 -0.1227
  558TMC3     C 8333   3.128   0.805  10.791 -0.1949  0.3599  0.4598
  558TMC3     O 8334   3.251   0.814  10.775 -0.1501  0.0760 -0.4462
  558TMC3     H 8335   2.913   0.944  10.858  1.5793 -2.2862  0.3810
  558TMC3    H1 8336   3.174   0.859  10.534  0.1903 -0.5891  0.8549
  558TMC3    H2 8337   2.784   1.027  10.461  0.5039 -1.3658 -0.9647
  558TMC3    C7 8338   2.965   0.867  10.370  0.1658  0.1819  0.0763
  558TMC3    C8 8339   2.699   1.015  10.710 -0.7221 -0.3813  0.3494
  558TMC3    O1 8340   3.061   0.826  10.303  0.1564 -0.2456  0.4670
  558TMC3    O2 8341   2.622   1.067  10.636 -0.1423 -0.4334 -0.5971
  559MPD2     C 8342   3.143   1.243  10.780  0.7043  0.2575 -0.4507
  559MPD2    C1 8343   3.079   1.222  10.897  0.3894 -0.2698 -0.3539
  559MPD2    C2 8344   3.127   1.130  10.987  0.6918  0.5038  0.1229
  559MPD2    C3 8345   3.255   1.094  10.976 -0.1127 -0.4045  0.5862
  559MPD2    C4 8346   3.330   1.130  10.868 -0.3330  0.0544 -1.1603
  559MPD2    C5 8347   3.268   1.191  10.761  0.1084 -0.4667 -0.1447
  559MPD2     H 8348   3.075   1.118  11.081 -1.8937 -0.0647 -1.3940
  559MPD2    H1 8349   3.430   1.092  10.856  0.8831  3.0870 -0.5237
  559MPD2    H2 8350   3.096   1.293  10.696  1.3766  0.2555 -0.8249
  559MPD2    H3 8351   3.325   1.201  10.669 -0.7053 -1.3152 -0.7434
  559MPD2     N 8352   3.301   1.015  11.078 -0.1008  0.6636  0.1931
  559MPD2    H5 8353   3.227   0.992  11.143  0.7439 -0.2363  0.8276
  559MPD2    N1 8354   2.943   1.276  10.901 -0.3258  0.3683  0.2051
  559MPD2    H7 8355   2.925   1.340  10.824  0.7554 -1.1112 -1.2863
  560TMC3    C1 8356   3.442   0.873  11.202  0.1636  0.4866 -0.4193
  560TMC3    C2 8357   3.332   0.817  11.254 -0.6433 -0.1458 -0.2149
  560TMC3    C3 8358   3.351   0.735  11.363 -0.2117 -0.2630 -0.2932
  560TMC3    C4 8359   3.564   0.866  11.262  0.0971  0.2761  0.2391
  560TMC3    C5 8360   3.573   0.799  11.386 -0.0253  0.4078  0.6034
  560TMC3    C6 8361   3.466   0.732  11.437 -0.4868 -0.2475  0.4560
  560TMC3     C 8362   3.428   0.963  11.097  0.3012 -0.3037 -0.0002
  560TMC3     O 8363   3.526   0.974  11.024  0.1832  0.0705 -0.2339
  560TMC3     H 8364   3.235   0.836  11.209 -1.1472  1.9414  1.7502
  560TMC3    H1 8365   3.641   0.931  11.222  1.0800 -0.7580  0.4590
  560TMC3    H2 8366   3.463   0.672  11.527  1.3202 -0.4092  0.4045
  560TMC3    C7 8367   3.701   0.799  11.462  0.1226 -0.1969  0.2637
  560TMC3    C8 8368   3.223   0.689  11.422  0.8270 -0.4676  0.0514
  560TMC3    O1 8369   3.707   0.710  11.545  0.2538  0.7458  0.0957
  560TMC3    O2 8370   3.132   0.774  11.407 -0.0061 -0.3007 -0.7704
  561TMC3    C1 8371   1.131   0.345  11.575 -0.3559 -0.4363  0.5175
  561TMC3    C2 8372   1.038   0.250  11.604 -0.5888  0.9143 -0.6511
  561TMC3    C3 8373   0.922   0.282  11.668  0.0574 -0.2259  0.0195
  561TMC3    C4 8374   1.120   0.475  11.617 -0.0826  0.5125 -0.2524
  561TMC3    C5 8375   0.998   0.510  11.678  0.0792 -0.0904 -0.7673
  561TMC3    C6 8376   0.906   0.413  11.711  0.6083 -0.3833 -0.3455
  561TMC3     C 8377   1.260   0.300  11.545  0.1797 -0.2429  0.2705
  561TMC3     O 8378   1.282   0.202  11.474 -0.1545  0.2440  0.4840
  561TMC3     H 8379   1.070   0.150  11.577  0.0272  0.5336  1.5262
  561TMC3    H1 8380   1.194   0.550  11.593  0.0867  0.4920  0.2020
  561TMC3    H2 8381   0.813   0.451  11.753  0.0391 -2.0529 -0.0928
  561TMC3    C7 8382   0.978   0.645  11.734 -0.5433  0.5290 -0.6064
  561TMC3    C8 8383   0.834   0.177  11.724  0.0989 -0.1197  0.3836
  561TMC3    O1 8384   0.875   0.665  11.799 -0.1450  0.1719  0.0987
  561TMC3    O2 8385   0.833   0.074  11.659 -0.0784  0.0980  0.9125
  562TMC3    C1 8386   2.206   0.720  16.503 -1.2720 -0.0471 -0.2627
  562TMC3    C2 8387   2.148   0.835  16.455 -0.5620  0.6486 -0.2292
  562TMC3    C3 8388   2.125   0.842  16.321 -0.2253  0.1663 -0.0473
  562TMC3    C4 8389   2.269   0.630  16.418 -0.0787  0.2667  0.4541
  562TMC3    C5 8390   2.246   0.635  16.282  0.0673  0.1128  0.1488
  562TMC3    C6 8391   2.180   0.746  16.231  0.3723  0.3426  0.3505
  562TMC3     C 8392   2.271   0.745  16.629 -0.5837  0.2033  0.5587
  562TMC3     O 8393   2.308   0.860  16.637 -0.0016  0.4370 -0.7381
  562TMC3     H 8394   2.095   0.899  16.524  0.4307  0.8929  0.2987
  562TMC3    H1 8395   2.316   0.545  16.467  0.6135  1.1680  1.3477
  562TMC3    H2 8396   2.182   0.759  16.124 -1.6831  0.9088  0.3775
  562TMC3    C7 8397   2.315   0.548  16.185  0.4298 -0.1647  0.3994
  562TMC3    C8 8398   2.070   0.967  16.271 -0.1754 -0.4976  0.6633
  562TMC3    O1 8399   2.270   0.542  16.073 -0.2178 -1.1140 -0.3754
  562TMC3    O2 8400   2.071   1.063  16.348  0.2129  0.1895 -0.1719
  563MPD2     C 8401   4.212   2.794  15.976  0.0858 -0.4451  0.1208
  563MPD2    C1 8402   4.217   2.829  16.107 -0.6314 -0.3119  0.4610
  563MPD2    C2 8403   4.321   2.778  16.185  0.6166  0.9170 -0.0663
  563MPD2    C3 8404   4.414   2.698  16.120 -0.4970 -0.3260 -0.2746
  563MPD2    C4 8405   4.406   2.669  15.986  0.4879  0.4653  0.4350
  563MPD2    C5 8406   4.306   2.716  15.910 -0.5604  0.0996 -0.1204
  563MPD2     H 8407   4.329   2.790  16.292 -0.1683 -1.0813  0.2201
  563MPD2    H1 8408   4.465   2.593  15.936 -0.2507 -0.5708  1.1667
  563MPD2    H2 8409   4.132   2.827  15.911  0.8003 -0.5214 -0.7998
  563MPD2    H3 8410   4.276   2.680  15.812 -0.4422 -1.7999  0.5462
  563MPD2     N 8411   4.509   2.633  16.204 -0.3176  0.2091  0.0666
  563MPD2    H5 8412   4.504   2.676  16.296 -0.4033  0.7546 -0.1919
  563MPD2    N1 8413   4.107   2.903  16.156  0.1657  0.1488 -0.1270
  563MPD2    H7 8414   4.021   2.876  16.110  0.2481 -1.4933  0.6749
  564TMC3    C1 8415   4.027   2.869  16.364 -0.2239  0.3583  0.4194
  564TMC3    C2 8416   3.937   2.797  16.293 -0.0294  0.3403 -1.2393
  564TMC3    C3 8417   3.902   2.668  16.334 -0.1464 -0.0109 -0.7324
  564TMC3    C4 8418   4.112   2.806  16.445 -0.5366 -0.2281  1.2195
  564TMC3    C5 8419   4.087   2.676  16.472  0.1514  0.7383 -0.6187
  564TMC3    C6 8420   3.977   2.611  16.434  0.5189  0.8887 -0.0252
  564TMC3     C 8421   4.107   2.958  16.283  0.0326  0.2012 -0.2238
  564TMC3     O 8422   4.205   3.019  16.328  0.8640  0.2771 -0.6048
  564TMC3     H 8423   3.869   2.856  16.232 -1.0224  1.2883  0.7680
  564TMC3    H1 8424   4.201   2.855  16.482 -0.0675 -0.3495  0.2623
  564TMC3    H2 8425   3.972   2.506  16.458  0.8235  0.8491 -0.1245
  564TMC3    C7 8426   4.208   2.588  16.446  0.7108  0.1445  0.7248
  564TMC3    C8 8427   3.855   2.574  16.240  0.0663 -0.8375 -0.3611
  564TMC3    O1 8428   4.303   2.603  16.520 -0.5660  0.3767  0.4545
  564TMC3    O2 8429   3.809   2.471  16.288  0.8968 -0.2312  0.7402
  565TMC3    C1 8430   0.181   4.055  10.020 -0.4137 -0.2021  0.3795
  565TMC3    C2 8431   0.134   3.989  10.140  0.5184 -0.5989 -0.2622
  565TMC3    C3 8432   0.043   3.885  10.132  0.0928  0.2078 -0.3121
  565TMC3    C4 8433   0.116   4.024   9.903 -1.0064  0.2794  0.5540
  565TMC3    C5 8434   0.017   3.929   9.904 -0.1665 -1.1551 -0.1632
  565TMC3    C6 8435   4.728   3.845  10.013 -0.4457 -0.0685 -0.1217
  565TMC3     C 8436   0.261   4.179  10.034 -0.6177 -0.5532 -0.3155
  565TMC3     O 8437   0.267   4.251   9.938 -0.3237 -0.3569 -0.2121
  565TMC3     H 8438   0.157   4.023  10.241  1.0964  2.0889 -1.2968
  565TMC3    H1 8439   0.135   4.080   9.812  1.5913 -0.4159  0.6784
  565TMC3    H2 8440   4.642   3.780  10.001 -0.7197  0.1185  0.8080
  565TMC3    C7 8441   4.668   3.927   9.793 -0.1117 -0.3637 -0.3354
  565TMC3    C8 8442   0.048   3.791  10.236 -0.2511  0.1029  0.3061
  565TMC3    O1 8443   4.666   4.029   9.720 -0.3543 -0.0663 -1.1778
  565TMC3    O2 8444   0.078   3.836  10.339  0.8226  0.1312  0.4721
  566MPD2     C 8445   1.612   0.588  14.547 -0.4278  0.0380 -0.2368
  566MPD2    C1 8446   1.697   0.619  14.446  0.8179  0.3137  0.9146
  566MPD2    C2 8447   1.656   0.612  14.315 -0.2805  0.1587 -0.0752
  566MPD2    C3 8448   1.527   0.577  14.290  0.0959  0.0416  1.0813
  566MPD2    C4 8449   1.440   0.540  14.389 -0.2956 -0.1915  0.4397
  566MPD2    C5 8450   1.487   0.540  14.519 -0.0497 -0.2471 -0.4893
  566MPD2     H 8451   1.727   0.618  14.234 -1.0371 -1.1948 -0.8479
  566MPD2    H1 8452   1.342   0.498  14.371 -0.3399 -0.0665  0.3860
  566MPD2    H2 8453   1.640   0.590  14.652 -0.6030 -2.5046 -0.1554
  566MPD2    H3 8454   1.424   0.500  14.598  1.0397  0.3164  0.6597
  566MPD2     N 8455   1.495   0.555  14.156  0.1163  0.3239 -0.0590
  566MPD2    H5 8456   1.570   0.561  14.088  1.1014 -0.6711  0.9412
  566MPD2    N1 8457   1.835   0.637  14.478  0.1057  0.0565 -0.1252
  566MPD2    H7 8458   1.875   0.594  14.561 -0.4701 -0.5689 -0.1731
  567TMC3    C1 8459   2.063   0.662  14.394  0.0702 -1.3139 -0.6162
  567TMC3    C2 8460   2.142   0.697  14.287 -0.0381 -0.0742 -0.1837
  567TMC3    C3 8461   2.265   0.629  14.275  0.4622 -0.1977 -0.1316
  567TMC3    C4 8462   2.097   0.554  14.473 -0.4968 -0.4075 -0.9990
  567TMC3    C5 8463   2.210   0.487  14.456 -0.0079  0.6701  0.2504
  567TMC3    C6 8464   2.299   0.519  14.353 -0.4227  0.2315 -0.6435
  567TMC3     C 8465   1.917   0.694  14.389  0.3496  0.1866  0.3914
  567TMC3     O 8466   1.887   0.772  14.301  0.5419  0.1937 -0.0824
  567TMC3     H 8467   2.120   0.781  14.221  4.5498  0.6216 -0.7758
  567TMC3    H1 8468   2.026   0.530  14.552  1.0102  1.7911  1.0178
  567TMC3    H2 8469   2.376   0.448  14.328  0.1740  0.4303  0.6805
  567TMC3    C7 8470   2.240   0.375  14.536 -0.0659 -0.5734 -0.4735
  567TMC3    C8 8471   2.336   0.651  14.143 -0.1254  0.5477  0.0234
  567TMC3    O1 8472   2.332   0.304  14.508  0.6586 -0.0313  0.6540
  567TMC3    O2 8473   2.290   0.732  14.066 -0.7254 -0.4198 -0.3804
  568MPD2     C 8474   4.601   1.457  16.453 -0.2738  0.1414  0.7127
  568MPD2    C1 8475   4.471   1.421  16.483  0.6666 -0.2715  0.4017
  568MPD2    C2 8476   4.366   1.483  16.414 -0.1653 -0.2499 -0.4972
  568MPD2    C3 8477   4.396   1.585  16.321 -0.6438  0.4792  0.5280
  568MPD2    C4 8478   4.522   1.610  16.285  0.4026  0.4469  0.0303
  568MPD2    C5 8479   4.632   1.544  16.352 -0.3371 -0.0226 -0.8097
  568MPD2     H 8480   4.262   1.461  16.434  0.0901  0.1183  1.2233
  568MPD2    H1 8481   4.560   1.671  16.203  0.7677  1.2566  0.7951
  568MPD2    H2 8482   4.688   1.417  16.505  0.4809  2.1133  0.9781
  568MPD2    H3 8483   4.735   1.568  16.329  0.1227  0.2033  1.5437
  568MPD2     N 8484   4.285   1.658  16.260 -0.1227 -0.1262  0.2266
  568MPD2    H5 8485   4.190   1.628  16.278 -0.7785  1.0561 -1.2614
  568MPD2    N1 8486   4.452   1.304  16.572  0.1179 -0.0691  0.6579
  568MPD2    H7 8487   4.537   1.267  16.612 -0.2758 -0.1294  1.4447
  569TMC3    C1 8488   4.187   1.827  16.137  0.2857  0.2640  0.0964
  569TMC3    C2 8489   4.100   1.853  16.243  0.5611  0.5005 -0.1142
  569TMC3    C3 8490   3.975   1.894  16.206 -0.4340  0.5061  0.6592
  569TMC3    C4 8491   4.156   1.873  16.010 -0.2115  0.3616 -0.3155
  569TMC3    C5 8492   4.034   1.920  15.979 -0.3673  0.1648 -0.7776
  569TMC3    C6 8493   3.935   1.924  16.078 -0.1738 -0.3310  1.2527
  569TMC3     C 8494   4.295   1.744  16.152  0.6288  0.1114  0.2228
  569TMC3     O 8495   4.385   1.767  16.076 -0.1233  0.2263  0.3069
  569TMC3     H 8496   4.124   1.828  16.345 -1.3116 -0.6523  0.0366
  569TMC3    H1 8497   4.221   1.842  15.929 -0.4761  0.8053 -0.6975
  569TMC3    H2 8498   3.834   1.960  16.060 -0.0830 -1.2676 -1.1983
  569TMC3    C7 8499   4.055   2.048  15.912 -0.4752  0.0489 -0.0047
  569TMC3    C8 8500   3.910   1.986  16.300  0.3260  0.2256 -0.5477
  569TMC3    O1 8501   4.162   2.062  15.850 -0.0830  0.0350 -0.0794
  569TMC3    O2 8502   3.804   2.035  16.260  0.0554  0.0276 -0.5685
  570TMC3    C1 8503   3.548   0.353  16.445  1.2294  0.0324  0.4864
  570TMC3    C2 8504   3.671   0.347  16.379 -0.4228  0.2249  0.5731
  570TMC3    C3 8505   3.735   0.468  16.357 -0.7413 -0.5039 -0.6034
  570TMC3    C4 8506   3.477   0.470  16.477  0.6914 -0.8622 -0.0486
  570TMC3    C5 8507   3.550   0.587  16.451 -0.3956 -0.5721 -0.3650
  570TMC3    C6 8508   3.676   0.586  16.389  0.5592 -0.0816  0.8271
  570TMC3     C 8509   3.494   0.227  16.490 -0.1958 -0.0639  0.1136
  570TMC3     O 8510   3.541   0.126  16.437 -0.2635  0.0162 -0.1856
  570TMC3     H 8511   3.710   0.250  16.349 -0.5181  0.1702  0.6243
  570TMC3    H1 8512   3.380   0.475  16.526  1.5621  1.8245  1.4160
  570TMC3    H2 8513   3.738   0.675  16.389  2.3773 -1.3525  0.0902
  570TMC3    C7 8514   3.477   0.715  16.431 -0.2338  0.3617 -0.2109
  570TMC3    C8 8515   3.840   0.485  16.256  0.4556  0.2180 -0.2913
  570TMC3    O1 8516   3.383   0.739  16.512  0.0887 -0.2639  0.3340
  570TMC3    O2 8517   3.877   0.601  16.231 -0.1384  0.5921 -0.0260
  571MPD2     C 8518   0.518   1.843   0.165  0.2232  0.2420 -0.4022
  571MPD2    C1 8519   0.516   1.817   0.299 -0.0340 -0.3408 -0.6399
  571MPD2    C2 8520   0.446   1.913   0.382 -0.2848  0.2474 -0.5714
  571MPD2    C3 8521   0.394   2.031   0.329  0.2294 -0.3043 -0.2111
  571MPD2    C4 8522   0.405   2.047   0.191 -0.3676 -0.2945  0.5352
  571MPD2    C5 8523   0.466   1.956   0.111  0.7548 -0.0308 -0.4193
  571MPD2     H 8524   0.437   1.892   0.488 -2.8244 -2.2392 -1.2882
  571MPD2    H1 8525   0.359   2.125   0.132  1.3959 -0.1781 -0.6895
  571MPD2    H2 8526   0.559   1.767   0.099 -1.7900 -0.4448 -0.8621
  571MPD2    H3 8527   0.462   1.964   0.003 -0.4032  0.1557 -0.3671
  571MPD2     N 8528   0.323   2.130   0.404  0.5967  0.1581 -0.5943
  571MPD2    H5 8529   0.310   2.218   0.356  0.6584 -0.2047 -1.2783
  571MPD2    N1 8530   0.572   1.694   0.347 -0.1040 -0.0531  0.7787
  571MPD2    H7 8531   0.621   1.632   0.283  2.2695  1.7570  0.8249
  572TMC3    C1 8532   0.247   2.254   0.582 -0.5361 -0.1820  0.1057
  572TMC3    C2 8533   0.165   2.261   0.688 -0.3946 -0.5715  0.1334
  572TMC3    C3 8534   0.153   2.384   0.755  1.2507 -0.1811 -0.4787
  572TMC3    C4 8535   0.328   2.358   0.549  0.1229 -0.4519  0.0796
  572TMC3    C5 8536   0.310   2.481   0.613  0.4617  0.3170 -0.5888
  572TMC3    C6 8537   0.215   2.496   0.717  0.9802  1.1303 -1.0639
  572TMC3     C 8538   0.286   2.123   0.535  0.7462 -0.0509 -1.1461
  572TMC3     O 8539   0.296   2.034   0.619  0.1015  0.3206 -0.1562
  572TMC3     H 8540   0.123   2.170   0.730 -1.5663  0.5222  1.3275
  572TMC3    H1 8541   0.407   2.349   0.476 -0.5008  2.6340 -0.9695
  572TMC3    H2 8542   0.198   2.587   0.773  1.3439  0.0668  0.7821
  572TMC3    C7 8543   0.417   2.578   0.592  0.5110  0.0472  0.8383
  572TMC3    C8 8544   0.091   2.381   0.885  0.1648 -0.4828  0.0787
  572TMC3    O1 8545   0.460   2.589   0.480 -0.0637  0.4630 -0.1261
  572TMC3    O2 8546   0.022   2.284   0.912  0.5275  0.6774  0.4029
  573MPD2     C 8547   2.859   3.304   1.231  0.3419  0.1755 -0.8271
  573MPD2    C1 8548   2.757   3.240   1.172 -0.0005  0.2157 -0.4629
  573MPD2    C2 8549   2.772   3.181   1.048 -0.7254 -0.2524 -0.3122
  573MPD2    C3 8550   2.899   3.160   0.997  0.8841 -0.1999  0.1920
  573MPD2    C4 8551   3.000   3.220   1.055  0.2508  0.5752  0.0768
  573MPD2    C5 8552   2.982   3.295   1.166  0.2024 -0.4656  0.1440
  573MPD2     H 8553   2.685   3.145   0.995  0.8234 -3.1082 -0.8841
  573MPD2    H1 8554   3.101   3.226   1.016  0.1657  2.1616  0.0661
  573MPD2    H2 8555   2.832   3.344   1.328  0.5421 -0.1877 -0.6254
  573MPD2    H3 8556   3.066   3.349   1.209 -0.1883  1.0506 -0.9936
  573MPD2     N 8557   2.925   3.099   0.873 -0.1238 -0.8037 -0.6469
  573MPD2    H5 8558   3.022   3.101   0.841 -0.0656  0.2444 -0.4056
  573MPD2    N1 8559   2.643   3.235   1.248  0.2168 -0.2956 -0.4662
  573MPD2    H7 8560   2.653   3.265   1.344  3.7114 -1.7988 -0.3429
  574TMC3    C1 8561   2.900   2.951   0.685  0.3838 -0.0439  0.5891
  574TMC3    C2 8562   2.814   2.864   0.620 -0.7986  0.1197 -0.1115
  574TMC3    C3 8563   2.868   2.791   0.519 -0.3979 -0.8781  0.4790
  574TMC3    C4 8564   3.035   2.964   0.655 -0.0318 -0.3230 -0.0604
  574TMC3    C5 8565   3.079   2.896   0.550  0.5843 -1.2727 -0.9047
  574TMC3    C6 8566   3.005   2.803   0.482 -0.1528 -0.3088 -0.3979
  574TMC3     C 8567   2.839   3.030   0.798 -0.2140  0.3445 -0.0341
  574TMC3     O 8568   2.716   3.030   0.808  0.4114  0.1159  0.0404
  574TMC3     H 8569   2.710   2.852   0.646 -1.2297  0.2994 -1.7908
  574TMC3    H1 8570   3.103   3.029   0.710 -3.0914  0.9575  2.2138
  574TMC3    H2 8571   3.047   2.741   0.403  2.6009  1.6579 -0.4878
  574TMC3    C7 8572   3.224   2.882   0.525  0.8337  0.2975 -0.4781
  574TMC3    C8 8573   2.790   2.701   0.446 -0.3245 -0.2401 -0.1832
  574TMC3    O1 8574   3.250   2.821   0.423 -0.0607 -0.7326  0.0799
  574TMC3    O2 8575   2.837   2.599   0.396 -0.0896 -0.6285 -0.0510
  575TMC3    C1 8576   0.410   3.552  10.969 -0.2320 -0.0727  0.7177
  575TMC3    C2 8577   0.333   3.459  11.047 -0.8841 -0.2125 -0.9289
  575TMC3    C3 8578   0.261   3.359  10.979  0.1574  0.3315 -0.3567
  575TMC3    C4 8579   0.402   3.556  10.833 -0.0312 -0.3116 -0.4406
  575TMC3    C5 8580   0.307   3.472  10.782  0.1750 -0.9551  0.7720
  575TMC3    C6 8581   0.245   3.366  10.848  0.0516 -0.1594  0.1590
  575TMC3     C 8582   0.464   3.657  11.047  0.6131  0.4611  0.1340
  575TMC3     O 8583   0.410   3.672  11.153  0.5944 -0.0152  0.8599
  575TMC3     H 8584   0.340   3.450  11.155  2.3285 -0.1856 -1.1267
  575TMC3    H1 8585   0.463   3.619  10.769 -1.1605  1.0481 -0.1841
  575TMC3    H2 8586   0.166   3.307  10.803  2.7138 -3.7802  0.2945
  575TMC3    C7 8587   0.270   3.511  10.648  0.1133 -0.3029  0.1538
  575TMC3    C8 8588   0.213   3.244  11.053  0.2512  0.2970 -0.4436
  575TMC3    O1 8589   0.276   3.628  10.618 -0.8785 -0.6510 -0.0502
  575TMC3    O2 8590   0.162   3.272  11.162  0.5496  0.1292 -0.0616
  576MPD2     C 8591   0.057   0.237  13.000 -0.3029  0.1584  0.0228
  576MPD2    C1 8592   0.066   0.350  12.927  0.2449 -0.1083  0.0148
  576MPD2    C2 8593   0.009   0.469  12.976  0.9442  0.0283  0.2755
  576MPD2    C3 8594   4.692   0.462  13.104 -0.0254  0.8187  0.3090
  576MPD2    C4 8595   4.692   0.344  13.175 -0.2895 -0.2356 -0.3018
  576MPD2    C5 8596   0.002   0.230  13.123 -0.8708  0.1003  0.0874
  576MPD2     H 8597   0.005   0.562  12.921  1.7782  0.5540  1.0925
  576MPD2    H1 8598   4.655   0.341  13.277  0.1217  2.7035 -0.0788
  576MPD2    H2 8599   0.096   0.141  12.968 -1.4235 -0.5667  0.8412
  576MPD2    H3 8600   4.726   0.134  13.172  0.4578 -0.5291 -0.7846
  576MPD2     N 8601   4.628   0.579  13.146  0.3339  0.3461  0.0422
  576MPD2    H5 8602   4.655   0.670  13.112  2.0270 -0.5036 -0.8727
  576MPD2    N1 8603   0.130   0.362  12.799  0.5646  0.2606 -0.0675
  576MPD2    H7 8604   0.109   0.443  12.742 -0.0553  0.6298  0.6781
  577TMC3    C1 8605   0.273   0.316  12.613  0.1867 -0.3580 -0.6114
  577TMC3    C2 8606   0.328   0.224  12.524  0.6745 -0.0082  0.3721
  577TMC3    C3 8607   0.410   0.261  12.425  0.2079  0.0662  0.0153
  577TMC3    C4 8608   0.299   0.449  12.595 -0.3845  0.2107 -0.2434
  577TMC3    C5 8609   0.368   0.480  12.478 -0.0484  0.2605 -0.0967
  577TMC3    C6 8610   0.415   0.393  12.387 -0.6828  0.1635  0.1507
  577TMC3     C 8611   0.205   0.267  12.734  0.9040 -0.1089 -0.0088
  577TMC3     O 8612   0.227   0.150  12.769  0.2872 -0.7768  0.0819
  577TMC3     H 8613   0.298   0.122  12.543  0.9366 -0.1805 -0.1242
  577TMC3    H1 8614   0.280   0.517  12.677  1.1215  0.0209  0.2646
  577TMC3    H2 8615   0.471   0.416  12.297  0.1384 -2.5406 -0.0396
  577TMC3    C7 8616   0.391   0.618  12.452 -0.3995  0.3577 -0.7049
  577TMC3    C8 8617   0.459   0.158  12.334  0.8117 -0.0189  0.2726
  577TMC3    O1 8618   0.378   0.698  12.546  0.1549 -0.5415  0.1089
  577TMC3    O2 8619   0.444   0.043  12.377 -0.4157  0.4945 -0.0855
  578MPD2     C 8620   2.377   0.611   0.467  0.3136 -0.5385 -0.5204
  578MPD2    C1 8621   2.486   0.552   0.406  0.3378 -0.1969  0.5357
  578MPD2    C2 8622   2.601   0.555   0.479 -0.1401  0.4337  0.8260
  578MPD2    C3 8623   2.625   0.631   0.592 -0.2493 -0.3483  0.4379
  578MPD2    C4 8624   2.510   0.685   0.649  0.7352  0.1242 -0.3860
  578MPD2    C5 8625   2.391   0.675   0.586 -0.3036 -0.2880  0.2580
  578MPD2     H 8626   2.692   0.521   0.430 -1.0061 -0.7574  0.0636
  578MPD2    H1 8627   2.494   0.734   0.745 -0.8702 -0.0166 -0.5955
  578MPD2    H2 8628   2.278   0.590   0.427 -0.8327  2.3981  0.8045
  578MPD2    H3 8629   2.299   0.700   0.639 -0.3261  1.0844 -0.4376
  578MPD2     N 8630   2.755   0.648   0.640  0.3973 -0.2206  0.1094
  578MPD2    H5 8631   2.827   0.582   0.612 -3.1131 -4.4815  1.0545
  578MPD2    N1 8632   2.464   0.490   0.283 -0.3058  0.0504  0.0691
  578MPD2    H7 8633   2.376   0.493   0.233 -0.1825 -0.7733 -0.1989
  579TMC3    C1 8634   2.913   0.728   0.789 -0.3511  0.4249 -0.1614
  579TMC3    C2 8635   2.976   0.835   0.849 -0.3060  0.4146 -0.0948
  579TMC3    C3 8636   3.104   0.823   0.875 -1.0602 -0.0243  0.1861
  579TMC3    C4 8637   2.982   0.607   0.776  0.2319  0.0373  0.1918
  579TMC3    C5 8638   3.109   0.600   0.836 -0.4037 -0.1438  0.4170
  579TMC3    C6 8639   3.172   0.708   0.877 -0.7459  0.0663  0.9106
  579TMC3     C 8640   2.785   0.745   0.732 -0.2391 -0.3103  0.1520
  579TMC3     O 8641   2.714   0.829   0.781 -0.3406  0.0266 -0.1915
  579TMC3     H 8642   2.917   0.924   0.866  0.3902  0.6839  0.9647
  579TMC3    H1 8643   2.924   0.517   0.764  0.7435 -0.4443  1.3834
  579TMC3    H2 8644   3.261   0.704   0.940  0.6703  0.5385 -1.0395
  579TMC3    C7 8645   3.171   0.475   0.870  0.3065  0.0984 -0.6545
  579TMC3    C8 8646   3.153   0.929   0.967 -0.0973  0.1412 -0.3611
  579TMC3    O1 8647   3.263   0.468   0.951 -0.1327  0.2715 -0.1107
  579TMC3    O2 8648   3.067   0.992   1.025 -0.0267  0.3677  0.0585
  580TMC3    C1 8649   2.496   3.480  11.661  0.1663 -0.0879 -0.8061
  580TMC3    C2 8650   2.598   3.529  11.588 -0.4552  0.2319  0.4599
  580TMC3    C3 8651   2.715   3.533  11.657  0.3137  0.2420  0.1465
  580TMC3    C4 8652   2.498   3.425  11.783  0.0361  0.4627 -0.2120
  580TMC3    C5 8653   2.612   3.452  11.854 -0.4833  0.4093 -0.1129
  580TMC3    C6 8654   2.721   3.507  11.794 -0.2139 -0.0691 -0.7445
  580TMC3     C 8655   2.370   3.555  11.635  0.0418 -0.5646  0.4012
  580TMC3     O 8656   2.268   3.490  11.632  0.5669 -0.2112 -0.4209
  580TMC3     H 8657   2.579   3.580  11.494 -0.2476  2.1894  1.4678
  580TMC3    H1 8658   2.411   3.390  11.836  1.2796  0.9363  2.1738
  580TMC3    H2 8659   2.817   3.516  11.844 -0.3834 -1.0767 -0.2297
  580TMC3    C7 8660   2.628   3.423  12.001  0.4800  0.3325 -0.1669
  580TMC3    C8 8661   2.837   3.587  11.593 -0.2711 -0.6315 -0.0940
  580TMC3    O1 8662   2.717   3.481  12.061  0.4255  0.0428  0.1479
  580TMC3    O2 8663   2.926   3.635  11.661 -0.0323  0.2076  0.2361
  581MPD2     C 8664   0.621   3.564  15.152  0.2775  0.1823  0.6686
  581MPD2    C1 8665   0.616   3.610  15.279  0.3577  0.0808  0.2967
  581MPD2    C2 8666   0.521   3.697  15.320 -0.3442  0.4067 -0.1534
  581MPD2    C3 8667   0.433   3.747  15.223  0.7527  0.4380  0.0632
  581MPD2    C4 8668   0.451   3.724  15.090  0.0577  0.5542 -0.9624
  581MPD2    C5 8669   0.544   3.628  15.059 -0.0518 -0.6493 -0.2868
  581MPD2     H 8670   0.513   3.722  15.425 -1.3451  0.5181 -0.2579
  581MPD2    H1 8671   0.398   3.775  15.011 -1.8786  0.2367  0.1449
  581MPD2    H2 8672   0.697   3.493  15.121  0.8565  1.5517 -1.0217
  581MPD2    H3 8673   0.559   3.593  14.957  0.2265 -0.1143 -0.4326
  581MPD2     N 8674   0.320   3.820  15.261  0.0307 -0.1823 -0.0573
  581MPD2    H5 8675   0.316   3.861  15.354  0.2200  0.1897 -0.2143
  581MPD2    N1 8676   0.713   3.546  15.362  0.8006 -0.2796  0.0427
  581MPD2    H7 8677   0.770   3.471  15.326 -2.0475 -2.4714  0.0606
  582TMC3    C1 8678   0.806   3.468  15.566 -0.4571  0.0653 -0.5260
  582TMC3    C2 8679   0.867   3.515  15.677 -0.2361  0.5875  0.9453
  582TMC3    C3 8680   0.813   3.466  15.791  0.1660  0.2421 -0.2028
  582TMC3    C4 8681   0.732   3.352  15.575  0.0229  0.1062  0.4275
  582TMC3    C5 8682   0.679   3.306  15.691 -0.8321 -0.3456 -0.5542
  582TMC3    C6 8683   0.725   3.363  15.801  0.0313 -0.0240 -0.5781
  582TMC3     C 8684   0.720   3.567  15.498  0.4084  0.4053 -0.3309
  582TMC3     O 8685   0.639   3.625  15.577  0.0890  0.2377  0.4085
  582TMC3     H 8686   0.910   3.614  15.678  1.7088 -0.3002  3.2669
  582TMC3    H1 8687   0.677   3.327  15.485 -1.4285 -1.2078  1.6928
  582TMC3    H2 8688   0.692   3.334  15.900  0.1322  1.3763 -0.1434
  582TMC3    C7 8689   0.539   3.296  15.698 -0.0529 -0.2172 -0.5771
  582TMC3    C8 8690   0.849   3.517  15.921  0.2216  0.3140 -0.2754
  582TMC3    O1 8691   0.489   3.185  15.723 -0.0734  0.1121 -0.2609
  582TMC3    O2 8692   0.766   3.506  16.010 -0.0870 -0.3117 -0.8849
  583MPD2     C 8693   0.559   0.685  17.171 -0.0781  0.3493  0.5002
  583MPD2    C1 8694   0.509   0.754  17.069 -0.3112 -0.1845 -0.1534
  583MPD2    C2 8695   0.428   0.865  17.093 -0.3130  0.5289  0.4518
  583MPD2    C3 8696   0.380   0.887  17.216  0.0719  1.0955  0.0332
  583MPD2    C4 8697   0.430   0.807  17.320  0.6920 -0.9212  0.0151
  583MPD2    C5 8698   0.527   0.710  17.299  0.3115 -0.2597 -0.1941
  583MPD2     H 8699   0.398   0.919  17.005  3.5858  1.2702 -0.4342
  583MPD2    H1 8700   0.402   0.823  17.423 -0.3715 -2.9750  0.0244
  583MPD2    H2 8701   0.620   0.596  17.156 -0.4451 -0.0229  1.2195
  583MPD2    H3 8702   0.562   0.656  17.386  0.7092  0.3080  0.0001
  583MPD2     N 8703   0.284   0.990  17.232  0.2269  0.5476 -0.1222
  583MPD2    H5 8704   0.263   1.046  17.150  1.7190 -1.0807 -1.5873
  583MPD2    N1 8705   0.540   0.727  16.933  0.3300 -0.5600  0.7869
  583MPD2    H7 8706   0.490   0.783  16.864  1.7878 -0.8317 -0.4818
  584TMC3    C1 8707   0.096   1.102  17.327  0.4845 -0.6251  0.1941
  584TMC3    C2 8708   0.085   1.181  17.213 -0.3137 -0.0643  0.4373
  584TMC3    C3 8709   0.001   1.290  17.225  0.8386 -0.5573  0.1673
  584TMC3    C4 8710   0.030   1.136  17.439 -0.6330  0.3679 -0.1484
  584TMC3    C5 8711   4.696   1.247  17.442 -0.0106  0.4585  0.6070
  584TMC3    C6 8712   4.676   1.331  17.338 -0.2814 -0.1823 -0.0945
  584TMC3     C 8713   0.204   1.004  17.341 -0.0532 -0.2143  0.1972
  584TMC3     O 8714   0.209   0.949  17.451  1.0326  0.0622 -0.3336
  584TMC3     H 8715   0.134   1.164  17.117  0.6548 -0.9275  1.0758
  584TMC3    H1 8716   0.020   1.066  17.521 -0.7585  1.8392  1.0933
  584TMC3    H2 8717   4.640   1.433  17.339 -1.8229 -0.7302  0.4445
  584TMC3    C7 8718   4.610   1.256  17.555  0.1936 -0.4262 -0.0924
  584TMC3    C8 8719   0.042   1.388  17.125 -0.1020 -0.2691 -0.6826
  584TMC3    O1 8720   4.665   1.205  17.656  0.0874 -0.4115 -0.2027
  584TMC3    O2 8721   0.049   1.353  17.007  0.0332  0.0043  0.1233
  585MPD2     C 8722   4.581   0.029   0.727 -0.3303  0.0260  0.3188
  585MPD2    C1 8723   4.624   0.045   0.595  0.3683  0.2721  0.0067
  585MPD2    C2 8724   4.639   4.667   0.517 -0.4907 -0.6880 -0.4843
  585MPD2    C3 8725   4.614   4.544   0.577 -0.2361  0.3353 -0.3035
  585MPD2    C4 8726   4.568   4.534   0.710 -0.1667  0.3787  0.3381
  585MPD2    C5 8727   4.550   4.649   0.780 -0.1066  0.1621  0.9928
  585MPD2     H 8728   4.656   4.675   0.410  1.3868  1.0729 -0.0511
  585MPD2    H1 8729   4.537   4.436   0.745  1.7376 -1.1614 -2.2320
  585MPD2    H2 8730   4.566   0.120   0.784  0.5755 -0.4183  1.2593
  585MPD2    H3 8731   4.522   4.639   0.884 -0.6975  0.4079  0.8617
  585MPD2     N 8732   4.631   4.426   0.499  1.3013 -0.1542 -0.7043
  585MPD2    H5 8733   4.590   4.338   0.528 -0.0286  1.2064  1.5171
  585MPD2    N1 8734   4.641   0.180   0.546 -0.7731  0.0471 -0.1616
  585MPD2    H7 8735   4.615   0.261   0.600 -0.5729  0.3254 -0.4844
  586TMC3    C1 8736   4.666   4.300   0.306  0.5651  0.0583  0.2926
  586TMC3    C2 8737   0.018   4.238   0.229  0.6274 -0.7087  0.4334
  586TMC3    C3 8738   4.716   4.139   0.150  0.2288 -0.2077 -0.1656
  586TMC3    C4 8739   4.530   4.262   0.307  0.1536  0.0604 -0.3443
  586TMC3    C5 8740   4.495   4.154   0.228  0.5345  0.0165 -0.1033
  586TMC3    C6 8741   4.588   4.093   0.147  0.8877 -0.8501  0.0827
  586TMC3     C 8742   4.706   4.417   0.382 -0.3207 -0.1718  0.9069
  586TMC3     O 8743   0.067   4.478   0.343  0.3945 -0.2935  0.1826
  586TMC3     H 8744   0.120   4.275   0.226 -0.2925  1.5821 -1.8565
  586TMC3    H1 8745   4.450   4.327   0.342  1.3298  2.2770 -1.7664
  586TMC3    H2 8746   4.563   4.002   0.093  2.2516 -2.3604  2.0061
  586TMC3    C7 8747   4.366   4.156   0.163  0.0753 -0.1777  0.2315
  586TMC3    C8 8748   0.045   4.105   0.028 -0.0612 -0.0208  0.4233
  586TMC3    O1 8749   4.266   4.149   0.232 -0.0758 -0.2934  0.5986
  586TMC3    O2 8750   4.712   4.089  17.680  0.0826  0.0029  0.6307
  587TMC3    C1 8751   1.796   2.912  16.912 -0.1894  1.0280  0.4075
  587TMC3    C2 8752   1.875   3.002  16.979  0.2413  0.3054 -0.0317
  587TMC3    C3 8753   2.005   2.966  16.984 -1.3692 -0.7618 -0.0155
  587TMC3    C4 8754   1.840   2.786  16.876 -0.3564 -0.3967 -0.0610
  587TMC3    C5 8755   1.968   2.752  16.900  0.9346 -0.9370 -0.5588
  587TMC3    C6 8756   2.060   2.842  16.945  0.3122  0.9070  0.5337
  587TMC3     C 8757   1.665   2.953  16.867  0.6674 -0.3839 -0.3169
  587TMC3     O 8758   1.620   2.891  16.770  0.5926 -0.4155  0.0570
  587TMC3     H 8759   1.841   3.098  17.015 -2.7565 -0.9747  0.5411
  587TMC3    H1 8760   1.778   2.714  16.824 -0.6611  0.0757 -0.3446
  587TMC3    H2 8761   2.162   2.817  16.974 -0.1935 -0.6694  0.9859
  587TMC3    C7 8762   2.001   2.608  16.885  0.3865 -0.5299  0.6540
  587TMC3    C8 8763   2.093   3.060  17.054 -0.8587 -0.1652  0.6944
  587TMC3    O1 8764   1.902   2.532  16.866 -0.7639 -0.0086  0.4566
  587TMC3    O2 8765   2.183   3.013  17.122  0.0657  0.2424  0.5539
  588TMC3    C1 8766   4.557   0.578   9.850  0.6900 -0.0010 -0.2363
  588TMC3    C2 8767   4.525   0.454   9.898 -0.4455  0.2113 -0.5512
  588TMC3    C3 8768   4.595   0.407  10.009 -0.5821 -0.3385 -0.2358
  588TMC3    C4 8769   4.657   0.655   9.897  0.0666  0.2618 -0.4703
  588TMC3    C5 8770   4.734   0.602  10.001  0.1043 -0.1618  0.5858
  588TMC3    C6 8771   4.698   0.481  10.063 -0.1203  0.0207 -0.2528
  588TMC3     C 8772   4.448   0.647   9.776 -0.2906 -0.5458  0.0370
  588TMC3     O 8773   4.368   0.579   9.719  0.0581 -0.1034 -0.5475
  588TMC3     H 8774   4.440   0.404   9.853  0.3511 -0.0602 -1.7504
  588TMC3    H1 8775   4.683   0.738   9.831  1.3711 -0.5223 -0.9421
  588TMC3    H2 8776   0.023   0.445  10.144  0.4131  0.3776 -0.5139
  588TMC3    C7 8777   0.059   0.693  10.092  0.1024 -0.4932 -0.3198
  588TMC3    C8 8778   4.567   0.273  10.054 -0.1563  0.1899  0.1851
  588TMC3    O1 8779   0.092   0.651  10.203  0.5837  0.0545  0.1285
  588TMC3    O2 8780   4.509   0.198   9.976 -0.4308  0.6901  0.1177
  589TMC3    C1 8781   3.323   3.469   1.439 -0.0726  0.4479  0.2511
  589TMC3    C2 8782   3.429   3.513   1.515  0.3085 -0.4113  0.3616
  589TMC3    C3 8783   3.543   3.426   1.517 -0.0945 -0.6743 -0.0169
  589TMC3    C4 8784   3.309   3.346   1.382 -0.4258 -0.1981  0.2889
  589TMC3    C5 8785   3.417   3.264   1.398  0.0603  0.0713  0.0548
  589TMC3    C6 8786   3.540   3.304   1.455 -0.2754  0.1276 -0.4166
  589TMC3     C 8787   3.235   3.563   1.375 -0.4383  0.4018  0.1025
  589TMC3     O 8788   3.200   3.544   1.258 -0.2478 -0.4710 -0.0532
  589TMC3     H 8789   3.429   3.617   1.546  0.4866 -0.3468  0.1473
  589TMC3    H1 8790   3.223   3.316   1.323  0.3858  0.9130 -1.4737
  589TMC3    H2 8791   3.614   3.229   1.478 -0.9914 -0.3268  0.4630
  589TMC3    C7 8792   3.411   3.131   1.334 -0.3361  0.0875 -0.7134
  589TMC3    C8 8793   3.655   3.486   1.581  0.3139  0.1665 -0.6120
  589TMC3    O1 8794   3.301   3.093   1.304 -0.7376  0.0888  0.3014
  589TMC3    O2 8795   3.631   3.579   1.653 -0.4069 -0.4840  0.0256
  590MPD2     C 8796   2.944   1.806  16.694 -0.4849 -0.2022 -0.2560
  590MPD2    C1 8797   2.911   1.794  16.557 -0.2833  0.2481  0.5837
  590MPD2    C2 8798   2.964   1.892  16.473 -0.5667 -0.6749  0.2963
  590MPD2    C3 8799   3.051   1.990  16.524 -0.5685 -0.2520  0.6877
  590MPD2    C4 8800   3.092   1.995  16.655  0.6421 -0.3139  0.3700
  590MPD2    C5 8801   3.034   1.900  16.736 -0.1112  0.5884  0.3842
  590MPD2     H 8802   2.945   1.901  16.367  2.8786 -0.8968 -0.3371
  590MPD2    H1 8803   3.167   2.063  16.695  0.6611 -1.6022  2.5433
  590MPD2    H2 8804   2.907   1.735  16.766  0.5925 -0.6781 -0.1759
  590MPD2    H3 8805   3.046   1.911  16.843  1.2713  0.3805  0.2395
  590MPD2     N 8806   3.102   2.081  16.428  0.2971 -0.0235  0.2651
  590MPD2    H5 8807   3.072   2.066  16.332  0.2006 -1.0906  0.4618
  590MPD2    N1 8808   2.816   1.699  16.518  0.9054 -1.0936  0.4200
  590MPD2    H7 8809   2.785   1.634  16.590 -0.8003 -0.1849  0.5050
  591TMC3    C1 8810   3.228   2.256  16.341  0.3596  0.1827  0.4684
  591TMC3    C2 8811   3.296   2.181  16.250  0.6607  0.4057 -0.2198
  591TMC3    C3 8812   3.325   2.238  16.129  0.2361 -0.3649 -0.5952
  591TMC3    C4 8813   3.224   2.394  16.329 -0.2195  0.2646 -0.2189
  591TMC3    C5 8814   3.266   2.453  16.215 -0.0303  0.6683  0.2016
  591TMC3    C6 8815   3.307   2.375  16.108  0.0020  0.6049  0.8571
  591TMC3     C 8816   3.168   2.194  16.455 -0.4406 -0.8673 -0.0241
  591TMC3     O 8817   3.171   2.256  16.561 -0.3987 -0.3548 -0.8050
  591TMC3     H 8818   3.305   2.074  16.265 -0.5279  0.5383  1.4501
  591TMC3    H1 8819   3.207   2.457  16.416 -0.0538 -0.6366  0.4570
  591TMC3    H2 8820   3.298   2.419  16.009  1.2887 -0.1696  0.4005
  591TMC3    C7 8821   3.197   2.575  16.176  1.1514 -0.1941 -0.6714
  591TMC3    C8 8822   3.420   2.163  16.047  0.1088  0.0105  0.2768
  591TMC3    O1 8823   3.098   2.594  16.247  0.4027 -0.0735  0.3101
  591TMC3    O2 8824   3.428   2.043  16.062 -0.4078 -0.0940 -0.1566
  592MPD2     C 8825   3.830   3.344  11.852 -0.2211 -0.1447 -0.6886
  592MPD2    C1 8826   3.825   3.382  11.986  0.0475 -0.7161 -1.1109
  592MPD2    C2 8827   3.771   3.295  12.080 -0.1747  0.1297  0.2750
  592MPD2    C3 8828   3.707   3.177  12.039 -0.8102 -0.4928  0.4205
  592MPD2    C4 8829   3.738   3.132  11.912 -0.7344  0.3406 -0.3002
  592MPD2    C5 8830   3.795   3.213  11.822 -0.7654  0.0155  0.1924
  592MPD2     H 8831   3.772   3.316  12.186 -0.3650  1.1548  0.0761
  592MPD2    H1 8832   3.712   3.034  11.875  1.3805 -1.1960  2.2939
  592MPD2    H2 8833   3.887   3.390  11.772  0.1721  1.7257  0.6617
  592MPD2    H3 8834   3.816   3.178  11.722 -0.1085 -1.1249  0.7229
  592MPD2     N 8835   3.637   3.109  12.144  0.5400  1.3102  0.8452
  592MPD2    H5 8836   3.645   3.147  12.237  1.0253  1.3331  0.7932
  592MPD2    N1 8837   3.874   3.512  12.017  0.5252  0.0909  0.1426
  592MPD2    H7 8838   3.902   3.572  11.940  0.9773  1.8490  1.6987
  593TMC3    C1 8839   3.947   3.702  12.149  0.2056 -0.3225  0.1041
  593TMC3    C2 8840   3.934   3.772  12.268 -0.2756 -0.2837 -0.0211
  593TMC3    C3 8841   3.956   3.908  12.262 -0.4491 -0.5548  0.9337
  593TMC3    C4 8842   3.993   3.768  12.033  0.3595  0.0819  0.5004
  593TMC3    C5 8843   4.001   3.905  12.037  0.0987 -0.1729 -0.1218
  593TMC3    C6 8844   3.997   3.973  12.153 -1.0100  0.4904 -0.0857
  593TMC3     C 8845   3.902   3.562  12.142  0.1601 -0.5977 -0.1214
  593TMC3     O 8846   3.861   3.517  12.251 -0.2623  0.1309 -0.2750
  593TMC3     H 8847   3.890   3.730  12.358  1.3335 -3.4745 -0.7139
  593TMC3    H1 8848   4.027   3.723  11.941 -0.2309  1.8323 -0.5630
  593TMC3    H2 8849   4.001   4.081  12.146  2.1380  0.4990  1.9634
  593TMC3    C7 8850   4.053   3.973  11.930 -0.5017  0.6132 -0.6686
  593TMC3    C8 8851   3.920   3.997  12.370 -0.7200 -0.2808  0.4265
  593TMC3    O1 8852   4.115   4.074  11.957 -0.1979 -0.3042  0.2711
  593TMC3    O2 8853   3.826   3.966  12.444 -0.4340  0.1333 -0.3007
  594MPD2     C 8854   2.590   2.014  14.362 -0.6079  0.9390  0.1000
  594MPD2    C1 8855   2.546   2.075  14.476  0.2229  0.0552  0.6092
  594MPD2    C2 8856   2.594   2.196  14.518  0.3727 -0.0611  0.4353
  594MPD2    C3 8857   2.675   2.270  14.430  0.4404  0.2618  0.0448
  594MPD2    C4 8858   2.718   2.209  14.315  0.3765 -0.3081 -1.0594
  594MPD2    C5 8859   2.684   2.076  14.281 -0.0586 -0.1119  0.3569
  594MPD2     H 8860   2.555   2.238  14.611  2.8165 -0.2491  1.5351
  594MPD2    H1 8861   2.780   2.255  14.238  0.5134  0.1122 -0.6995
  594MPD2    H2 8862   2.558   1.911  14.346  0.8491  0.0766  2.5932
  594MPD2    H3 8863   2.710   2.027  14.188 -0.3448 -2.0033  1.2645
  594MPD2     N 8864   2.708   2.401  14.461  0.5580 -0.4935  0.1790
  594MPD2    H5 8865   2.655   2.440  14.538 -0.6238  0.4358 -1.0990
  594MPD2    N1 8866   2.475   1.995  14.561 -0.6187  0.8957  0.8426
  594MPD2    H7 8867   2.432   1.914  14.518 -0.3747  0.9500  0.5054
  595TMC3    C1 8868   2.800   2.852  14.375 -0.7277  0.4167 -0.1846
  595TMC3    C2 8869   2.821   2.718  14.360  0.4045  0.0012 -0.0919
  595TMC3    C3 8870   2.762   2.624  14.440  0.4598 -0.0321  0.1659
  595TMC3    C4 8871   2.716   2.888  14.480  0.0905  0.0404 -0.0893
  595TMC3    C5 8872   2.662   2.795  14.564  0.2301  0.3707 -0.0885
  595TMC3    C6 8873   2.677   2.658  14.546  0.0139 -0.7455  0.2658
  595TMC3     C 8874   2.894   2.957  14.337 -0.4416  0.3606  0.1284
  595TMC3     O 8875   2.868   3.077  14.361 -0.5334  0.3606  0.1934
  595TMC3     H 8876   2.893   2.688  14.284  0.4774  0.4958 -0.2207
  595TMC3    H1 8877   2.726   2.990  14.514  1.1215 -0.1747  0.2526
  595TMC3    H2 8878   2.624   2.582  14.603 -0.0343  0.1179  1.3938
  595TMC3    C7 8879   2.653   2.828  14.704 -0.5149  0.1436 -0.2875
  595TMC3    C8 8880   2.787   2.490  14.401 -0.1055  0.2116 -0.2037
  595TMC3    O1 8881   2.704   2.753  14.787  0.2735 -0.2113 -0.3552
  595TMC3    O2 8882   2.865   2.472  14.312  0.7036 -0.1897  0.0467
  596MPD2     C 8883   1.363   0.719  17.096 -0.1257  0.2001  0.2297
  596MPD2    C1 8884   1.339   0.829  17.016 -0.8476  0.1600  0.4829
  596MPD2    C2 8885   1.355   0.817  16.877 -0.8870 -0.0374 -0.7142
  596MPD2    C3 8886   1.390   0.693  16.821  0.0558 -0.5531 -0.0454
  596MPD2    C4 8887   1.405   0.581  16.898  0.3234 -0.5290 -1.0460
  596MPD2    C5 8888   1.399   0.595  17.035  0.2584 -0.3652  0.3967
  596MPD2     H 8889   1.325   0.898  16.812 -1.1439  0.0526 -0.4858
  596MPD2    H1 8890   1.427   0.484  16.855  3.1958 -2.0410  3.7774
  596MPD2    H2 8891   1.357   0.717  17.204  1.5281  0.1569  0.3200
  596MPD2    H3 8892   1.411   0.514  17.105 -0.2856  0.1742  1.1083
  596MPD2     N 8893   1.410   0.680  16.682  0.4835 -0.2370  0.0944
  596MPD2    H5 8894   1.433   0.584  16.658 -0.1253 -0.0595 -1.1900
  596MPD2    N1 8895   1.307   0.959  17.068 -0.1124 -0.0245 -0.2382
  596MPD2    H7 8896   1.293   1.031  16.997  0.2200  1.7593  1.4874
  597TMC3    C1 8897   1.254   1.134  17.219 -0.2480  0.3536 -0.0328
  597TMC3    C2 8898   1.299   1.216  17.120 -0.2451 -0.1698  0.2273
  597TMC3    C3 8899   1.243   1.344  17.119  0.1079 -0.0945  0.1735
  597TMC3    C4 8900   1.161   1.168  17.319  0.3180  0.3576  0.7811
  597TMC3    C5 8901   1.110   1.297  17.313 -0.0999 -0.3400  0.3919
  597TMC3    C6 8902   1.140   1.378  17.210  0.2172  0.6089  0.6154
  597TMC3     C 8903   1.297   0.992  17.199 -0.3511  0.6687 -0.4203
  597TMC3     O 8904   1.337   0.930  17.296 -0.1573 -0.0002 -0.0429
  597TMC3     H 8905   1.386   1.191  17.059 -0.4170  0.4337 -0.2561
  597TMC3    H1 8906   1.133   1.097  17.396 -0.7684  0.6522  0.6522
  597TMC3    H2 8907   1.101   1.479  17.202 -1.5391 -0.1228 -0.0489
  597TMC3    C7 8908   0.983   1.315  17.386  0.1087  0.5688  0.1689
  597TMC3    C8 8909   1.292   1.451  17.033  0.1871  0.1893  0.0121
  597TMC3    O1 8910   0.979   1.235  17.478  0.2040 -0.0408  0.0325
  597TMC3    O2 8911   1.229   1.559  17.033 -0.3105 -0.5805 -0.1402
  598TMC3    C1 8912   4.277   2.224  15.566 -0.3696 -0.2117  0.5593
  598TMC3    C2 8913   4.219   2.102  15.545 -0.4303  0.5693 -0.4563
  598TMC3    C3 8914   4.120   2.094  15.449  0.0073 -0.9701  0.5246
  598TMC3    C4 8915   4.244   2.332  15.491 -0.1246  0.0411 -0.0251
  598TMC3    C5 8916   4.146   2.312  15.395  0.1700 -0.5706 -0.2231
  598TMC3    C6 8917   4.077   2.197  15.374 -0.1114 -0.3895  0.5779
  598TMC3     C 8918   4.397   2.241  15.649  0.2386 -0.3257 -0.1911
  598TMC3     O 8919   4.460   2.343  15.656 -0.0132  0.2122 -0.3054
  598TMC3     H 8920   4.240   2.010  15.598 -3.4856  1.5155  2.3755
  598TMC3    H1 8921   4.291   2.428  15.508  1.6499 -0.9793  0.8006
  598TMC3    H2 8922   3.992   2.192  15.307 -0.4156  1.2001  0.8365
  598TMC3    C7 8923   4.162   2.383  15.269 -0.9051 -0.1014  0.0740
  598TMC3    C8 8924   4.144   1.975  15.362  0.0854  0.3482  0.0019
  598TMC3    O1 8925   4.121   2.320  15.173  0.0172  0.1071 -0.5339
  598TMC3    O2 8926   4.179   1.866  15.409  0.1778  0.0640  0.1434
  599MPD2     C 8927   4.596   4.719  16.466 -0.1952 -0.1475  0.3399
  599MPD2    C1 8928   4.529   4.597  16.443 -0.0750  0.2069  0.8548
  599MPD2    C2 8929   4.390   4.594  16.446  0.4145  0.3359  0.3482
  599MPD2    C3 8930   4.318   4.714  16.480  0.6694  0.0793  0.5956
  599MPD2    C4 8931   4.383   0.093  16.511 -0.0014  0.7185 -0.2563
  599MPD2    C5 8932   4.523   0.095  16.493  0.2754 -1.0966 -0.1211
  599MPD2     H 8933   4.337   4.504  16.419  0.7083  0.5361 -0.8642
  599MPD2    H1 8934   4.331   0.178  16.553  0.1702  0.7314 -0.0707
  599MPD2    H2 8935   4.703   4.724  16.449 -0.3166  0.2506 -0.2982
  599MPD2    H3 8936   4.572   0.190  16.509 -2.0898  0.1677 -0.2670
  599MPD2     N 8937   4.178   4.720  16.502  0.0285  0.2453 -0.3087
  599MPD2    H5 8938   4.141   0.076  16.503 -0.0680  0.2133 -1.0727
  599MPD2    N1 8939   4.606   4.486  16.413  0.4532  0.1648  0.1910
  599MPD2    H7 8940   4.706   4.502  16.402  0.1158  0.1404 -2.7229
  600TMC3    C1 8941   3.946   4.681  16.552  0.5321 -0.7988  0.2156
  600TMC3    C2 8942   3.858   4.590  16.593 -0.0771 -0.0758  0.1257
  600TMC3    C3 8943   3.751   4.630  16.662  0.7378 -0.4023  0.2446
  600TMC3    C4 8944   3.940   0.077  16.576  0.6854  0.6158  0.3529
  600TMC3    C5 8945   3.833   0.119  16.642 -0.1269  0.0888 -0.2792
  600TMC3    C6 8946   3.734   0.027  16.679  0.2841  0.2889 -0.1258
  600TMC3     C 8947   4.084   4.625  16.522  0.2361  0.3680  0.5047
  600TMC3     O 8948   4.100   4.506  16.524  0.8055 -0.1119  0.3709
  600TMC3     H 8949   3.876   4.486  16.571  2.1654  0.1707  0.8378
  600TMC3    H1 8950   4.011   0.147  16.535 -2.3332  2.4782 -1.7101
  600TMC3    H2 8951   3.641   0.059  16.724 -1.0559 -1.1604 -1.8354
  600TMC3    C7 8952   3.809   0.258  16.670  0.2202  0.0693  0.1964
  600TMC3    C8 8953   3.659   4.534  16.710 -0.3722 -0.2034  0.1855
  600TMC3    O1 8954   3.699   0.284  16.714 -0.8531 -0.4134  0.2223
  600TMC3    O2 8955   3.625   4.439  16.635 -0.1202  0.0314  0.6708
  601MPD2     C 8956   0.728   2.958   0.751  0.8487 -0.4789 -0.6921
  601MPD2    C1 8957   0.699   2.906   0.624 -0.2967 -0.5310 -0.3421
  601MPD2    C2 8958   0.599   2.817   0.608 -0.7707  0.0974  0.0252
  601MPD2    C3 8959   0.535   2.763   0.716  0.8847 -0.2131  0.1759
  601MPD2    C4 8960   0.564   2.814   0.839 -0.6620  0.2456  0.4859
  601MPD2    C5 8961   0.655   2.910   0.855  0.3325  0.1784 -0.0249
  601MPD2     H 8962   0.568   2.779   0.511  1.2909  0.1223 -0.6476
  601MPD2    H1 8963   0.511   2.772   0.923 -0.8923  0.7400  0.5911
  601MPD2    H2 8964   0.803   3.035   0.766  1.0493 -1.4206  2.9703
  601MPD2    H3 8965   0.679   2.944   0.956  0.0853 -0.5315  0.2690
  601MPD2     N 8966   0.444   2.655   0.705  0.2057  0.7197  0.1601
  601MPD2    H5 8967   0.394   2.630   0.790 -1.2385 -0.7312 -1.1423
  601MPD2    N1 8968   0.765   2.942   0.507 -0.2064  0.1413  0.3230
  601MPD2    H7 8969   0.740   2.901   0.417 -1.5220 -1.6966  1.5366
  602TMC3    C1 8970   0.899   3.077   0.369 -0.1076  0.5742  0.0429
  602TMC3    C2 8971   1.027   3.109   0.337 -0.1379  0.3012 -0.0482
  602TMC3    C3 8972   1.055   3.157   0.210 -0.0244  0.5527  0.5721
  602TMC3    C4 8973   0.801   3.095   0.275  0.2531  0.1502  0.1796
  602TMC3    C5 8974   0.836   3.146   0.151  0.1160 -0.5590 -0.5824
  602TMC3    C6 8975   0.964   3.176   0.111  0.6239  0.3396  0.1548
  602TMC3     C 8976   0.868   3.037   0.500 -0.0085  0.0851 -1.0330
  602TMC3     O 8977   0.942   3.090   0.588  0.1128  0.3971 -0.2750
  602TMC3     H 8978   1.109   3.108   0.409  1.5782 -1.0644 -2.0399
  602TMC3    H1 8979   0.696   3.082   0.299 -0.3516 -0.1791 -2.5345
  602TMC3    H2 8980   0.989   3.196   0.007  0.5982 -0.0076  0.0819
  602TMC3    C7 8981   0.734   3.172   0.048 -0.8805 -0.2885  0.7835
  602TMC3    C8 8982   1.193   3.193   0.174 -0.9640  0.2567 -1.0127
  602TMC3    O1 8983   0.616   3.134   0.060  0.3751  0.2020  0.2083
  602TMC3    O2 8984   1.292   3.154   0.241  0.6016  0.0305  0.8727
  603TMC3    C1 8985   4.491   3.217  11.121  0.1366 -0.0612 -0.0644
  603TMC3    C2 8986   4.540   3.143  11.222  0.3132  0.4353 -0.0042
  603TMC3    C3 8987   4.606   3.210  11.315 -0.0477  0.1612 -0.2411
  603TMC3    C4 8988   4.503   3.354  11.109  0.4819  0.0277 -0.7360
  603TMC3    C5 8989   4.583   3.411  11.201  0.8571 -0.2483  0.2507
  603TMC3    C6 8990   4.630   3.341  11.307  0.1198  0.0229  0.9284
  603TMC3     C 8991   4.444   3.152  10.993  0.0484 -0.2712  0.1772
  603TMC3     O 8992   4.384   3.220  10.910 -0.3227 -0.3662 -0.1399
  603TMC3     H 8993   4.499   3.045  11.246  1.1662  0.1580  0.3130
  603TMC3    H1 8994   4.459   3.410  11.027 -1.5456  0.5394  0.7064
  603TMC3    H2 8995   4.706   3.377  11.376 -1.4805  0.5794  2.4164
  603TMC3    C7 8996   4.612   3.555  11.195  0.2713  0.4754  0.0635
  603TMC3    C8 8997   4.610   3.144  11.442  0.1785 -0.3839  0.1431
  603TMC3    O1 8998   4.664   3.603  11.290 -0.3709  0.0643  0.5253
  603TMC3    O2 8999   4.636   3.027  11.455 -0.0519 -0.4414  0.4135
  604MPD2     C 9000   0.300   1.540  16.312 -0.8823  0.2260 -1.0334
  604MPD2    C1 9001   0.281   1.677  16.289  0.3530 -0.5845  0.2890
  604MPD2    C2 9002   0.328   1.724  16.169 -0.5210  0.1204  0.2916
  604MPD2    C3 9003   0.396   1.643  16.079  0.3794  0.4071  0.2258
  604MPD2    C4 9004   0.410   1.509  16.112 -0.3134  0.0066 -0.0853
  604MPD2    C5 9005   0.363   1.461  16.226  0.0812  0.0575 -0.4582
  604MPD2     H 9006   0.303   1.820  16.128  0.1292 -1.0904 -2.8975
  604MPD2    H1 9007   0.463   1.442  16.044 -0.6008  0.1629 -0.4631
  604MPD2    H2 9008   0.270   1.508  16.411 -0.9635  3.4718  0.0016
  604MPD2    H3 9009   0.381   1.359  16.257 -0.0218  0.4238  0.8384
  604MPD2     N 9010   0.443   1.701  15.957 -0.3980 -0.1352 -0.5403
  604MPD2    H5 9011   0.408   1.795  15.942  1.9152  0.2450 -3.5607
  604MPD2    N1 9012   0.222   1.750  16.392 -0.4990 -0.1065 -0.6269
  604MPD2    H7 9013   0.213   1.702  16.481 -2.4004  0.4971 -0.4892
  605TMC3    C1 9014   0.075   1.905  16.477 -0.7506  0.4426  0.2008
  605TMC3    C2 9015   0.152   1.928  16.586  0.0873  0.2260  0.0767
  605TMC3    C3 9016   0.106   2.019  16.682 -0.5322  0.0711  0.2413
  605TMC3    C4 9017   4.699   1.977  16.459 -0.1710  0.0317 -0.4282
  605TMC3    C5 9018   4.652   2.059  16.553 -0.2783 -0.0122 -0.4650
  605TMC3    C6 9019   4.725   2.084  16.671 -0.5942  0.2374 -0.1238
  605TMC3     C 9020   0.143   1.858  16.360 -0.3515  0.7754  0.1060
  605TMC3     O 9021   0.100   1.902  16.253 -0.0638  0.2986  0.1698
  605TMC3     H 9022   0.247   1.878  16.603  0.4486  0.7648 -0.3303
  605TMC3    H1 9023   4.640   1.951  16.371 -1.2467  1.3495 -0.0985
  605TMC3    H2 9024   4.693   2.159  16.742 -1.4955  0.0555 -0.3452
  605TMC3    C7 9025   4.547   2.158  16.516 -0.5256 -0.1602 -0.6918
  605TMC3    C8 9026   0.216   2.082  16.755  0.3283 -0.2288 -0.6575
  605TMC3    O1 9027   4.503   2.224  16.609  0.4476 -0.0862  0.2148
  605TMC3    O2 9028   0.333   2.067  16.718 -0.5654 -0.0327  0.0219
  606TMC3    C1 9029   1.691   0.779  17.191 -0.2952  0.3290  0.5922
  606TMC3    C2 9030   1.621   0.815  17.301 -0.0363 -0.1415  0.5406
  606TMC3    C3 9031   1.601   0.720  17.400  0.6140  0.4562 -0.2249
  606TMC3    C4 9032   1.726   0.642  17.172 -0.2642 -0.4067 -0.5593
  606TMC3    C5 9033   1.703   0.555  17.268  0.1574  0.1430  0.4622
  606TMC3    C6 9034   1.652   0.593  17.387 -0.1939  0.4361 -0.2661
  606TMC3     C 9035   1.698   0.878  17.087  0.1865 -0.7290 -0.1324
  606TMC3     O 9036   1.695   0.992  17.120 -0.0323  0.5797  0.4454
  606TMC3     H 9037   1.595   0.919  17.319  1.4649  0.4729 -0.8045
  606TMC3    H1 9038   1.784   0.617  17.084  1.0833 -2.1156  0.8257
  606TMC3    H2 9039   1.656   0.531  17.476  2.3105  1.4314  0.2904
  606TMC3    C7 9040   1.700   0.416  17.234  0.8135  0.0809 -0.2557
  606TMC3    C8 9041   1.553   0.762  17.532  0.4528  1.0463 -0.3101
  606TMC3    O1 9042   1.774   0.369  17.149 -0.4740  0.2089  0.2715
  606TMC3    O2 9043   1.575   0.693  17.626  0.3241 -0.5075  0.1459
  607MPD2     C 9044   3.853   2.715  12.076  0.3195 -0.5181  0.2954
  607MPD2    C1 9045   3.899   2.778  12.183 -0.3043  0.1373  0.1155
  607MPD2    C2 9046   3.886   2.727  12.314 -0.4152  0.2451 -0.0996
  607MPD2    C3 9047   3.835   2.597  12.326  0.1617 -0.6590  0.3448
  607MPD2    C4 9048   3.794   2.531  12.204 -0.7645 -0.1450  0.6692
  607MPD2    C5 9049   3.809   2.588  12.079  0.0962 -0.0933 -0.0470
  607MPD2     H 9050   3.914   2.783  12.402  1.5578  2.6740 -2.2577
  607MPD2    H1 9051   3.754   2.430  12.203 -1.0538 -0.0169 -0.2472
  607MPD2    H2 9052   3.871   2.749  11.975 -0.7324  0.6365  0.4978
  607MPD2    H3 9053   3.775   2.539  11.988 -1.9030 -1.1665  1.2922
  607MPD2     N 9054   3.841   2.543  12.457 -0.2089 -0.9445  0.7799
  607MPD2    H5 9055   3.883   2.591  12.536 -1.2534 -0.7491  1.2260
  607MPD2    N1 9056   3.975   2.894  12.176 -0.3842  0.1889 -0.0687
  607MPD2    H7 9057   3.987   2.948  12.261 -0.5503  0.8505 -0.4641
  608TMC3    C1 9058   4.120   3.042  12.107 -0.7018  0.4234 -0.7593
  608TMC3    C2 9059   4.185   3.010  12.220  0.0370 -1.0200  0.0952
  608TMC3    C3 9060   4.248   3.117  12.282 -0.0573 -0.4823 -0.6170
  608TMC3    C4 9061   4.119   3.170  12.051 -0.3553  0.9157  0.3909
  608TMC3    C5 9062   4.169   3.273  12.126  0.0112 -0.1210 -0.4946
  608TMC3    C6 9063   4.246   3.248  12.240  0.7448  0.9751  0.0668
  608TMC3     C 9064   4.020   2.950  12.060  0.6097 -0.8635  0.2650
  608TMC3     O 9065   4.018   2.920  11.942  0.0237  0.1956  0.6067
  608TMC3     H 9066   4.189   2.915  12.273  0.3324 -0.0698  1.7864
  608TMC3    H1 9067   4.066   3.178  11.956 -1.2243  0.1367  0.8111
  608TMC3    H2 9068   4.296   3.324  12.298  0.0495 -0.4783  2.5835
  608TMC3    C7 9069   4.199   3.396  12.058  0.4307  0.5552  0.0380
  608TMC3    C8 9070   4.311   3.092  12.414 -0.6445  0.2828 -0.3220
  608TMC3    O1 9071   4.203   3.396  11.935 -0.2751  0.8442  0.4364
  608TMC3    O2 9072   4.412   3.151  12.450 -0.1089 -0.2896  0.1933
  609TMC3    C1 9073   1.955   1.771   9.379 -0.4711  0.3092  0.6532
  609TMC3    C2 9074   1.963   1.636   9.357  0.1045 -0.8629 -0.0261
  609TMC3    C3 9075   2.079   1.584   9.300 -0.0019  0.4767 -0.4614
  609TMC3    C4 9076   2.049   1.856   9.334  0.0997 -0.2310  0.5273
  609TMC3    C5 9077   2.146   1.809   9.245 -0.7242  0.3333  0.5900
  609TMC3    C6 9078   2.163   1.674   9.234  0.0636 -0.3120  0.5261
  609TMC3     C 9079   1.842   1.826   9.451 -0.1126 -0.6869  0.0008
  609TMC3     O 9080   1.780   1.755   9.529  0.2193  0.3822 -0.0160
  609TMC3     H 9081   1.885   1.571   9.394 -0.3248  0.0962  0.7725
  609TMC3    H1 9082   2.052   1.958   9.370 -0.4072  0.3277 -0.9930
  609TMC3    H2 9083   2.249   1.641   9.177  0.1187  2.9653 -1.3228
  609TMC3    C7 9084   2.252   1.901   9.217  0.1225 -0.3342  0.5415
  609TMC3    C8 9085   2.090   1.443   9.282 -0.7796  1.1500 -0.4612
  609TMC3    O1 9086   2.267   2.003   9.285  0.4705 -0.5909  0.2737
  609TMC3    O2 9087   1.983   1.384   9.290 -0.3907  0.0305  0.0588
  610TMC3    C1 9088   4.563   3.411  12.360 -0.3426  0.8753 -0.2170
  610TMC3    C2 9089   4.597   3.481  12.246  0.0148  0.3602 -0.1413
  610TMC3    C3 9090   4.673   3.416  12.159  0.3167 -0.7342  0.3140
  610TMC3    C4 9091   4.637   3.295  12.391 -0.2360 -0.1459  0.2388
  610TMC3    C5 9092   4.715   3.237  12.300 -0.1451 -0.2004  0.2383
  610TMC3    C6 9093   4.736   3.293  12.182  0.6347  0.8475  0.2461
  610TMC3     C 9094   4.502   3.495  12.463 -0.5434 -0.3459  0.6356
  610TMC3     O 9095   4.513   3.616  12.451 -0.0356  0.2631 -0.3206
  610TMC3     H 9096   4.547   3.573  12.216  1.8732  0.6377 -2.4035
  610TMC3    H1 9097   4.637   3.244  12.487  1.9708 -4.1932 -1.9260
  610TMC3    H2 9098   0.048   3.233  12.108 -0.6382  1.6710 -1.2750
  610TMC3    C7 9099   0.042   3.110  12.329  0.8490 -0.1838 -0.1209
  610TMC3    C8 9100   4.718   3.487  12.037  0.5791 -0.5849 -0.2062
  610TMC3    O1 9101   0.151   3.091  12.275 -0.3880 -0.7209 -0.1093
  610TMC3    O2 9102   4.694   3.608  12.020 -0.5556 -0.5209 -0.1077
  611MPD2     C 9103   3.865   3.742  10.055  0.5465 -0.5455 -0.5760
  611MPD2    C1 9104   3.905   3.697  10.185  0.5032  0.2774 -0.2304
  611MPD2    C2 9105   3.974   3.773  10.275 -0.2022 -0.1765 -0.8724
  611MPD2    C3 9106   4.013   3.901  10.233 -0.0610  0.7716  0.0936
  611MPD2    C4 9107   3.976   3.942  10.111 -0.0895 -0.2744  0.4285
  611MPD2    C5 9108   3.903   3.867  10.022 -0.5120 -0.0525 -0.1626
  611MPD2     H 9109   4.012   3.731  10.367  0.4669  0.3256 -0.9253
  611MPD2    H1 9110   4.001   4.044  10.085 -3.9161  0.1393 -1.5618
  611MPD2    H2 9111   3.805   3.686   9.985  1.5120 -1.4773 -0.6533
  611MPD2    H3 9112   3.879   3.907   9.924 -1.1746 -1.4219 -0.5574
  611MPD2     N 9113   4.088   3.988  10.314 -0.4082 -0.5493 -0.1502
  611MPD2    H5 9114   4.111   4.076  10.271 -1.1014 -1.7434 -2.9520
  611MPD2    N1 9115   3.845   3.574  10.231 -0.3743  0.4339 -0.0139
  611MPD2    H7 9116   3.784   3.532  10.162 -1.2888  0.7460  0.6041
  612TMC3    C1 9117   4.195   4.079  10.496  0.5655 -0.5284  0.5335
  612TMC3    C2 9118   4.289   4.050  10.595 -0.5626 -0.0984 -0.6998
  612TMC3    C3 9119   4.368   4.152  10.640 -0.7033  0.6038 -0.1675
  612TMC3    C4 9120   4.187   4.205  10.444 -0.0387  0.3340  0.2755
  612TMC3    C5 9121   4.276   4.302  10.490  0.6260 -0.3988  0.5162
  612TMC3    C6 9122   4.368   4.274  10.585 -0.3072  0.3823  0.3614
  612TMC3     C 9123   4.125   3.965  10.447  0.1828 -0.6136 -0.7018
  612TMC3     O 9124   4.132   3.861  10.511 -0.0135 -0.2141  0.3786
  612TMC3     H 9125   4.302   3.947  10.628 -2.1135 -0.6528 -1.7528
  612TMC3    H1 9126   4.091   4.230  10.400  0.1269  1.4064  0.5257
  612TMC3    H2 9127   4.438   4.348  10.622  0.3882  0.9006 -1.9800
  612TMC3    C7 9128   4.242   4.442  10.475 -0.8402  0.4105  0.2358
  612TMC3    C8 9129   4.457   4.128  10.756  0.3040 -0.5328  0.5662
  612TMC3    O1 9130   4.282   4.519  10.562  0.1475 -0.3151 -0.1367
  612TMC3    O2 9131   4.524   4.227  10.797 -0.3208 -0.0960 -1.1639
  613MPD2     C 9132   2.825   0.608  16.856  0.2308 -0.0543  0.5310
  613MPD2    C1 9133   2.770   0.572  16.735 -0.2855 -0.2161  0.1540
  613MPD2    C2 9134   2.777   0.439  16.696  0.5678  0.0525  0.6934
  613MPD2    C3 9135   2.848   0.347  16.774  0.1782 -0.6861  0.1455
  613MPD2    C4 9136   2.907   0.382  16.891 -0.5646  0.1226 -0.2964
  613MPD2    C5 9137   2.897   0.516  16.930  0.2969 -0.1275  0.3584
  613MPD2     H 9138   2.727   0.407  16.606 -3.0128 -0.6483  2.9505
  613MPD2    H1 9139   2.959   0.311  16.955  0.0484  0.0999 -0.8250
  613MPD2    H2 9140   2.801   0.702  16.905  0.0723  0.6403 -0.8997
  613MPD2    H3 9141   2.951   0.558  17.014  1.8433  3.5686 -2.4766
  613MPD2     N 9142   2.869   0.214  16.730  0.3205 -0.0246  0.0595
  613MPD2    H5 9143   2.944   0.164  16.775  1.5000  1.1007 -0.6508
  613MPD2    N1 9144   2.702   0.674  16.661  0.4160  0.4999 -0.3294
  613MPD2    H7 9145   2.728   0.770  16.684  1.0148  0.2004  0.2502
  614TMC3    C1 9146   2.673   0.752  16.444 -0.1516 -0.0760  0.1840
  614TMC3    C2 9147   2.787   0.710  16.383 -0.1573 -0.1852  0.5146
  614TMC3    C3 9148   2.793   0.711  16.246  0.4580 -0.1329 -0.0179
  614TMC3    C4 9149   2.576   0.808  16.366 -0.1038 -0.1585 -0.3260
  614TMC3    C5 9150   2.589   0.820  16.231 -0.2827  0.0978 -0.0947
  614TMC3    C6 9151   2.695   0.756  16.166 -0.4826  0.6710  0.6242
  614TMC3     C 9152   2.635   0.657  16.540 -0.6668 -0.1848 -0.4399
  614TMC3     O 9153   2.597   0.553  16.491  0.6354 -0.8045 -1.0979
  614TMC3     H 9154   2.859   0.654  16.441  0.3876  0.7377  0.7138
  614TMC3    H1 9155   2.486   0.854  16.406  0.6725 -0.0421  1.2737
  614TMC3    H2 9156   2.711   0.775  16.061 -1.3036  1.5865  0.6660
  614TMC3    C7 9157   2.488   0.883  16.153 -0.0954  0.6528 -0.4116
  614TMC3    C8 9158   2.888   0.615  16.199  0.1542  0.7912  0.0341
  614TMC3    O1 9159   2.411   0.961  16.207 -0.5891 -0.0503  0.0168
  614TMC3    O2 9160   2.981   0.592  16.278  0.8071  0.5099  0.2123
  615MPD2     C 9161   2.197   2.016  16.353  0.1202  0.7595 -0.4197
  615MPD2    C1 9162   2.067   2.045  16.386 -0.1049  0.6257 -0.2832
  615MPD2    C2 9163   1.967   1.950  16.375  0.8331 -0.1753 -0.2008
  615MPD2    C3 9164   2.000   1.823  16.317  1.1696  0.2145  0.3983
  615MPD2    C4 9165   2.131   1.796  16.290  0.1168  0.9823  0.4379
  615MPD2    C5 9166   2.225   1.892  16.312  0.7601  0.4210 -0.9262
  615MPD2     H 9167   1.864   1.971  16.401  0.2226 -3.2622 -0.1086
  615MPD2    H1 9168   2.169   1.702  16.254 -0.4368  0.3962  1.3930
  615MPD2    H2 9169   2.284   2.081  16.348 -0.3372  1.3405 -0.7961
  615MPD2    H3 9170   2.329   1.868  16.292  0.2571 -2.2998 -0.2174
  615MPD2     N 9171   1.910   1.727  16.279  0.2678 -0.0453 -0.0439
  615MPD2    H5 9172   1.955   1.647  16.236  1.5881  1.6529 -1.8280
  615MPD2    N1 9173   2.031   2.171  16.440 -0.4106 -0.5465  0.3664
  615MPD2    H7 9174   1.932   2.184  16.461 -0.3035  0.1977  0.4146
  616TMC3    C1 9175   2.050   2.403  16.499 -0.2791  0.3939  0.1979
  616TMC3    C2 9176   2.132   2.507  16.529 -0.4565  0.0267 -0.0912
  616TMC3    C3 9177   2.088   2.633  16.560  0.3606  0.6475  0.0325
  616TMC3    C4 9178   1.915   2.422  16.477 -0.0023  0.6437 -0.2227
  616TMC3    C5 9179   1.869   2.545  16.501 -0.1088 -0.2971  0.2629
  616TMC3    C6 9180   1.951   2.652  16.532 -0.2187 -0.2750 -0.2554
  616TMC3     C 9181   2.119   2.277  16.465 -0.6457 -0.4039  0.3889
  616TMC3     O 9182   2.231   2.301  16.426  0.6763 -0.4982 -0.5408
  616TMC3     H 9183   2.232   2.476  16.556  0.3401  0.1206 -2.9671
  616TMC3    H1 9184   1.863   2.347  16.418  1.9152 -2.5338  2.1424
  616TMC3    H2 9185   1.900   2.747  16.540  1.3259  0.4695  0.6725
  616TMC3    C7 9186   1.720   2.558  16.498 -0.3485 -0.0960  0.2404
  616TMC3    C8 9187   2.166   2.753  16.553  0.2584 -0.4041 -0.3560
  616TMC3    O1 9188   1.670   2.668  16.513  0.0908  0.4015  0.3339
  616TMC3    O2 9189   2.106   2.859  16.573  0.2853  0.5465  0.2762
  617MPD2     C 9190   0.484   0.600  14.614 -0.2982  0.6687  0.5667
  617MPD2    C1 9191   0.438   0.552  14.488 -0.0194  0.0793 -0.7436
  617MPD2    C2 9192   0.335   0.458  14.500 -0.2351 -0.6803 -0.0239
  617MPD2    C3 9193   0.284   0.402  14.618 -0.0830  0.4922 -0.1948
  617MPD2    C4 9194   0.343   0.440  14.732 -0.0437 -0.3285  0.1201
  617MPD2    C5 9195   0.439   0.541  14.731 -0.1309  0.7219 -0.2304
  617MPD2     H 9196   0.291   0.423  14.408  2.6583 -2.0899 -0.8571
  617MPD2    H1 9197   0.319   0.397  14.829 -0.2877 -2.2347 -0.7803
  617MPD2    H2 9198   0.565   0.667  14.635 -0.2686 -0.1935  3.2028
  617MPD2    H3 9199   0.485   0.578  14.822 -0.9275  0.8638  0.1237
  617MPD2     N 9200   0.173   0.312  14.636 -0.1751 -0.5879 -0.0794
  617MPD2    H5 9201   0.166   0.275  14.730  0.0222 -0.4134  0.0021
  617MPD2    N1 9202   0.503   0.595  14.365 -0.1776  0.5085 -1.1383
  617MPD2    H7 9203   0.588   0.651  14.365  1.7025 -2.3230  1.3912
  618TMC3    C1 9204   0.520   0.601  14.117 -0.3951  0.0719  0.1355
  618TMC3    C2 9205   0.654   0.576  14.115  0.2679  0.1732  0.0714
  618TMC3    C3 9206   0.700   0.537  13.990 -0.7235  0.2217 -0.2694
  618TMC3    C4 9207   0.442   0.607  13.998 -0.2403 -0.3690  0.0753
  618TMC3    C5 9208   0.494   0.547  13.885  0.0675 -0.2256  0.9087
  618TMC3    C6 9209   0.625   0.518  13.875  0.1608 -0.0042 -0.3895
  618TMC3     C 9210   0.449   0.568  14.242 -0.8939  0.1653  0.0334
  618TMC3     O 9211   0.342   0.517  14.213  0.0750  0.2305  0.1952
  618TMC3     H 9212   0.728   0.586  14.193 -0.3481 -0.1063  0.6996
  618TMC3    H1 9213   0.336   0.627  14.003 -0.3686 -1.3597  1.3445
  618TMC3    H2 9214   0.670   0.491  13.780 -1.1822 -1.2788 -0.6596
  618TMC3    C7 9215   0.403   0.535  13.778  0.0292  0.1272 -0.8909
  618TMC3    C8 9216   0.842   0.531  13.968 -0.1228  0.0890  0.0426
  618TMC3    O1 9217   0.283   0.539  13.805 -0.0855  0.2637  0.3182
  618TMC3    O2 9218   0.915   0.591  14.045 -0.5422  0.5701 -0.0000
  619MPD2     C 9219   1.956   1.536  13.712  0.2185 -0.0265  1.1256
  619MPD2    C1 9220   1.910   1.652  13.656  0.1474 -0.6932  0.2288
  619MPD2    C2 9221   1.774   1.664  13.626 -0.1575  0.1660 -0.4737
  619MPD2    C3 9222   1.687   1.565  13.672  0.3437 -0.6816 -0.6648
  619MPD2    C4 9223   1.742   1.457  13.736  0.6307  0.3505 -0.1539
  619MPD2    C5 9224   1.874   1.439  13.751  0.8158 -0.0812 -0.4618
  619MPD2     H 9225   1.729   1.751  13.580  0.5463 -0.0384 -1.5596
  619MPD2    H1 9226   1.668   1.387  13.773  0.9826 -0.4086 -0.8789
  619MPD2    H2 9227   2.063   1.521  13.719  0.3138  0.4493  0.7143
  619MPD2    H3 9228   1.916   1.352  13.799  0.5337 -1.3431 -2.4906
  619MPD2     N 9229   1.545   1.580  13.658 -0.2550  0.1346  0.3638
  619MPD2    H5 9230   1.489   1.521  13.719  2.0198  0.0246  2.3465
  619MPD2    N1 9231   1.995   1.759  13.617 -0.1928 -0.2600  0.1824
  619MPD2    H7 9232   1.957   1.832  13.557  0.9923 -0.5955 -0.9887
  620TMC3    C1 9233   2.192   1.871  13.582  0.2629 -0.8599 -0.2901
  620TMC3    C2 9234   2.154   1.872  13.446  0.0692  0.1464  0.3108
  620TMC3    C3 9235   2.128   1.987  13.388  0.1199  0.2328 -0.7307
  620TMC3    C4 9236   2.228   1.981  13.646 -0.3942  0.2775  0.4508
  620TMC3    C5 9237   2.206   2.103  13.580  0.4198 -0.1578  0.5414
  620TMC3    C6 9238   2.145   2.107  13.454  0.7318  0.1588 -0.3106
  620TMC3     C 9239   2.124   1.776  13.665  0.3318  0.6134 -0.5274
  620TMC3     O 9240   2.168   1.749  13.775  0.3198  0.9629 -0.0048
  620TMC3     H 9241   2.124   1.781  13.396  1.6212 -0.5658  0.6752
  620TMC3    H1 9242   2.277   1.974  13.742 -2.2976 -0.8428  1.3254
  620TMC3    H2 9243   2.113   2.203  13.413  1.4612  0.6961  0.3836
  620TMC3    C7 9244   2.126   2.192  13.665  0.1496  0.5147 -0.7125
  620TMC3    C8 9245   2.010   1.993  13.310  0.1644  0.0761  0.1849
  620TMC3    O1 9246   2.016   2.208  13.621  0.0540 -0.0392  0.1003
  620TMC3    O2 9247   1.991   1.902  13.229  0.0966  0.6891 -0.3626
  621MPD2     C 9248   1.701   1.369  10.681  0.1482  0.0010  0.8901
  621MPD2    C1 9249   1.617   1.365  10.570 -1.0316 -0.0792  0.2332
  621MPD2    C2 9250   1.643   1.453  10.471 -0.1643  0.5736 -0.1171
  621MPD2    C3 9251   1.746   1.544  10.468  0.9575 -0.7985  0.3528
  621MPD2    C4 9252   1.843   1.539  10.574 -0.4415  0.0303  0.3664
  621MPD2    C5 9253   1.816   1.450  10.671 -0.3267 -0.4292 -0.0152
  621MPD2     H 9254   1.570   1.454  10.391  0.1963 -0.6288 -0.4545
  621MPD2    H1 9255   1.943   1.579  10.579  0.2232 -1.3025 -2.4640
  621MPD2    H2 9256   1.698   1.291  10.757  1.4967 -2.4090 -1.5465
  621MPD2    H3 9257   1.887   1.436  10.752 -0.3419  0.2998  0.1209
  621MPD2     N 9258   1.760   1.637  10.360 -0.0848  0.0498 -0.7201
  621MPD2    H5 9259   1.675   1.648  10.305  0.3018  1.8956 -0.9586
  621MPD2    N1 9260   1.499   1.291  10.563 -0.1530 -0.1957  0.4878
  621MPD2    H7 9261   1.463   1.280  10.469  0.4838  2.3810 -0.0701
  622TMC3    C1 9262   1.326   1.143  10.626  0.2882 -0.0515 -0.2311
  622TMC3    C2 9263   1.207   1.184  10.671 -0.6879  0.2504 -0.1303
  622TMC3    C3 9264   1.099   1.118  10.620  0.1198  0.0855  0.3703
  622TMC3    C4 9265   1.342   1.049  10.530 -0.1349  0.5416 -0.3871
  622TMC3    C5 9266   1.236   0.985  10.478  0.7583 -0.2175  0.9697
  622TMC3    C6 9267   1.114   1.026  10.522 -0.5171 -0.3029  0.2857
  622TMC3     C 9268   1.452   1.215  10.668 -0.4446 -0.4056  0.1123
  622TMC3     O 9269   1.450   1.261  10.780  0.6496 -0.1827  0.1681
  622TMC3     H 9270   1.189   1.249  10.755 -1.4825 -0.2979  0.1242
  622TMC3    H1 9271   1.444   1.028  10.499  0.4507  1.1873  1.0948
  622TMC3    H2 9272   1.026   0.989  10.471 -0.7514  0.2533  0.2853
  622TMC3    C7 9273   1.237   0.916  10.356 -0.1465  0.5521 -0.4016
  622TMC3    C8 9274   0.960   1.149  10.652 -0.2268 -0.0183 -0.0167
  622TMC3    O1 9275   1.155   0.829  10.339 -0.6486 -0.1277 -0.1796
  622TMC3    O2 9276   0.879   1.063  10.638 -0.3164 -0.0936 -0.2122
  623MPD2     C 9277   0.528   2.409  16.243 -0.0362  0.2411  0.6762
  623MPD2    C1 9278   0.462   2.401  16.367 -0.3748  0.7433 -0.5125
  623MPD2    C2 9279   0.541   2.421  16.479 -0.4796  0.5115  0.6825
  623MPD2    C3 9280   0.673   2.450  16.471  0.3840  0.7483 -0.0997
  623MPD2    C4 9281   0.739   2.449  16.354  0.0189 -0.5450 -0.0285
  623MPD2    C5 9282   0.661   2.433  16.243 -0.2967  0.4144 -0.4912
  623MPD2     H 9283   0.493   2.423  16.576 -1.5192  0.1916  0.1688
  623MPD2    H1 9284   0.846   2.455  16.341  0.2644 -1.1364  1.8121
  623MPD2    H2 9285   0.485   2.410  16.143 -1.9555  0.9724  1.5197
  623MPD2    H3 9286   0.706   2.422  16.145  0.6225 -2.5970  0.2819
  623MPD2     N 9287   0.739   2.473  16.596  0.3317  0.4018  0.1279
  623MPD2    H5 9288   0.694   2.459  16.686  3.7373 -1.4466  1.5384
  623MPD2    N1 9289   0.325   2.378  16.390  0.9195  0.2087 -0.0695
  623MPD2    H7 9290   0.292   2.391  16.485  0.8655  0.1516 -0.0806
  624TMC3    C1 9291   1.015   2.312  16.862 -0.0539  0.6149  0.1264
  624TMC3    C2 9292   0.907   2.304  16.943  0.6470 -0.3270  0.0811
  624TMC3    C3 9293   0.800   2.388  16.923  0.9487  0.2296  0.2767
  624TMC3    C4 9294   1.020   2.410  16.767 -0.1258 -0.4778  0.6183
  624TMC3    C5 9295   0.914   2.493  16.754 -0.4426 -0.0793  0.3880
  624TMC3    C6 9296   0.805   2.484  16.828  0.1876  0.0839  0.7029
  624TMC3     C 9297   1.136   2.250  16.910  0.0655 -1.0151 -0.5079
  624TMC3     O 9298   1.108   2.151  16.976 -0.2581 -0.5525  0.4863
  624TMC3     H 9299   0.899   2.232  17.023 -0.3665 -1.3922 -0.9740
  624TMC3    H1 9300   1.099   2.414  16.694  0.7752 -1.8065  1.5111
  624TMC3    H2 9301   0.720   2.551  16.833 -0.6813 -1.1390  2.5987
  624TMC3    C7 9302   0.872   2.511  16.614  1.0841 -0.9303 -0.5792
  624TMC3    C8 9303   0.670   2.319  16.919  0.1602  0.4868 -0.7412
  624TMC3    O1 9304   0.952   2.531  16.523  0.3543 -0.2565  0.1825
  624TMC3    O2 9305   0.625   2.307  16.806  0.2028  0.0887  0.1510
  625MPD2     C 9306   1.048   3.807   1.479 -0.0455  0.2525 -0.2506
  625MPD2    C1 9307   1.105   3.933   1.486 -0.1217  0.5350 -0.1781
  625MPD2    C2 9308   1.191   3.959   1.596 -0.1423  0.2527 -0.4422
  625MPD2    C3 9309   1.229   3.853   1.676 -0.1289  0.7084  0.6224
  625MPD2    C4 9310   1.166   3.729   1.665 -0.4911  0.9124  0.1407
  625MPD2    C5 9311   1.069   3.710   1.574  0.1906  0.5502 -0.4087
  625MPD2     H 9312   1.240   4.055   1.608 -0.5634  0.4649 -0.4263
  625MPD2    H1 9313   1.184   3.667   1.753 -1.5471  0.5859  0.1273
  625MPD2    H2 9314   0.982   3.776   1.398 -0.3848 -0.5254  0.3291
  625MPD2    H3 9315   1.022   3.613   1.575 -3.1768  2.1854  1.4560
  625MPD2     N 9316   1.345   3.870   1.761  0.4596 -0.0431  0.2107
  625MPD2    H5 9317   1.386   3.963   1.759  0.6785 -0.1160  1.2443
  625MPD2    N1 9318   1.069   4.035   1.395  0.3046  0.3549 -0.2961
  625MPD2    H7 9319   1.123   4.120   1.404  0.4153  0.4466 -1.9121
  626TMC3    C1 9320   1.019   4.136   1.185 -0.3944 -0.1782  0.4422
  626TMC3    C2 9321   0.939   4.141   1.072  0.3357 -0.2319 -0.8188
  626TMC3    C3 9322   0.966   4.238   0.984 -0.4983  0.2923  0.2522
  626TMC3    C4 9323   1.131   4.219   1.207 -0.5274 -0.5486 -0.4435
  626TMC3    C5 9324   1.138   4.318   1.120  0.4759  0.0280  0.7952
  626TMC3    C6 9325   1.049   4.338   1.016 -0.5164 -0.0103 -0.1632
  626TMC3     C 9326   0.998   4.031   1.281 -0.5505 -1.1601 -0.1058
  626TMC3     O 9327   0.916   3.949   1.240 -0.2950  0.0800 -0.1411
  626TMC3     H 9328   0.865   4.066   1.047 -0.0808  0.4895 -1.7671
  626TMC3    H1 9329   1.181   4.226   1.303  0.3222 -0.3696 -0.8976
  626TMC3    H2 9330   1.063   4.419   0.946 -1.2757  0.0431 -0.2533
  626TMC3    C7 9331   1.229   4.428   1.147 -0.0805  0.9823  0.3041
  626TMC3    C8 9332   0.898   4.261   0.858 -0.0490 -0.1775  0.1208
  626TMC3    O1 9333   1.330   4.401   1.213 -0.3004  0.1602  0.0956
  626TMC3    O2 9334   0.928   4.358   0.791 -0.0699  0.3140  0.4983
  627MPD2     C 9335   4.306   3.607  15.064  0.2594 -0.3315 -0.5745
  627MPD2    C1 9336   4.389   3.705  15.014  0.3711  0.4971 -0.1696
  627MPD2    C2 9337   4.426   3.710  14.877  0.0420  0.5862 -0.3278
  627MPD2    C3 9338   4.380   3.617  14.787 -0.2523  0.0562 -0.4842
  627MPD2    C4 9339   4.284   3.522  14.834 -0.7390 -0.7900 -0.1431
  627MPD2    C5 9340   4.252   3.524  14.965 -0.4091 -0.5037 -0.0392
  627MPD2     H 9341   4.490   3.787  14.837  2.5126 -0.3087  1.8681
  627MPD2    H1 9342   4.243   3.446  14.769  1.1863 -0.6316 -1.5416
  627MPD2    H2 9343   4.279   3.607  15.169 -2.5061  1.7262 -1.2577
  627MPD2    H3 9344   4.181   3.449  14.996 -1.1397  0.4639  0.6078
  627MPD2     N 9345   4.423   3.601  14.658 -0.2921  0.2529 -0.0203
  627MPD2    H5 9346   4.364   3.537  14.605  1.8076 -1.6408 -0.0385
  627MPD2    N1 9347   4.436   3.800  15.113  0.4094  0.4440  0.1475
  627MPD2    H7 9348   4.429   3.773  15.210  0.8244  0.5554  0.2099
  628TMC3    C1 9349   4.605   3.944  15.199  0.4576 -0.2586 -1.0371
  628TMC3    C2 9350   4.708   3.855  15.222 -0.9731 -0.2700 -0.6434
  628TMC3    C3 9351   0.093   3.902  15.259 -0.4862 -0.0156 -0.1045
  628TMC3    C4 9352   4.633   4.076  15.226 -0.2865 -0.2080 -0.1552
  628TMC3    C5 9353   0.016   4.120  15.281  0.3040 -0.4125 -0.7884
  628TMC3    C6 9354   0.114   4.029  15.301  0.2310  0.0817 -0.0034
  628TMC3     C 9355   4.513   3.913  15.094 -0.2179 -0.0853 -0.4996
  628TMC3     O 9356   4.515   3.986  14.997 -0.4509  0.0443  0.1900
  628TMC3     H 9357   4.689   3.754  15.186  0.9804 -1.1773  0.8403
  628TMC3    H1 9358   4.559   4.147  15.189 -0.7253 -0.5743  0.0121
  628TMC3    H2 9359   0.215   4.070  15.296  0.2300 -0.2955 -2.7308
  628TMC3    C7 9360   0.058   4.253  15.282 -0.0097  0.1250 -0.6809
  628TMC3    C8 9361   0.202   3.835  15.186  0.2881 -0.4525  0.0146
  628TMC3    O1 9362   0.146   4.283  15.363 -0.4707  0.2451  0.4966
  628TMC3    O2 9363   0.174   3.793  15.074  0.0960 -0.1633  0.4368
  629MPD2     C 9364   2.616   3.008  16.650 -0.5572 -0.2054  0.0152
  629MPD2    C1 9365   2.650   2.890  16.588  0.5126 -0.1185 -0.3247
  629MPD2    C2 9366   2.542   2.799  16.551  0.4412  0.3718  0.4103
  629MPD2    C3 9367   2.404   2.830  16.578  0.3167 -0.6702  0.4547
  629MPD2    C4 9368   2.382   2.967  16.603  0.0305 -0.3358 -0.4278
  629MPD2    C5 9369   2.485   3.045  16.651  0.0210 -0.0383 -0.1999
  629MPD2     H 9370   2.567   2.709  16.497  0.5987  1.3826 -1.2103
  629MPD2    H1 9371   2.280   3.004  16.597 -0.6184 -2.0086  0.1369
  629MPD2    H2 9372   2.687   3.072  16.702 -0.3167 -0.3224 -0.1709
  629MPD2    H3 9373   2.470   3.147  16.686 -2.9925 -0.3950 -0.4669
  629MPD2     N 9374   2.301   2.738  16.544  0.5003 -0.4185 -0.1464
  629MPD2    H5 9375   2.333   2.645  16.519  1.2348 -0.7886  2.2444
  629MPD2    N1 9376   2.788   2.859  16.579  0.0647 -0.3806  0.0765
  629MPD2    H7 9377   2.851   2.938  16.588  1.4124 -1.7188  2.4551
  630TMC3    C1 9378   2.991   2.741  16.529  0.4030 -0.2244  0.5279
  630TMC3    C2 9379   3.047   2.864  16.492 -0.5519  0.0624  0.1964
  630TMC3    C3 9380   3.175   2.884  16.545 -0.3480 -0.8182  0.4584
  630TMC3    C4 9381   3.047   2.639  16.611 -0.5438 -0.3568 -0.7702
  630TMC3    C5 9382   3.161   2.685  16.669  0.3127 -0.4052 -0.3628
  630TMC3    C6 9383   3.232   2.799  16.632  0.3054 -0.1917  0.4698
  630TMC3     C 9384   2.845   2.739  16.545 -0.1701  0.0729 -0.4015
  630TMC3     O 9385   2.784   2.632  16.552  0.2713 -0.4692 -0.0121
  630TMC3     H 9386   3.002   2.919  16.410  1.9632  2.5499  0.4442
  630TMC3    H1 9387   2.979   2.565  16.651 -0.6400  0.1927  0.0864
  630TMC3    H2 9388   3.336   2.809  16.663 -0.2197  2.6450  1.2485
  630TMC3    C7 9389   3.207   2.621  16.796 -0.1085 -0.0763  0.3156
  630TMC3    C8 9390   3.248   3.000  16.506 -0.8046 -0.8488 -0.4659
  630TMC3    O1 9391   3.280   2.691  16.865 -0.2160 -0.1995 -0.7800
  630TMC3    O2 9392   3.350   3.026  16.569  0.0260  0.0830  0.1568
  631MPD2     C 9393   0.943   1.890  15.906  0.2438  0.1461  0.9631
  631MPD2    C1 9394   1.058   1.945  15.855  0.2425  0.6626  0.3688
  631MPD2    C2 9395   1.178   1.884  15.900 -0.7559 -0.0893 -0.8036
  631MPD2    C3 9396   1.186   1.773  15.982  0.3074 -0.1300 -0.4642
  631MPD2    C4 9397   1.073   1.724  16.029  0.1146  0.0893  0.0337
  631MPD2    C5 9398   0.959   1.781  15.989 -0.3746  0.3640  0.1482
  631MPD2     H 9399   1.275   1.926  15.873 -0.1602 -1.3812 -0.6679
  631MPD2    H1 9400   1.083   1.635  16.090  1.8440  0.1606 -0.1405
  631MPD2    H2 9401   0.847   1.940  15.900 -0.1131 -0.9286 -2.0620
  631MPD2    H3 9402   0.874   1.735  16.038  0.1994  1.0867  1.8121
  631MPD2     N 9403   1.318   1.726  16.023 -0.1924 -0.0332  0.7906
  631MPD2    H5 9404   1.398   1.785  16.003 -1.9232  1.9950 -0.1132
  631MPD2    N1 9405   1.053   2.067  15.781 -0.1277 -0.1969 -0.1961
  631MPD2    H7 9406   0.961   2.109  15.768 -0.0050 -0.1838 -1.0821
  632TMC3    C1 9407   1.144   2.269  15.695 -0.0587  0.0726  0.1159
  632TMC3    C2 9408   1.064   2.343  15.780 -0.1822  0.7812  0.4447
  632TMC3    C3 9409   1.073   2.477  15.776  0.0498 -0.3685  0.1590
  632TMC3    C4 9410   1.222   2.324  15.601 -0.2691  0.0118  0.0028
  632TMC3    C5 9411   1.224   2.461  15.606  0.9744 -0.2982  0.7395
  632TMC3    C6 9412   1.159   2.539  15.689  0.7567 -0.0045  1.2194
  632TMC3     C 9413   1.162   2.126  15.719 -0.5483  0.2480 -0.3652
  632TMC3     O 9414   1.274   2.080  15.695 -0.0345 -0.4720  0.1254
  632TMC3     H 9415   0.998   2.298  15.854 -0.9648 -0.4728 -1.0238
  632TMC3    H1 9416   1.296   2.268  15.544  1.7474 -0.4083  3.0482
  632TMC3    H2 9417   1.156   2.647  15.676  2.7889 -0.0155  0.5626
  632TMC3    C7 9418   1.302   2.527  15.507 -0.7442  0.2365  0.5980
  632TMC3    C8 9419   1.001   2.554  15.875  0.5686  0.8776 -0.1736
  632TMC3    O1 9420   1.335   2.459  15.409 -0.1453  0.0972  0.8799
  632TMC3    O2 9421   0.895   2.507  15.916 -0.0800 -0.0482  0.2214
  633MPD2     C 9422   1.176   0.684  17.614  0.3754 -0.1047 -0.0473
  633MPD2    C1 9423   1.116   0.602  17.521  0.5616  0.4506 -0.7296
  633MPD2    C2 9424   1.102   0.466  17.554  0.0211 -0.2770 -0.0765
  633MPD2    C3 9425   1.146   0.412  17.676  0.1887 -0.1752 -1.0701
  633MPD2    C4 9426   1.215   0.500   0.016  1.2059 -0.0323 -0.2202
  633MPD2    C5 9427   1.221   0.632  17.731  0.4133  0.3598  0.0131
  633MPD2     H 9428   1.035   0.412  17.488 -1.1251  0.7188  0.2690
  633MPD2    H1 9429   1.256   0.469   0.112 -1.9020 -2.3689  0.3475
  633MPD2    H2 9430   1.190   0.790  17.594  0.6183 -0.2661 -0.7334
  633MPD2    H3 9431   1.277   0.699   0.045  2.1384 -2.4926  1.4210
  633MPD2     N 9432   1.134   0.281  17.721 -0.1386  0.2413  0.2158
  633MPD2    H5 9433   1.182   0.255   0.055  0.5938  0.5395 -0.1074
  633MPD2    N1 9434   1.065   0.644  17.399  0.2015 -0.4792  0.5653
  633MPD2    H7 9435   1.044   0.579  17.324  2.8344  0.0153 -0.6037
  634TMC3    C1 9436   0.987   0.787  17.236 -0.5775  0.0101  0.1607
  634TMC3    C2 9437   1.051   0.708  17.144  0.7068  0.5804 -0.4105
  634TMC3    C3 9438   1.023   0.713  17.011 -0.3069 -1.2215  0.0837
  634TMC3    C4 9439   0.896   0.887  17.194 -0.2124  0.6968  0.0150
  634TMC3    C5 9440   0.878   0.892  17.051  0.1160 -0.1207 -0.8176
  634TMC3    C6 9441   0.948   0.817  16.964  1.0382  0.1204 -0.3618
  634TMC3     C 9442   1.033   0.774  17.372 -0.1611 -0.3983  0.7431
  634TMC3     O 9443   1.002   0.853  17.456 -0.6983  0.2015  0.4040
  634TMC3     H 9444   1.113   0.624  17.173 -1.2249 -0.7211 -0.0996
  634TMC3    H1 9445   0.857   0.960  17.264  0.0417  0.4763  0.3865
  634TMC3    H2 9446   0.923   0.824  16.859  0.2115 -1.0536 -0.2433
  634TMC3    C7 9447   0.799   0.997  16.990  0.2579 -0.3193 -0.0404
  634TMC3    C8 9448   1.061   0.604  16.926 -0.4750 -0.2159 -0.2141
  634TMC3    O1 9449   0.830   1.026  16.876 -0.0686 -0.1874 -0.5055
  634TMC3    O2 9450   1.082   0.494  16.979 -0.7201 -0.0894  0.2122
  635TMC3    C1 9451   0.646   1.540   0.510 -0.0641 -0.5961 -0.0421
  635TMC3    C2 9452   0.704   1.477   0.404 -0.6141  0.0334  0.4059
  635TMC3    C3 9453   0.737   1.342   0.421  0.0923  0.3190  0.9734
  635TMC3    C4 9454   0.614   1.479   0.627  0.2799  0.0810  0.1277
  635TMC3    C5 9455   0.651   1.346   0.639  0.0926 -0.1418 -0.1238
  635TMC3    C6 9456   0.702   1.270   0.534 -0.2264 -0.1195 -0.7725
  635TMC3     C 9457   0.573   1.661   0.483 -0.0290 -0.2455 -0.0103
  635TMC3     O 9458   0.523   1.721   0.581  0.0553 -0.4486  0.1637
  635TMC3     H 9459   0.736   1.532   0.317  1.5265  1.5524  2.1519
  635TMC3    H1 9460   0.565   1.526   0.712  0.2839  2.0944 -0.9845
  635TMC3    H2 9461   0.736   1.170   0.554  1.0804  0.7899  1.4467
  635TMC3    C7 9462   0.585   1.264   0.742 -0.2417 -0.0175  0.5129
  635TMC3    C8 9463   0.806   1.281   0.307  0.1613 -0.0784 -0.1944
  635TMC3    O1 9464   0.551   1.150   0.714 -0.1834  0.2047 -0.4338
  635TMC3    O2 9465   0.799   1.345   0.202 -0.7839  0.2479 -0.6349
  636MPD2     C 9466   2.383   0.280  16.087  0.3048 -0.6387 -0.2969
  636MPD2    C1 9467   2.437   0.332  16.197 -0.4319  0.0990 -0.0586
  636MPD2    C2 9468   2.534   0.259  16.273 -0.2612 -0.3855 -0.1979
  636MPD2    C3 9469   2.566   0.134  16.227 -0.4155  0.0365 -0.3379
  636MPD2    C4 9470   2.519   0.080  16.112 -0.2348  0.0580  0.1350
  636MPD2    C5 9471   2.433   0.158  16.041  0.1848  0.2186  0.0912
  636MPD2     H 9472   2.573   0.298  16.367  0.3221  0.2305 -0.6997
  636MPD2    H1 9473   2.533   4.713  16.091 -2.0441 -0.0273 -0.5950
  636MPD2    H2 9474   2.311   0.324  16.020  1.1179  0.9784 -0.1182
  636MPD2    H3 9475   2.398   0.121  15.945  2.2825 -0.2844 -0.4682
  636MPD2     N 9476   2.663   0.068  16.308 -0.3930  0.3269  0.1341
  636MPD2    H5 9477   2.684   0.111  16.397  0.9892 -0.4857  0.1980
  636MPD2    N1 9478   2.403   0.463  16.243 -0.8570  0.5284 -0.0048
  636MPD2    H7 9479   2.452   0.500  16.324  1.9209  0.8746 -1.8743
  637TMC3    C1 9480   2.823   4.653  16.375 -0.2828 -0.2749  0.3682
  637TMC3    C2 9481   2.790   4.696  16.498 -0.0578 -0.7440  0.0479
  637TMC3    C3 9482   2.871   0.035  16.572 -0.5569  0.6590  0.0660
  637TMC3    C4 9483   2.947   4.676  16.330  0.0354  0.3255  0.0158
  637TMC3    C5 9484   3.026   0.024  16.408 -0.2121  0.0695 -0.6146
  637TMC3    C6 9485   2.994   0.061  16.535  0.4211  0.4035  0.2968
  637TMC3     C 9486   2.736   4.698  16.271  0.1714  0.0041  0.2136
  637TMC3     O 9487   2.744   4.636  16.166 -0.4053 -0.9330  0.0247
  637TMC3     H 9488   2.689   4.683  16.535 -0.4563 -3.7705 -2.0905
  637TMC3    H1 9489   2.977   4.648  16.230 -0.6698  2.9896 -0.9414
  637TMC3    H2 9490   3.045   0.135  16.597 -0.8281 -0.0143  1.8190
  637TMC3    C7 9491   3.053   0.142  16.335 -0.8533  0.6159  0.2026
  637TMC3    C8 9492   2.798   0.148  16.629 -0.5302 -0.6427 -0.1622
  637TMC3    O1 9493   3.046   0.245  16.402 -0.9278 -0.2036 -0.2357
  637TMC3    O2 9494   2.699   0.179  16.562  0.4713  0.8042  0.7217
  638MPD2     C 9495   1.921   4.495  15.024  0.0562  0.7352 -0.0192
  638MPD2    C1 9496   1.969   4.381  14.969  0.0417  0.1072  0.2139
  638MPD2    C2 9497   1.948   4.268  15.044  0.3929  0.5939  0.2697
  638MPD2    C3 9498   1.894   4.267  15.170  0.5209  0.1946 -0.2893
  638MPD2    C4 9499   1.852   4.385  15.231  0.1840 -0.3613  0.5330
  638MPD2    C5 9500   1.865   4.496  15.154  0.1209 -0.5038 -0.5656
  638MPD2     H 9501   1.986   4.171  15.017  1.1442  1.6929 -2.6116
  638MPD2    H1 9502   1.786   4.390  15.317  0.3794 -1.7805  0.7728
  638MPD2    H2 9503   1.902   4.582  14.962 -0.4617  1.7349  1.5475
  638MPD2    H3 9504   1.832   4.593  15.188 -0.0710 -1.2203  1.2786
  638MPD2     N 9505   1.860   4.139  15.225  0.1014  0.1114 -0.5197
  638MPD2    H5 9506   1.882   4.061  15.163 -0.7504  0.0954 -0.8038
  638MPD2    N1 9507   2.046   4.392  14.851 -0.1966 -0.3406 -0.3484
  638MPD2    H7 9508   2.076   4.484  14.822  0.1155 -0.1361  0.6124
  639TMC3    C1 9509   1.817   3.979  15.388 -0.1941 -0.4971 -0.1834
  639TMC3    C2 9510   1.759   3.894  15.297  1.1511  0.1366  0.3174
  639TMC3    C3 9511   1.704   3.780  15.337 -0.5941 -0.1001  0.5401
  639TMC3    C4 9512   1.822   3.938  15.515  0.0687 -0.5850 -0.0727
  639TMC3    C5 9513   1.770   3.822  15.557 -0.3180  0.6675  0.1541
  639TMC3    C6 9514   1.712   3.734  15.467 -0.4195  0.3571 -0.5990
  639TMC3     C 9515   1.827   4.116  15.358  0.0470  0.3101 -0.2915
  639TMC3     O 9516   1.817   4.197  15.449 -0.3733  0.4841 -0.3026
  639TMC3     H 9517   1.728   3.923  15.197  0.5796 -1.9006 -0.1092
  639TMC3    H1 9518   1.879   4.000  15.584 -0.0089 -0.6218  0.0234
  639TMC3    H2 9519   1.685   3.634  15.498  0.7890  0.2303  0.0708
  639TMC3    C7 9520   1.866   3.743  15.629  0.5200  0.3333  0.1292
  639TMC3    C8 9521   1.666   3.684  15.236 -0.2822 -0.2664 -0.4251
  639TMC3    O1 9522   1.816   3.654  15.701 -0.0142  0.5349  0.1731
  639TMC3    O2 9523   1.732   3.692  15.134  0.5590  0.0149 -0.2017
  640MPD2     C 9524   2.171   3.217  10.155  0.3679 -0.8416  1.4459
  640MPD2    C1 9525   2.063   3.232  10.069  0.5116 -0.3816  0.4855
  640MPD2    C2 9526   1.981   3.348  10.072 -0.6805  0.7249  0.0803
  640MPD2    C3 9527   2.014   3.446  10.166 -0.0009 -0.2626 -0.1898
  640MPD2    C4 9528   2.122   3.421  10.256  0.7685  0.1201  0.8365
  640MPD2    C5 9529   2.204   3.308  10.243  0.1774  0.1423 -0.0802
  640MPD2     H 9530   1.901   3.358  10.000 -1.3132 -0.6844  0.5885
  640MPD2    H1 9531   2.164   3.496  10.322 -0.3227  1.7212 -0.2697
  640MPD2    H2 9532   2.228   3.126  10.140 -1.1785 -1.3906 -1.2038
  640MPD2    H3 9533   2.293   3.290  10.303  0.1718 -0.1107 -0.1465
  640MPD2     N 9534   1.945   3.574  10.158 -0.1069  0.2763  0.3327
  640MPD2    H5 9535   1.873   3.585  10.087 -0.1476 -1.3389  0.1336
  640MPD2    N1 9536   2.038   3.119   9.978  0.6741  0.3144 -0.5681
  640MPD2    H7 9537   2.098   3.038   9.986 -0.9037 -0.8480 -0.4735
  641TMC3    C1 9538   1.952   2.976   9.807  0.3190  0.4036  0.6258
  641TMC3    C2 9539   2.073   2.920   9.792 -0.1618  0.1956 -0.0375
  641TMC3    C3 9540   2.073   2.813   9.709  0.5685  0.2682 -0.6290
  641TMC3    C4 9541   1.839   2.922   9.770 -1.5088 -0.0991  0.2310
  641TMC3    C5 9542   1.840   2.809   9.690  0.3742 -0.6240 -0.1735
  641TMC3    C6 9543   1.961   2.761   9.645 -0.5707  0.0552  0.3302
  641TMC3     C 9544   1.942   3.103   9.873  0.4271 -0.6303  0.1111
  641TMC3     O 9545   1.853   3.179   9.842  0.3317  0.4941  0.0498
  641TMC3     H 9546   2.162   2.979   9.811  0.2503 -0.8528  1.2497
  641TMC3    H1 9547   1.745   2.971   9.788 -0.9940 -0.3169  3.3654
  641TMC3    H2 9548   1.970   2.678   9.575 -0.3554  1.3739 -1.2213
  641TMC3    C7 9549   1.726   2.751   9.624 -0.5126  0.2949 -0.1031
  641TMC3    C8 9550   2.197   2.739   9.705 -0.2412  0.2978  0.5449
  641TMC3    O1 9551   1.744   2.673   9.528  0.1695 -0.1335  0.4740
  641TMC3    O2 9552   2.212   2.645   9.632 -0.4330  0.2532 -0.5109
  642TMC3    C1 9553   3.937   3.803  12.924  0.6464  0.5259  0.1947
  642TMC3    C2 9554   4.046   3.832  12.840 -0.2264 -1.0042  0.1448
  642TMC3    C3 9555   4.044   3.787  12.714  0.1611  0.5076  1.1465
  642TMC3    C4 9556   3.833   3.715  12.880 -0.4021 -0.0884  0.6710
  642TMC3    C5 9557   3.844   3.660  12.759 -0.1545  0.3385 -0.7903
  642TMC3    C6 9558   3.944   3.700  12.666  0.1671  0.1591 -0.5347
  642TMC3     C 9559   3.909   3.901  13.031  0.5446 -0.1207 -0.0769
  642TMC3     O 9560   4.005   3.965  13.071 -0.1787 -0.4698  0.0534
  642TMC3     H 9561   4.117   3.903  12.879  1.0618 -2.5301  0.5553
  642TMC3    H1 9562   3.771   3.682  12.962 -0.7716 -1.1685 -0.0402
  642TMC3    H2 9563   3.963   3.646  12.574 -1.1397  0.1272 -0.7934
  642TMC3    C7 9564   3.762   3.547  12.712 -0.1029  0.1382  0.1307
  642TMC3    C8 9565   4.143   3.836  12.623  0.1870 -0.1034 -0.2967
  642TMC3    O1 9566   3.789   3.496  12.601  0.5766  0.2752 -0.7692
  642TMC3    O2 9567   4.147   3.776  12.517 -0.6008 -0.0218  0.6723
  643TMC3    C1 9568   2.852   3.622   0.574  0.2866 -0.1800  0.4171
  643TMC3    C2 9569   2.724   3.611   0.527 -0.0854 -0.1741  0.1121
  643TMC3    C3 9570   2.686   3.501   0.448 -0.3853  0.4238 -0.1613
  643TMC3    C4 9571   2.947   3.527   0.554 -0.1074 -0.5245  0.5416
  643TMC3    C5 9572   2.906   3.419   0.485 -0.3253 -0.0055  0.6870
  643TMC3    C6 9573   2.777   3.398   0.443  0.4878 -0.5554 -0.1283
  643TMC3     C 9574   2.872   3.749   0.649  0.1348  0.5052 -0.0855
  643TMC3     O 9575   2.809   3.849   0.614 -0.4598  0.1003  0.0121
  643TMC3     H 9576   2.655   3.692   0.545  0.1489  0.1048 -0.2541
  643TMC3    H1 9577   3.032   3.528   0.622  0.4957  0.0146 -0.2153
  643TMC3    H2 9578   2.754   3.315   0.377  0.6076 -0.5081 -0.2316
  643TMC3    C7 9579   2.990   3.300   0.499  0.6388  0.3202 -0.0026
  643TMC3    C8 9580   2.654   3.547   0.313  0.3789 -0.0624 -0.0594
  643TMC3    O1 9581   3.065   3.294   0.601  0.2120 -0.2617  0.3045
  643TMC3    O2 9582   2.610   3.474   0.223  0.0031 -0.1580 -0.4943
  644MPD2     C 9583   2.232   3.721   9.969  0.3873  0.0331 -0.8204
  644MPD2    C1 9584   2.189   3.630   9.880  0.2380 -0.5500 -0.1019
  644MPD2    C2 9585   2.083   3.668   9.809 -0.6930  0.3677  0.4220
  644MPD2    C3 9586   2.011   3.783   9.827 -0.4394 -0.2796  0.4908
  644MPD2    C4 9587   2.047   3.871   9.927  0.2804 -0.1229  0.0906
  644MPD2    C5 9588   2.166   3.844   9.985  0.8462 -0.1349  0.1834
  644MPD2     H 9589   2.059   3.612   9.719 -1.2615  0.8584  0.2721
  644MPD2    H1 9590   2.013   3.973   9.941  0.3180  0.1240 -1.6820
  644MPD2    H2 9591   2.325   3.711  10.023 -0.1141 -3.0861 -0.5666
  644MPD2    H3 9592   2.216   3.916  10.049  0.6940  2.7489 -2.8798
  644MPD2     N 9593   1.902   3.816   9.748  0.5359 -0.0779  0.2136
  644MPD2    H5 9594   1.859   3.746   9.689  1.2330  2.8811 -3.7775
  644MPD2    N1 9595   2.255   3.506   9.860  0.0010  0.3706  0.1940
  644MPD2    H7 9596   2.344   3.491   9.905  0.3209 -1.8609 -1.1846
  645TMC3    C1 9597   1.705   3.920   9.678  0.0833 -0.8994 -0.2402
  645TMC3    C2 9598   1.624   4.033   9.673  0.9506  0.1672  0.1663
  645TMC3    C3 9599   1.493   4.008   9.653 -0.0800  0.5324  0.1805
  645TMC3    C4 9600   1.664   3.803   9.635 -0.7693  0.7725 -0.6311
  645TMC3    C5 9601   1.532   3.787   9.593  0.2746 -0.5719  0.1228
  645TMC3    C6 9602   1.440   3.889   9.598 -0.2234 -0.1157 -0.5973
  645TMC3     C 9603   1.830   3.933   9.755  0.0617  0.2163  0.0797
  645TMC3     O 9604   1.841   4.043   9.813 -0.0797 -0.3423 -0.4171
  645TMC3     H 9605   1.663   4.121   9.723 -1.3553  0.9525  0.5599
  645TMC3    H1 9606   1.733   3.720   9.628 -1.3963  0.2216 -0.1782
  645TMC3    H2 9607   1.335   3.876   9.573 -0.0637 -0.5602 -1.0307
  645TMC3    C7 9608   1.473   3.655   9.611 -0.3800  0.3449  0.4297
  645TMC3    C8 9609   1.390   4.111   9.696 -0.5500 -0.3300 -0.5549
  645TMC3    O1 9610   1.535   3.582   9.688  0.8330  0.2361  0.5285
  645TMC3    O2 9611   1.276   4.103   9.647  0.2036  0.0975  0.8856
  646MPD2     C 9612   2.224   2.958  14.785 -0.0834 -0.0274  0.0908
  646MPD2    C1 9613   2.151   3.039  14.875  0.2453 -0.3540  0.3596
  646MPD2    C2 9614   2.053   3.128  14.829  0.6066  0.0206  0.9573
  646MPD2    C3 9615   2.030   3.139  14.695  0.1848 -0.7261  0.6026
  646MPD2    C4 9616   2.113   3.064  14.609  0.0177 -0.0162  0.1348
  646MPD2    C5 9617   2.205   2.976  14.653 -0.8803  0.4760 -0.0172
  646MPD2     H 9618   1.982   3.172  14.898 -1.8890 -0.1113 -1.4810
  646MPD2    H1 9619   2.109   3.079  14.502  2.2697 -1.0497 -0.1115
  646MPD2    H2 9620   2.300   2.885  14.812 -0.1933 -0.8618 -1.8706
  646MPD2    H3 9621   2.278   2.917  14.599 -0.8386  0.3767  0.1472
  646MPD2     N 9622   1.922   3.221  14.650  0.4016 -0.6370  0.5327
  646MPD2    H5 9623   1.881   3.282  14.720 -0.8359  0.4952 -1.1810
  646MPD2    N1 9624   2.175   3.017  15.015  0.1090  0.0981 -0.3463
  646MPD2    H7 9625   2.247   2.951  15.040  0.3352  0.3626 -0.2976
  647TMC3    C1 9626   2.147   3.046  15.249 -0.0175  0.3349 -0.0752
  647TMC3    C2 9627   2.049   3.038  15.351  0.2726  0.7596 -0.7543
  647TMC3    C3 9628   2.087   2.982  15.467 -0.3148 -0.1409  0.4917
  647TMC3    C4 9629   2.276   3.014  15.279  0.1771 -0.1733  0.0883
  647TMC3    C5 9630   2.310   2.963  15.398 -0.0635 -0.3278  0.5533
  647TMC3    C6 9631   2.216   2.928  15.494 -0.4184 -0.4591 -0.2543
  647TMC3     C 9632   2.098   3.063  15.117 -0.2281  0.0120 -0.3129
  647TMC3     O 9633   1.997   3.129  15.103 -0.1016  0.3739  0.0646
  647TMC3     H 9634   1.941   3.046  15.337  0.2655  1.5212 -0.2580
  647TMC3    H1 9635   2.354   3.035  15.207  0.0755 -0.3787 -0.0793
  647TMC3    H2 9636   2.252   2.894  15.590  0.2495  1.2164  0.1029
  647TMC3    C7 9637   2.447   2.934  15.423  0.3337  0.8562  0.2191
  647TMC3    C8 9638   1.982   2.916  15.541  0.1177 -0.2562  0.1004
  647TMC3    O1 9639   2.507   2.875  15.331  0.1276 -0.0494 -0.6568
  647TMC3    O2 9640   1.874   2.973  15.551 -0.1354  0.2000 -0.7743
  648TMC3    C1 9641   1.391   0.714  16.447 -0.1601  0.5399 -0.0394
  648TMC3    C2 9642   1.502   0.641  16.425 -0.3140  0.1510 -0.0485
  648TMC3    C3 9643   1.517   0.605  16.294 -0.2660 -1.1568  0.0513
  648TMC3    C4 9644   1.305   0.746  16.353 -0.5215 -0.7972  0.0513
  648TMC3    C5 9645   1.328   0.719  16.221  0.7652  0.3276  0.4408
  648TMC3    C6 9646   1.437   0.645  16.188  0.6418  0.5206  0.1030
  648TMC3     C 9647   1.388   0.770  16.575  0.5647 -0.3271  0.4520
  648TMC3     O 9648   1.333   0.882  16.586 -0.2217 -0.2851  0.6461
  648TMC3     H 9649   1.582   0.627  16.497 -0.3460 -0.2015 -0.0817
  648TMC3    H1 9650   1.215   0.800  16.381  0.6373  1.6260 -0.8771
  648TMC3    H2 9651   1.461   0.611  16.088 -1.2962 -2.9791  0.8460
  648TMC3    C7 9652   1.222   0.718  16.122 -0.1348 -0.3975 -0.4936
  648TMC3    C8 9653   1.632   0.518  16.275 -0.2178  0.2086  0.6262
  648TMC3    O1 9654   1.208   0.630  16.036  0.0608 -0.3556  0.7367
  648TMC3    O2 9655   1.721   0.531  16.357  0.3380  0.5016  0.4036
  649TMC3    C1 9656   0.781   1.850  13.160  0.2152  0.4811  0.4997
  649TMC3    C2 9657   0.906   1.803  13.172 -0.1586 -0.2359 -0.1983
  649TMC3    C3 9658   0.927   1.705  13.267  0.8251  0.1092  0.5295
  649TMC3    C4 9659   0.682   1.793  13.234  0.2879  0.1698 -0.7019
  649TMC3    C5 9660   0.710   1.701  13.330 -0.9862  0.2483 -0.4945
  649TMC3    C6 9661   0.833   1.654  13.348  0.7246 -0.6610 -0.1715
  649TMC3     C 9662   0.745   1.947  13.059  0.0457 -0.4240 -0.4759
  649TMC3     O 9663   0.628   1.941  13.024 -0.0398  0.0106  0.1402
  649TMC3     H 9664   0.979   1.828  13.096 -0.2873 -2.1298 -0.9179
  649TMC3    H1 9665   0.581   1.825  13.208  1.4111  0.8903 -4.1074
  649TMC3    H2 9666   0.852   1.578  13.422 -2.2555  2.0322  3.3838
  649TMC3    C7 9667   0.608   1.691  13.430  0.3746  0.6101 -0.0259
  649TMC3    C8 9668   1.043   1.622  13.238  0.1246 -0.0221 -0.0481
  649TMC3    O1 9669   0.531   1.786  13.446  0.5675 -0.1070  0.2273
  649TMC3    O2 9670   1.125   1.685  13.177 -0.3060 -0.6176  0.1932
  650TMC3    C1 9671   3.035   3.154  12.826 -0.2624  0.2957  0.0922
  650TMC3    C2 9672   3.037   3.288  12.856  0.0664 -0.2343  0.2146
  650TMC3    C3 9673   2.948   3.368  12.797  0.5659 -0.6139  0.2584
  650TMC3    C4 9674   2.948   3.107  12.728  0.1961 -0.0500  0.1499
  650TMC3    C5 9675   2.865   3.201  12.672  0.8791  0.1098  0.3126
  650TMC3    C6 9676   2.863   3.333  12.698  0.4329  0.0793 -0.2691
  650TMC3     C 9677   3.097   3.072  12.927  0.4371 -0.3156  0.3017
  650TMC3     O 9678   3.108   3.123  13.039  0.0145 -0.3996  0.2953
  650TMC3     H 9679   3.103   3.314  12.938 -0.2500 -0.3880  0.5149
  650TMC3    H1 9680   2.925   3.002  12.712  0.3231  0.0746 -0.8395
  650TMC3    H2 9681   2.792   3.401  12.652  1.4394  0.0607 -1.8680
  650TMC3    C7 9682   2.765   3.154  12.582  0.4054 -0.0339 -0.3652
  650TMC3    C8 9683   2.936   3.495  12.862 -0.7029 -0.1299  0.4597
  650TMC3    O1 9684   2.728   3.038  12.606  0.2889  0.0605  0.1620
  650TMC3    O2 9685   3.037   3.556  12.891 -0.4447 -0.1502  0.2457
  651MPD2     C 9686   2.180   1.129  11.509 -0.6537 -0.5950 -0.1056
  651MPD2    C1 9687   2.120   1.175  11.390  0.6173  0.1103 -0.4303
  651MPD2    C2 9688   2.201   1.220  11.289 -0.1719  0.7543 -0.2260
  651MPD2    C3 9689   2.338   1.216  11.299  0.0055 -0.1311  0.1101
  651MPD2    C4 9690   2.398   1.152  11.405 -0.0769 -0.1129  0.5381
  651MPD2    C5 9691   2.319   1.109  11.509  0.5729 -0.1487 -0.5308
  651MPD2     H 9692   2.155   1.240  11.193 -3.3623 -2.0183  0.7601
  651MPD2    H1 9693   2.504   1.134  11.415 -0.0835 -0.0775  0.6766
  651MPD2    H2 9694   2.125   1.093  11.595 -0.6365 -3.3270 -1.2272
  651MPD2    H3 9695   2.371   1.069  11.595 -1.0529 -0.5881  0.2442
  651MPD2     N 9696   2.426   1.273  11.209  0.4016 -0.2941  0.0635
  651MPD2    H5 9697   2.523   1.263  11.239 -0.0830  1.8329  2.2515
  651MPD2    N1 9698   1.981   1.186  11.375 -0.3684  0.0424  0.1164
  651MPD2    H7 9699   1.956   1.245  11.297 -0.2868 -1.2064 -0.8583
  652TMC3    C1 9700   2.722   1.332  10.975  0.3472 -0.5017 -0.1257
  652TMC3    C2 9701   2.608   1.301  11.032  0.4822  0.1437 -0.0201
  652TMC3    C3 9702   2.495   1.374  11.012 -0.2810  0.0297 -0.2734
  652TMC3    C4 9703   2.719   1.447  10.900  0.6852 -0.2936  0.2233
  652TMC3    C5 9704   2.610   1.524  10.887  0.3328 -1.2378  0.2385
  652TMC3    C6 9705   2.489   1.484  10.933  0.0488 -0.4162 -0.8368
  652TMC3     C 9706   2.852   1.262  10.999  0.2847  0.3904  0.2979
  652TMC3     O 9707   2.848   1.174  11.086 -0.5255 -0.6620 -0.3252
  652TMC3     H 9708   2.594   1.206  11.081 -0.7043 -0.5491 -1.7139
  652TMC3    H1 9709   2.806   1.491  10.853  0.9640 -0.8902  0.1815
  652TMC3    H2 9710   2.399   1.540  10.911  1.7516  3.5908  2.3404
  652TMC3    C7 9711   2.625   1.653  10.834  0.5425 -0.3993  0.5558
  652TMC3    C8 9712   2.391   1.350  11.103  0.2952 -0.7249 -0.0079
  652TMC3    O1 9713   2.549   1.700  10.752  0.3852  0.1893 -0.3899
  652TMC3    O2 9714   2.279   1.405  11.081 -0.0472  0.0062  0.1637
  653MPD2     C 9715   0.589   0.699   0.237  0.4852  0.5272 -0.4035
  653MPD2    C1 9716   0.503   0.776   0.164 -0.5749  0.1582  0.7165
  653MPD2    C2 9717   0.446   0.719   0.047 -0.2693 -0.3410  0.3481
  653MPD2    C3 9718   0.477   0.591   0.017  0.2118 -0.5290 -0.4843
  653MPD2    C4 9719   0.550   0.512   0.106  0.4893  0.1726 -0.5283
  653MPD2    C5 9720   0.615   0.567   0.213  0.0817 -0.5078 -0.2690
  653MPD2     H 9721   0.384   0.785  17.739  0.5268  0.2468  0.1811
  653MPD2    H1 9722   0.567   0.407   0.088 -1.5609 -0.9641  4.2487
  653MPD2    H2 9723   0.630   0.742   0.328 -1.0750  2.2182 -0.4969
  653MPD2    H3 9724   0.672   0.503   0.278  0.2438  0.3610  0.4339
  653MPD2     N 9725   0.423   0.545  17.645  0.3361 -0.2610  0.1103
  653MPD2    H5 9726   0.365   0.612  17.595  0.0903  0.4081  1.2951
  653MPD2    N1 9727   0.484   0.912   0.195  0.2923 -0.4286  0.4346
  653MPD2    H7 9728   0.419   0.975   0.150 -0.1630 -0.6085  0.8274
  654TMC3    C1 9729   0.364   0.398  17.473 -0.2087  0.2584 -0.4046
  654TMC3    C2 9730   0.271   0.486  17.417  0.0429 -0.7989 -0.4470
  654TMC3    C3 9731   0.206   0.439  17.310 -0.1639  0.6243 -0.7336
  654TMC3    C4 9732   0.380   0.267  17.433  0.4977  0.0206 -0.3859
  654TMC3    C5 9733   0.289   0.220  17.339  0.5561 -0.8061  0.0027
  654TMC3    C6 9734   0.216   0.312  17.269 -0.0602 -0.6158  0.2506
  654TMC3     C 9735   0.434   0.414  17.600  0.5955  0.3723  0.4950
  654TMC3     O 9736   0.469   0.312  17.655  0.3712 -0.3653 -0.0783
  654TMC3     H 9737   0.268   0.589  17.451  0.7991 -0.2174 -2.1259
  654TMC3    H1 9738   0.472   0.211  17.448  0.4497  0.0378 -0.0478
  654TMC3    H2 9739   0.153   0.275  17.189  0.3385  0.6792 -0.6602
  654TMC3    C7 9740   0.298   0.083  17.294 -0.4616  0.3266  0.3617
  654TMC3    C8 9741   0.159   0.540  17.220 -0.2505 -0.3124  0.9249
  654TMC3    O1 9742   0.262   0.057  17.179 -0.0831  0.0791 -0.7121
  654TMC3    O2 9743   0.071   0.619  17.251  0.1640 -0.3841  0.7672
  655MPD2     C 9744   1.845   0.719  16.068 -0.1627  0.6506  0.1064
  655MPD2    C1 9745   1.749   0.757  15.974  0.2370 -0.3878  0.4605
  655MPD2    C2 9746   1.753   0.688  15.852  0.1053  0.1660 -0.1013
  655MPD2    C3 9747   1.855   0.610  15.815 -1.0435 -0.2753  0.1921
  655MPD2    C4 9748   1.956   0.591  15.901 -0.6091 -1.3888  0.0949
  655MPD2    C5 9749   1.941   0.635  16.030 -1.0419  0.0940  0.7580
  655MPD2     H 9750   1.680   0.704  15.774 -1.3935 -2.6717  0.7033
  655MPD2    H1 9751   2.043   0.528  15.885  1.4430  2.4103 -3.6364
  655MPD2    H2 9752   1.849   0.763  16.167  0.2464  0.1276  0.3174
  655MPD2    H3 9753   2.016   0.606  16.102  2.8457  3.7141 -1.8012
  655MPD2     N 9754   1.849   0.545  15.696  0.2483 -0.3735  0.3297
  655MPD2    H5 9755   1.764   0.542  15.639  2.2110  0.5044 -2.6418
  655MPD2    N1 9756   1.655   0.862  15.993  0.1363 -0.4433 -0.9760
  655MPD2    H7 9757   1.602   0.897  15.913 -2.3264 -0.3164  0.7295
  656TMC3    C1 9758   1.528   1.034  16.102 -0.2861  0.2262 -0.3742
  656TMC3    C2 9759   1.464   1.074  16.216 -0.1719  0.0254  0.8678
  656TMC3    C3 9760   1.375   1.177  16.221  0.0470  0.0446  1.0380
  656TMC3    C4 9761   1.499   1.095  15.977 -0.0648  0.3650  0.0876
  656TMC3    C5 9762   1.401   1.186  15.985 -0.0562 -0.3864  0.0480
  656TMC3    C6 9763   1.338   1.227  16.102  0.6141 -0.1062 -0.2717
  656TMC3     C 9764   1.626   0.923  16.108  0.1619 -0.3231  0.5876
  656TMC3     O 9765   1.663   0.888  16.216 -0.3540  0.1009  0.2533
  656TMC3     H 9766   1.482   1.020  16.309  1.0266 -0.1132  0.5505
  656TMC3    H1 9767   1.547   1.069  15.884 -1.8118  0.1393 -0.7508
  656TMC3    H2 9768   1.282   1.320  16.099  0.0445 -0.5248 -2.5292
  656TMC3    C7 9769   1.391   1.266  15.860  0.4928 -0.0570  0.1633
  656TMC3    C8 9770   1.269   1.138  16.311 -0.1063 -0.0587 -0.1592
  656TMC3    O1 9771   1.488   1.271  15.784  0.1489  0.1616  0.1640
  656TMC3    O2 9772   1.226   1.024  16.294 -0.3847 -0.3160  0.1846
  657TMC3    C1 9773   0.910   4.669  14.895  0.3900 -0.3116 -0.1490
  657TMC3    C2 9774   0.873   4.658  15.023  0.6122 -0.2227 -0.1815
  657TMC3    C3 9775   0.841   0.040  15.092 -0.3359  0.0419  0.2790
  657TMC3    C4 9776   0.909   0.053  14.833 -0.7174 -0.4324  0.4006
  657TMC3    C5 9777   0.871   0.169  14.907 -0.6487 -0.9280 -0.0345
  657TMC3    C6 9778   0.849   0.167  15.044 -0.6788 -0.2554  0.0938
  657TMC3     C 9779   0.973   4.562  14.833 -0.1133 -0.0670  0.3263
  657TMC3     O 9780   0.966   4.558  14.712 -0.8239 -0.2452  0.1269
  657TMC3     H 9781   0.872   4.560  15.070 -0.3986 -0.7510 -1.3002
  657TMC3    H1 9782   0.945   0.053  14.731  0.1793  0.1056  0.7152
  657TMC3    H2 9783   0.813   0.258  15.089 -1.5317 -0.1881 -0.7327
  657TMC3    C7 9784   0.847   0.291  14.833  0.3554 -0.3498 -0.2494
  657TMC3    C8 9785   0.793   0.008  15.228  0.2047  0.0695  0.3244
  657TMC3    O1 9786   0.778   0.385  14.879 -0.1154  0.3610  0.3393
  657TMC3    O2 9787   0.778   4.628  15.250  0.2480  0.3545  0.7306
  658MPD2     C 9788   2.176   0.104  14.959  1.0942  0.2744  0.3596
  658MPD2    C1 9789   2.136   0.234  14.990 -0.4468 -0.0478 -0.4038
  658MPD2    C2 9790   2.142   0.327  14.887  0.1618 -0.1776  0.1789
  658MPD2    C3 9791   2.190   0.293  14.763 -0.2985  0.1544 -0.4150
  658MPD2    C4 9792   2.252   0.172  14.741  0.6499 -0.0961 -0.1620
  658MPD2    C5 9793   2.236   0.073  14.836 -0.7202  0.2384  0.5390
  658MPD2     H 9794   2.103   0.426  14.910  1.5720  0.7275 -1.3497
  658MPD2    H1 9795   2.310   0.139  14.656 -0.6784 -2.4836 -0.1428
  658MPD2    H2 9796   2.153   0.025  15.030 -0.7918 -0.9580 -1.6071
  658MPD2    H3 9797   2.273   4.710  14.829  0.9317  0.8686 -0.0941
  658MPD2     N 9798   2.185   0.386  14.660 -0.4035 -0.0072  0.6819
  658MPD2    H5 9799   2.114   0.458  14.673 -0.7719 -0.6725  2.3477
  658MPD2    N1 9800   2.079   0.260  15.117  0.0812  0.7715  0.2052
  658MPD2    H7 9801   2.085   0.183  15.183 -0.8011  1.4607  1.0995
  659TMC3    C1 9802   1.968   0.374  15.286  0.1566 -0.2843  0.3476
  659TMC3    C2 9803   2.005   0.447  15.400  0.2269 -0.4005 -0.3584
  659TMC3    C3 9804   1.930   0.422  15.510  0.5434  0.0743 -0.3979
  659TMC3    C4 9805   1.869   0.277  15.289  0.4232 -0.0791 -0.4149
  659TMC3    C5 9806   1.788   0.270  15.398 -0.2954 -0.3757 -0.1431
  659TMC3    C6 9807   1.808   0.356  15.499 -0.3234 -0.4601  0.2639
  659TMC3     C 9808   2.047   0.383  15.168 -0.4686  0.0973 -0.8915
  659TMC3     O 9809   2.081   0.491  15.122 -0.5528 -0.1388  0.2220
  659TMC3     H 9810   2.099   0.500  15.405 -0.8914  1.2992  2.4972
  659TMC3    H1 9811   1.847   0.222  15.197  1.6627 -1.1373 -0.0882
  659TMC3    H2 9812   1.743   0.344  15.585  0.6236  0.3881  1.0961
  659TMC3    C7 9813   1.652   0.228  15.373 -0.3884 -0.1678 -0.2440
  659TMC3    C8 9814   1.960   0.511  15.626 -0.5672  0.1970  0.3114
  659TMC3    O1 9815   1.576   0.215  15.472 -0.1491 -0.4529  0.0998
  659TMC3    O2 9816   2.079   0.526  15.644 -0.4778  0.1518 -0.1291
  660MPD2     C 9817   0.160   4.517  13.045  0.1070 -0.2567  0.5490
  660MPD2    C1 9818   0.031   4.570  13.049  0.4855 -0.9985  0.0157
  660MPD2    C2 9819   4.686   4.538  13.156  0.1590 -0.3229  0.1851
  660MPD2    C3 9820   4.734   4.457  13.256 -0.4100 -0.6063 -0.0960
  660MPD2    C4 9821   0.128   4.423  13.262 -0.0367  1.0678  0.6804
  660MPD2    C5 9822   0.204   4.448  13.157 -0.3810 -0.2689 -0.3569
  660MPD2     H 9823   4.580   4.559  13.146  0.0526  0.0328  2.1237
  660MPD2    H1 9824   0.157   4.364  13.348 -0.7028  0.9921  0.8466
  660MPD2    H2 9825   0.219   4.546  12.959 -0.8418 -0.5539 -0.2014
  660MPD2    H3 9826   0.305   4.409  13.160 -0.1663  0.2424 -0.8722
  660MPD2     N 9827   4.646   4.390  13.338 -0.0838  0.3364  0.4746
  660MPD2    H5 9828   4.677   4.322  13.407  0.7813 -1.6903 -1.9185
  660MPD2    N1 9829   4.719   4.646  12.938  0.1337  0.4508  0.0124
  660MPD2    H7 9830   0.038   4.647  12.853 -0.3109 -0.8410 -0.3037
  661TMC3    C1 9831   4.550   4.723  12.793  0.3056  0.3532 -0.3038
  661TMC3    C2 9832   4.629   4.723  12.683 -0.5258 -0.3996 -0.5600
  661TMC3    C3 9833   4.573   4.690  12.562 -0.4015  0.4210  0.1647
  661TMC3    C4 9834   4.416   4.690  12.776  0.6879  0.0494  0.6992
  661TMC3    C5 9835   4.369   4.632  12.661  0.4475  0.3060  0.0207
  661TMC3    C6 9836   4.452   4.632  12.551  0.6219  0.8648 -0.4143
  661TMC3     C 9837   4.605   4.719  12.928  0.4337  0.3362  0.7374
  661TMC3     O 9838   4.514   4.728  13.011 -1.1325  0.0153 -0.3199
  661TMC3     H 9839   4.734   0.011  12.683 -1.0653  1.8032 -0.4911
  661TMC3    H1 9840   4.351   4.700  12.862 -1.3250 -0.8162 -0.7113
  661TMC3    H2 9841   4.415   4.621  12.450 -2.7040  1.5947  0.7081
  661TMC3    C7 9842   4.232   4.590  12.663  0.1791  0.1067 -0.2938
  661TMC3    C8 9843   4.665   4.690  12.453  0.3027  0.4374 -0.4263
  661TMC3    O1 9844   4.150   4.645  12.733  0.1146 -0.4417  0.7107
  661TMC3    O2 9845   0.019   0.034  12.455  0.2482 -0.1068  1.1071
  662MPD2     C 9846   0.454   3.907  17.527 -0.2253 -0.0361 -0.1638
  662MPD2    C1 9847   0.320   3.904  17.491  0.0417 -0.2049  0.2383
  662MPD2    C2 9848   0.227   3.945  17.587  0.1592  0.2796  0.4879
  662MPD2    C3 9849   0.262   4.012  17.700  0.4929  0.2049  0.0946
  662MPD2    C4 9850   0.394   4.018  17.731  0.4445  0.3470 -0.4848
  662MPD2    C5 9851   0.487   3.964  17.646 -0.2502  0.4606  0.6098
  662MPD2     H 9852   0.121   3.933  17.569  0.3814  1.1071 -1.3715
  662MPD2    H1 9853   0.430   4.070   0.068 -1.9273  0.2530  0.5426
  662MPD2    H2 9854   0.536   3.871  17.466  0.5318  1.0996  0.1727
  662MPD2    H3 9855   0.588   3.976  17.682  1.0803  0.0758 -3.0411
  662MPD2     N 9856   0.178   4.074   0.040  0.3679 -0.6944  0.2952
  662MPD2    H5 9857   0.217   4.112   0.127 -0.4903 -3.8525  2.0452
  662MPD2    N1 9858   0.274   3.827  17.382  0.1342 -0.2136 -0.5929
  662MPD2    H7 9859   0.172   3.825  17.382  0.1238  0.0077  0.5843
  663TMC3    C1 9860   0.267   3.665  17.222  0.2546  0.3402  0.0780
  663TMC3    C2 9861   0.133   3.662  17.232  0.0707  0.1731  0.2532
  663TMC3    C3 9862   0.059   3.572  17.153 -0.1760 -0.2077 -0.4484
  663TMC3    C4 9863   0.329   3.561  17.161 -0.1664  0.2355 -0.1253
  663TMC3    C5 9864   0.255   3.453  17.113 -0.8265 -0.7218  0.4709
  663TMC3    C6 9865   0.126   3.460  17.107  0.3238  0.9057  0.4676
  663TMC3     C 9866   0.354   3.760  17.291  0.0336  0.0771  0.0519
  663TMC3     O 9867   0.475   3.767  17.279 -0.1179  0.0857  0.2798
  663TMC3     H 9868   0.081   3.757  17.236 -1.8762 -0.8910  0.1897
  663TMC3    H1 9869   0.437   3.551  17.157  0.0179  1.6341  1.6234
  663TMC3    H2 9870   0.067   3.383  17.057  0.0340  0.2334  1.8381
  663TMC3    C7 9871   0.304   3.327  17.140 -0.8735 -0.2252 -0.0903
  663TMC3    C8 9872   4.660   3.551  17.187 -0.5862 -0.3393  0.0490
  663TMC3    O1 9873   0.378   3.282  17.053  0.4069 -0.9124  0.4308
  663TMC3    O2 9874   4.596   3.466  17.122  0.3583 -0.4196 -1.0063
  664MPD2     C 9875   2.988   2.144   0.074 -0.8875 -0.4161 -0.3392
  664MPD2    C1 9876   3.000   2.275   0.112  0.3128 -0.4045  0.1100
  664MPD2    C2 9877   2.931   2.310   0.223  0.0635  0.0659 -0.1477
  664MPD2    C3 9878   2.844   2.228   0.289 -0.6943 -0.4215 -0.0025
  664MPD2    C4 9879   2.831   2.096   0.242  0.3237  0.1863 -0.3688
  664MPD2    C5 9880   2.904   2.055   0.130  0.2312 -0.4274 -0.2150
  664MPD2     H 9881   2.939   2.414   0.253  1.8084  0.0139 -0.4431
  664MPD2    H1 9882   2.768   2.025   0.295  1.4209 -0.8540 -0.4784
  664MPD2    H2 9883   3.047   2.110  17.741  0.3007 -1.2783  0.8539
  664MPD2    H3 9884   2.889   1.954   0.092 -1.8713 -0.6068  1.1050
  664MPD2     N 9885   2.779   2.280   0.405  0.6210 -0.5761  0.8383
  664MPD2    H5 9886   2.803   2.377   0.426 -1.0550 -0.0426  0.2930
  664MPD2    N1 9887   3.084   2.370   0.042 -0.0109 -1.6087 -0.3520
  664MPD2    H7 9888   3.080   2.466   0.077  0.2973 -0.9600 -2.1041
  665TMC3    C1 9889   2.674   2.290   0.605 -0.2742 -0.0128 -0.7645
  665TMC3    C2 9890   2.546   2.321   0.629  0.1026  0.3266 -0.0375
  665TMC3    C3 9891   2.523   2.415   0.732  0.5678  0.4409  0.1076
  665TMC3    C4 9892   2.775   2.355   0.675  0.4773 -0.7634 -0.3510
  665TMC3    C5 9893   2.753   2.445   0.770 -0.0706  0.0918 -0.5852
  665TMC3    C6 9894   2.625   2.476   0.802 -0.2121  0.2131  0.7712
  665TMC3     C 9895   2.703   2.209   0.489 -0.4455  0.4324 -0.0390
  665TMC3     O 9896   2.650   2.101   0.473 -0.1677 -0.5760  0.0176
  665TMC3     H 9897   2.471   2.273   0.567 -1.7568  0.6828  1.9168
  665TMC3    H1 9898   2.880   2.337   0.655  0.8279  1.9542 -1.0433
  665TMC3    H2 9899   2.588   2.551   0.870  0.7211  1.3754 -0.0039
  665TMC3    C7 9900   2.855   2.547   0.784 -0.3182 -0.0323  0.0957
  665TMC3    C8 9901   2.400   2.411   0.802  0.2932  0.7422 -0.1664
  665TMC3    O1 9902   2.942   2.553   0.698  0.0834  0.0674 -0.8736
  665TMC3    O2 9903   2.393   2.458   0.913 -0.0307 -0.6043 -0.3854
  666TMC3    C1 9904   1.865   1.770  10.207 -0.2110 -0.2660  0.6447
  666TMC3    C2 9905   1.988   1.805  10.150  0.1043 -0.3847 -0.4176
  666TMC3    C3 9906   1.988   1.908  10.061 -0.3467  0.2583 -0.3957
  666TMC3    C4 9907   1.752   1.836  10.167  0.1165  0.3079 -0.2271
  666TMC3    C5 9908   1.760   1.924  10.065 -0.1945  1.2031  0.6259
  666TMC3    C6 9909   1.879   1.972  10.019 -0.4325 -0.3541  0.2691
  666TMC3     C 9910   1.877   1.707  10.332 -0.7467 -0.6565 -1.1033
  666TMC3     O 9911   1.989   1.707  10.382  0.0826  1.2224  0.3289
  666TMC3     H 9912   2.082   1.754  10.166 -0.4335 -1.7275 -1.6044
  666TMC3    H1 9913   1.659   1.827  10.223  0.6758 -1.1403  0.4444
  666TMC3    H2 9914   1.895   2.062   9.960  2.2048 -1.1706 -0.2778
  666TMC3    C7 9915   1.653   2.025  10.070  0.6608  0.3774 -1.2370
  666TMC3    C8 9916   2.123   1.960  10.036  0.2537 -1.0877  0.0639
  666TMC3    O1 9917   1.554   2.003  10.140 -0.1054 -0.3346  0.2647
  666TMC3    O2 9918   2.216   1.904  10.090 -0.2242 -0.8146  0.2247
  667MPD2     C 9919   3.921   2.118  14.731  0.3353 -0.5307 -0.1061
  667MPD2    C1 9920   3.802   2.176  14.767 -0.5830  0.1079  0.8584
  667MPD2    C2 9921   3.682   2.127  14.725  0.2967  0.1042 -0.2544
  667MPD2    C3 9922   3.677   2.021  14.635  0.4183 -0.0783  0.1360
  667MPD2    C4 9923   3.796   1.953  14.608  0.1991 -0.4637  0.2881
  667MPD2    C5 9924   3.918   2.004  14.661  0.5381 -0.0212  0.6827
  667MPD2     H 9925   3.595   2.183  14.759 -0.7545 -1.2511 -0.6875
  667MPD2    H1 9926   3.815   1.873  14.537 -1.6610 -0.9378  0.3362
  667MPD2    H2 9927   4.021   2.146  14.762  0.6095  1.4102 -2.7097
  667MPD2    H3 9928   4.001   1.940  14.631 -0.4634  0.1403 -2.4111
  667MPD2     N 9929   3.564   1.965  14.567 -0.2642 -1.1060  0.0004
  667MPD2    H5 9930   3.581   1.881  14.513 -0.6992 -0.8313 -0.5685
  667MPD2    N1 9931   3.805   2.291  14.851 -0.4696  0.5077 -0.3864
  667MPD2    H7 9932   3.717   2.326  14.889  0.5605  1.1459  1.4204
  668TMC3    C1 9933   3.902   2.436  15.008 -0.0623 -0.8758  0.1244
  668TMC3    C2 9934   3.967   2.553  15.012 -0.8116  0.3490 -0.1768
  668TMC3    C3 9935   3.954   2.628  15.127 -0.1988 -0.6741 -0.0843
  668TMC3    C4 9936   3.827   2.381  15.108  0.1491  0.0018 -0.5089
  668TMC3    C5 9937   3.826   2.456  15.218  0.2460  0.4244  0.0346
  668TMC3    C6 9938   3.881   2.581  15.226 -0.3676  0.1691  0.0835
  668TMC3     C 9939   3.920   2.356  14.893  0.6568  0.6270 -0.7888
  668TMC3     O 9940   4.014   2.381  14.817  0.6854 -0.1792  0.3858
  668TMC3     H 9941   4.020   2.584  14.923 -1.4692  4.3261  0.7943
  668TMC3    H1 9942   3.785   2.281  15.105  0.4092 -0.2229  3.4677
  668TMC3    H2 9943   3.888   2.625  15.325  0.2733  1.1215 -0.3808
  668TMC3    C7 9944   3.716   2.438  15.317  0.3370 -0.3295  0.0850
  668TMC3    C8 9945   3.997   2.773  15.135  0.1522  0.6853 -0.6365
  668TMC3    O1 9946   3.715   2.513  15.414  0.1584  0.0170  0.0637
  668TMC3    O2 9947   4.011   2.818  15.242 -0.3343 -0.2495 -0.9698
  669TMC3    C1 9948   2.179   1.938  14.930 -0.8386  1.0888 -0.3320
  669TMC3    C2 9949   2.069   1.935  14.850  0.2676  0.7320 -0.4009
  669TMC3    C3 9950   2.083   1.945  14.716  0.1435  0.0005 -0.8654
  669TMC3    C4 9951   2.302   1.937  14.866 -0.1385  0.0278  0.0439
  669TMC3    C5 9952   2.318   1.926  14.729 -0.6758 -0.1067  0.2904
  669TMC3    C6 9953   2.205   1.939  14.655 -0.0718 -0.2835  0.2760
  669TMC3     C 9954   2.169   1.892  15.066  0.0622 -0.1681 -0.0829
  669TMC3     O 9955   2.053   1.888  15.108 -0.2854  0.4684  0.2268
  669TMC3     H 9956   1.968   1.930  14.888 -0.4042  3.5119 -1.8065
  669TMC3    H1 9957   2.392   1.945  14.926 -0.3046  1.1326  0.1374
  669TMC3    H2 9958   2.214   1.954  14.548 -1.8602 -2.9255 -0.2492
  669TMC3    C7 9959   2.416   2.030  14.684  0.4282 -0.0916 -0.3919
  669TMC3    C8 9960   1.973   1.997  14.642  0.5846  0.1914  0.6504
  669TMC3    O1 9961   2.422   2.131  14.753 -0.0213 -0.2716 -0.0993
  669TMC3    O2 9962   1.923   1.920  14.567 -0.4837  0.2152  0.3353
  670MPD2     C 9963   0.167   4.731  14.333 -0.1249  0.3452  0.1181
  670MPD2    C1 9964   0.057   4.646  14.310  0.6965 -0.8311 -0.6709
  670MPD2    C2 9965   0.028   4.547  14.401  0.0898  0.3682  0.2163
  670MPD2    C3 9966   0.107   4.535  14.518  0.2696 -0.3380  0.3229
  670MPD2    C4 9967   0.227   4.606  14.529 -0.2032  0.5145  0.7035
  670MPD2    C5 9968   0.252   4.701  14.437  0.7044 -0.2915 -0.7381
  670MPD2     H 9969   4.688   4.474  14.383  0.3729  0.2847 -0.6561
  670MPD2    H1 9970   0.295   4.580  14.609 -0.8212 -0.5084  0.9055
  670MPD2    H2 9971   0.199   0.065  14.260  1.5235 -0.5556 -0.0626
  670MPD2    H3 9972   0.338   0.029  14.440 -1.0353  1.8912  1.4608
  670MPD2     N 9973   0.074   4.431  14.609 -0.3733 -0.3221 -0.9569
  670MPD2    H5 9974   0.002   4.362  14.590 -1.8278  0.7903  0.5627
  670MPD2    N1 9975   4.713   4.654  14.195  0.5259 -0.3089 -0.0308
  670MPD2    H7 9976   4.650   4.576  14.176  0.3114 -0.2745  0.5278
  671TMC3    C1 9977   0.068   4.300  14.798  0.2134  0.7647  0.2712
  671TMC3    C2 9978   0.158   4.201  14.823  0.0670  0.4136 -0.2644
  671TMC3    C3 9979   0.126   4.077  14.775 -0.0980 -0.4945 -0.0312
  671TMC3    C4 9980   4.688   4.269  14.736 -0.3071  0.7822 -0.6906
  671TMC3    C5 9981   4.656   4.144  14.703  0.4652  0.0852  0.0967
  671TMC3    C6 9982   0.003   4.045  14.729 -0.4922 -0.3128 -0.1400
  671TMC3     C 9983   0.135   4.413  14.729 -0.7158 -0.0090  0.3167
  671TMC3     O 9984   0.201   4.498  14.787 -0.4925  0.0948  0.5033
  671TMC3     H 9985   0.264   4.225  14.816  0.2958  0.5187  3.2625
  671TMC3    H1 9986   4.619   4.351  14.720 -1.2597 -0.0521 -0.8033
  671TMC3    H2 9987   4.711   3.942  14.713  0.3094 -0.4962 -0.4927
  671TMC3    C7 9988   4.575   4.139  14.581  0.4474  1.0365 -0.0714
  671TMC3    C8 9989   0.232   3.992  14.735  0.2447  0.0692  0.3140
  671TMC3    O1 9990   4.606   4.223  14.498  0.5164  0.1146 -0.1214
  671TMC3    O2 9991   0.205   3.919  14.643  0.0964 -0.5145  0.4751
  672MPD2     C 9992   0.509   0.693   1.206  0.1444  0.2327  0.3592
  672MPD2    C1 9993   0.600   0.679   1.101  0.6020 -0.2532 -0.3197
  672MPD2    C2 9994   0.702   0.775   1.089  0.0370  0.5804 -0.2024
  672MPD2    C3 9995   0.706   0.881   1.174 -0.3750 -0.0991  0.6749
  672MPD2    C4 9996   0.599   0.900   1.265  0.8203  0.4176  0.3869
  672MPD2    C5 9997   0.510   0.802   1.283 -0.4400  1.5757 -0.7319
  672MPD2     H 9998   0.768   0.759   1.004 -1.3305 -0.8693 -0.9925
  672MPD2    H1 9999   0.598   0.993   1.320 -0.3290  0.6595 -0.0488
  672MPD2    H210000   0.436   0.614   1.223  0.0083 -0.2197 -2.3496
  672MPD2    H310001   0.425   0.814   1.349 -0.1803 -2.2299  0.2664
  672MPD2     N10002   0.814   0.971   1.169 -0.2788 -0.2758  0.2604
  672MPD2    H510003   0.808   1.044   1.240  0.2861 -1.1600  1.2105
  672MPD2    N110004   0.601   0.563   1.019 -0.4142  0.1827 -0.2139
  672MPD2    H710005   0.675   0.549   0.951 -1.0771  0.9330 -1.0872
  673TMC3    C110006   0.503   0.379   0.905 -0.1017  0.5418  0.0332
  673TMC3    C210007   0.631   0.335   0.894 -0.0831 -0.1969  0.2407
  673TMC3    C310008   0.669   0.285   0.770 -0.4377  0.4982 -0.7156
  673TMC3    C410009   0.408   0.378   0.806  0.1711 -0.8576  0.4692
  673TMC3    C510010   0.452   0.325   0.677  0.7293  0.3582 -0.3634
  673TMC3    C610011   0.585   0.293   0.662 -0.4241 -0.3443 -0.2643
  673TMC3     C10012   0.486   0.485   1.000 -0.2963 -0.5746  0.7353
  673TMC3     O10013   0.375   0.507   1.039  0.2158 -1.1090 -0.4047
  673TMC3     H10014   0.684   0.313   0.986  1.1389 -1.7111 -0.8282
  673TMC3    H110015   0.306   0.414   0.820  0.4433  1.0017 -2.3117
  673TMC3    H210016   0.609   0.249   0.566  0.2175  2.3053 -1.2881
  673TMC3    C710017   0.376   0.346   0.552  0.2306 -0.6138  1.2389
  673TMC3    C810018   0.767   0.181   0.763  0.7994  0.1388 -1.1649
  673TMC3    O110019   0.421   0.283   0.459 -0.1377  0.1151 -0.0988
  673TMC3    O210020   0.758   0.089   0.678 -0.0679 -0.5851  0.0722
  674MPD2     C10021   0.185   4.562  17.663 -0.7056  0.1500  0.6008
  674MPD2    C110022   0.191   4.593   0.051  0.4021  0.4135  0.0796
  674MPD2    C210023   0.097   4.679   0.098  0.7935 -0.1993 -1.0262
  674MPD2    C310024   0.014   0.005   0.014  0.1241  0.1203  0.5824
  674MPD2    C410025   0.016   4.716  17.629 -0.2128 -0.3193  0.2781
  674MPD2    C510026   0.104   4.628  17.576 -0.7841  0.0915 -0.4305
  674MPD2     H10027   0.077   4.691   0.204  1.7787  0.4468 -0.9078
  674MPD2    H110028   4.692   0.039  17.565 -1.3381  1.6150  3.2205
  674MPD2    H210029   0.256   4.493  17.618  0.0495  2.3463 -1.5916
  674MPD2    H310030   0.101   4.613  17.469 -1.6850 -1.5845 -0.1681
  674MPD2     N10031   4.671   0.107   0.071  0.1365 -0.0595  0.3412
  674MPD2    H510032   4.696   0.119   0.169  1.9552 -0.0976 -0.1144
  674MPD2    N110033   0.276   4.539   0.147  0.0792 -0.0358  0.4910
  674MPD2    H710034   0.259   4.565   0.244 -0.8842  0.8600  0.0894
  675TMC3    C110035   0.491   4.490   0.224 -0.6451 -0.4286  0.3367
  675TMC3    C210036   0.437   4.502   0.354 -0.3761 -0.1968 -0.1139
  675TMC3    C310037   0.506   4.570   0.448  0.7383 -0.3847  0.1724
  675TMC3    C410038   0.607   4.551   0.199 -0.2040  0.2483 -0.4191
  675TMC3    C510039   0.665   4.637   0.286  0.0996  0.2395  0.6302
  675TMC3    C610040   0.619   4.633   0.412  0.5078  0.4551  0.7115
  675TMC3     C10041   0.395   4.466   0.117  0.6619 -0.4120  0.1056
  675TMC3     O10042   0.446   4.448   0.008  0.3172 -0.1540 -0.2937
  675TMC3     H10043   0.346   4.452   0.386 -0.3003  0.1744  0.6930
  675TMC3    H110044   0.651   4.551   0.100 -0.4934  0.6431 -0.5474
  675TMC3    H210045   0.664   4.697   0.487  1.7265 -1.2703  1.4745
  675TMC3    C710046   0.733   0.014   0.238 -0.6242 -0.0568  0.0361
  675TMC3    C810047   0.416   4.646   0.537 -0.0667 -0.0848  0.4638
  675TMC3    O110048   0.725   0.029   0.116 -0.0367 -0.2081  0.0294
  675TMC3    O210049   0.301   4.630   0.507 -0.8186 -0.5297  0.0046
  676MPD2     C10050   3.402   2.973  11.334 -0.5738 -0.1889  0.6918
  676MPD2    C110051   3.271   2.974  11.385 -0.1986  0.4447  0.0572
  676MPD2    C210052   3.161   2.951  11.308 -0.0331  0.6745 -0.0159
  676MPD2    C310053   3.188   2.930  11.174 -0.0527 -1.4726 -0.2167
  676MPD2    C410054   3.315   2.921  11.126 -0.2999 -0.0819  0.2923
  676MPD2    C510055   3.428   2.935  11.205 -0.0602  0.7094 -0.0935
  676MPD2     H10056   3.061   2.953  11.350 -0.0359  0.1052  0.0116
  676MPD2    H110057   3.338   2.897  11.023 -1.5360  1.6465 -0.3742
  676MPD2    H210058   3.491   2.993  11.393 -1.1528  2.3229  0.7391
  676MPD2    H310059   3.531   2.930  11.173 -0.4356  3.2308 -1.7275
  676MPD2     N10060   3.087   2.917  11.072 -0.0746 -0.1422  0.8025
  676MPD2    H510061   3.114   2.920  10.974 -0.0415  0.2347  0.8224
  676MPD2    N110062   3.249   2.994  11.526 -0.7351 -0.4091 -0.0232
  676MPD2    H710063   3.170   2.955  11.576 -1.4638 -1.3975 -1.9678
  677TMC3    C110064   3.336   3.070  11.739  0.4606  0.8729  0.8627
  677TMC3    C210065   3.261   2.975  11.802  0.7427  0.1024  0.3124
  677TMC3    C310066   3.237   2.992  11.934  0.2612 -0.6699  0.7071
  677TMC3    C410067   3.390   3.176  11.805 -0.3017  0.4653  0.4918
  677TMC3    C510068   3.345   3.201  11.932 -0.2488 -0.7219  0.0182
  677TMC3    C610069   3.270   3.109  11.997 -0.1382 -0.0538  0.5589
  677TMC3     C10070   3.344   3.072  11.593  0.4139  0.3058  0.0107
  677TMC3     O10071   3.438   3.135  11.549 -0.6845  0.1281 -0.2482
  677TMC3     H10072   3.225   2.889  11.746  0.6788  1.2432 -1.3882
  677TMC3    H110073   3.458   3.243  11.752 -0.2029 -0.7077 -0.8540
  677TMC3    H210074   3.264   3.107  12.105  2.0004 -1.8552  0.6453
  677TMC3    C710075   3.393   3.310  12.010 -1.1493 -0.2522 -0.6323
  677TMC3    C810076   3.172   2.891  12.006 -0.6224  0.9460  0.1689
  677TMC3    O110077   3.385   3.307  12.133 -0.2940 -0.1739 -0.2318
  677TMC3    O210078   3.172   2.779  11.954  0.0360  0.6110  0.2799
  678MPD2     C10079   4.150   3.621   1.582  0.7293 -0.2553 -0.1985
  678MPD2    C110080   4.129   3.520   1.491 -0.3627 -0.5585 -0.4252
  678MPD2    C210081   4.000   3.470   1.479  0.5258  0.4920  0.2595
  678MPD2    C310082   3.899   3.507   1.559  0.0284 -0.1026 -0.3383
  678MPD2    C410083   3.918   3.612   1.646 -0.4100  0.0698 -0.1834
  678MPD2    C510084   4.044   3.671   1.658  0.0691  0.8524 -0.0443
  678MPD2     H10085   3.986   3.395   1.402  1.6548 -1.9288  2.4459
  678MPD2    H110086   3.844   3.666   1.704 -2.2575 -0.9522 -1.6368
  678MPD2    H210087   4.243   3.676   1.591  0.7187 -0.1703 -0.6142
  678MPD2    H310088   4.067   3.754   1.724 -1.7846 -0.5440  2.3911
  678MPD2     N10089   3.774   3.447   1.526  0.5078 -0.4076  0.1045
  678MPD2    H510090   3.771   3.372   1.458 -0.9892 -0.0751 -0.1792
  678MPD2    N110091   4.229   3.470   1.400  0.4691  0.6939  0.2142
  678MPD2    H710092   4.196   3.396   1.339 -0.0960  0.5919  0.6386
  679TMC3    C110093   4.537   3.280   1.199  0.9142 -0.5138 -0.2690
  679TMC3    C210094   4.445   3.330   1.286  0.3792  0.1449  1.1497
  679TMC3    C310095   4.440   3.467   1.290  0.1246 -0.3324 -0.4704
  679TMC3    C410096   4.623   3.364   1.134  0.6381  0.4891 -0.2337
  679TMC3    C510097   4.606   3.501   1.131 -0.6753  0.3515 -0.8819
  679TMC3    C610098   4.517   3.559   1.210 -0.1867  0.3469 -0.1134
  679TMC3     C10099   4.538   3.147   1.151  0.3812  0.4380  0.0089
  679TMC3     O10100   4.635   3.111   1.076  0.4590  0.3732  0.5294
  679TMC3     H10101   4.369   3.266   1.331 -2.0239  2.4334  0.3011
  679TMC3    H110102   4.680   3.321   1.052  0.6602 -2.7296  1.5038
  679TMC3    H210103   4.501   3.666   1.218 -1.2326  0.2507 -0.9297
  679TMC3    C710104   4.636   3.580   1.010 -0.5064  0.5233  0.5347
  679TMC3    C810105   4.355   3.527   1.385 -0.2857  0.3553  0.3287
  679TMC3    O110106   4.574   3.681   0.981 -0.0849 -0.2733  0.9020
  679TMC3    O210107   4.383   3.644   1.418 -0.3795 -0.0735  0.3698
  680MPD2     C10108   4.629   2.115  13.582  0.1595  0.3794  0.0777
  680MPD2    C110109   4.721   2.080  13.678 -0.5868 -0.4214 -0.2210
  680MPD2    C210110   0.106   2.141  13.689  0.3574 -0.6134 -0.2738
  680MPD2    C310111   0.152   2.237  13.614 -0.1333 -0.2170 -0.2427
  680MPD2    C410112   0.056   2.289  13.524  0.0725 -0.4325 -0.3521
  680MPD2    C510113   4.673   2.227  13.507  0.0867  0.1963 -0.3478
  680MPD2     H10114   0.171   2.108  13.770  0.6633  0.7336  0.0342
  680MPD2    H110115   0.084   2.380  13.472 -0.7050  2.4023  4.2422
  680MPD2    H210116   4.542   2.055  13.559 -0.2983  0.9359  0.3521
  680MPD2    H310117   4.609   2.262  13.426 -0.9888 -0.3924  0.2546
  680MPD2     N10118   0.280   2.296  13.629  0.3112  0.8149  0.1322
  680MPD2    H510119   0.286   2.393  13.599  0.1878 -0.5125 -4.2043
  680MPD2    N110120   4.713   1.965  13.756 -0.8472  0.4490 -0.4063
  680MPD2    H710121   0.050   1.946  13.821  0.1199 -1.8233 -2.1843
  681TMC3    C110122   4.633   1.766  13.839 -0.4410  0.3193  0.4807
  681TMC3    C210123   4.550   1.752  13.941  0.0309 -0.0052 -0.3019
  681TMC3    C310124   4.598   1.679  14.044 -0.4051  0.0320  0.0636
  681TMC3    C410125   0.028   1.732  13.844 -0.1220  0.0423 -0.1474
  681TMC3    C510126   0.065   1.650  13.946 -0.6590 -0.0543 -0.1094
  681TMC3    C610127   4.708   1.604  14.036 -0.7775  1.0492  0.6761
  681TMC3     C10128   4.605   1.874  13.756 -0.6157  0.2371 -0.2027
  681TMC3     O10129   4.499   1.881  13.697 -0.1744 -0.3234 -0.0115
  681TMC3     H10130   4.451   1.796  13.932  0.1271  0.4354  0.8998
  681TMC3    H110131   0.097   1.752  13.763 -3.3851  2.3692 -2.3752
  681TMC3    H210132   4.738   1.548  14.124 -0.7925 -2.7161 -1.7153
  681TMC3    C710133   0.183   1.563  13.933  0.2238  0.5411 -0.0576
  681TMC3    C810134   4.537   1.696  14.174 -0.0558  0.2031 -0.2203
  681TMC3    O110135   0.177   1.450  13.988 -0.3203  0.5318 -0.0655
  681TMC3    O210136   4.424   1.744  14.163  0.0454 -0.5854 -0.1627
  682MPD2     C10137   1.599   3.130  10.858  0.3332 -0.6194  0.2155
  682MPD2    C110138   1.522   3.020  10.890  0.3605  0.2579  0.6213
  682MPD2    C210139   1.473   2.995  11.018  1.2376 -0.8057 -0.3034
  682MPD2    C310140   1.508   3.083  11.125 -0.1456  0.3780  0.0169
  682MPD2    C410141   1.587   3.194  11.097 -0.3324 -0.3192  0.0766
  682MPD2    C510142   1.615   3.218  10.966  0.0258 -0.3163  0.1554
  682MPD2     H10143   1.412   2.907  11.033 -1.5884  1.3879  1.0956
  682MPD2    H110144   1.619   3.259  11.177  0.6675  0.4804 -0.9650
  682MPD2    H210145   1.635   3.165  10.762  0.0580 -1.3427 -0.1449
  682MPD2    H310146   1.676   3.306  10.950 -1.9674  1.0128 -0.1564
  682MPD2     N10147   1.487   3.050  11.263 -0.4132  0.7431  1.1993
  682MPD2    H510148   1.550   3.102  11.324  0.6255 -0.1537  0.8863
  682MPD2    N110149   1.501   2.925  10.789 -0.7882 -0.1670  0.6105
  682MPD2    H710150   1.433   2.852  10.810 -1.3913  0.5952  1.2922
  683TMC3    C110151   1.611   2.936  11.593 -0.5397 -0.5554 -0.2156
  683TMC3    C210152   1.623   2.805  11.603  0.4350  0.1472  0.3044
  683TMC3    C310153   1.549   2.729  11.513  0.4596  0.4226 -0.4151
  683TMC3    C410154   1.520   2.998  11.507 -0.2738 -0.4488  0.6053
  683TMC3    C510155   1.431   2.914  11.443 -0.3539  0.5330 -0.3375
  683TMC3    C610156   1.446   2.783  11.444  0.4981  0.4285 -0.0731
  683TMC3     C10157   1.691   3.027  11.670 -0.5269  0.8739  0.1495
  683TMC3     O10158   1.691   3.142  11.628  0.2741  0.1482  0.2066
  683TMC3     H10159   1.692   2.764  11.675  1.2307 -1.4492 -1.3691
  683TMC3    H110160   1.510   3.105  11.503  1.6204 -0.2973 -0.4059
  683TMC3    H210161   1.389   2.711  11.386 -0.2059  1.2137 -0.3586
  683TMC3    C710162   1.402   2.953  11.306  0.6216 -0.0058  0.1691
  683TMC3    C810163   1.624   2.622  11.436 -0.1193 -0.2825 -0.1121
  683TMC3    O110164   1.319   2.894  11.238  0.6414  0.1442 -0.3138
  683TMC3    O210165   1.574   2.583  11.334 -0.0739 -0.2606  0.6114
  684MPD2     C10166   0.095   2.693  16.825 -0.5101  0.1322  0.5766
  684MPD2    C110167   0.059   2.724  16.694  0.4884  0.4947  0.1388
  684MPD2    C210168   0.105   2.839  16.641  0.7435  0.2876  1.1569
  684MPD2    C310169   0.194   2.927  16.708 -0.3593  0.4219 -0.7801
  684MPD2    C410170   0.213   2.899  16.840 -0.4480  0.2883 -0.0503
  684MPD2    C510171   0.161   2.786  16.900  0.3110  1.0539  0.3532
  684MPD2     H10172   0.078   2.847  16.536  1.1601 -0.0937  1.0219
  684MPD2    H110173   0.282   2.961  16.896  2.1490 -0.6157 -2.2691
  684MPD2    H210174   0.074   2.601  16.878  1.4828  0.3030  1.6686
  684MPD2    H310175   0.206   2.765  16.997  0.7223 -2.4832 -0.6284
  684MPD2     N10176   0.253   3.047  16.647  0.0411 -0.3395  0.0035
  684MPD2    H510177   0.314   3.103  16.705  0.0546  0.2649 -0.5972
  684MPD2    N110178   4.733   2.636  16.605  0.1199 -0.3248  0.1160
  684MPD2    H710179   4.720   2.666  16.509 -0.0203  0.5436  0.4022
  685TMC3    C110180   4.714   2.434  16.505  0.3786  0.4477 -0.2805
  685TMC3    C210181   4.633   2.492  16.411  0.4164  0.4682 -0.0250
  685TMC3    C310182   4.655   2.466  16.277 -0.1320 -0.2058 -0.5089
  685TMC3    C410183   0.085   2.365  16.475  0.1277 -0.1974 -0.6918
  685TMC3    C510184   0.105   2.332  16.341 -0.6618 -0.0383  0.1396
  685TMC3    C610185   0.012   2.378  16.244  0.7115 -0.3829 -0.3841
  685TMC3     C10186   4.719   2.505  16.630 -0.2883 -0.4442 -0.2048
  685TMC3     O10187   0.020   2.440  16.728  0.2070 -0.3128 -0.2318
  685TMC3     H10188   4.551   2.558  16.437 -0.0290  0.1061 -0.5178
  685TMC3    H110189   0.144   2.327  16.558  0.6075 -1.0427 -1.4040
  685TMC3    H210190   0.026   2.338  16.144  1.2100 -0.5449 -0.2498
  685TMC3    C710191   0.237   2.351  16.291 -0.2972 -0.3658 -0.3242
  685TMC3    C810192   4.591   2.533  16.168  0.0025 -0.5508 -0.0450
  685TMC3    O110193   0.254   2.346  16.169  0.6566  0.0550 -0.0691
  685TMC3    O210194   4.625   2.491  16.058 -0.4820  0.2628  0.3936
  686MPD2     C10195   1.891   2.060  16.053  0.5704 -0.4114 -0.3371
  686MPD2    C110196   1.760   2.014  16.039 -0.2037 -0.1581  0.7530
  686MPD2    C210197   1.745   1.900  15.960 -0.2085  0.7333  0.9716
  686MPD2    C310198   1.857   1.834  15.904 -0.5145  0.9467 -0.1236
  686MPD2    C410199   1.984   1.876  15.928 -1.0846  1.1001  0.1795
  686MPD2    C510200   1.999   1.986  16.001  0.1151  0.0873 -0.2920
  686MPD2     H10201   1.649   1.854  15.939  0.9954 -0.9644 -0.8385
  686MPD2    H110202   2.073   1.831  15.885 -1.8416  1.8350 -2.1541
  686MPD2    H210203   1.919   2.140  16.121  0.8234 -1.1885  0.4847
  686MPD2    H310204   2.097   2.020  16.035 -0.8320 -0.1318  2.7135
  686MPD2     N10205   1.853   1.714  15.829 -0.2237  0.0331 -0.7514
  686MPD2    H510206   1.926   1.691  15.762  1.1492  1.2463  0.3461
  686MPD2    N110207   1.658   2.092  16.093  0.2009 -0.0593 -0.3524
  686MPD2    H710208   1.687   2.185  16.122 -1.5758  1.4523 -3.4244
  687TMC3    C110209   1.690   1.599  15.972 -0.4533 -0.7729  0.2878
  687TMC3    C210210   1.557   1.587  15.988 -0.3676 -0.4261 -0.1659
  687TMC3    C310211   1.494   1.589  16.109 -0.0632 -0.5303 -0.5644
  687TMC3    C410212   1.767   1.608  16.087  0.0119  0.0617  0.0428
  687TMC3    C510213   1.703   1.627  16.207  0.0668  0.5810  0.3719
  687TMC3    C610214   1.564   1.624  16.222  0.7661  0.3342  0.3704
  687TMC3     C10215   1.748   1.621  15.839 -0.1468 -0.0566  0.1621
  687TMC3     O10216   1.726   1.531  15.759 -0.2691  0.1133 -0.3553
  687TMC3     H10217   1.491   1.562  15.905  0.9482 -2.0650 -0.7318
  687TMC3    H110218   1.875   1.613  16.079  0.0489 -0.0964  0.4425
  687TMC3    H210219   1.513   1.632  16.318 -0.4973  0.1201 -0.2815
  687TMC3    C710220   1.774   1.718  16.298 -0.6202  0.3906  0.4247
  687TMC3    C810221   1.353   1.624  16.105  0.4853  0.2695  0.7985
  687TMC3    O110222   1.708   1.785  16.379 -0.4002 -0.4632 -0.2550
  687TMC3    O210223   1.285   1.567  16.190  0.1317  0.3996  0.2686
  688MPD2     C10224   0.530   1.498  17.529 -0.1510 -0.0262  0.7124
  688MPD2    C110225   0.613   1.409  17.593 -0.7963 -0.6173  0.7700
  688MPD2    C210226   0.731   1.385  17.532 -0.1485 -0.1610 -0.5745
  688MPD2    C310227   0.776   1.445  17.414 -0.3868  0.0698  0.4751
  688MPD2    C410228   0.696   1.544  17.359  0.0414 -0.5150  0.4956
  688MPD2    C510229   0.577   1.567  17.422 -0.1987 -0.0605 -1.0121
  688MPD2     H10230   0.786   1.305  17.580  1.4853  0.3871 -1.5303
  688MPD2    H110231   0.727   1.601  17.273 -1.5132  1.4321  1.2315
  688MPD2    H210232   0.435   1.521  17.577  0.6538  1.5586  1.5523
  688MPD2    H310233   0.514   1.650  17.392  1.7770  1.0467 -2.1017
  688MPD2     N10234   0.901   1.415  17.348  0.5909  0.3242  1.0509
  688MPD2    H510235   0.913   1.468  17.262  1.7902  0.9268  1.6005
  688MPD2    N110236   0.580   1.340  17.714  0.2472  0.5494  0.9148
  688MPD2    H710237   0.626   1.255  17.744  0.2530  0.2558  0.0735
  689TMC3    C110238   0.465   1.314   0.175 -0.3521 -0.1093  0.0657
  689TMC3    C210239   0.408   1.371   0.286 -0.4663  0.6052 -0.6098
  689TMC3    C310240   0.377   1.293   0.390 -0.8425  0.6837  0.1178
  689TMC3    C410241   0.501   1.181   0.171  0.6920  0.2452 -0.5442
  689TMC3    C510242   0.480   1.117   0.290  0.4267 -0.3739 -0.2936
  689TMC3    C610243   0.432   1.174   0.407 -0.3309  0.0397 -0.2789
  689TMC3     C10244   0.491   1.396   0.059 -0.1192 -0.0280  0.2067
  689TMC3     O10245   0.447   1.511   0.062  0.1303 -0.0936 -0.4313
  689TMC3     H10246   0.372   1.474   0.283 -0.1493  0.7690  1.0411
  689TMC3    H110247   0.556   1.130   0.094 -0.4060  0.6245 -1.5759
  689TMC3    H210248   0.421   1.101   0.487  0.5098 -0.2504 -0.4214
  689TMC3    C710249   0.525   0.981   0.303 -0.2139  0.1055  0.2629
  689TMC3    C810250   0.315   1.353   0.509 -0.0530  0.2919  0.2713
  689TMC3    O110251   0.572   0.941   0.410 -0.1898  0.7260 -0.2720
  689TMC3    O210252   0.332   1.477   0.515  0.0831  0.2065  0.7557
  690MPD2     C10253   2.571   3.238  16.390  0.4800 -0.4305  0.0955
  690MPD2    C110254   2.641   3.186  16.284 -0.2724  0.0730  0.5307
  690MPD2    C210255   2.759   3.247  16.246  0.4113 -0.1156 -0.2700
  690MPD2    C310256   2.805   3.359  16.313 -0.3013  0.5596  0.4593
  690MPD2    C410257   2.731   3.414  16.413  0.2947  0.3186  0.4212
  690MPD2    C510258   2.614   3.349  16.449  0.4518  0.3048  0.3962
  690MPD2     H10259   2.812   3.212  16.158  0.4215  0.0735 -0.3403
  690MPD2    H110260   2.758   3.504  16.467  2.5546 -1.2858  1.9826
  690MPD2    H210261   2.482   3.189  16.427 -0.8306  0.8202 -1.3589
  690MPD2    H310262   2.550   3.399  16.521 -2.4526  0.2444 -2.1045
  690MPD2     N10263   2.920   3.421  16.262  0.1121 -0.4087 -0.0998
  690MPD2    H510264   2.974   3.370  16.192 -0.6544 -1.1841 -0.1190
  690MPD2    N110265   2.602   3.060  16.237  0.5849 -0.2060 -0.1842
  690MPD2    H710266   2.507   3.032  16.261  0.2329  0.7110 -0.4901
  691TMC3    C110267   2.617   2.835  16.162  0.5925  0.1304 -0.3710
  691TMC3    C210268   2.486   2.814  16.209 -0.3217 -0.0928 -0.2427
  691TMC3    C310269   2.427   2.695  16.177 -0.2859 -0.2662  0.7163
  691TMC3    C410270   2.689   2.733  16.106 -0.0980 -0.1244 -0.9388
  691TMC3    C510271   2.629   2.616  16.075 -0.3288  0.4283  0.4376
  691TMC3    C610272   2.495   2.597  16.110  0.0836  0.3655  0.0432
  691TMC3     C10273   2.684   2.966  16.178 -0.3193  0.1918  0.2903
  691TMC3     O10274   2.804   2.965  16.165  0.0423 -0.1834  0.0225
  691TMC3     H10275   2.427   2.891  16.257  0.6566  0.9948 -0.7843
  691TMC3    H110276   2.790   2.754  16.073  0.4318 -2.2490 -0.6923
  691TMC3    H210277   2.449   2.501  16.091  1.8885 -0.8180  1.5546
  691TMC3    C710278   2.692   2.530  15.970  0.5331  0.9018 -0.6914
  691TMC3    C810279   2.281   2.675  16.183 -0.4281 -0.3240 -0.4557
  691TMC3    O110280   2.812   2.519  15.970 -0.2564  0.3736 -0.2864
  691TMC3    O210281   2.247   2.559  16.166  0.4737 -0.1399 -0.5536
  692TMC3    C110282   4.669   4.274  16.328  0.3863  0.7271  0.8988
  692TMC3    C210283   0.056   4.295  16.380  0.3270 -0.1747  0.2502
  692TMC3    C310284   0.162   4.234  16.321  0.5562  0.6007  0.0695
  692TMC3    C410285   4.646   4.178  16.228  0.1509  0.2821  0.2349
  692TMC3    C510286   0.015   4.103  16.194 -0.4425  0.0653  0.3956
  692TMC3    C610287   0.138   4.128  16.242  0.0996  0.0853 -0.0994
  692TMC3     C10288   4.562   4.369  16.352  0.3291 -0.1645 -0.2336
  692TMC3     O10289   4.449   4.334  16.319 -0.3372 -0.1243  0.5566
  692TMC3     H10290   0.072   4.388  16.435  0.2854  0.0605 -0.1393
  692TMC3    H110291   4.549   4.181  16.179 -0.6175  2.6985  1.8805
  692TMC3    H210292   0.226   4.088  16.191  0.3783  2.8570 -1.7916
  692TMC3    C710293   4.732   3.988  16.111 -0.3393  0.8010  0.6748
  692TMC3    C810294   0.269   4.197  16.412  0.0404 -0.2412 -0.3604
  692TMC3    O110295   4.646   4.001  16.025 -0.3487  0.0405 -0.0589
  692TMC3    O210296   0.324   4.086  16.403  0.0811 -0.4986 -0.2175
  693MPD2     C10297   4.279   2.469  10.830 -0.3297  0.1869 -0.0997
  693MPD2    C110298   4.266   2.425  10.958  0.0867 -0.3090 -0.1271
  693MPD2    C210299   4.346   2.329  11.007  0.3350 -0.5281  0.7025
  693MPD2    C310300   4.449   2.280  10.929 -0.0320  0.0441  0.4226
  693MPD2    C410301   4.465   2.335  10.803 -0.0800  0.2701 -0.4192
  693MPD2    C510302   4.383   2.438  10.759 -0.1399  0.1148  0.6647
  693MPD2     H10303   4.325   2.290  11.106  0.6859 -1.0987  0.5551
  693MPD2    H110304   4.539   2.293  10.735  1.2791  1.6678  0.1982
  693MPD2    H210305   4.232   2.558  10.789 -3.0647 -1.3732 -0.3313
  693MPD2    H310306   4.394   2.488  10.664 -1.9983 -1.6019 -0.4495
  693MPD2     N10307   4.550   2.187  10.969  0.8385 -0.1145  0.0539
  693MPD2    H510308   4.619   2.169  10.897  1.3657 -1.1002  0.7945
  693MPD2    N110309   4.161   2.460  11.051 -0.1676 -0.6878 -0.0891
  693MPD2    H710310   4.168   2.425  11.146  2.1943 -0.4176 -0.1503
  694TMC3    C110311   3.950   2.556  11.111 -0.4929  0.0578 -0.1224
  694TMC3    C210312   3.837   2.511  11.040 -0.5273 -0.2263  0.1471
  694TMC3    C310313   3.738   2.462  11.120 -0.4959 -0.2142  0.3911
  694TMC3    C410314   3.969   2.545  11.250 -0.3325  0.3835  0.1585
  694TMC3    C510315   3.863   2.499  11.323 -0.4321  0.1646  0.5242
  694TMC3    C610316   3.748   2.456  11.263  0.5339 -0.6812  0.9382
  694TMC3     C10317   4.067   2.561  11.020  0.6611 -0.2166 -0.6018
  694TMC3     O10318   4.054   2.620  10.914 -0.4720 -0.2690  0.1206
  694TMC3     H10319   3.831   2.519  10.932 -1.0349  2.6329  0.3909
  694TMC3    H110320   4.056   2.589  11.296  0.7696 -1.6272  0.0136
  694TMC3    H210321   3.663   2.443  11.329 -0.3964 -1.0026 -0.3250
  694TMC3    C710322   3.895   2.468  11.460  0.7563  0.3131 -0.0042
  694TMC3    C810323   3.629   2.403  11.055  0.0251  0.0999  0.3211
  694TMC3    O110324   3.969   2.543  11.518 -0.0493  0.8414 -0.7129
  694TMC3    O210325   3.574   2.305  11.111  0.1894  0.2156 -0.3897
  695MPD2     C10326   0.465   4.070  13.671  0.0281  0.5105 -0.4373
  695MPD2    C110327   0.405   4.017  13.781 -0.2531 -0.4750  0.3733
  695MPD2    C210328   0.270   4.036  13.801 -0.2343 -0.2428 -0.2930
  695MPD2    C310329   0.182   4.086  13.711  0.5602 -0.4575  0.4682
  695MPD2    C410330   0.239   4.128  13.592 -0.0740 -0.7783 -0.2278
  695MPD2    C510331   0.374   4.112  13.578 -0.2815 -0.1813  0.1099
  695MPD2     H10332   0.233   4.017  13.901  1.7002 -0.1704  0.4221
  695MPD2    H110333   0.182   4.169  13.510 -1.6733  2.2181  2.3581
  695MPD2    H210334   0.567   4.066  13.635  0.0887  1.4132 -0.3748
  695MPD2    H310335   0.416   4.136  13.482 -0.4358  0.9968  0.3438
  695MPD2     N10336   0.045   4.100  13.738 -0.2540  0.1812  0.2990
  695MPD2    H510337   0.018   4.071  13.832  1.2667  2.8684  1.5437
  695MPD2    N110338   0.481   3.962  13.887  0.3480 -0.5652  0.3051
  695MPD2    H710339   0.429   3.917  13.961 -1.0121 -0.6358 -0.6777
  696TMC3    C110340   4.572   4.193  13.726 -0.9279 -0.6366  0.1406
  696TMC3    C210341   4.517   4.111  13.824 -0.7839 -0.3217 -0.4614
  696TMC3    C310342   4.414   4.156  13.904 -0.5578  0.2891  0.1987
  696TMC3    C410343   4.526   4.318  13.708  0.1777  0.0961 -0.4879
  696TMC3    C510344   4.417   4.355  13.775 -0.1591 -0.6975 -0.0009
  696TMC3    C610345   4.358   4.278  13.872 -0.6428 -0.8828 -0.1057
  696TMC3     C10346   4.691   4.161  13.656 -0.1191  0.7972  0.2255
  696TMC3     O10347   4.701   4.212  13.548  0.0290 -0.0416  0.1693
  696TMC3     H10348   4.548   4.007  13.828  0.0998 -0.1016 -1.6309
  696TMC3    H110349   4.571   4.380  13.632 -0.1297 -0.4753 -1.1318
  696TMC3    H210350   4.268   4.306  13.926 -0.0555  0.5470  0.1352
  696TMC3    C710351   4.388   4.503  13.781  0.1386  0.8058  0.3353
  696TMC3    C810352   4.413   4.132  14.050 -0.2692 -0.3807 -0.4989
  696TMC3    O110353   4.377   4.572  13.682 -0.1707 -0.0709  0.2075
  696TMC3    O210354   4.415   4.234  14.118 -0.4468  0.6984 -0.2026
  697MPD2     C10355   4.507   1.380  15.914  0.2333  0.6497 -0.5414
  697MPD2    C110356   4.459   1.320  15.805  0.6670 -0.5632 -0.2489
  697MPD2    C210357   4.451   1.394  15.689 -0.2537 -0.1865 -0.4124
  697MPD2    C310358   4.478   1.532  15.690 -0.0704 -0.2020 -0.1680
  697MPD2    C410359   4.528   1.588  15.803 -0.1959 -0.8942  0.5408
  697MPD2    C510360   4.549   1.511  15.912  0.0554  0.7843 -0.5237
  697MPD2     H10361   4.418   1.343  15.600  1.0156 -0.5589 -0.6699
  697MPD2    H110362   4.552   1.693  15.813  0.9964 -1.2170  1.1023
  697MPD2    H210363   4.532   1.327  16.006 -0.0130  2.1192  0.3793
  697MPD2    H310364   4.598   1.560  15.995  0.3991 -0.4156 -0.0042
  697MPD2     N10365   4.474   1.607  15.567 -0.0988 -0.6054  0.3679
  697MPD2    H510366   4.444   1.554  15.485 -1.0073  0.6522 -0.1217
  697MPD2    N110367   4.442   1.179  15.802 -1.0577 -0.1262 -0.6806
  697MPD2    H710368   4.406   1.154  15.710  1.4515  0.3557 -1.7808
  698TMC3    C110369   4.518   1.772  15.402  0.6169 -0.9623  0.0224
  698TMC3    C210370   4.504   1.905  15.370 -0.3402 -0.2169  0.1531
  698TMC3    C310371   4.529   1.942  15.243 -0.2564 -0.2717  0.0582
  698TMC3    C410372   4.550   1.676  15.312  0.0770  0.0574 -0.3857
  698TMC3    C510373   4.563   1.717  15.183  0.5698 -0.5171 -0.6625
  698TMC3    C610374   4.547   1.846  15.145 -0.6115  0.0428  0.2900
  698TMC3     C10375   4.499   1.740  15.542 -0.0283 -0.0537 -0.3340
  698TMC3     O10376   4.528   1.823  15.625  0.9590  0.6171 -0.1284
  698TMC3     H10377   4.483   1.979  15.446 -1.1659 -0.1999 -0.0859
  698TMC3    H110378   4.567   1.571  15.335 -1.8405  0.2375  1.8898
  698TMC3    H210379   4.567   1.881  15.044  1.8425  0.4402  0.9366
  698TMC3    C710380   4.608   1.619  15.093  0.1727  0.6082  0.3481
  698TMC3    C810381   4.547   2.082  15.214  0.2236 -0.4319 -0.3843
  698TMC3    O110382   4.709   1.557  15.127 -0.4175 -0.1073 -0.1882
  698TMC3    O210383   4.498   2.161  15.292  0.2703 -0.0862 -0.1442
  699TMC3    C110384   4.430   4.306  13.381  0.2856 -1.1173  0.3147
  699TMC3    C210385   4.471   4.184  13.340  0.1139 -0.5007 -0.0068
  699TMC3    C310386   4.387   4.082  13.363  0.5571 -0.2611 -0.0038
  699TMC3    C410387   4.310   4.329  13.434  0.1764 -0.0626 -0.4028
  699TMC3    C510388   4.229   4.225  13.461  0.2009  0.4213  0.3238
  699TMC3    C610389   4.269   4.097  13.429 -0.2951 -0.3309 -0.5547
  699TMC3     C10390   4.511   4.420  13.351  0.2170 -0.4697 -0.3142
  699TMC3     O10391   4.451   4.524  13.335 -0.3019  0.0087  0.2461
  699TMC3     H10392   4.558   4.175  13.277  1.7238 -1.2864  2.3487
  699TMC3    H110393   4.277   4.429  13.459 -0.0303 -0.9802  3.0506
  699TMC3    H210394   4.212   4.013  13.469  0.8215 -0.6959  0.2654
  699TMC3    C710395   4.138   4.233  13.584 -0.0321 -0.4530 -0.3984
  699TMC3    C810396   4.445   3.954  13.398 -0.0063 -0.5913 -0.2469
  699TMC3    O110397   4.118   4.131  13.652 -0.1926  0.0844 -0.3096
  699TMC3    O210398   4.382   3.866  13.457  0.0822 -0.6059 -0.7364
  700TMC3    C110399   3.420   1.441  16.995  0.7076  0.0992 -1.0600
  700TMC3    C210400   3.465   1.308  17.002 -0.2864 -0.3726 -0.4852
  700TMC3    C310401   3.437   1.235  17.115  0.1952 -0.2934  0.3314
  700TMC3    C410402   3.348   1.497  17.099 -0.0447 -0.4333 -0.0492
  700TMC3    C510403   3.329   1.419  17.206  0.2443 -0.0586 -0.1145
  700TMC3    C610404   3.361   1.290  17.221  0.3411  0.0492 -0.0690
  700TMC3     C10405   3.418   1.513  16.866 -0.1524 -0.1639  0.3318
  700TMC3     O10406   3.459   1.449  16.772  0.2381 -0.3922 -0.0370
  700TMC3     H10407   3.508   1.264  16.912 -0.7744 -0.1947 -0.8004
  700TMC3    H110408   3.305   1.596  17.091  3.3331  0.9933 -0.7589
  700TMC3    H210409   3.360   1.239  17.317 -2.4539  1.1622  0.4918
  700TMC3    C710410   3.264   1.470  17.317 -1.4854 -0.1807 -0.2514
  700TMC3    C810411   3.523   1.113  17.144  0.4682 -0.1708 -0.0371
  700TMC3    O110412   3.198   1.391  17.387 -0.8745  0.1392 -0.7521
  700TMC3    O210413   3.486   1.042  17.239  0.1311  0.5619 -0.3174
  701TMC3    C110414   3.844   0.553  15.839 -0.0105  0.3708  1.0547
  701TMC3    C210415   3.818   0.497  15.715 -0.0300 -0.8298 -0.3628
  701TMC3    C310416   3.871   0.555  15.608  0.4436 -0.2966  0.1522
  701TMC3    C410417   3.921   0.666  15.853  0.5518 -0.3552 -0.1279
  701TMC3    C510418   3.964   0.728  15.741  0.2348  0.3877 -0.0213
  701TMC3    C610419   3.936   0.671  15.620  0.6078 -0.5032  0.6892
  701TMC3     C10420   3.728   0.555  15.930  0.6416 -0.7732  0.5669
  701TMC3     O10421   3.715   0.662  15.985  0.0285 -0.0743 -0.6158
  701TMC3     H10422   3.753   0.410  15.707  0.5917 -1.4105  0.8435
  701TMC3    H110423   3.938   0.709  15.951  0.7015 -0.3997 -0.1334
  701TMC3    H210424   3.973   0.716  15.529 -1.0176 -2.7412 -1.0718
  701TMC3    C710425   4.021   0.863  15.740  0.2550  0.5236  0.1002
  701TMC3    C810426   3.880   0.482  15.488 -0.0917  1.1881 -0.1782
  701TMC3    O110427   4.057   0.902  15.633 -0.3909  0.3391  0.4743
  701TMC3    O210428   3.988   0.493  15.426  0.2694  0.3690  0.2668
  702MPD2     C10429   2.954   3.207  10.431  1.0761 -0.4674 -0.0566
  702MPD2    C110430   3.031   3.138  10.518 -0.4714  0.1785  0.0005
  702MPD2    C210431   3.167   3.163  10.518  0.1713 -0.1588  0.2541
  702MPD2    C310432   3.229   3.248  10.429 -0.4708 -0.4018 -0.0207
  702MPD2    C410433   3.150   3.318  10.337 -1.0250 -0.2246 -0.1011
  702MPD2    C510434   3.016   3.300  10.354  0.4166  0.6895  0.2617
  702MPD2     H10435   3.232   3.101  10.579 -0.0713  0.0621  0.7346
  702MPD2    H110436   3.187   3.385  10.260 -0.4543  1.0281  1.2678
  702MPD2    H210437   2.846   3.208  10.439  1.2205  0.9930  1.6931
  702MPD2    H310438   2.954   3.363  10.291 -0.4220 -1.2112 -0.7778
  702MPD2     N10439   3.369   3.244  10.424  0.3062 -0.1705 -0.0935
  702MPD2    H510440   3.418   3.180  10.486 -1.2814 -0.5788  0.7588
  702MPD2    N110441   2.982   3.050  10.613  0.3002  0.6285  0.5164
  702MPD2    H710442   3.044   3.015  10.685  0.4160 -0.9294 -0.3575
  703TMC3    C110443   3.595   3.302  10.382  0.4692 -0.9937  0.0152
  703TMC3    C210444   3.623   3.249  10.507 -0.2672  0.6479  0.3399
  703TMC3    C310445   3.754   3.254  10.547  1.2656  0.2226 -1.0102
  703TMC3    C410446   3.685   3.375  10.312 -0.2162  0.2113  0.1945
  703TMC3    C510447   3.809   3.392  10.363 -0.0141  0.0361 -0.0832
  703TMC3    C610448   3.854   3.312  10.472 -0.2315 -0.6042 -0.0428
  703TMC3     C10449   3.453   3.314  10.343  0.2068 -0.0685  0.4405
  703TMC3     O10450   3.430   3.404  10.263  0.2510 -0.9200  0.4908
  703TMC3     H10451   3.552   3.198  10.571  2.8009 -3.3171  0.5884
  703TMC3    H110452   3.659   3.426  10.220  1.1066  0.3342 -0.1154
  703TMC3    H210453   3.957   3.314  10.504  0.0281 -0.5747 -0.8628
  703TMC3    C710454   3.885   3.505  10.338  0.6553  0.0935 -0.1237
  703TMC3    C810455   3.791   3.243  10.689  0.3869  0.3525  0.0272
  703TMC3    O110456   3.956   3.534  10.429  0.4081  0.7259 -0.1434
  703TMC3    O210457   3.911   3.248  10.720  0.4885 -0.9800  0.0483
  704TMC3    C110458   0.810   0.862  12.425 -0.1876  0.4887 -0.9501
  704TMC3    C210459   0.847   0.789  12.313  0.1480  0.3236 -0.1162
  704TMC3    C310460   0.826   0.656  12.320 -0.3211 -0.2667  0.4776
  704TMC3    C410461   0.761   0.809  12.541  0.7439  0.0684 -0.4088
  704TMC3    C510462   0.749   0.670  12.549 -0.0756 -0.3082 -0.1855
  704TMC3    C610463   0.788   0.591  12.442  0.0029  0.1494  0.1598
  704TMC3     C10464   0.788   1.008  12.408 -0.0086  0.8930  0.3115
  704TMC3     O10465   0.698   1.060  12.470 -0.1761 -0.3170  0.0884
  704TMC3     H10466   0.877   0.834  12.219  1.3642 -3.0734 -1.3533
  704TMC3    H110467   0.761   0.861  12.636 -0.9924  1.2154 -1.0537
  704TMC3    H210468   0.787   0.483  12.452 -1.6801  0.0256 -1.4763
  704TMC3    C710469   0.736   0.605  12.675  0.4973 -0.7176  0.0968
  704TMC3    C810470   0.883   0.561  12.229 -0.1637 -0.1542  0.3637
  704TMC3    O110471   0.691   0.491  12.673 -0.1124 -0.1385 -0.0141
  704TMC3    O210472   0.818   0.459  12.216  0.2921 -0.6923  0.3994
  705MPD2     C10473   0.304   3.524  16.668 -0.8393  0.0890 -0.2343
  705MPD2    C110474   0.318   3.638  16.747  0.1874 -1.0818  0.4290
  705MPD2    C210475   0.214   3.678  16.826 -0.6541  0.3214 -0.5238
  705MPD2    C310476   0.089   3.622  16.808 -0.5790  0.8043  0.0710
  705MPD2    C410477   0.075   3.504  16.736 -0.6993  0.3269  0.5128
  705MPD2    C510478   0.190   3.454  16.668 -0.2939  0.0141  0.7150
  705MPD2     H10479   0.227   3.771  16.880 -0.7899 -0.6133  1.1324
  705MPD2    H110480   4.718   3.453  16.731  0.0241 -1.1411  1.5867
  705MPD2    H210481   0.383   3.484  16.605  0.9631  0.8749  1.5167
  705MPD2    H310482   0.177   3.371  16.599  0.8378  0.5823 -0.1791
  705MPD2     N10483   4.710   3.671  16.860  0.3082  0.2483 -0.0702
  705MPD2    H510484   4.628   3.617  16.836  1.4390 -1.5758  0.1846
  705MPD2    N110485   0.444   3.707  16.742  0.2276  0.3011 -0.1160
  705MPD2    H710486   0.438   3.793  16.796  1.4613 -0.1429  0.7250
  706TMC3    C110487   0.887   3.822  16.591 -0.5943 -0.4464  0.2979
  706TMC3    C210488   0.858   3.950  16.627 -0.3064  0.6085  0.0630
  706TMC3    C310489   0.746   3.987  16.700  0.6947 -0.2044 -0.1117
  706TMC3    C410490   0.789   3.725  16.612  0.2332 -0.6197 -0.1848
  706TMC3    C510491   0.670   3.771  16.673  0.9988  0.0390 -0.3618
  706TMC3    C610492   0.639   3.899  16.712 -0.2668 -0.7866 -0.0158
  706TMC3     C10493   1.001   3.800  16.509  0.3097 -0.5852 -0.3638
  706TMC3     O10494   1.112   3.845  16.542  0.4734  0.5010 -0.0197
  706TMC3     H10495   0.912   4.043  16.610 -2.0211  1.5069 -0.4145
  706TMC3    H110496   0.792   3.623  16.577  2.5185 -0.8015  0.5895
  706TMC3    H210497   0.542   3.922  16.752  1.2282  1.7629  2.1622
  706TMC3    C710498   0.562   3.672  16.669 -0.6042 -0.6174  0.2162
  706TMC3    C810499   0.708   4.118  16.652  0.0325 -0.3538  0.3331
  706TMC3    O110500   0.596   3.560  16.637 -0.0807 -0.5964  0.0507
  706TMC3    O210501   0.695   4.135  16.535 -0.0484  0.2175 -0.8321
  707TMC3    C110502   1.452   3.493   1.100  0.5600  0.3356  0.2069
  707TMC3    C210503   1.357   3.398   1.117 -0.7643 -0.1958 -0.1469
  707TMC3    C310504   1.252   3.390   1.032 -0.6706 -0.5387  0.9874
  707TMC3    C410505   1.453   3.572   0.987 -0.1164  0.4461 -0.1625
  707TMC3    C510506   1.365   3.540   0.887 -0.2086 -0.0674  0.1415
  707TMC3    C610507   1.252   3.463   0.915 -0.5663 -0.4512 -0.7101
  707TMC3     C10508   1.583   3.483   1.169  0.5503 -0.2698  0.1365
  707TMC3     O10509   1.684   3.517   1.106 -0.0304  0.0909 -0.1067
  707TMC3     H10510   1.349   3.353   1.215  0.7372 -0.8350 -0.3198
  707TMC3    H110511   1.531   3.642   0.957  2.0897 -1.7468  0.4435
  707TMC3    H210512   1.179   3.435   0.841 -1.3112 -0.2513 -0.0492
  707TMC3    C710513   1.355   3.625   0.768 -0.0936 -0.3612 -0.4271
  707TMC3    C810514   1.185   3.271   1.036 -0.2193 -0.4006 -0.3493
  707TMC3    O110515   1.400   3.738   0.781  0.2941 -0.1671  0.3216
  707TMC3    O210516   1.088   3.272   0.967 -0.1185 -0.2972 -0.1332
  708MPD2     C10517   3.369   2.535  13.459  0.2386  0.0269  0.9211
  708MPD2    C110518   3.362   2.450  13.568 -0.5989 -0.0711  1.0436
  708MPD2    C210519   3.459   2.461  13.668 -0.1112 -0.5241  0.1857
  708MPD2    C310520   3.542   2.567  13.663  0.3349 -0.4723  0.4826
  708MPD2    C410521   3.541   2.659  13.564 -0.3574  0.0644 -0.2791
  708MPD2    C510522   3.452   2.641  13.457  0.6359  0.9669 -0.1583
  708MPD2     H10523   3.471   2.395  13.754  0.8806  0.3266  0.7035
  708MPD2    H110524   3.611   2.742  13.558  0.0202 -0.2345  0.0734
  708MPD2    H210525   3.302   2.507  13.378  0.0838 -1.2268  1.4835
  708MPD2    H310526   3.460   2.704  13.369  1.3435  1.0952 -0.0050
  708MPD2     N10527   3.638   2.582  13.772 -0.5089 -0.4316  0.0308
  708MPD2    H510528   3.632   2.511  13.844 -0.8226 -0.4121  0.0260
  708MPD2    N110529   3.278   2.337  13.553 -0.1968  0.4757  0.3276
  708MPD2    H710530   3.230   2.313  13.467 -0.1907  0.2613  0.3836
  709TMC3    C110531   3.181   2.132  13.639  0.3809 -0.6159 -0.2907
  709TMC3    C210532   3.218   2.054  13.539  0.3639  0.5015  0.4353
  709TMC3    C310533   3.223   1.920  13.560 -0.7819  0.3923  0.3919
  709TMC3    C410534   3.131   2.084  13.759  0.0118  0.1467  0.6071
  709TMC3    C510535   3.143   1.950  13.785 -0.2292  0.7786  0.3182
  709TMC3    C610536   3.191   1.867  13.684 -0.6198  0.4148 -0.1518
  709TMC3     C10537   3.251   2.260  13.662 -0.2785  0.2481 -0.1294
  709TMC3     O10538   3.263   2.292  13.780  0.1845  0.1528 -0.2275
  709TMC3     H10539   3.262   2.096  13.448  0.0699 -0.5973 -0.2107
  709TMC3    H110540   3.078   2.144  13.832  0.8472  3.1573 -1.2606
  709TMC3    H210541   3.194   1.760  13.701  0.6232 -0.0149 -3.1045
  709TMC3    C710542   3.211   1.933  13.905 -0.0185  0.0740  0.1489
  709TMC3    C810543   3.264   1.832  13.449  0.1584 -0.3867 -0.4801
  709TMC3    O110544   3.223   1.823  13.952 -0.1314  0.1959  0.3840
  709TMC3    O210545   3.214   1.719  13.450  0.0935 -0.4512  0.7805
  710TMC3    C110546   4.202   3.843   0.305 -0.0621 -0.6672  0.5423
  710TMC3    C210547   4.248   3.809   0.179  0.2746 -0.2527 -0.1873
  710TMC3    C310548   4.371   3.763   0.169  0.4927  0.0210 -0.0043
  710TMC3    C410549   4.283   3.823   0.413  0.2564  0.8191  0.2175
  710TMC3    C510550   4.414   3.782   0.399 -0.2058 -0.3358  0.0811
  710TMC3    C610551   4.457   3.748   0.275  0.0874 -0.5176  0.3490
  710TMC3     C10552   4.070   3.907   0.314  0.0481 -0.3059  0.2144
  710TMC3     O10553   4.005   3.921   0.210  0.1291  0.1049 -0.5698
  710TMC3     H10554   4.187   3.821   0.091  1.8262  0.8414 -1.1178
  710TMC3    H110555   4.255   3.844   0.515  0.1849  2.2872 -0.0942
  710TMC3    H210556   4.558   3.713   0.253 -0.7315 -2.4319 -0.3790
  710TMC3    C710557   4.491   3.748   0.518  0.2064  0.2240  0.3842
  710TMC3    C810558   4.423   3.728   0.034 -0.0689  0.0195  0.3838
  710TMC3    O110559   4.470   3.803   0.625  0.1541  0.0842 -0.3508
  710TMC3    O210560   4.539   3.689   0.034  0.0084  0.0958  0.5052
  711TMC3    C110561   4.257   0.229  15.407 -0.3294  0.3162 -0.1724
  711TMC3    C210562   4.322   0.296  15.513  0.0598  0.8928  0.0998
  711TMC3    C310563   4.446   0.257  15.548  0.1876 -0.5340  0.6974
  711TMC3    C410564   4.335   0.138  15.340 -0.8862 -0.1909  0.3353
  711TMC3    C510565   4.461   0.105  15.378  1.1042  0.1366  0.1740
  711TMC3    C610566   4.527   0.170  15.481 -0.5908  0.5312  0.0317
  711TMC3     C10567   4.127   0.166  15.436  0.2510  0.4872 -0.5548
  711TMC3     O10568   4.088   0.087  15.353  0.3042  0.3183  0.2009
  711TMC3     H10569   4.263   0.375  15.559  2.0185  1.5164  1.5380
  711TMC3    H110570   4.288   0.092  15.254  0.1267 -0.7202  0.0655
  711TMC3    H210571   4.628   0.145  15.514 -1.2476 -1.1947  0.7426
  711TMC3    C710572   4.479   4.697  15.386  0.2571  0.2269 -0.7754
  711TMC3    C810573   4.495   0.313  15.671  0.3729 -0.4087  0.2383
  711TMC3    O110574   4.532   4.672  15.494 -0.1027 -0.6980 -1.2127
  711TMC3    O210575   4.417   0.390  15.724 -0.0616 -0.3013 -0.3003
  712MPD2     C10576   0.925   0.995  13.792 -0.2377  0.1792 -0.1095
  712MPD2    C110577   0.848   1.090  13.736  0.0536 -0.3149 -0.2738
  712MPD2    C210578   0.901   1.215  13.720  0.2376 -0.3700  0.2868
  712MPD2    C310579   1.027   1.247  13.767 -0.3758  0.1788 -0.4429
  712MPD2    C410580   1.101   1.157  13.840  0.2005  0.0487 -1.2410
  712MPD2    C510581   1.038   1.035  13.855  0.8298  0.3357  0.8248
  712MPD2     H10582   0.847   1.284  13.657 -1.3576 -3.1053 -1.3622
  712MPD2    H110583   1.201   1.167  13.881 -0.3658 -0.4940  0.2788
  712MPD2    H210584   0.883   0.896  13.808  0.5555 -1.0323 -5.3413
  712MPD2    H310585   1.092   0.965  13.918 -0.5788 -1.0792  0.4728
  712MPD2     N10586   1.085   1.374  13.739  0.1123  0.0606  0.0354
  712MPD2    H510587   1.172   1.400  13.785  0.3082  0.1323 -0.3686
  712MPD2    N110588   0.728   1.061  13.665 -0.1907  0.6944  0.0027
  712MPD2    H710589   0.698   1.126  13.593  1.8161  3.4356  1.6849
  713TMC3    C110590   1.130   1.578  13.627 -0.5972  0.4099 -0.4292
  713TMC3    C210591   1.265   1.562  13.630  0.3682 -0.0426  0.3022
  713TMC3    C310592   1.333   1.673  13.592 -0.3595 -0.2978  0.2559
  713TMC3    C410593   1.066   1.696  13.592  0.0779 -1.1004 -0.7704
  713TMC3    C510594   1.138   1.797  13.538  0.0401 -0.0607  0.5113
  713TMC3    C610595   1.274   1.788  13.542 -0.2322 -0.2086 -0.4138
  713TMC3     C10596   1.037   1.469  13.652  0.0869 -1.2832  0.0895
  713TMC3     O10597   0.929   1.489  13.607 -0.2178  0.0919  0.1714
  713TMC3     H10598   1.299   1.460  13.620  1.0345  0.2173 -0.0237
  713TMC3    H110599   0.958   1.700  13.602  0.0167  0.5578 -2.1699
  713TMC3    H210600   1.332   1.874  13.511  1.0975 -0.1755  2.1441
  713TMC3    C710601   1.073   1.928  13.498 -0.0469  0.1379 -0.0632
  713TMC3    C810602   1.478   1.657  13.567  0.3586  0.4683 -0.3452
  713TMC3    O110603   1.148   1.998  13.429  0.2310  0.0022 -0.0512
  713TMC3    O210604   1.520   1.733  13.478  0.1518  0.2521  0.1598
  714MPD2     C10605   2.869   0.584   1.101 -0.6815 -0.2496  0.3920
  714MPD2    C110606   2.884   0.447   1.102 -0.0477  0.1660  0.1009
  714MPD2    C210607   2.790   0.369   1.031  0.2876  0.5074  0.0036
  714MPD2    C310608   2.676   0.421   0.973  0.4106 -0.7685 -0.0132
  714MPD2    C410609   2.649   0.556   1.002  0.3707  0.3913 -0.0905
  714MPD2    C510610   2.744   0.634   1.064  0.0195 -0.3407 -0.2660
  714MPD2     H10611   2.800   0.262   1.014 -0.2966  0.1133  2.0852
  714MPD2    H110612   2.557   0.603   0.967  0.2958  1.5974  1.7245
  714MPD2    H210613   2.945   0.643   1.150 -0.8134  0.2609 -0.0125
  714MPD2    H310614   2.727   0.741   1.061 -0.7878 -0.4844 -1.2777
  714MPD2     N10615   2.588   0.327   0.908  0.6751  0.5205  0.4359
  714MPD2    H510616   2.641   0.247   0.877  0.8810  0.4062  1.0829
  714MPD2    N110617   2.995   0.387   1.169 -0.5460  0.6212 -0.0106
  714MPD2    H710618   3.050   0.445   1.231 -2.7770  0.5915  1.9532
  715TMC3    C110619   3.146   0.217   1.218 -0.2360  0.3563  0.7820
  715TMC3    C210620   3.172   0.085   1.249  1.0526 -0.8530  0.5516
  715TMC3    C310621   3.298   0.049   1.295 -0.2719 -0.5061  0.6203
  715TMC3    C410622   3.240   0.310   1.243  0.3469  0.5704  0.4246
  715TMC3    C510623   3.365   0.272   1.291 -1.0537 -0.0043 -0.4102
  715TMC3    C610624   3.397   0.141   1.304 -0.8048  0.6581 -0.1758
  715TMC3     C10625   3.009   0.253   1.193  0.4148  0.2712 -0.1275
  715TMC3     O10626   2.929   0.157   1.179  0.4786 -0.3333  0.1173
  715TMC3     H10627   3.094   0.010   1.242 -0.1695  0.3539  1.1691
  715TMC3    H110628   3.233   0.409   1.200  2.1285  0.5832  0.1480
  715TMC3    H210629   3.497   0.107   1.327 -1.2576  0.3015  1.2443
  715TMC3    C710630   3.461   0.369   1.340  0.2714  0.5313  1.0581
  715TMC3    C810631   3.309   4.650   1.340 -0.2942 -0.3171  0.3104
  715TMC3    O110632   3.577   0.327   1.363 -0.1846 -0.0339  0.1614
  715TMC3    O210633   3.233   4.563   1.303 -0.2861 -0.1714  0.1525
  716MPD2     C10634   2.491   2.773   9.926  0.3498 -0.9558  1.0452
  716MPD2    C110635   2.420   2.729   9.821  0.2112 -0.3497 -1.0005
  716MPD2    C210636   2.486   2.641   9.739  0.3677 -0.6336 -0.2080
  716MPD2    C310637   2.620   2.611   9.759 -0.0783  0.2789  0.3284
  716MPD2    C410638   2.691   2.657   9.859 -1.0935  0.3600  0.5431
  716MPD2    C510639   2.620   2.733   9.949 -0.5581  0.3469  0.4935
  716MPD2     H10640   2.433   2.601   9.653 -2.1311  1.1787  0.4701
  716MPD2    H110641   2.795   2.634   9.879 -1.1376 -0.0557  0.3055
  716MPD2    H210642   2.439   2.841   9.992 -2.3602  1.6501 -3.7829
  716MPD2    H310643   2.662   2.751  10.048  2.9403  2.7765 -1.4379
  716MPD2     N10644   2.676   2.532   9.652  0.1356  0.0463 -0.4596
  716MPD2    H510645   2.623   2.497   9.573  1.4701  0.8163 -1.6889
  716MPD2    N110646   2.286   2.773   9.804  0.3739 -0.7193  0.5383
  716MPD2    H710647   2.252   2.842   9.870 -1.7621  0.9286 -2.2592
  717TMC3    C110648   2.858   2.428   9.528  0.0186 -0.6428 -0.4949
  717TMC3    C210649   2.764   2.371   9.443  0.1673 -0.2382  0.4137
  717TMC3    C310650   2.810   2.276   9.356  0.3079  0.0294 -0.1392
  717TMC3    C410651   2.990   2.403   9.518 -0.0226  0.3319 -0.7939
  717TMC3    C510652   3.030   2.322   9.413 -0.7802  0.7264  0.0202
  717TMC3    C610653   2.945   2.257   9.325  0.3961  0.4835  0.1246
  717TMC3     C10654   2.814   2.522   9.633 -0.2419  0.0394  0.1014
  717TMC3     O10655   2.902   2.566   9.704  0.1086 -0.4095 -0.2448
  717TMC3     H10656   2.660   2.397   9.456  0.5689  0.9664  1.2196
  717TMC3    H110657   3.054   2.443   9.596 -1.5587 -0.3828  0.8232
  717TMC3    H210658   2.988   2.189   9.253 -0.4299 -1.1087  1.1195
  717TMC3    C710659   3.167   2.283   9.416 -0.5189  0.3734 -0.7714
  717TMC3    C810660   2.710   2.179   9.303  0.0385  0.5939  0.2987
  717TMC3    O110661   3.195   2.192   9.337 -0.0166 -0.2118 -0.4617
  717TMC3    O210662   2.605   2.180   9.361  0.3810 -0.4671 -0.6132
  718MPD2     C10663   2.489   1.385  12.736 -0.0119  0.0183 -0.5344
  718MPD2    C110664   2.501   1.254  12.685 -0.0219 -0.2742 -0.5016
  718MPD2    C210665   2.404   1.159  12.717 -0.3177 -0.5237  0.0674
  718MPD2    C310666   2.295   1.191  12.794  0.1087 -0.4474 -0.2561
  718MPD2    C410667   2.281   1.326  12.834  0.1182  0.0471  0.0774
  718MPD2    C510668   2.378   1.415  12.802 -0.0075  0.3332  0.3103
  718MPD2     H10669   2.416   1.056  12.683 -0.3273 -0.4437 -0.1758
  718MPD2    H110670   2.199   1.368  12.893  0.6733  2.2830 -0.7224
  718MPD2    H210671   2.554   1.465  12.702  3.0886 -3.6499 -3.2178
  718MPD2    H310672   2.359   1.517  12.835 -0.5045  0.5747 -0.7317
  718MPD2     N10673   2.212   1.087  12.832  0.2670  0.0235  0.1383
  718MPD2    H510674   2.218   0.999  12.781  4.0762  0.0191  0.5437
  718MPD2    N110675   2.616   1.228  12.601  0.3655  0.1902 -0.1968
  718MPD2    H710676   2.682   1.303  12.582  1.4822 -0.6587  0.3306
  719TMC3    C110677   2.790   1.104  12.487  0.5162 -0.3065  0.3689
  719TMC3    C210678   2.822   0.975  12.463 -0.0218  0.5176 -0.3982
  719TMC3    C310679   2.922   0.910  12.535  0.7148 -0.6397 -0.4217
  719TMC3    C410680   2.876   1.183  12.552 -0.2727 -0.6527 -0.1859
  719TMC3    C510681   2.988   1.122  12.614 -0.5383 -0.0418  0.2098
  719TMC3    C610682   3.007   0.985  12.607  0.1737 -0.2065 -0.5578
  719TMC3     C10683   2.651   1.117  12.528 -0.1669  0.6375 -0.3940
  719TMC3     O10684   2.592   1.008  12.530  0.1831  0.1227  0.1088
  719TMC3     H10685   2.758   0.912  12.402  3.1883 -1.7423 -1.4132
  719TMC3    H110686   2.861   1.290  12.564  0.3751 -0.6868  0.9873
  719TMC3    H210687   3.098   0.939  12.646 -0.8197 -1.7127 -0.0253
  719TMC3    C710688   3.101   1.217  12.631 -0.2237  0.2635  0.4266
  719TMC3    C810689   2.875   0.794  12.607  0.0579 -0.1748  0.1059
  719TMC3    O110690   3.083   1.331  12.592 -0.2854  0.3914  0.8031
  719TMC3    O210691   2.953   0.731  12.682 -0.2560  0.0706 -0.1656
  720MPD2     C10692   0.918   2.887  14.477  0.4587  0.1725 -0.6303
  720MPD2    C110693   1.019   2.880  14.378 -0.3478  0.7547  0.0486
  720MPD2    C210694   1.148   2.862  14.425 -0.8827 -0.5251  1.1223
  720MPD2    C310695   1.187   2.829  14.552  0.5440  1.0526  0.8166
  720MPD2    C410696   1.084   2.809  14.643 -0.2135 -0.2275 -0.3373
  720MPD2    C510697   0.958   2.840  14.608  0.0022  0.6396  0.1984
  720MPD2     H10698   1.229   2.887  14.357 -0.7592  0.7156  1.7309
  720MPD2    H110699   1.093   2.788  14.749  0.0933  0.1688 -0.2805
  720MPD2    H210700   0.814   2.899  14.451 -0.4219 -2.7069  1.4614
  720MPD2    H310701   0.890   2.832  14.692  0.6685 -1.3951  0.5402
  720MPD2     N10702   1.321   2.843  14.594  0.4329 -0.0330 -0.4774
  720MPD2    H510703   1.382   2.899  14.536 -1.9058  1.4900 -1.4643
  720MPD2    N110704   0.992   2.916  14.245 -0.6049 -0.0285 -0.1393
  720MPD2    H710705   1.067   2.890  14.182 -0.5866 -0.1451 -0.0703
  721TMC3    C110706   1.496   2.812  14.765 -0.2225 -0.1533  0.4084
  721TMC3    C210707   1.514   2.806  14.900 -0.8494 -0.4443 -0.1355
  721TMC3    C310708   1.636   2.848  14.941 -0.5368 -0.5386 -0.1067
  721TMC3    C410709   1.591   2.838  14.670 -0.4409 -0.1857  0.5611
  721TMC3    C510710   1.707   2.880  14.719  0.2406 -0.1135  0.1633
  721TMC3    C610711   1.728   2.890  14.851  0.4997 -0.2097  0.4300
  721TMC3     C10712   1.354   2.792  14.723  0.0041  0.2630 -0.6904
  721TMC3     O10713   1.292   2.730  14.809 -0.3497 -0.1081  0.3217
  721TMC3     H10714   1.438   2.766  14.965 -0.6016 -1.3478 -0.3990
  721TMC3    H110715   1.574   2.842  14.563  1.4923 -3.4037  0.1395
  721TMC3    H210716   1.824   2.923  14.890  0.0593  1.7735 -0.1683
  721TMC3    C710717   1.809   2.812  14.651  0.6870 -0.3077 -0.3070
  721TMC3    C810718   1.673   2.874  15.076 -0.8920  0.4618  0.1009
  721TMC3    O110719   1.815   2.806  14.527  0.6169 -0.2247 -0.0756
  721TMC3    O210720   1.725   2.982  15.097  0.7557  0.0302  0.2138
  722MPD2     C10721   0.045   1.493  13.584  0.1093 -0.4729 -0.0653
  722MPD2    C110722   4.686   1.590  13.540  0.3123 -0.5500 -0.6924
  722MPD2    C210723   4.555   1.574  13.572  0.4029  0.4634 -0.6897
  722MPD2    C310724   4.519   1.467  13.651 -1.0389  0.2040  0.3742
  722MPD2    C410725   4.607   1.370  13.694  0.3166  0.0112  0.8039
  722MPD2    C510726   4.736   1.382  13.649  0.1174  0.3159  0.3202
  722MPD2     H10727   4.482   1.648  13.542 -0.0236 -0.1680 -1.1867
  722MPD2    H110728   4.574   1.283  13.749  0.5244 -0.5651  0.0099
  722MPD2    H210729   0.148   1.501  13.552  0.0999 -0.3027 -0.0513
  722MPD2    H310730   0.069   1.310  13.689  1.1171  1.7158  1.0537
  722MPD2     N10731   4.379   1.462  13.676  0.0937 -0.1595 -0.0535
  722MPD2    H510732   4.326   1.541  13.643  1.7028  0.3427 -1.4527
  722MPD2    N110733   4.716   1.717  13.483 -0.6151 -0.5032  0.0761
  722MPD2    H710734   4.635   1.776  13.467  0.5340  1.4324  1.3951
  723TMC3    C110735   4.181   1.408  13.769  0.1553 -0.0947 -0.4999
  723TMC3    C210736   4.089   1.311  13.749  0.6716 -0.4485  0.2341
  723TMC3    C310737   3.958   1.347  13.741  0.3115  0.3354  0.3902
  723TMC3    C410738   4.153   1.545  13.757  0.4697  0.1821 -0.4168
  723TMC3    C510739   4.021   1.569  13.758  0.1289 -0.5288  0.2880
  723TMC3    C610740   3.922   1.480  13.744 -0.1100  0.2875 -0.2649
  723TMC3     C10741   4.315   1.376  13.755  0.4641  0.1634 -0.1609
  723TMC3     O10742   4.352   1.274  13.810 -0.6537 -0.8018  0.5129
  723TMC3     H10743   4.115   1.208  13.766 -0.2747 -0.3057  2.4822
  723TMC3    H110744   4.224   1.626  13.766  0.2441  0.5808 -2.1546
  723TMC3    H210745   3.821   1.510  13.718 -0.3549 -0.1308  0.2080
  723TMC3    C710746   3.995   1.698  13.683  0.1672  0.3249  1.0346
  723TMC3    C810747   3.850   1.265  13.687 -0.1809 -1.3855  0.1795
  723TMC3    O110748   4.066   1.795  13.708  0.2341 -0.2155  0.8514
  723TMC3    O210749   3.735   1.303  13.716  0.3388  0.3687  0.1027
  724TMC3    C110750   0.054   4.440  10.334  0.3156 -0.2563 -0.2802
  724TMC3    C210751   0.046   4.512  10.216  0.6815 -0.2875 -0.1873
  724TMC3    C310752   0.100   4.640  10.218 -1.2075  0.4528 -0.2841
  724TMC3    C410753   0.097   4.499  10.451 -0.1395  0.0884 -0.1731
  724TMC3    C510754   0.143   4.622  10.447  0.1734 -0.1822 -0.2607
  724TMC3    C610755   0.142   4.699  10.334  0.3072  0.8067 -0.2752
  724TMC3     C10756   4.723   4.317  10.340  0.8916 -0.5758  0.1599
  724TMC3     O10757   0.005   4.251  10.442  0.5714  0.1822  0.2314
  724TMC3     H10758   0.053   4.463  10.120 -0.0229  1.8436 -1.3111
  724TMC3    H110759   0.103   4.437  10.540  0.0735  0.6868  0.2227
  724TMC3    H210760   0.161   0.068  10.338 -1.4259  1.0226  2.2506
  724TMC3    C710761   0.181   4.711  10.565  0.3193  0.5343  0.1202
  724TMC3    C810762   0.098   4.701  10.084  0.1495  0.3077  0.0504
  724TMC3    O110763   0.236   0.078  10.538 -0.4403  0.2336  0.4020
  724TMC3    O210764   0.028   4.641  10.002 -0.1276  0.0851 -0.0843
  725TMC3    C110765   1.976   3.348  12.975 -0.4825 -0.6019 -0.7436
  725TMC3    C210766   1.842   3.377  12.979  0.5040  0.1095 -0.5405
  725TMC3    C310767   1.750   3.280  12.924 -0.1670 -0.1234 -0.8468
  725TMC3    C410768   2.020   3.222  12.937  0.4348 -0.2334  0.0754
  725TMC3    C510769   1.929   3.128  12.894 -0.1382 -0.2735  0.2542
  725TMC3    C610770   1.795   3.155  12.885 -0.3185 -0.1549  0.6570
  725TMC3     C10771   2.065   3.438  13.047  0.5812 -1.0166  0.1256
  725TMC3     O10772   2.028   3.553  13.061  0.3438  0.4078  0.3515
  725TMC3     H10773   1.796   3.456  13.037  1.1982 -0.4505  0.7657
  725TMC3    H110774   2.124   3.211  12.908 -0.5097 -0.4690 -3.2436
  725TMC3    H210775   1.721   3.077  12.876  1.0385 -1.2784 -0.6877
  725TMC3    C710776   1.977   2.992  12.910  0.4004 -0.7572  0.1419
  725TMC3    C810777   1.608   3.289  12.916  0.3423 -0.5472  0.4083
  725TMC3    O110778   2.069   2.973  12.987  0.4705  0.5844  0.3148
  725TMC3    O210779   1.545   3.189  12.947  0.6422  0.0686  0.1756
  726MPD2     C10780   4.454   0.542  10.665 -0.4587  0.6931 -0.5363
  726MPD2    C110781   4.403   0.476  10.556  0.3354  0.0229 -1.0056
  726MPD2    C210782   4.339   0.350  10.579 -0.4063  0.0546 -0.2225
  726MPD2    C310783   4.334   0.296  10.702  0.2111  0.0016 -0.2470
  726MPD2    C410784   4.401   0.362  10.807  0.3680  0.0857  0.4079
  726MPD2    C510785   4.453   0.489  10.791 -0.3130  0.2239  0.3318
  726MPD2     H10786   4.298   0.289  10.501 -1.2139  0.2261  0.0743
  726MPD2    H110787   4.406   0.323  10.909  0.5989  0.6167  0.5993
  726MPD2    H210788   4.499   0.641  10.657  0.6909  0.1691 -0.5160
  726MPD2    H310789   4.488   0.554  10.870 -0.3309  1.2118 -0.4689
  726MPD2     N10790   4.253   0.178  10.716  0.0552  0.0040  0.0842
  726MPD2    H510791   4.218   0.145  10.627 -0.3421 -0.6858  0.5015
  726MPD2    N110792   4.421   0.534  10.434 -0.2476  0.3035 -0.5510
  726MPD2    H710793   4.460   0.627  10.442 -1.5599  0.8962 -1.1019
  727TMC3    C110794   4.399   0.602  10.221 -0.3883  0.4191  0.1821
  727TMC3    C210795   4.474   0.704  10.273  0.3993 -0.4270  0.3185
  727TMC3    C310796   4.428   0.832  10.266 -0.6077 -0.5986  0.5003
  727TMC3    C410797   4.283   0.624  10.151 -0.5101 -0.2041 -0.0507
  727TMC3    C510798   4.232   0.753  10.151 -0.6257 -0.0446  0.9592
  727TMC3    C610799   4.307   0.853  10.202 -0.8484 -0.3109 -0.1657
  727TMC3     C10800   4.382   0.491  10.310  0.0920 -0.2432 -0.7644
  727TMC3     O10801   4.305   0.397  10.288 -0.1344 -0.0805  0.0275
  727TMC3     H10802   4.566   0.677  10.323 -0.3918 -2.4293  0.7185
  727TMC3    H110803   4.218   0.541  10.123  0.7098 -0.9535 -0.6496
  727TMC3    H210804   4.257   0.949  10.207  2.3754  1.3925 -0.1862
  727TMC3    C710805   4.092   0.757  10.119 -0.2577 -0.3686  0.3977
  727TMC3    C810806   4.485   0.921  10.359  0.1913 -0.4320  0.1920
  727TMC3    O110807   4.057   0.693  10.021  0.0077 -0.1545  0.2367
  727TMC3    O210808   4.540   0.860  10.447  0.3181  0.2498  0.0101
  728TMC3    C110809   3.080   3.588  16.250  0.3220  0.3458 -0.2335
  728TMC3    C210810   3.189   3.638  16.316  0.5471 -0.7320 -0.3397
  728TMC3    C310811   3.296   3.687  16.240 -0.8780  0.5215  0.3361
  728TMC3    C410812   3.072   3.597  16.115 -0.2386 -0.4106 -0.1215
  728TMC3    C510813   3.180   3.658  16.049 -0.1577 -0.2693 -1.0483
  728TMC3    C610814   3.293   3.700  16.106  0.3025  0.3366  0.1977
  728TMC3     C10815   2.982   3.526  16.333 -0.3574 -0.1816  0.0910
  728TMC3     O10816   2.970   3.573  16.448 -0.4315 -0.4145 -0.4554
  728TMC3     H10817   3.179   3.663  16.421 -1.9574 -1.4542 -0.4077
  728TMC3    H110818   2.980   3.575  16.062  0.1729 -1.7991 -0.2643
  728TMC3    H210819   3.380   3.729  16.048 -0.1179  2.0197  0.4115
  728TMC3    C710820   3.184   3.668  15.902  0.1557  0.1205 -0.0491
  728TMC3    C810821   3.414   3.725  16.323 -1.0001  0.5214  0.5166
  728TMC3    O110822   3.153   3.570  15.834  0.1810 -0.3813 -0.5579
  728TMC3    O210823   3.422   3.676  16.437  0.4272 -0.4761 -0.1874
  729MPD2     C10824   0.682   4.735  17.073 -0.4455  0.1878  0.1443
  729MPD2    C110825   0.779   4.635  17.072  0.4531  0.7299 -0.1039
  729MPD2    C210826   0.829   4.615  17.200 -0.1341  0.0376  0.3977
  729MPD2    C310827   0.785   4.680  17.317  0.4690 -0.1224  0.4811
  729MPD2    C410828   0.687   0.035  17.300 -0.1716 -0.0899 -0.1552
  729MPD2    C510829   0.627   0.061  17.184 -0.1215  0.3873 -0.2372
  729MPD2     H10830   0.909   4.542  17.207  0.0294  0.2758  0.9835
  729MPD2    H110831   0.656   0.088  17.389  0.7791  0.8949 -0.4077
  729MPD2    H210832   0.624   0.034  16.989 -0.3475  0.2125  0.0877
  729MPD2    H310833   0.546   0.133  17.177 -1.0097 -0.7807 -1.9701
  729MPD2     N10834   0.818   4.651  17.453  0.3023 -0.1756  0.1878
  729MPD2    H510835   0.759   4.687  17.528 -1.9314 -0.7662 -1.3190
  729MPD2    N110836   0.847   4.606  16.951 -0.0984 -0.4054 -0.0427
  729MPD2    H710837   0.816   4.655  16.868  0.7608 -0.3141 -0.3015
  730TMC3    C110838   0.979   4.589  17.616 -0.1277 -0.2179  0.1479
  730TMC3    C210839   1.106   4.532  17.612  0.3991  0.1821 -0.5367
  730TMC3    C310840   1.208   4.615  17.643  0.0827  0.4401 -0.4243
  730TMC3    C410841   0.956   4.717  17.673  0.0004  0.1966 -0.9815
  730TMC3    C510842   1.067   0.050  17.720  0.1596  0.2417 -0.0320
  730TMC3    C610843   1.191   4.728  17.709 -0.1201  0.5764 -0.0312
  730TMC3     C10844   0.918   4.566  17.483  0.2654 -1.1161 -0.1668
  730TMC3     O10845   0.984   4.500  17.407 -0.5288  0.6924 -0.3044
  730TMC3     H10846   1.144   4.439  17.573 -0.9679 -1.0994  1.1872
  730TMC3    H110847   0.857   0.024  17.675 -0.5005 -1.0215  3.4128
  730TMC3    H210848   1.281   0.039  17.745  0.6327 -0.1304 -0.9144
  730TMC3    C710849   1.053   0.184  17.656  0.2131 -0.6609  0.2556
  730TMC3    C810850   1.320   4.608  17.548 -0.0847  0.7739 -0.9617
  730TMC3    O110851   0.963   0.193  17.575 -0.1306  0.2275 -0.4777
  730TMC3    O210852   1.353   4.496  17.512  0.1963  0.0694  0.6028
  731MPD2     C10853   1.303   2.919  12.442  0.4547 -0.2118 -0.0771
  731MPD2    C110854   1.421   2.946  12.504 -0.1666 -0.3550  0.2359
  731MPD2    C210855   1.468   2.865  12.603 -0.6511 -0.1428 -0.0420
  731MPD2    C310856   1.396   2.748  12.635  0.3803  0.3576  0.5344
  731MPD2    C410857   1.278   2.719  12.572  0.4275 -0.5261  0.0201
  731MPD2    C510858   1.234   2.803  12.470  0.1717 -0.3901  0.1938
  731MPD2     H10859   1.562   2.889  12.652 -1.6360  2.0277  0.7568
  731MPD2    H110860   1.226   2.626  12.592 -3.4085  1.6768  0.2317
  731MPD2    H210861   1.261   2.984  12.367  1.7252  1.1869  0.4307
  731MPD2    H310862   1.141   2.795  12.414 -0.8170  2.6158  1.3906
  731MPD2     N10863   1.443   2.660  12.744 -0.0913  0.2646  0.4755
  731MPD2    H510864   1.533   2.684  12.786  1.7650 -2.0990 -2.1355
  731MPD2    N110865   1.503   3.058  12.461  0.1554  0.4592 -0.4055
  731MPD2    H710866   1.464   3.114  12.386 -1.9031  0.9193  1.0074
  732TMC3    C110867   1.693   3.196  12.427  0.1833 -1.0246  0.4215
  732TMC3    C210868   1.658   3.217  12.298  0.2224 -0.4795 -0.4232
  732TMC3    C310869   1.740   3.290  12.223  0.1325 -1.0463  0.8772
  732TMC3    C410870   1.816   3.239  12.482 -0.4358 -0.2018  0.0840
  732TMC3    C510871   1.897   3.300  12.389  0.5268  0.0361  0.3308
  732TMC3    C610872   1.862   3.332  12.260  0.7434 -0.5474  0.4794
  732TMC3     C10873   1.629   3.095  12.510 -0.2339  0.3926  0.2426
  732TMC3     O10874   1.697   3.054  12.605 -0.5694  0.1900  0.3676
  732TMC3     H10875   1.556   3.194  12.269 -0.5563  1.1844  0.9744
  732TMC3    H110876   1.852   3.211  12.580 -0.0393 -0.5625 -0.1676
  732TMC3    H210877   1.924   3.389  12.192 -1.2827 -0.6803 -1.4719
  732TMC3    C710878   2.035   3.310  12.435  0.7564 -0.4288  0.2774
  732TMC3    C810879   1.698   3.319  12.089 -0.1764  0.3418 -0.2145
  732TMC3    O110880   2.092   3.411  12.401 -0.3635  0.2858 -0.2982
  732TMC3    O210881   1.743   3.421  12.037  0.0252  0.2404 -0.0290
  733TMC3    C110882   1.902   0.792  12.941  0.8184  0.4614  0.0028
  733TMC3    C210883   1.929   0.928  12.935 -0.3311  0.3945 -0.3882
  733TMC3    C310884   2.059   0.965  12.937  0.4171  1.0332 -1.0559
  733TMC3    C410885   2.005   0.705  12.973  0.4724 -0.2737  0.6264
  733TMC3    C510886   2.136   0.747  12.954  0.1755 -0.2914 -0.3695
  733TMC3    C610887   2.164   0.882  12.938 -0.0450  0.0062  0.0231
  733TMC3     C10888   1.767   0.733  12.933 -0.1884  0.4527 -0.7079
  733TMC3     O10889   1.752   0.614  12.920 -0.0560  0.2497  0.5754
  733TMC3     H10890   1.853   1.005  12.924  1.2276  1.7433 -1.5753
  733TMC3    H110891   1.993   0.600  12.996 -2.4723 -0.4699 -1.8429
  733TMC3    H210892   2.263   0.906  12.974 -0.6362 -0.6907  2.1129
  733TMC3    C710893   2.229   0.648  12.909 -0.3144  0.5258  0.2146
  733TMC3    C810894   2.099   1.096  12.909 -0.1617 -0.7004 -0.0122
  733TMC3    O110895   2.221   0.541  12.963 -0.2012  0.7567  0.2105
  733TMC3    O210896   2.041   1.196  12.948 -0.5332  0.5158  0.3069
  734MPD2     C10897   4.291   2.837  12.870 -0.2303 -0.3855  0.1821
  734MPD2    C110898   4.173   2.813  12.794  0.0562 -0.0078  0.7223
  734MPD2    C210899   4.152   2.888  12.681 -0.0637 -0.8398 -0.0790
  734MPD2    C310900   4.246   2.970  12.621 -0.3394  0.3541  0.8114
  734MPD2    C410901   4.361   2.986  12.698  0.1498 -0.4604  0.6011
  734MPD2    C510902   4.381   2.923  12.820 -0.8806  0.4129  0.3032
  734MPD2     H10903   4.063   2.876  12.621 -0.5506 -1.1402  0.7073
  734MPD2    H110904   4.439   3.054  12.665 -1.0597  1.2663  1.3118
  734MPD2    H210905   4.316   2.773  12.954 -2.6425 -0.5426  0.7656
  734MPD2    H310906   4.468   2.942  12.881  0.5869 -2.1825 -0.9628
  734MPD2     N10907   4.218   3.031  12.495  0.1045  0.0822 -0.9594
  734MPD2    H510908   4.128   3.005  12.456 -0.9665  1.0339  0.8509
  734MPD2    N110909   4.088   2.705  12.835  0.1407 -0.4606  0.9454
  734MPD2    H710910   4.118   2.658  12.920  2.8860 -0.2077  0.0988
  735TMC3    C110911   3.921   2.529  12.805  0.0365 -0.2792  0.2826
  735TMC3    C210912   3.817   2.499  12.719  0.2613  0.5258  0.3165
  735TMC3    C310913   3.829   2.396  12.631 -0.0933 -0.3121  0.2332
  735TMC3    C410914   4.018   2.443  12.829  0.0361  0.6971 -0.0933
  735TMC3    C510915   4.029   2.333  12.741 -0.0098  0.1969  0.0702
  735TMC3    C610916   3.934   2.311  12.648  0.1873  0.2136  0.0145
  735TMC3     C10917   3.972   2.668  12.771 -0.6313 -0.7463  0.5643
  735TMC3     O10918   3.915   2.716  12.677  0.6617 -0.0182 -0.2480
  735TMC3     H10919   3.742   2.578  12.710  0.6054  0.5822 -2.0198
  735TMC3    H110920   4.098   2.465  12.900  0.0513  0.1837  0.0455
  735TMC3    H210921   3.946   2.229  12.578 -0.1742  0.5271 -0.4157
  735TMC3    C710922   4.163   2.332  12.679  0.0713 -0.3030  0.1493
  735TMC3    C810923   3.794   2.416  12.492 -0.1988  0.3084  0.3973
  735TMC3    O110924   4.219   2.444  12.673 -0.0539  0.1296  0.3167
  735TMC3    O210925   3.749   2.327  12.425 -0.3568 -0.0586 -0.6308
  736MPD2     C10926   4.306   2.074  12.456  0.7145  0.0387 -0.5606
  736MPD2    C110927   4.289   2.200  12.505  0.5147  0.6512 -0.1563
  736MPD2    C210928   4.361   2.306  12.446 -0.0727 -0.3202  0.5711
  736MPD2    C310929   4.441   2.280  12.334 -0.3943  0.7775 -0.2000
  736MPD2    C410930   4.460   2.154  12.297  0.0337  0.0482  0.3805
  736MPD2    C510931   4.405   2.046  12.365  0.4624 -0.5265 -0.4597
  736MPD2     H10932   4.343   2.408  12.479 -2.4798 -0.1150 -1.3266
  736MPD2    H110933   4.526   2.135  12.214  1.6355 -0.5446  1.7973
  736MPD2    H210934   4.247   1.987  12.484 -1.4444  1.0620 -1.9098
  736MPD2    H310935   4.432   1.945  12.335  1.3953  0.4296 -2.7894
  736MPD2     N10936   4.507   2.380  12.260 -0.0895  0.0761  0.9183
  736MPD2    H510937   4.566   2.346  12.185 -2.8868  0.9532 -1.7078
  736MPD2    N110938   4.184   2.213  12.609 -0.1685  0.0561  0.8704
  736MPD2    H710939   4.137   2.129  12.644 -1.4457 -0.0070 -1.0096
  737TMC3    C110940   4.607   2.590  12.213  0.1677  0.2741 -0.9111
  737TMC3    C210941   4.572   2.721  12.198  0.0316  0.0501  0.1058
  737TMC3    C310942   4.621   2.789  12.091  0.1515  0.2206 -0.0620
  737TMC3    C410943   4.690   2.525  12.131  0.1548 -0.1858  0.0990
  737TMC3    C510944   0.009   2.596  12.034  0.2111  0.0907 -0.5659
  737TMC3    C610945   4.714   2.728  12.009  0.3166 -0.0213 -0.1069
  737TMC3     C10946   4.517   2.514  12.292  0.0209 -0.2099 -0.7306
  737TMC3     O10947   4.450   2.576  12.373 -0.3650 -0.0538  0.5196
  737TMC3     H10948   4.508   2.767  12.272  1.3609 -0.0649  1.3057
  737TMC3    H110949   4.705   2.418  12.136 -0.4454 -0.2790 -0.0170
  737TMC3    H210950   0.027   2.788  11.936  0.0196  1.7212  1.1111
  737TMC3    C710951   0.096   2.517  11.948  0.3921  0.0002 -0.3683
  737TMC3    C810952   4.576   2.921  12.067 -0.0780 -0.1804 -0.4896
  737TMC3    O110953   0.118   2.401  11.966  0.2199  0.0236  0.3754
  737TMC3    O210954   4.531   2.987  12.160  0.4570  0.2691  0.2831
  738MPD2     C10955   4.636   2.349  15.138 -0.0016  0.5517 -0.6539
  738MPD2    C110956   4.693   2.236  15.081 -0.2459  0.5512  0.1968
  738MPD2    C210957   0.072   2.245  15.009  0.0611 -0.0813 -0.9341
  738MPD2    C310958   0.130   2.368  15.003 -0.4453  0.7673 -0.7238
  738MPD2    C410959   0.074   2.476  15.058 -0.3704  0.6190 -0.0045
  738MPD2    C510960   4.692   2.472  15.121 -0.0686  0.8463  0.6349
  738MPD2     H10961   0.106   2.159  14.952 -0.1366 -0.6458 -0.1956
  738MPD2    H110962   0.115   2.576  15.047 -0.2458  0.3701 -1.7971
  738MPD2    H210963   4.539   2.345  15.186 -0.7326 -0.7286 -2.2539
  738MPD2    H310964   4.643   2.564  15.150  0.6908  1.2186  0.7181
  738MPD2     N10965   0.250   2.393  14.934 -0.3059 -0.4816  0.1697
  738MPD2    H510966   0.282   2.488  14.915 -0.7082 -0.3174  0.3168
  738MPD2    N110967   4.632   2.108  15.108 -0.1245 -0.0667  0.0060
  738MPD2    H710968   4.663   2.034  15.046 -1.1281  0.4257 -1.0699
  739TMC3    C110969   0.449   2.373  14.821  0.1212 -0.1313  0.0368
  739TMC3    C210970   0.509   2.335  14.702 -0.6103 -0.4505  0.3649
  739TMC3    C310971   0.626   2.394  14.659 -0.1848  0.1809  0.0978
  739TMC3    C410972   0.493   2.476  14.896 -0.2646 -0.7578 -0.2695
  739TMC3    C510973   0.618   2.524  14.860 -0.8545 -0.5169 -0.1831
  739TMC3    C610974   0.681   2.490  14.743 -0.9790 -0.2652  0.3556
  739TMC3     C10975   0.325   2.308  14.853  0.0825 -0.4445 -0.0038
  739TMC3     O10976   0.304   2.200  14.805 -0.5526 -0.4375 -0.3200
  739TMC3     H10977   0.465   2.256  14.643 -0.1756 -0.6813  0.3487
  739TMC3    H110978   0.467   2.489  15.001  2.4942  0.3560  0.2776
  739TMC3    H210979   0.753   2.565  14.713 -0.6206 -0.5296  0.5510
  739TMC3    C710980   0.695   2.569  14.977 -0.0505 -0.3277 -0.2872
  739TMC3    C810981   0.671   2.381  14.520 -0.5784  0.1665  0.5999
  739TMC3    O110982   0.635   2.601  15.076  0.4124 -0.1129 -0.2015
  739TMC3    O210983   0.596   2.317  14.447 -0.3720  0.0453 -0.2290
  740TMC3    C110984   0.819   3.271  14.526 -0.1787 -0.2448 -0.0764
  740TMC3    C210985   0.850   3.219  14.645 -1.1467 -0.8530 -0.1144
  740TMC3    C310986   0.981   3.183  14.675 -0.4679 -0.0165 -0.2415
  740TMC3    C410987   0.913   3.297  14.432  0.1735  0.2955  0.0938
  740TMC3    C510988   1.044   3.256  14.459 -0.1352 -0.1761  0.2940
  740TMC3    C610989   1.079   3.199  14.581  0.3375 -0.5064 -0.2158
  740TMC3     C10990   0.708   3.361  14.520 -0.0267 -0.0925 -0.2427
  740TMC3     O10991   0.716   3.462  14.456 -0.4291  0.6219 -0.1434
  740TMC3     H10992   0.781   3.212  14.728 -1.3274  0.2449 -0.1615
  740TMC3    H110993   0.883   3.333  14.334  0.2391  0.6908  0.2176
  740TMC3    H210994   1.172   3.146  14.596  0.7746 -0.4573 -2.7233
  740TMC3    C710995   1.150   3.259  14.361  0.1993  0.6125  0.2980
  740TMC3    C810996   1.004   3.131  14.806 -0.1082  0.3923  0.9253
  740TMC3    O110997   1.256   3.194  14.384  0.4594 -0.3193  0.5699
  740TMC3    O210998   0.904   3.098  14.865  0.0697  0.2522  0.0208
  741TMC3    C110999   0.558   2.774  14.089  0.0775 -0.2021 -0.6032
  741TMC3    C211000   0.497   2.673  14.016  0.3570 -0.0865 -0.4830
  741TMC3    C311001   0.472   2.557  14.080 -0.6286  0.5496 -0.1152
  741TMC3    C411002   0.568   2.765  14.227 -0.3842  0.5486 -0.7491
  741TMC3    C511003   0.524   2.650  14.289  1.3562  0.0198  1.3052
  741TMC3    C611004   0.481   2.540  14.215 -0.0760  0.1800 -0.7824
  741TMC3     C11005   0.506   2.905  14.054 -0.2519 -0.9420  0.3811
  741TMC3     O11006   0.458   2.963  14.150 -0.6047  0.1870  0.0847
  741TMC3     H11007   0.468   2.675  13.912 -1.6761 -0.5868  0.0804
  741TMC3    H111008   0.584   2.853  14.288  1.0522 -0.0777 -0.2179
  741TMC3    H211009   0.439   2.452  14.262  1.2020  0.5463  1.0745
  741TMC3    C711010   0.516   2.664  14.431  0.3708 -0.3777  0.6799
  741TMC3    C811011   0.372   2.478  14.007  0.1475 -0.3105 -0.0283
  741TMC3    O111012   0.602   2.742  14.476 -0.0167  0.3955 -0.0839
  741TMC3    O211013   0.292   2.522  13.928 -0.0339  0.2858  0.5230
  742TMC3    C111014   0.436   1.113  15.855  1.1710 -0.0401 -0.0277
  742TMC3    C211015   0.335   1.108  15.755 -0.0313 -1.4088 -0.3710
  742TMC3    C311016   0.383   1.103  15.628  0.0035  0.4785  0.1650
  742TMC3    C411017   0.569   1.111  15.820  0.5545  0.3711  0.0171
  742TMC3    C511018   0.613   1.091  15.689 -0.2900  0.3277 -0.3859
  742TMC3    C611019   0.518   1.091  15.595  0.8960  0.0391 -0.7834
  742TMC3     C11020   0.401   1.135  15.995  0.2572 -0.2884 -0.8180
  742TMC3     O11021   0.482   1.089  16.071 -0.6087 -0.4857  0.3827
  742TMC3     H11022   0.234   1.079  15.781 -0.6654 -0.4655 -1.7693
  742TMC3    H111023   0.641   1.123  15.901  0.0111 -0.1963  0.5946
  742TMC3    H211024   0.544   1.072  15.491  0.0408 -0.7394 -0.8525
  742TMC3    C711025   0.732   1.020  15.655  0.0847 -0.0844 -0.5611
  742TMC3    C811026   0.292   1.075  15.521 -0.0921 -0.3398 -0.2080
  742TMC3    O111027   0.738   0.955  15.551  0.1170  0.5657 -0.1799
  742TMC3    O211028   0.340   1.025  15.418  0.7614  0.2535  0.1310
  743MPD2     C11029   1.954   2.926   1.663 -0.5045 -0.7718  0.6341
  743MPD2    C111030   1.984   2.795   1.630  0.1232 -0.3535 -0.5286
  743MPD2    C211031   2.094   2.733   1.678 -0.2740 -0.9800  0.0557
  743MPD2    C311032   2.175   2.803   1.759 -0.3419  0.2242  0.2146
  743MPD2    C411033   2.141   2.931   1.806  0.3548  0.1811  0.5327
  743MPD2    C511034   2.029   2.989   1.758  0.5030 -1.0698 -1.2337
  743MPD2     H11035   2.123   2.635   1.640 -0.7169 -0.8038 -0.7499
  743MPD2    H111036   2.206   2.981   1.876  0.6034  0.8103 -0.1450
  743MPD2    H211037   1.870   2.978   1.619  0.2642  0.5102  0.6935
  743MPD2    H311038   2.008   3.091   1.789  1.6689 -0.8784 -1.0703
  743MPD2     N11039   2.297   2.738   1.809 -0.2282 -0.2801 -0.7918
  743MPD2    H511040   2.328   2.658   1.755 -0.1634  0.4773 -1.8661
  743MPD2    N111041   1.906   2.744   1.519 -0.0387 -0.3674 -0.1366
  743MPD2    H711042   1.848   2.810   1.468 -1.5907 -1.1316  0.6383
  744TMC3    C111043   1.810   2.583   1.369 -0.6323 -0.4103  1.0061
  744TMC3    C211044   1.695   2.656   1.363  0.3652  0.1585 -0.2756
  744TMC3    C311045   1.602   2.630   1.269  0.6143  0.3212  0.6591
  744TMC3    C411046   1.850   2.491   1.275  0.0321 -0.3409 -0.5434
  744TMC3    C511047   1.761   2.475   1.175  0.0655  0.0774 -0.3010
  744TMC3    C611048   1.635   2.546   1.170 -0.1933  0.1103 -0.0878
  744TMC3     C11049   1.918   2.620   1.455 -0.2426 -0.0670  0.4668
  744TMC3     O11050   2.017   2.549   1.460  0.0167 -0.0180 -0.0589
  744TMC3     H11051   1.665   2.727   1.440 -0.3408  0.3856 -0.7592
  744TMC3    H111052   1.928   2.418   1.295  0.4804  0.6665  1.3584
  744TMC3    H211053   1.556   2.518   1.101 -0.1508 -2.6431  0.9939
  744TMC3    C711054   1.787   2.385   1.067  0.0348  0.5635 -0.7632
  744TMC3    C811055   1.502   2.735   1.249 -0.4486  0.4815 -0.5281
  744TMC3    O111056   1.690   2.330   1.009 -0.1775 -0.0677  0.5690
  744TMC3    O211057   1.535   2.847   1.292  0.7078  0.3275  0.1300
  745TMC3    C111058   0.522   0.949  13.637 -0.1004  0.5395  0.2578
  745TMC3    C211059   0.428   0.889  13.713 -0.3851 -0.3589 -0.2947
  745TMC3    C311060   0.299   0.942  13.713 -0.3132  0.8978 -0.0562
  745TMC3    C411061   0.504   1.040  13.539 -0.3918 -0.1540 -0.0548
  745TMC3    C511062   0.368   1.082  13.524 -0.4180 -0.4595  0.2010
  745TMC3    C611063   0.273   1.036  13.609 -0.5146  0.7058  0.6453
  745TMC3     C11064   0.646   0.952  13.701  0.3776  0.5651 -0.3911
  745TMC3     O11065   0.653   0.905  13.815  0.2436 -0.3191  0.1585
  745TMC3     H11066   0.455   0.810  13.781  1.2855  0.8156  0.3958
  745TMC3    H111067   0.585   1.079  13.479  0.1002 -0.3224  0.5006
  745TMC3    H211068   0.179   1.090  13.601 -0.9557  0.1138  1.7039
  745TMC3    C711069   0.352   1.214  13.458  0.5649  0.7172 -0.6990
  745TMC3    C811070   0.267   0.997  13.842  0.1710 -0.8161 -0.4752
  745TMC3    O111071   0.267   1.294  13.501  0.4221  0.4132  0.0205
  745TMC3    O211072   0.158   1.048  13.864 -0.5668 -0.4335  0.3396
  746TMC3    C111073   2.884   2.882  10.967 -0.0368  0.1369 -0.0709
  746TMC3    C211074   2.916   2.949  10.855 -0.0814 -0.2010  0.0684
  746TMC3    C311075   2.841   2.921  10.743  0.1310 -0.7084 -0.2206
  746TMC3    C411076   2.776   2.803  10.980  0.6129 -0.3531 -0.0781
  746TMC3    C511077   2.697   2.792  10.865  0.3831 -0.3090 -0.5882
  746TMC3    C611078   2.729   2.848  10.744 -0.1381 -0.2462  0.2815
  746TMC3     C11079   2.954   2.905  11.091 -0.3060 -0.0062  0.5433
  746TMC3     O11080   2.886   2.895  11.194  0.1958 -0.1184 -0.0183
  746TMC3     H11081   2.987   3.031  10.849 -1.6301  1.0145 -1.6522
  746TMC3    H111082   2.754   2.761  11.078  3.4522 -0.5578  0.4789
  746TMC3    H211083   2.679   2.823  10.651  0.6993 -2.2925  0.3708
  746TMC3    C711084   2.613   2.679  10.846 -0.5699 -0.6101 -0.5381
  746TMC3    C811085   2.853   3.009  10.627  0.1549  0.7407 -0.0651
  746TMC3    O111086   2.656   2.568  10.866  0.1428 -0.3957  0.6259
  746TMC3    O211087   2.753   3.031  10.559 -0.5920 -0.0015 -0.3295
  747TMC3    C111088   0.518   2.957  11.049  0.1628 -0.7366 -0.2364
  747TMC3    C211089   0.491   2.833  11.106 -0.2717 -0.0323 -0.1908
  747TMC3    C311090   0.454   2.836  11.242 -0.1123  0.3981  0.0206
  747TMC3    C411091   0.510   3.074  11.122 -0.1472 -0.2525  0.0080
  747TMC3    C511092   0.479   3.069  11.255 -0.3965 -0.1216 -0.5335
  747TMC3    C611093   0.448   2.951  11.313  0.8156 -0.4286 -0.0465
  747TMC3     C11094   0.557   2.977  10.911 -0.4669  0.2147 -0.5765
  747TMC3     O11095   0.602   3.087  10.880  0.1097  0.0184 -0.0719
  747TMC3     H11096   0.491   2.740  11.051  0.7870 -1.2893  1.9503
  747TMC3    H111097   0.508   3.169  11.071  0.8307  0.1576  0.7360
  747TMC3    H211098   0.431   2.959  11.420 -0.9999 -0.0711 -0.3498
  747TMC3    C711099   0.501   3.186  11.330  0.1679  0.0172  0.0738
  747TMC3    C811100   0.419   2.713  11.307  0.7243 -0.1630 -0.3453
  747TMC3    O111101   0.439   3.197  11.434 -0.5689  0.0302 -0.6365
  747TMC3    O211102   0.449   2.617  11.237  0.0342  0.4034  0.4571
  748MPD2     C11103   1.723   4.329   1.979 -0.1437  0.0592  0.4568
  748MPD2    C111104   1.761   4.201   2.009 -0.4805 -0.1672  0.6038
  748MPD2    C211105   1.869   4.137   1.944  0.2542 -0.5294 -0.1299
  748MPD2    C311106   1.922   4.197   1.833  0.2335 -0.2533  0.9668
  748MPD2    C411107   1.866   4.318   1.791 -0.5973 -0.3111  0.1880
  748MPD2    C511108   1.778   4.389   1.867  0.3597  0.0968 -0.2096
  748MPD2     H11109   1.902   4.039   1.977 -0.5668 -0.0278  2.1223
  748MPD2    H111110   1.897   4.360   1.696  2.1632  0.6419  1.5008
  748MPD2    H211111   1.633   4.377   2.017 -0.3107  0.0343  0.0971
  748MPD2    H311112   1.730   4.481   1.836 -0.7158 -0.1110  0.8181
  748MPD2     N11113   2.032   4.133   1.768  0.0530  0.1818  0.3962
  748MPD2    H511114   2.072   4.044   1.799 -1.6963  0.0430  2.2196
  748MPD2    N111115   1.683   4.135   2.105 -0.5616  0.6157  0.4066
  748MPD2    H711116   1.610   4.187   2.153  0.2510  0.3507  1.9545
  749TMC3    C111117   2.186   4.086   1.598 -0.5477  0.0768  0.2394
  749TMC3    C211118   2.252   4.005   1.683 -0.9126 -0.9326 -0.2603
  749TMC3    C311119   2.342   3.912   1.637  0.0946 -0.8240 -0.0760
  749TMC3    C411120   2.199   4.067   1.464 -0.1335 -0.5850  0.1878
  749TMC3    C511121   2.293   3.984   1.423  0.0775  0.0697 -0.2124
  749TMC3    C611122   2.371   3.903   1.500 -0.5077  0.0263 -0.4039
  749TMC3     C11123   2.082   4.168   1.642  1.1317 -0.5338  0.2598
  749TMC3     O11124   2.055   4.256   1.561 -0.3968  0.6896  0.0885
  749TMC3     H11125   2.255   4.019   1.790  2.0144 -1.5594 -0.2464
  749TMC3    H111126   2.143   4.126   1.392  0.1340  0.7453  1.0856
  749TMC3    H211127   2.425   3.819   1.458  0.7198  1.2704 -1.3115
  749TMC3    C711128   2.331   4.005   1.284  0.9215  0.0907  0.0341
  749TMC3    C811129   2.429   3.845   1.730 -0.4924  0.1506  0.1302
  749TMC3    O111130   2.245   4.054   1.214 -0.1281 -0.2013  0.1442
  749TMC3    O211131   2.418   3.879   1.849  0.0164  0.1646 -0.5163
  750MPD2     C11132   2.651   4.676  11.184  0.0121  0.1455 -0.0644
  750MPD2    C111133   2.638   4.556  11.246 -0.3930 -0.4649  0.3170
  750MPD2    C211134   2.654   4.436  11.176 -0.0200 -0.6525  0.8927
  750MPD2    C311135   2.692   4.441  11.044  0.8405 -0.0606 -0.2242
  750MPD2    C411136   2.706   4.562  10.982  0.5511 -0.2417 -0.2061
  750MPD2    C511137   2.677   4.679  11.051 -0.4923 -0.6616 -0.1177
  750MPD2     H11138   2.636   4.340  11.223 -1.1165 -0.5669  0.6596
  750MPD2    H111139   2.720   4.576  10.876 -0.1302 -2.2519 -0.5537
  750MPD2    H211140   2.639   0.035  11.232  0.7964  0.8655 -1.3296
  750MPD2    H311141   2.668   0.034  10.997 -0.5650  0.0952  1.1945
  750MPD2     N11142   2.718   4.330  10.960  0.7028  0.2696 -0.2938
  750MPD2    H511143   2.735   4.350  10.862  2.7583  0.7327  0.1598
  750MPD2    N111144   2.598   4.554  11.382  0.1877  0.0029 -0.6352
  750MPD2    H711145   2.577   4.641  11.430  1.0254  0.6255 -1.4092
  751TMC3    C111146   2.681   4.111  10.894 -0.8462  0.6082 -0.8859
  751TMC3    C211147   2.583   4.012  10.902  0.3020  0.0158 -0.3094
  751TMC3    C311148   2.585   3.908  10.812  0.3524  0.0812  0.9095
  751TMC3    C411149   2.782   4.095  10.805 -0.5401 -0.5017 -0.2849
  751TMC3    C511150   2.780   3.993  10.716  0.0500  0.6330 -0.0358
  751TMC3    C611151   2.678   3.907  10.706 -0.0232  0.5346  0.9213
  751TMC3     C11152   2.696   4.197  11.000  0.5705  0.1885  0.1622
  751TMC3     O11153   2.638   4.157  11.105 -0.0654 -0.6213 -0.5923
  751TMC3     H11154   2.513   4.021  10.984 -0.9617  1.4848 -1.5475
  751TMC3    H111155   2.864   4.166  10.804 -2.1218  1.3675  1.7592
  751TMC3    H211156   2.680   3.842  10.619  0.7495 -0.6965  1.8787
  751TMC3    C711157   2.911   3.938  10.688  0.2667  0.2859 -0.0393
  751TMC3    C811158   2.557   3.775  10.855  0.0397 -0.9423 -0.4245
  751TMC3    O111159   3.006   4.016  10.690 -0.0405  0.1105 -0.2778
  751TMC3    O211160   2.623   3.689  10.805 -0.5300  0.1095 -0.0862
  752TMC3    C111161   1.781   4.229  17.396 -0.2382  0.0817  0.4792
  752TMC3    C211162   1.831   4.121  17.461  0.5926  0.8063 -0.0954
  752TMC3    C311163   1.814   4.128  17.599 -0.1982 -0.7857 -0.3349
  752TMC3    C411164   1.744   4.347  17.453  0.4148 -0.1633 -0.2620
  752TMC3    C511165   1.729   4.340  17.594  0.1082 -0.2120 -0.4476
  752TMC3    C611166   1.758   4.230  17.666  0.4671 -0.1871  0.2103
  752TMC3     C11167   1.789   4.229  17.256 -0.1292 -0.8192 -0.1642
  752TMC3     O11168   1.878   4.170  17.201 -0.6886  0.3741  0.2266
  752TMC3     H11169   1.855   4.027  17.413 -0.2749  0.7338 -0.3905
  752TMC3    H111170   1.694   4.425  17.398 -1.1651 -0.6565  0.4710
  752TMC3    H211171   1.776   4.235   0.022 -0.9734 -0.3146  0.4555
  752TMC3    C711172   1.699   4.463  17.673 -0.0266  0.2123  0.3129
  752TMC3    C811173   1.851   4.003  17.665 -0.2468  0.5233 -0.3738
  752TMC3    O111174   1.652   4.463   0.036  0.4064 -0.0307  0.1627
  752TMC3    O211175   1.913   3.920  17.602  0.7306 -0.7493 -0.0427
  753TMC3    C111176   3.703   0.562  13.696  0.2634  0.1307 -0.1563
  753TMC3    C211177   3.792   0.592  13.794 -0.2506  0.2032 -0.4340
  753TMC3    C311178   3.883   0.494  13.827  0.0611  0.3380 -0.4052
  753TMC3    C411179   3.690   0.439  13.632 -0.2393 -0.2205 -0.2765
  753TMC3    C511180   3.777   0.346  13.675 -0.2395  0.7776 -0.4317
  753TMC3    C611181   3.878   0.371  13.766 -0.3471  0.9536 -0.0267
  753TMC3     C11182   3.620   0.676  13.647  0.0974 -0.0091 -0.3142
  753TMC3     O11183   3.563   0.636  13.545 -0.9293  0.0934  0.0865
  753TMC3     H11184   3.795   0.677  13.861 -2.5599 -0.0144 -0.0430
  753TMC3    H111185   3.610   0.414  13.563 -0.5300 -2.6264  0.9108
  753TMC3    H211186   3.940   0.286  13.792 -0.5019  0.5206 -1.0829
  753TMC3    C711187   3.759   0.205  13.633  0.0763 -1.0890 -0.4554
  753TMC3    C811188   3.979   0.513  13.929  0.0511 -0.2212  0.3121
  753TMC3    O111189   3.815   0.114  13.696 -0.1102  0.0775  0.1685
  753TMC3    O211190   4.050   0.419  13.947  0.7957 -0.1286 -0.5238
  754MPD2     C11191   3.046   3.980  13.725  0.3176 -0.1618  0.3605
  754MPD2    C111192   2.923   3.944  13.780 -0.3550 -0.2760  0.0922
  754MPD2    C211193   2.807   3.988  13.716 -0.2021 -0.1836  0.3699
  754MPD2    C311194   2.802   4.067  13.601 -0.7624  0.0685 -0.0404
  754MPD2    C411195   2.928   4.107  13.549 -0.2259  0.0817 -0.1040
  754MPD2    C511196   3.038   4.063  13.614 -0.3695 -0.5275 -0.3827
  754MPD2     H11197   2.714   3.953  13.760 -0.8449  0.8396 -0.1859
  754MPD2    H111198   2.943   4.180  13.470  0.8118  0.8304  0.7854
  754MPD2    H211199   3.136   3.961  13.782  0.4112 -3.6962 -0.9520
  754MPD2    H311200   3.131   4.097  13.570 -0.1699 -1.1091 -0.3968
  754MPD2     N11201   2.687   4.100  13.527 -0.0599  0.0506  0.0113
  754MPD2    H511202   2.691   4.143  13.435  1.5102  1.0691  0.5618
  754MPD2    N111203   2.913   3.866  13.900 -0.7012 -0.1186 -0.4188
  754MPD2    H711204   2.815   3.852  13.925 -0.2887  0.0980  1.3309
  755MPD2     C11205   1.894   4.680  13.477  0.4226 -0.6284  0.5200
  755MPD2    C111206   1.838   4.555  13.508  0.5086  0.1194  0.3015
  755MPD2    C211207   1.918   4.438  13.518 -0.4441 -0.0500  0.6203
  755MPD2    C311208   2.058   4.452  13.489  0.2686  0.7627  0.0981
  755MPD2    C411209   2.117   4.577  13.463  1.2418 -0.0804  0.6393
  755MPD2    C511210   2.029   4.687  13.458  0.4983  0.2881 -0.2410
  755MPD2     H11211   1.878   4.339  13.535 -0.2395 -0.0242  1.2623
  755MPD2    H111212   2.223   4.584  13.445  1.3034 -0.7900  0.7185
  755MPD2    H211213   1.843   0.038  13.480  0.5806 -0.5883  1.8776
  755MPD2    H311214   2.082   0.035  13.418  0.6059  0.0584 -0.5947
  755MPD2     N11215   2.145   4.345  13.514 -0.1024 -0.2863  0.6091
  755MPD2    H511216   2.243   4.363  13.496 -0.1842 -1.5220 -1.0776
  755MPD2    N111217   1.695   4.547  13.536 -0.7612  0.1677 -0.5178
  755MPD2    H711218   1.661   4.454  13.559  1.1664 -0.1047  1.2819
  756MPD2     C11219   2.833   0.677  10.172 -0.1923  0.1086 -0.8264
  756MPD2    C111220   2.776   0.724  10.284  0.2733  0.6167 -0.0270
  756MPD2    C211221   2.651   0.690  10.319 -0.1214  0.2060  1.2327
  756MPD2    C311222   2.583   0.594  10.245 -0.3118 -0.4545 -0.0423
  756MPD2    C411223   2.647   0.538  10.135  0.2930  0.0103  0.1542
  756MPD2    C511224   2.773   0.575  10.098  0.5621 -0.2530  0.0461
  756MPD2     H11225   2.601   0.731  10.406 -1.0312  0.0826  0.7701
  756MPD2    H111226   2.591   0.468  10.074  0.7395 -0.3862  0.1998
  756MPD2    H211227   2.925   0.711  10.126  0.5433  0.8556  1.1716
  756MPD2    H311228   2.828   0.538  10.012  2.2927 -0.4381  1.2291
  756MPD2     N11229   2.458   0.545  10.286  0.2914 -0.1161 -0.9428
  756MPD2    H511230   2.423   0.612  10.354  2.6387  1.2708 -1.0860
  756MPD2    N111231   2.834   0.816  10.371 -0.3144 -0.0942  0.0286
  756MPD2    H711232   2.774   0.849  10.446  1.2390  0.1047  1.1914
  757MPD2     C11233   1.466   0.664  10.435 -0.0283 -1.2426 -0.0277
  757MPD2    C111234   1.471   0.539  10.383  0.0489 -0.0091  0.0071
  757MPD2    C211235   1.597   0.490  10.346 -0.1093 -0.1914  0.2718
  757MPD2    C311236   1.716   0.561  10.361 -1.0094  0.0302 -0.3013
  757MPD2    C411237   1.704   0.686  10.413  0.0119  0.2889  0.0435
  757MPD2    C511238   1.579   0.738  10.451  0.3345  0.0675  0.3062
  757MPD2     H11239   1.598   0.387  10.313 -2.9421 -1.0594  2.8276
  757MPD2    H111240   1.792   0.749  10.422 -1.0213  1.9030 -1.3000
  757MPD2    H211241   1.374   0.712  10.467  0.6932  1.6876 -2.3428
  757MPD2    H311242   1.572   0.830  10.507 -0.7857  0.1530  0.0156
  757MPD2     N11243   1.842   0.498  10.342  0.2691  0.2275 -0.3839
  757MPD2    H511244   1.841   0.397  10.335 -1.8141  0.1563  1.1661
  757MPD2    N111245   1.346   0.472  10.376 -0.2109 -0.2611  0.5344
  757MPD2    H711246   1.265   0.517  10.418  0.1547  1.1247 -0.2371
  758MPD2     C11247   2.064   4.326  16.449  0.6342  0.0161 -0.2695
  758MPD2    C111248   2.158   4.261  16.530 -0.2040 -0.3839  0.7587
  758MPD2    C211249   2.171   4.286  16.663 -0.2181  0.6243 -0.7449
  758MPD2    C311250   2.087   4.381  16.719  0.3822 -0.7838 -1.2065
  758MPD2    C411251   2.009   4.461  16.635 -0.5455  0.2271  0.0514
  758MPD2    C511252   1.994   4.431  16.500  0.6071 -0.3514 -0.4601
  758MPD2     H11253   2.230   4.227  16.732 -2.8304 -2.0892 -0.8068
  758MPD2    H111254   1.953   4.540  16.685  0.2858  0.7881  0.0895
  758MPD2    H211255   2.043   4.298  16.346 -1.7218 -1.3616  0.6055
  758MPD2    H311256   1.923   4.487  16.441 -0.9913 -2.8888 -0.9923
  758MPD2     N11257   2.075   4.393  16.856  0.0579 -0.0980 -0.3061
  758MPD2    H511258   2.054   4.484  16.897  1.2167 -0.0073  0.0843
  758MPD2    N111259   2.223   4.143  16.492 -0.4320 -0.5159  0.2540
  758MPD2    H711260   2.276   4.095  16.564 -0.2325 -1.7966 -0.7358
  759MPD2     C11261   1.128   2.379  10.700 -0.5828 -0.4008 -0.6411
  759MPD2    C111262   1.106   2.249  10.679 -0.6208 -0.0217 -0.2285
  759MPD2    C211263   1.140   2.193  10.554 -0.0285 -0.1385 -0.4983
  759MPD2    C311264   1.175   2.272  10.448 -0.2361  0.8618  0.0666
  759MPD2    C411265   1.185   2.407  10.469 -0.3121 -0.5714 -0.3430
  759MPD2    C511266   1.160   2.460  10.591  0.4124 -0.0862 -0.0219
  759MPD2     H11267   1.127   2.087  10.537 -2.1599  0.0410 -0.0269
  759MPD2    H111268   1.216   2.477  10.392 -3.9671  0.3259 -0.9720
  759MPD2    H211269   1.109   2.419  10.799 -1.4057 -2.0081 -0.1474
  759MPD2    H311270   1.173   2.566  10.610  0.8221 -0.3994  1.4347
  759MPD2     N11271   1.183   2.202  10.325  0.6046 -0.2400 -0.3833
  759MPD2    H511272   1.169   2.101  10.329 -2.8281  0.2569  0.4115
  759MPD2    N111273   1.041   2.162  10.772 -0.7962  0.2189 -0.0824
  759MPD2    H711274   1.004   2.075  10.736 -1.0481  0.2855  0.0138
  760MPD2     C11275   1.665   4.396  12.877  0.1890 -0.6186  0.4233
  760MPD2    C111276   1.574   4.462  12.801 -0.6427  0.2160  0.1244
  760MPD2    C211277   1.449   4.403  12.778 -0.8672 -0.4608 -0.9095
  760MPD2    C311278   1.422   4.271  12.818  0.3883  1.0197  0.6468
  760MPD2    C411279   1.522   4.205  12.881  0.4917 -0.3289  0.4069
  760MPD2    C511280   1.637   4.265  12.913 -0.6845 -0.1197  0.0911
  760MPD2     H11281   1.373   4.467  12.734 -1.6209 -1.1206 -0.5682
  760MPD2    H111282   1.514   4.100  12.909  0.8723 -0.7638 -1.1092
  760MPD2    H211283   1.754   4.444  12.918  0.4196  0.1221 -0.9394
  760MPD2    H311284   1.696   4.204  12.980 -1.6686 -0.8108  0.3360
  760MPD2     N11285   1.311   4.198  12.779 -0.1821  0.1283 -0.3706
  760MPD2    H511286   1.309   4.113  12.834  3.4861  0.1756 -0.1450
  760MPD2    N111287   1.608   4.591  12.748 -0.0543  0.5699  0.4810
  760MPD2    H711288   1.707   4.612  12.748 -0.1219  0.8870  0.6543
  761MPD2     C11289   2.485   3.487  11.271 -0.3405  0.4692 -0.6179
  761MPD2    C111290   2.579   3.480  11.167  0.3221  0.7583  0.3743
  761MPD2    C211291   2.577   3.561  11.055  0.1171  0.3681 -0.5278
  761MPD2    C311292   2.472   3.655  11.057  0.1560 -1.0317 -0.1451
  761MPD2    C411293   2.387   3.672  11.159 -0.2684 -0.3332  0.1486
  761MPD2    C511294   2.382   3.578  11.261 -0.2639 -0.0944  0.5589
  761MPD2     H11295   2.653   3.563  10.978  0.8116 -1.4990  0.1191
  761MPD2    H111296   2.315   3.753  11.161  0.8304  0.6748 -0.5314
  761MPD2    H211297   2.485   3.419  11.355  2.0054 -1.6575 -2.3232
  761MPD2    H311298   2.304   3.588  11.337 -0.8041  4.4889 -0.5871
  761MPD2     N11299   2.471   3.765  10.962  0.1463 -0.5435 -0.4759
  761MPD2    H511300   2.426   3.850  10.994 -0.9894 -0.7572 -1.4823
  761MPD2    N111301   2.687   3.387  11.193  0.0724  0.7376  0.2721
  761MPD2    H711302   2.687   3.336  11.280 -0.1390  0.4109  0.0813
  762MPD2     C11303   3.608   3.221  11.178 -0.4602 -0.4396  0.8005
  762MPD2    C111304   3.511   3.261  11.093 -0.2148 -0.0951  0.3108
  762MPD2    C211305   3.532   3.276  10.965 -0.4898  0.1300 -0.0667
  762MPD2    C311306   3.659   3.247  10.910 -0.5819  0.0071  0.0312
  762MPD2    C411307   3.751   3.194  10.988  0.7665 -0.1320  0.2841
  762MPD2    C511308   3.730   3.195  11.121  0.3182  0.1706  0.0338
  762MPD2     H11309   3.461   3.310  10.891  2.1097  0.6988 -2.3271
  762MPD2    H111310   3.845   3.164  10.945  0.1956  0.7839 -1.6116
  762MPD2    H211311   3.590   3.199  11.282 -1.9357  1.3000  0.8989
  762MPD2    H311312   3.805   3.150  11.186 -2.0006 -1.0395  1.8523
  762MPD2     N11313   3.678   3.264  10.766  0.0342 -0.2031 -0.2770
  762MPD2    H511314   3.598   3.293  10.710  0.4882  0.0760 -0.7876
  762MPD2    N111315   3.377   3.278  11.142  0.0280 -0.2682 -0.0072
  762MPD2    H711316   3.370   3.285  11.243 -1.2285  1.5681 -0.2281
  763MPD2     C11317   4.713   3.802  16.447 -0.7517 -0.0481  0.2476
  763MPD2    C111318   4.589   3.866  16.425 -0.2859  0.4144  0.9247
  763MPD2    C211319   4.554   3.984  16.486  0.5482 -0.3524 -0.3109
  763MPD2    C311320   4.624   4.017  16.603 -0.4697 -0.1150  1.1494
  763MPD2    C411321   0.004   3.951  16.633  0.1721 -0.3815  0.1410
  763MPD2    C511322   0.041   3.838  16.561 -0.0013  0.6926  0.4474
  763MPD2     H11323   4.469   4.041  16.449 -1.5383 -3.9120 -0.9522
  763MPD2    H111324   0.075   3.989  16.705 -0.3125  2.1984 -0.7218
  763MPD2    H211325   0.019   3.723  16.388 -0.8812 -1.4361  1.9976
  763MPD2    H311326   0.142   3.799  16.561  1.0295  3.3418 -0.0758
  763MPD2     N11327   4.605   4.129  16.678 -0.3009 -0.6560 -0.1017
  763MPD2    H511328   4.676   4.149  16.748 -1.3135  1.6062  0.2763
  763MPD2    N111329   4.511   3.823  16.319  0.2478 -0.4546  0.1365
  763MPD2    H711330   4.442   3.889  16.285  1.4366  0.3556 -0.6880
  764MPD2     C11331   2.132   1.379   0.344  0.4340  0.5419 -0.3794
  764MPD2    C111332   2.086   1.269   0.266 -0.4899  0.4058 -0.1183
  764MPD2    C211333   1.979   1.200   0.309  0.2570  0.0596  0.0072
  764MPD2    C311334   1.903   1.234   0.421  0.0800 -0.3068  0.2556
  764MPD2    C411335   1.962   1.324   0.508 -0.6617  0.1362  0.3642
  764MPD2    C511336   2.067   1.398   0.463 -0.3678 -0.1849  0.4843
  764MPD2     H11337   1.939   1.121   0.247  0.3410 -2.0422  2.6209
  764MPD2    H111338   1.922   1.362   0.601 -0.8143 -0.7602  0.6642
  764MPD2    H211339   2.218   1.440   0.321  0.2218  1.3053  0.8065
  764MPD2    H311340   2.117   1.469   0.529  0.7672 -0.3764 -0.1682
  764MPD2     N11341   1.788   1.154   0.450 -0.7601  0.4689  0.0113
  764MPD2    H511342   1.779   1.080   0.381  2.1539  2.3338 -2.3646
  764MPD2    N111343   2.140   1.232   0.147  0.1726  0.2644 -0.3629
  764MPD2    H711344   2.094   1.152   0.105  1.3004  0.9198 -2.8446
  765MPD2     C11345   1.778   2.828  16.184  0.3329 -0.8207 -0.2207
  765MPD2    C111346   1.859   2.938  16.169  0.9442 -0.7892  0.1852
  765MPD2    C211347   1.997   2.918  16.160  0.1553 -0.4261  0.2512
  765MPD2    C311348   2.062   2.798  16.177  0.3867 -0.6234  0.2352
  765MPD2    C411349   1.980   2.688  16.200  0.8983  0.0474  0.0785
  765MPD2    C511350   1.843   2.703  16.205  0.6832  0.3562 -0.2560
  765MPD2     H11351   2.053   3.002  16.123 -0.3701  0.7255  2.0807
  765MPD2    H111352   2.019   2.588  16.216  0.3898 -0.5028 -2.1308
  765MPD2    H211353   1.671   2.821  16.169  0.3831 -0.9916 -0.4967
  765MPD2    H311354   1.775   2.618  16.203 -0.3458  1.1924 -1.5271
  765MPD2     N11355   2.206   2.790  16.184 -0.1194  0.3358 -0.3247
  765MPD2    H511356   2.254   2.879  16.178  1.3291 -0.5489 -1.8260
  765MPD2    N111357   1.795   3.062  16.159  0.0361 -0.1581  0.8497
  765MPD2    H711358   1.694   3.058  16.152  0.0435 -0.1787  0.7559
  766MPD2     C11359   1.514   3.315  15.550 -0.4719  0.2884  0.5334
  766MPD2    C111360   1.633   3.368  15.596 -0.3858 -0.1235 -0.2123
  766MPD2    C211361   1.736   3.376  15.503 -0.8718 -0.3914 -0.5583
  766MPD2    C311362   1.721   3.335  15.374  0.8255 -0.5917 -0.5376
  766MPD2    C411363   1.600   3.281  15.326 -0.4844  0.2381 -0.8508
  766MPD2    C511364   1.503   3.263  15.423  0.3518  0.3852  0.5453
  766MPD2     H11365   1.825   3.433  15.530 -0.5786 -0.2112 -1.9078
  766MPD2    H111366   1.584   3.249  15.224 -0.2217 -1.5744 -0.3172
  766MPD2    H211367   1.428   3.307  15.615 -1.1313 -2.1683 -0.6381
  766MPD2    H311368   1.406   3.224  15.395  0.2362  0.6087  0.6359
  766MPD2     N11369   1.829   3.352  15.287 -0.5099  0.2671 -0.4694
  766MPD2    H511370   1.808   3.334  15.190 -0.8219  1.3274 -0.6032
  766MPD2    N111371   1.650   3.417  15.726  0.1157  0.2334 -0.3723
  766MPD2    H711372   1.728   3.480  15.738  1.5328 -1.8967  1.7493
  767MPD2     C11373   1.352   3.496  15.207 -0.3211 -0.7499 -0.0419
  767MPD2    C111374   1.477   3.539  15.168  0.1101  0.8172  0.2603
  767MPD2    C211375   1.533   3.516  15.047  0.3962  0.5390 -0.1279
  767MPD2    C311376   1.462   3.428  14.960 -0.3984 -0.1649 -0.0358
  767MPD2    C411377   1.334   3.393  14.993 -0.2357  0.3869  0.5724
  767MPD2    C511378   1.282   3.422  15.118 -0.1474 -0.3511 -0.0362
  767MPD2     H11379   1.638   3.537  15.027  0.9881 -0.1718  2.2271
  767MPD2    H111380   1.283   3.337  14.915  0.3553 -1.0034  1.1947
  767MPD2    H211381   1.305   3.516  15.303  0.4562  0.0471  0.1674
  767MPD2    H311382   1.187   3.388  15.158 -0.1210  0.4058  0.6737
  767MPD2     N11383   1.526   3.395  14.836 -0.0267  0.2536  0.8869
  767MPD2    H511384   1.623   3.424  14.832 -0.6951  2.4893  1.2752
  767MPD2    N111385   1.547   3.618  15.264  0.1839  0.2582 -0.3805
  767MPD2    H711386   1.513   3.613  15.360  1.1098  1.2370 -0.0005
  768MPD2     C11387   2.488   1.617  11.298 -0.3569 -0.1308 -0.0734
  768MPD2    C111388   2.524   1.743  11.253  0.5826  0.2751 -0.2257
  768MPD2    C211389   2.651   1.797  11.288  0.2180 -0.1055 -0.0012
  768MPD2    C311390   2.728   1.729  11.380  0.3443  0.2909  0.8689
  768MPD2    C411391   2.687   1.604  11.427  0.4009 -0.2060  0.2305
  768MPD2    C511392   2.563   1.557  11.391 -0.3215  0.6640  0.5702
  768MPD2     H11393   2.669   1.899  11.255  0.7165 -0.2822 -0.2715
  768MPD2    H111394   2.748   1.533  11.481  2.5444  3.1939  2.2775
  768MPD2    H211395   2.390   1.575  11.279 -0.2321 -1.0213  1.2417
  768MPD2    H311396   2.533   1.463  11.435 -1.2981  0.7760  0.1203
  768MPD2     N11397   2.862   1.766  11.408 -0.5079 -0.0321 -0.0648
  768MPD2    H511398   2.901   1.698  11.472 -1.0238 -0.2837 -0.0209
  768MPD2    N111399   2.440   1.825  11.174 -0.0092  0.1276 -0.4144
  768MPD2    H711400   2.476   1.917  11.149  1.6747 -0.4192  0.0409
  769MPD2     C11401   3.709   0.161  15.138  0.7274  0.0559 -0.6772
  769MPD2    C111402   3.604   0.182  15.226 -0.1261  0.8168 -0.9547
  769MPD2    C211403   3.628   0.263  15.333 -0.0878 -0.4282 -0.4923
  769MPD2    C311404   3.752   0.323  15.345  0.7564  0.4366 -0.3615
  769MPD2    C411405   3.860   0.292  15.261  0.3457 -0.3310  0.4693
  769MPD2    C511406   3.838   0.208  15.157 -0.4085 -0.0445  0.4354
  769MPD2     H11407   3.542   0.296  15.390  0.6541  0.4249  0.1404
  769MPD2    H111408   3.961   0.325  15.283  0.6939 -0.5075 -0.9026
  769MPD2    H211409   3.684   0.092  15.058  2.2731 -0.5057 -0.6706
  769MPD2    H311410   3.906   0.190  15.074 -2.1584 -1.4835 -0.6992
  769MPD2     N11411   3.767   0.408  15.457 -0.4143  0.0532  0.1760
  769MPD2    H511412   3.682   0.427  15.509 -0.4330 -1.8883  0.8817
  769MPD2    N111413   3.473   0.124  15.205  0.2419 -0.2625  0.4744
  769MPD2    H711414   3.448   0.088  15.114 -0.7410  1.3922  0.1018
  770MPD2     C11415   2.762   4.186  15.671  0.0988 -0.2852 -0.3114
  770MPD2    C111416   2.812   4.142  15.548  0.0790  0.4499 -0.2218
  770MPD2    C211417   2.892   4.221  15.467  0.3097 -0.0305 -0.3018
  770MPD2    C311418   2.916   4.350  15.507  0.3825  0.3552 -0.6114
  770MPD2    C411419   2.872   4.396  15.629 -0.7462 -0.2104  0.5443
  770MPD2    C511420   2.785   4.317  15.705 -0.0905 -0.5052  0.2037
  770MPD2     H11421   2.939   4.184  15.377 -0.1982  0.7097 -0.8802
  770MPD2    H111422   2.895   4.493  15.670  0.6547 -0.8624  1.2749
  770MPD2    H211423   2.698   4.119  15.727 -0.0191 -0.4598 -0.6512
  770MPD2    H311424   2.759   4.362  15.801  1.4814 -0.9844  0.8597
  770MPD2     N11425   2.989   4.436  15.422 -0.5009 -0.1783 -0.4564
  770MPD2    H511426   3.021   4.392  15.336  0.8924  0.4311 -0.2496
  770MPD2    N111427   2.781   4.010  15.513 -0.1691 -0.4630  0.2779
  770MPD2    H711428   2.739   3.957  15.589  0.1758 -2.0982 -0.6719
  771MPD2     C11429   4.576   2.747  13.826 -0.4145 -0.5459  0.5573
  771MPD2    C111430   4.477   2.841  13.812 -0.2698 -0.3543  0.4115
  771MPD2    C211431   4.351   2.802  13.784  0.5168 -0.5590  0.4097
  771MPD2    C311432   4.321   2.668  13.746 -0.1330  0.2582  0.2160
  771MPD2    C411433   4.425   2.583  13.752  0.4835 -0.7524 -0.3094
  771MPD2    C511434   4.547   2.621  13.794  0.6022  0.4737 -0.1610
  771MPD2     H11435   4.268   2.872  13.780  0.7482 -0.2585  0.8197
  771MPD2    H111436   4.412   2.477  13.734  2.4536 -1.0377 -0.0345
  771MPD2    H211437   4.674   2.771  13.866 -0.2039  2.3455 -1.7375
  771MPD2    H311438   4.619   2.541  13.808  0.5518  0.2406 -1.1728
  771MPD2     N11439   4.185   2.640  13.693  0.0984 -0.0991 -0.3339
  771MPD2    H511440   4.119   2.714  13.672 -0.1985 -0.2483  0.0713
  771MPD2    N111441   4.491   2.977  13.831  0.4366 -0.5669 -0.6052
  771MPD2    H711442   4.410   3.038  13.834  2.1884  1.8341 -2.2565
  772MPD2     C11443   4.100   3.495  14.155  0.2273  0.2421  0.1856
  772MPD2    C111444   4.110   3.394  14.063 -0.3238 -0.6899 -0.7773
  772MPD2    C211445   3.993   3.319  14.033 -0.1536  0.2311  0.6125
  772MPD2    C311446   3.873   3.350  14.090 -0.3211  0.1797 -0.7443
  772MPD2    C411447   3.863   3.461  14.179 -0.4414 -0.6287  1.2308
  772MPD2    C511448   3.978   3.533  14.209 -0.6906  0.0756  0.3428
  772MPD2     H11449   4.001   3.244  13.955  0.3399  0.6462  0.2684
  772MPD2    H111450   3.767   3.491  14.217 -0.3228  0.8805  0.3125
  772MPD2    H211451   4.190   3.551  14.179  0.1424 -0.1443  1.4148
  772MPD2    H311452   3.981   3.613  14.282 -1.3435 -0.0372  0.4898
  772MPD2     N11453   3.751   3.292  14.049 -0.3557  0.6442  0.3767
  772MPD2    H511454   3.677   3.330  14.107 -1.2702 -0.5907  0.0066
  772MPD2    N111455   4.224   3.365  13.988 -0.2586  0.0178 -0.2175
  772MPD2    H711456   4.212   3.299  13.912 -2.4215 -1.0771  1.0639
  773MPD2     C11457   3.189   4.477   0.628  0.2415 -0.5146  0.4404
  773MPD2    C111458   3.151   4.373   0.539 -0.1960  0.3575  0.4192
  773MPD2    C211459   3.213   4.252   0.544 -0.1157  0.7087  0.3278
  773MPD2    C311460   3.305   4.229   0.644 -0.5927 -0.2366 -0.2747
  773MPD2    C411461   3.345   4.330   0.729 -0.1584  0.1697 -0.5357
  773MPD2    C511462   3.287   4.451   0.725  0.0184  0.6110  0.3856
  773MPD2     H11463   3.179   4.165   0.490  1.2128  0.1764  0.3522
  773MPD2    H111464   3.409   4.309   0.814 -0.5203  1.5675  0.0862
  773MPD2    H211465   3.159   4.580   0.621  1.8871  0.1084  2.3382
  773MPD2    H311466   3.321   4.522   0.801  2.2786 -1.8780  1.7083
  773MPD2     N11467   3.356   4.098   0.652  0.3591 -0.2635  0.0043
  773MPD2    H511468   3.326   4.028   0.585 -0.1160  0.5529 -0.6366
  773MPD2    N111469   3.047   4.391   0.439  0.0433  0.5884 -0.7891
  773MPD2    H711470   3.033   4.323   0.365 -1.2207 -1.3228  1.1754
  774MPD2     C11471   2.517   3.167  13.845 -0.0842 -0.2646 -0.5683
  774MPD2    C111472   2.510   3.143  13.980  0.1526 -0.4001  0.2404
  774MPD2    C211473   2.575   3.224  14.070 -0.0916 -0.1569 -0.1240
  774MPD2    C311474   2.669   3.318  14.019  0.2374  0.3367  0.6253
  774MPD2    C411475   2.675   3.340  13.882  0.2924  0.6156  0.1643
  774MPD2    C511476   2.596   3.269  13.796 -0.0825  0.1282 -1.2117
  774MPD2     H11477   2.560   3.221  14.178  0.3781  0.6865 -0.0314
  774MPD2    H111478   2.752   3.401  13.836 -2.4369  2.9627 -1.3017
  774MPD2    H211479   2.462   3.100  13.780  1.6345 -1.2190 -1.0489
  774MPD2    H311480   2.606   3.269  13.688 -1.1514  2.2367 -1.3002
  774MPD2     N11481   2.752   3.384  14.107  0.7736  0.0976  0.2319
  774MPD2    H511482   2.726   3.374  14.204  1.0105  1.5704  0.4416
  774MPD2    N111483   2.434   3.031  14.024 -0.2813 -0.0112 -0.0130
  774MPD2    H711484   2.406   2.962  13.955  0.4900  0.5932 -0.9293
  775MPD2     C11485   4.065   0.227  16.142 -0.3084  0.2154  0.8272
  775MPD2    C111486   4.013   0.353  16.146 -0.7723  0.7903  0.0655
  775MPD2    C211487   4.080   0.456  16.081  0.1203  0.0202 -0.3629
  775MPD2    C311488   4.194   0.438  16.003  0.1557 -0.0459  0.0102
  775MPD2    C411489   4.246   0.311  16.002  1.0252  0.1079  0.6568
  775MPD2    C511490   4.186   0.211  16.078  0.6283 -0.5487  0.1608
  775MPD2     H11491   4.042   0.556  16.099 -0.8800 -0.1855 -1.3440
  775MPD2    H111492   4.333   0.283  15.944 -0.0615 -1.4258 -0.2454
  775MPD2    H211493   4.025   0.141  16.196 -0.4953  0.5772  1.2667
  775MPD2    H311494   4.231   0.113  16.084 -0.2755 -1.0572 -1.4399
  775MPD2     N11495   4.271   0.543  15.941  0.2844 -0.5701 -0.2263
  775MPD2    H511496   4.353   0.510  15.891  0.3846  1.2664 -1.2278
  775MPD2    N111497   3.900   0.367  16.226 -0.3354 -0.1078  0.1235
  775MPD2    H711498   3.856   0.278  16.248  0.7616 -0.4842  0.7710
  776MPD2     C11499   2.202   0.130  12.063 -0.3472  0.6410 -0.0346
  776MPD2    C111500   2.303   0.122  11.971  0.2368 -0.4067 -0.9121
  776MPD2    C211501   2.378   0.234  11.941 -0.0725  0.3678  0.1114
  776MPD2    C311502   2.355   0.348  12.016  0.3356  0.6324 -0.2641
  776MPD2    C411503   2.269   0.346  12.123  0.1778 -0.6180  0.2287
  776MPD2    C511504   2.182   0.237  12.139 -0.3192 -0.2635  0.3373
  776MPD2     H11505   2.465   0.238  11.876  1.4899 -0.1808  2.1597
  776MPD2    H111506   2.263   0.424  12.199  2.2487  0.3356 -0.6043
  776MPD2    H211507   2.136   0.045  12.080  1.2506 -0.5416  0.2449
  776MPD2    H311508   2.097   0.243  12.206  0.3439  0.1582  1.1404
  776MPD2     N11509   2.418   0.470  11.994  0.1695  0.1950  0.4289
  776MPD2    H511510   2.396   0.553  12.049  1.1657  1.1502 -0.6089
  776MPD2    N111511   2.307   0.007  11.895 -0.1442 -0.3714  0.1741
  776MPD2    H711512   2.251   4.665  11.921  0.3843  0.3329  3.5011
  777MPD2     C11513   3.151   2.889   1.037 -0.0736 -0.2767  0.1355
  777MPD2    C111514   3.039   2.866   1.115  0.2852  0.5746 -0.4344
  777MPD2    C211515   2.948   2.768   1.069  0.1198 -0.3641  0.7840
  777MPD2    C311516   2.968   2.695   0.952  0.0018 -0.4492 -0.8221
  777MPD2    C411517   3.083   2.720   0.883 -0.8505  0.4024  0.0383
  777MPD2    C511518   3.169   2.815   0.918 -0.0315  0.6142  0.2665
  777MPD2     H11519   2.854   2.751   1.121 -0.1467  1.1071  0.7610
  777MPD2    H111520   3.091   2.674   0.786  0.6499 -0.7965  0.7231
  777MPD2    H211521   3.218   2.971   1.060 -2.1182  1.3508  0.3019
  777MPD2    H311522   3.260   2.832   0.862  0.7688  0.6160  1.5676
  777MPD2     N11523   2.867   2.605   0.910 -0.2293  1.1660  0.3855
  777MPD2    H511524   2.785   2.595   0.970 -1.4800 -1.5561 -1.7904
  777MPD2    N111525   3.027   2.936   1.241 -0.1111 -0.0818 -0.1460
  777MPD2    H711526   3.099   3.003   1.266  1.3278 -1.8453  0.3678
  778MPD2     C11527   4.148   3.027  15.076  0.7938 -0.0692 -0.2161
  778MPD2    C111528   4.124   2.925  14.982  0.4854 -0.8350  0.6074
  778MPD2    C211529   4.167   2.940  14.856  0.1970 -0.0867  0.2189
  778MPD2    C311530   4.252   3.043  14.830 -0.2478  0.0128 -0.3130
  778MPD2    C411531   4.288   3.139  14.921  0.5382 -0.7086 -0.5094
  778MPD2    C511532   4.230   3.130  15.044 -0.0672 -0.3874  0.1775
  778MPD2     H11533   4.162   2.857  14.787 -0.8611  0.4362 -0.3267
  778MPD2    H111534   4.368   3.209  14.902  1.3073 -1.1988  0.9480
  778MPD2    H211535   4.110   3.029  15.178 -1.4369 -0.2158 -1.0353
  778MPD2    H311536   4.258   3.198  15.124 -0.2144  3.0200 -2.6439
  778MPD2     N11537   4.325   3.025  14.706 -0.0657 -0.2727 -0.4031
  778MPD2    H511538   4.327   2.929  14.674  2.4431 -0.1901 -0.4840
  778MPD2    N111539   4.049   2.812  15.012 -0.6572 -0.4321 -0.0175
  778MPD2    H711540   4.050   2.741  14.939  0.4267  1.4287 -1.8088
  779MPD2     C11541   3.932   1.819  14.132 -0.0458  0.1357  0.0999
  779MPD2    C111542   4.071   1.806  14.144 -0.9696 -0.1387 -0.2920
  779MPD2    C211543   4.141   1.922  14.129  0.2963  0.3400  0.0140
  779MPD2    C311544   4.083   2.044  14.087  0.3311 -0.6966 -0.1238
  779MPD2    C411545   3.948   2.045  14.056  0.0349 -0.1001  0.0832
  779MPD2    C511546   3.872   1.937  14.092 -0.6438  0.1819  0.3789
  779MPD2     H11547   4.249   1.915  14.123  0.3762  2.2019 -0.4869
  779MPD2    H111548   3.898   2.136  14.026 -1.2549 -1.2238 -1.1971
  779MPD2    H211549   3.875   1.730  14.157  1.7100 -1.0313 -0.0885
  779MPD2    H311550   3.764   1.947  14.097 -0.7506  0.0622 -1.6160
  779MPD2     N11551   4.166   2.161  14.071  0.4912 -0.1441 -0.2017
  779MPD2    H511552   4.264   2.145  14.092  0.5602 -0.5975 -0.8693
  779MPD2    N111553   4.133   1.677  14.179 -0.0703  0.2396  0.1796
  779MPD2    H711554   4.232   1.678  14.199 -0.1375  1.0241  0.4749
  780MPD2     C11555   2.828   1.301   0.527  0.4076 -0.0376  0.6747
  780MPD2    C111556   2.881   1.368   0.416  0.1495  0.0461  0.1338
  780MPD2    C211557   2.957   1.477   0.443 -0.3330  0.0862  0.1366
  780MPD2    C311558   2.979   1.522   0.572  0.0706  0.5045  0.9312
  780MPD2    C411559   2.929   1.455   0.682  0.0606  0.8853  0.4934
  780MPD2    C511560   2.858   1.340   0.654  0.3290  0.5650  0.3446
  780MPD2     H11561   3.014   1.526   0.364  0.9714 -0.0469  0.9914
  780MPD2    H111562   2.949   1.484   0.785 -1.5512  0.8583  0.8078
  780MPD2    H211563   2.772   1.210   0.509  0.9375 -0.6795  2.2680
  780MPD2    H311564   2.811   1.286   0.735 -0.0025 -1.0338 -0.9050
  780MPD2     N11565   3.091   1.608   0.573  0.1324  0.0016 -0.1139
  780MPD2    H511566   3.122   1.632   0.480  0.2554 -0.1174 -0.1033
  780MPD2    N111567   2.875   1.313   0.288 -0.3748 -0.1544 -0.4420
  780MPD2    H711568   2.848   1.215   0.293  1.2331 -0.5053  1.6630
  781MPD2     C11569   0.157   3.550  12.484  0.4328  0.1207 -0.5712
  781MPD2    C111570   0.257   3.483  12.412  1.2766 -0.6923  0.2646
  781MPD2    C211571   0.298   3.544  12.290 -0.3173  0.0832  0.1413
  781MPD2    C311572   0.234   3.658  12.242 -0.2266  0.2061 -0.7227
  781MPD2    C411573   0.141   3.722  12.319  1.0798  0.0603 -0.6432
  781MPD2    C511574   0.099   3.670  12.439  0.7126 -0.7742  0.2408
  781MPD2     H11575   0.378   3.508  12.226 -1.9080 -2.8028 -0.2160
  781MPD2    H111576   0.098   3.815  12.285 -2.4637 -1.2921  0.0879
  781MPD2    H211577   0.110   3.510  12.574  0.4359  2.8080  0.6391
  781MPD2    H311578   0.022   3.715  12.501 -1.0724 -2.5766 -0.6631
  781MPD2     N11579   0.255   3.727  12.118  0.5039  0.1499 -0.4785
  781MPD2    H511580   0.197   3.808  12.103  1.4056  1.0042  0.5988
  781MPD2    N111581   0.310   3.363  12.451 -0.2142 -0.4934 -0.0853
  781MPD2    H711582   0.375   3.332  12.379  0.9411  1.2164  0.2217
  782MPD2     C11583   3.734   4.192  10.313 -0.3961  0.5417  0.2203
  782MPD2    C111584   3.788   4.154  10.436  0.0473  0.6241 -0.2839
  782MPD2    C211585   3.844   4.249  10.519  0.4314  0.4259  0.6352
  782MPD2    C311586   3.835   4.385  10.488  0.2977 -0.7030 -0.7991
  782MPD2    C411587   3.782   4.421  10.367  0.0804  0.7561  0.4498
  782MPD2    C511588   3.740   4.325  10.284  0.0108 -0.5523 -0.2682
  782MPD2     H11589   3.892   4.213  10.609  0.0930  0.8332  0.9804
  782MPD2    H111590   3.772   4.523  10.332  1.9219  0.9058  0.3281
  782MPD2    H211591   3.692   4.122  10.242 -0.8390  3.0476 -2.0130
  782MPD2    H311592   3.694   4.356  10.190  0.2693  1.4322  0.2676
  782MPD2     N11593   3.894   4.477  10.579 -0.3775  0.4183  0.2192
  782MPD2    H511594   3.943   4.436  10.659 -2.7565  1.7017  2.3378
  782MPD2    N111595   3.782   4.026  10.486  0.3905 -0.1233  0.2634
  782MPD2    H711596   3.827   4.007  10.575 -0.6416  0.9858  1.0072
  783MPD2     C11597   2.972   3.581  10.702  0.4051 -0.6449 -0.7085
  783MPD2    C111598   3.011   3.707  10.681 -0.0445 -0.5973 -0.6133
  783MPD2    C211599   3.147   3.733  10.648 -0.5048 -0.0079  0.0663
  783MPD2    C311600   3.241   3.629  10.652 -0.3024 -0.1835  0.5606
  783MPD2    C411601   3.198   3.502  10.686  0.3785 -0.6141  0.1311
  783MPD2    C511602   3.064   3.480  10.711  0.0121  0.0803  0.0106
  783MPD2     H11603   3.181   3.835  10.633 -1.7176  0.1902 -1.3822
  783MPD2    H111604   3.256   3.411  10.681 -0.2292 -1.0326  0.6759
  783MPD2    H211605   2.868   3.564  10.723  0.3828 -0.3267 -0.5715
  783MPD2    H311606   3.033   3.377  10.721  0.4247 -0.0110  0.3565
  783MPD2     N11607   3.382   3.662  10.647 -0.2310 -0.0652 -0.1860
  783MPD2    H511608   3.407   3.758  10.624 -0.7895 -0.6834 -3.2889
  783MPD2    N111609   2.906   3.801  10.683  0.0653 -0.1177 -0.0103
  783MPD2    H711610   2.816   3.761  10.709  0.3003 -0.0058  0.9660
  784MPD2     C11611   1.226   4.699   0.865 -0.1065  0.1174 -0.0623
  784MPD2    C111612   1.229   0.095   0.909  0.1312 -0.0194  0.0675
  784MPD2    C211613   1.110   0.172   0.897 -0.1600  0.2977  0.3389
  784MPD2    C311614   0.998   0.124   0.833  0.6971 -0.4855 -0.2313
  784MPD2    C411615   1.002   4.730   0.788 -0.3260 -0.5436 -0.3150
  784MPD2    C511616   1.110   4.650   0.811 -0.1171  0.2441 -0.3563
  784MPD2     H11617   1.101   0.268   0.946  1.9737  0.1725  1.0054
  784MPD2    H111618   0.919   4.674   0.746  0.7001 -1.7550 -0.7128
  784MPD2    H211619   1.317   4.640   0.874  0.7501  1.9523  3.1339
  784MPD2    H311620   1.098   4.549   0.772  0.2098 -0.3015  0.9509
  784MPD2     N11621   0.880   0.206   0.835  0.0722  0.3384 -0.3105
  784MPD2    H511622   0.881   0.297   0.880  2.0632 -0.0690  0.4959
  784MPD2    N111623   1.343   0.154   0.970 -0.0628  0.3679  0.0997
  784MPD2    H711624   1.341   0.251   0.997  2.0876  0.2350  0.7337
  785MPD2     C11625   1.505   3.572  10.479  1.0445  0.1851 -0.1646
  785MPD2    C111626   1.467   3.447  10.519  0.3562 -1.1879 -0.3683
  785MPD2    C211627   1.466   3.345  10.421 -0.0750  0.0833  0.4268
  785MPD2    C311628   1.479   3.373  10.287 -0.1092  0.2527 -0.5635
  785MPD2    C411629   1.502   3.507  10.253 -0.4010 -0.0106 -0.3160
  785MPD2    C511630   1.520   3.599  10.344  0.3155  0.1737 -0.3093
  785MPD2     H11631   1.448   3.240  10.443 -1.7645 -0.1907 -2.2637
  785MPD2    H111632   1.517   3.545  10.153  1.4346 -0.4806 -0.2269
  785MPD2    H211633   1.508   3.652  10.552  1.0496 -0.5120  0.6112
  785MPD2    H311634   1.531   3.702  10.311 -0.3084 -0.1912 -1.6537
  785MPD2     N11635   1.461   3.260  10.202 -0.0125 -0.2027  0.0361
  785MPD2    H511636   1.435   3.169  10.240  1.5086 -1.5069 -2.0962
  785MPD2    N111637   1.428   3.425  10.651 -0.2947  0.2621 -0.1173
  785MPD2    H711638   1.445   3.493  10.725 -0.0803  0.1865 -0.0953
  786MPD2     C11639   4.549   1.030  15.323 -0.3039  0.3449 -1.0722
  786MPD2    C111640   4.672   0.976  15.277 -0.1375 -0.3375  1.5118
  786MPD2    C211641   0.050   1.000  15.352 -0.1910 -0.2669  0.3064
  786MPD2    C311642   0.051   1.091  15.459  0.5065 -0.6271 -0.0523
  786MPD2    C411643   4.672   1.146  15.498 -0.3062 -0.0332  0.2467
  786MPD2    C511644   4.558   1.119  15.427  0.3460  0.0617 -0.0857
  786MPD2     H11645   0.145   0.966  15.312 -0.6559 -1.1278 -0.0707
  786MPD2    H111646   4.660   1.225  15.572 -1.5793  1.6538 -1.7586
  786MPD2    H211647   4.453   1.006  15.278 -1.4903  1.6703  0.7398
  786MPD2    H311648   4.473   1.175  15.465  0.6708  0.6369 -0.2053
  786MPD2     N11649   0.166   1.111  15.544  0.6263  0.3272  0.3133
  786MPD2    H511650   0.151   1.171  15.625 -0.6006 -0.4814  0.6759
  786MPD2    N111651   4.684   0.891  15.164  0.5986  0.4885  0.1800
  786MPD2    H711652   0.033   0.845  15.141  0.5127  0.4016  0.0278
  787MPD2     C11653   0.315   0.440  15.296  0.1281 -0.0921 -0.1274
  787MPD2    C111654   0.253   0.400  15.178 -0.0660 -0.4252  1.2697
  787MPD2    C211655   0.277   0.268  15.146  0.2313 -1.0035  0.1909
  787MPD2    C311656   0.337   0.177  15.233  0.0989 -0.6291  0.5089
  787MPD2    C411657   0.375   0.218  15.358  0.5539  0.8796 -0.3066
  787MPD2    C511658   0.374   0.350  15.382 -0.2604 -0.7489 -0.6071
  787MPD2     H11659   0.245   0.228  15.051  1.3639  0.7003 -0.9030
  787MPD2    H111660   0.423   0.155  15.432  0.5164 -1.0295 -1.9007
  787MPD2    H211661   0.325   0.546  15.314  0.3788 -0.0229 -0.6769
  787MPD2    H311662   0.427   0.386  15.470 -3.3181 -3.2511  2.2668
  787MPD2     N11663   0.373   0.048  15.190  0.1091 -0.3843 -0.5546
  787MPD2    H511664   0.368   0.026  15.091  0.5947 -2.5790 -0.0870
  787MPD2    N111665   0.174   0.491  15.101 -0.2760  0.0444  0.3428
  787MPD2    H711666   0.174   0.584  15.143 -3.0032 -1.1452  2.9936
  788MPD2     C11667   1.585   4.392   1.563 -0.7972 -0.4699  0.1125
  788MPD2    C111668   1.677   4.292   1.535 -0.2946  0.2175 -0.4351
  788MPD2    C211669   1.768   4.330   1.434  0.4691 -0.6739  0.5456
  788MPD2    C311670   1.752   4.443   1.355 -0.4272 -0.0110 -0.5881
  788MPD2    C411671   1.652   4.537   1.385 -0.0611 -0.2828 -0.1928
  788MPD2    C511672   1.568   4.509   1.490 -0.1921  0.0249  0.4189
  788MPD2     H11673   1.842   4.257   1.406  1.9862  0.9972  0.1717
  788MPD2    H111674   1.648   4.631   1.330 -1.7382  0.3009  0.9124
  788MPD2    H211675   1.515   4.374   1.644 -0.9481 -0.5485 -0.0376
  788MPD2    H311676   1.500   4.588   1.519  2.8470  2.3635  1.2250
  788MPD2     N11677   1.828   4.464   1.238  0.5564 -0.2228 -0.1578
  788MPD2    H511678   1.790   4.538   1.180 -1.6912 -1.9787 -0.9407
  788MPD2    N111679   1.680   4.164   1.598  0.0942  0.1328 -0.6677
  788MPD2    H711680   1.757   4.108   1.564 -1.1471 -2.2798  0.4925
  789MPD2     C11681   2.181   3.311  17.190  0.2966 -0.4677  0.6531
  789MPD2    C111682   2.086   3.301  17.089  0.6027  0.4789  0.3055
  789MPD2    C211683   2.016   3.415  17.057 -0.0343 -0.2696  0.3671
  789MPD2    C311684   2.025   3.533  17.131  0.1232  0.4775 -0.8295
  789MPD2    C411685   2.116   3.532  17.234  0.2109 -0.0827 -1.2749
  789MPD2    C511686   2.197   3.423  17.254  0.2393 -0.5909  0.2429
  789MPD2     H11687   1.947   3.406  16.974  0.7566  0.2838 -0.3364
  789MPD2    H111688   2.144   3.624  17.285  2.0146 -0.9642 -0.6756
  789MPD2    H211689   2.245   3.226  17.212  1.5072  0.2442 -0.1400
  789MPD2    H311690   2.286   3.427  17.315  0.4783  0.4669 -0.1641
  789MPD2     N11691   1.953   3.646  17.106  0.3049  0.0224 -0.1450
  789MPD2    H511692   1.959   3.719  17.176 -1.2471  0.1358 -0.1431
  789MPD2    N111693   2.050   3.185  17.020 -0.4288 -0.8130  0.2555
  789MPD2    H711694   1.989   3.201  16.940  1.1791  0.8854 -0.6434
  790MPD2     C11695   3.344   4.684  13.880  0.2957 -0.0102 -0.7391
  790MPD2    C111696   3.351   0.065  13.813 -0.2229  0.3634  0.2498
  790MPD2    C211697   3.317   0.068  13.681  0.2196  0.5966  0.5675
  790MPD2    C311698   3.267   4.695  13.616  0.1147  0.2696 -0.5477
  790MPD2    C411699   3.248   4.580  13.696 -0.2054 -0.4504  0.1417
  790MPD2    C511700   3.291   4.577  13.831  0.0817 -0.2111  0.2956
  790MPD2     H11701   3.328   0.156  13.618 -1.2802  0.0206 -0.4922
  790MPD2    H111702   3.198   4.489  13.665  0.7981  0.1527 -3.3020
  790MPD2    H211703   3.383   4.680  13.981  1.8074  1.6057 -1.2488
  790MPD2    H311704   3.293   4.492  13.898  1.1118 -0.9654 -0.6830
  790MPD2     N11705   3.244   4.699  13.480  0.6211  0.8206  0.3196
  790MPD2    H511706   3.276   0.049  13.440  0.1356 -0.6258 -3.1607
  790MPD2    N111707   3.404   0.175  13.884  0.6372 -0.3342  0.2381
  790MPD2    H711708   3.426   0.154  13.981 -0.2411 -1.5110  0.1921
  791MPD2     C11709   2.549   0.212  13.003 -0.0834 -0.1523 -0.6687
  791MPD2    C111710   2.586   0.108  13.086 -0.4530  0.1520 -0.0568
  791MPD2    C211711   2.496   4.737  13.108  1.3858  0.1991  0.5193
  791MPD2    C311712   2.370   0.004  13.060 -0.1347 -0.6955 -0.7555
  791MPD2    C411713   2.337   0.107  12.980 -0.1136  0.3519  0.4770
  791MPD2    C511714   2.424   0.203  12.947  0.3409  0.0761  0.3336
  791MPD2     H11715   2.525   4.648  13.163  0.7162 -0.9634 -1.0192
  791MPD2    H111716   2.235   0.129  12.948 -0.2209 -2.7100 -1.2941
  791MPD2    H211717   2.615   0.293  12.975 -0.3728  0.6181  0.8614
  791MPD2    H311718   2.397   0.274  12.869  0.3480  0.5456  0.7557
  791MPD2     N11719   2.279   4.639  13.091  0.2340 -0.5908 -0.0071
  791MPD2    H511720   2.310   4.570  13.158  0.4116 -0.2243  0.2858
  791MPD2    N111721   2.723   0.105  13.128 -0.0076 -0.5205  0.5221
  791MPD2    H711722   2.781   0.187  13.116  0.3352 -1.0810 -1.7195
  792MPD2     C11723   3.151   0.419  11.676 -0.2939 -0.0585  0.6124
  792MPD2    C111724   3.123   0.512  11.571  0.3485  0.0979  0.5722
  792MPD2    C211725   2.995   0.538  11.534 -0.5552  0.7298 -0.7100
  792MPD2    C311726   2.887   0.468  11.598 -0.2347  0.5091 -0.4850
  792MPD2    C411727   2.914   0.376  11.702  0.3683  0.5246  0.2190
  792MPD2    C511728   3.042   0.360  11.743  0.5908  0.1955 -0.9929
  792MPD2     H11729   2.977   0.601  11.447 -2.0689  2.2478  0.7084
  792MPD2    H111730   2.838   0.343  11.771  1.1863 -2.1135 -0.1483
  792MPD2    H211731   3.249   0.406  11.719 -0.2880 -0.2054  0.5563
  792MPD2    H311732   3.061   0.285  11.818 -2.1571 -0.5835 -1.0772
  792MPD2     N11733   2.751   0.495  11.578 -0.2127 -0.4160 -0.1565
  792MPD2    H511734   2.687   0.461  11.649 -0.1728  1.4609  0.7673
  792MPD2    N111735   3.234   0.578  11.502 -0.3517  0.4558  0.1901
  792MPD2    H711736   3.324   0.535  11.520  0.3317  1.4162 -0.8858
  793MPD2     C11737   2.441   1.035  10.852 -0.2764 -0.3903 -0.4529
  793MPD2    C111738   2.548   0.962  10.893 -0.8259  0.3575 -0.0639
  793MPD2    C211739   2.537   0.904  11.020 -0.5584 -0.3132  0.0337
  793MPD2    C311740   2.426   0.908  11.096 -0.0328  0.4004 -0.5463
  793MPD2    C411741   2.324   0.979  11.050  0.1713  0.2046 -0.4248
  793MPD2    C511742   2.330   1.037  10.929 -0.7604 -0.6514  0.2454
  793MPD2     H11743   2.626   0.858  11.061  0.2748  0.8766 -0.4297
  793MPD2    H111744   2.233   1.000  11.106  0.3758  0.1301 -0.0675
  793MPD2    H211745   2.443   1.105  10.770 -0.5702  1.4464  1.1124
  793MPD2    H311746   2.240   1.085  10.895  0.4214  1.8425  0.6582
  793MPD2     N11747   2.437   0.851  11.222 -0.2400  0.4445 -0.4839
  793MPD2    H511748   2.529   0.821  11.252 -1.2201 -0.1616  2.0157
  793MPD2    N111749   2.672   0.961  10.831  0.7821 -0.3379 -0.2509
  793MPD2    H711750   2.737   0.892  10.866 -0.3394 -0.8702  0.7447
  794MPD2     C11751   2.318   0.129   0.179 -0.4404 -0.3988  0.4216
  794MPD2    C111752   2.372   0.043   0.091 -0.1479  0.1308 -0.3585
  794MPD2    C211753   2.328   0.048  17.710 -0.3345 -0.5072  0.0714
  794MPD2    C311754   2.219   0.132  17.675 -0.3443  0.2111 -0.9459
  794MPD2    C411755   2.162   0.211   0.021 -0.6227  0.3911 -0.4743
  794MPD2    C511756   2.207   0.203   0.144  0.1725  0.1180  0.1650
  794MPD2     H11757   2.385   4.722  17.644  3.8154  2.0389  1.1567
  794MPD2    H111758   2.070   0.257  17.736 -1.1889 -1.9621 -2.0015
  794MPD2    H211759   2.344   0.135   0.284 -1.4353 -0.0128  0.6452
  794MPD2    H311760   2.156   0.269   0.213 -0.9642 -1.2978  0.6881
  794MPD2     N11761   2.174   0.144  17.546  0.4756  0.5700 -0.5078
  794MPD2    H511762   2.093   0.205  17.540 -0.2039 -0.1494  1.2292
  794MPD2    N111763   2.486   4.695   0.124 -0.0466 -0.1905  0.0357
  794MPD2    H711764   2.510   4.638   0.044 -0.0582 -1.5433  0.9953
  795MPD2     C11765   0.680   2.209  13.344  0.4332  0.3530 -0.4372
  795MPD2    C111766   0.632   2.100  13.410  0.3111  0.8114  0.6800
  795MPD2    C211767   0.716   2.023  13.477  0.3006 -0.3587  0.3269
  795MPD2    C311768   0.852   2.040  13.468 -0.0935  0.5010 -0.5447
  795MPD2    C411769   0.896   2.149  13.402 -0.1829 -0.1445  0.8780
  795MPD2    C511770   0.809   2.241  13.347  0.1440 -0.1101 -0.6055
  795MPD2     H11771   0.672   1.939  13.531 -0.0397 -1.6402 -1.9468
  795MPD2    H111772   0.999   2.182  13.401 -0.3589  0.3130 -3.2380
  795MPD2    H211773   0.615   2.270  13.283  0.2075  0.0998 -0.4487
  795MPD2    H311774   0.848   2.326  13.291  1.6220 -1.8069 -2.1283
  795MPD2     N11775   0.935   1.942  13.536  0.1472  0.5187  0.2689
  795MPD2    H511776   0.902   1.873  13.602  1.0016 -1.5129 -1.4210
  795MPD2    N111777   0.496   2.064  13.413 -0.2128 -0.4268  0.6242
  795MPD2    H711778   0.478   1.971  13.450  0.6985 -0.6515  0.5236
  796MPD2     C11779   0.099   3.503  15.999 -0.3961  0.6351 -0.3430
  796MPD2    C111780   0.194   3.548  16.097 -0.2110  0.5074 -0.1293
  796MPD2    C211781   0.194   3.688  16.132  0.2820 -0.4193  0.0932
  796MPD2    C311782   0.089   3.762  16.088 -0.2819  0.0053 -0.1401
  796MPD2    C411783   0.005   3.724  15.991 -0.2415 -0.0089 -0.4563
  796MPD2    C511784   0.008   3.589  15.951 -0.8234  0.9007 -0.3401
  796MPD2     H11785   0.263   3.728  16.206  2.2710 -0.5777 -1.6599
  796MPD2    H111786   4.672   3.795  15.952 -0.6614  0.7749  1.7225
  796MPD2    H211787   0.099   3.400  15.965  0.8363  1.0425 -1.5709
  796MPD2    H311788   4.675   3.549  15.879  0.4542 -0.7873 -0.6610
  796MPD2     N11789   0.090   3.897  16.139  0.4202  0.0857  0.6078
  796MPD2    H511790   0.156   3.909  16.215  2.3124 -0.3339 -0.9723
  796MPD2    N111791   0.277   3.448  16.164  0.5482 -0.2064  0.6578
  796MPD2    H711792   0.257   3.351  16.142 -0.5237  0.3459 -0.7760
  797MPD2     C11793   0.580   3.265  17.553  0.4961  0.4514 -0.7100
  797MPD2    C111794   0.702   3.317  17.597 -0.2162  0.2282 -0.3331
  797MPD2    C211795   0.762   3.418  17.521 -0.0100 -0.0650  0.5324
  797MPD2    C311796   0.718   3.457  17.396  0.2997 -0.6162 -0.4464
  797MPD2    C411797   0.604   3.397  17.348  0.1188  0.4514 -0.4829
  797MPD2    C511798   0.531   3.304  17.425 -0.7653  0.8347  0.0130
  797MPD2     H11799   0.858   3.455  17.554  0.0734  1.3323 -1.3205
  797MPD2    H111800   0.580   3.420  17.245  0.2099  1.4474 -0.2842
  797MPD2    H211801   0.542   3.177  17.603 -0.2707  1.2417  0.1078
  797MPD2    H311802   0.450   3.242  17.387  0.6224 -1.4640  0.7986
  797MPD2     N11803   0.805   3.543  17.325  1.0051 -0.2195 -0.1259
  797MPD2    H511804   0.892   3.566  17.372  0.9798 -0.5453  0.0847
  797MPD2    N111805   0.777   3.275  17.712 -0.3218  0.1496 -0.3618
  797MPD2    H711806   0.855   3.333  17.743  0.1786  0.5202 -2.3733
  798MPD2     C11807   1.439   3.346  17.505  0.1430 -1.1657  0.6351
  798MPD2    C111808   1.314   3.406  17.511  0.9178  0.5202 -0.3644
  798MPD2    C211809   1.239   3.401  17.633 -0.0729  0.2959 -0.6642
  798MPD2    C311810   1.287   3.329  17.738 -0.5937  0.5504 -0.4913
  798MPD2    C411811   1.413   3.273  17.734  0.2810 -0.6003  0.6517
  798MPD2    C511812   1.481   3.278  17.612  0.6965 -0.0340  0.1040
  798MPD2     H11813   1.138   3.439  17.632  1.0802  3.3814 -0.6781
  798MPD2    H111814   1.447   3.214   0.068 -1.7544 -1.8053  0.6227
  798MPD2    H211815   1.503   3.357  17.419  0.5252  0.9560  1.1937
  798MPD2    H311816   1.576   3.225  17.609 -0.3635 -2.0671  2.6182
  798MPD2     N11817   1.186   3.295   0.078  0.6855 -0.4994  0.1486
  798MPD2    H511818   1.096   3.340   0.066 -0.4942 -2.6949  0.7283
  798MPD2    N111819   1.272   3.484  17.403  0.3115 -0.3404 -0.2738
  798MPD2    H711820   1.336   3.488  17.325 -1.0879  1.1151 -1.3427
  799MPD2     C11821   0.054   4.555  15.281  0.8406 -0.4674 -0.2976
  799MPD2    C111822   0.018   4.477  15.174  0.2900  0.3950 -0.4105
  799MPD2    C211823   4.722   4.534  15.054 -0.0913 -0.6010 -1.0459
  799MPD2    C311824   4.720   4.674  15.042 -0.0191 -0.4204 -0.3367
  799MPD2    C411825   0.017   0.015  15.154  0.4419  0.4788 -0.0554
  799MPD2    C511826   0.057   4.692  15.270 -0.0770  0.0240 -0.7603
  799MPD2     H11827   4.697   4.465  14.974  0.4301  0.6059 -2.2676
  799MPD2    H111828   0.031   0.123  15.147 -0.7080  0.6273 -0.0945
  799MPD2    H211829   0.079   4.503  15.372 -1.3089 -0.5121  0.2592
  799MPD2    H311830   0.077   0.007  15.363 -0.1839  2.8601 -2.3764
  799MPD2     N11831   4.681   0.011  14.928 -0.4853  0.4089  0.0933
  799MPD2    H511832   4.685   0.112  14.932  1.5424  0.3601 -1.0421
  799MPD2    N111833   4.734   4.339  15.186 -0.4264 -0.1938 -0.1899
  799MPD2    H711834   4.678   4.292  15.115 -1.3113  0.5299  0.0409
  800MPD2     C11835   0.432   1.248  14.261 -0.3376  0.0027  0.4378
  800MPD2    C111836   0.537   1.219  14.175 -0.1944  0.1723  0.7656
  800MPD2    C211837   0.520   1.135  14.062  0.0109  1.1976 -1.1928
  800MPD2    C311838   0.391   1.097  14.032  0.0656 -0.0531 -0.3588
  800MPD2    C411839   0.287   1.135  14.118  0.2011 -0.0008 -0.3028
  800MPD2    C511840   0.310   1.200  14.232  0.3705 -0.0909 -0.0689
  800MPD2     H11841   0.603   1.106  13.999 -0.4988 -0.3306 -1.1531
  800MPD2    H111842   0.183   1.105  14.108 -0.0610  1.2856 -1.3972
  800MPD2    H211843   0.445   1.282  14.363 -0.5437 -1.6777  1.0232
  800MPD2    H311844   0.228   1.217  14.301  1.9658 -0.4473  1.8998
  800MPD2     N11845   0.377   1.024  13.914 -0.4986  0.4131 -0.2847
  800MPD2    H511846   0.463   0.987  13.874 -1.0208 -2.0633  0.8950
  800MPD2    N111847   0.667   1.270  14.208 -0.2018  0.0302 -0.4308
  800MPD2    H711848   0.667   1.331  14.289 -1.5003 -1.3183  0.5786
  801MPD2     C11849   0.869   1.938  14.390 -0.8328 -0.1143 -0.3446
  801MPD2    C111850   0.824   1.817  14.421  0.3008 -0.6575  0.0488
  801MPD2    C211851   0.729   1.796  14.521  0.2363  0.4049 -0.5069
  801MPD2    C311852   0.677   1.905  14.590  0.0413 -1.0923 -0.1177
  801MPD2    C411853   0.737   2.033  14.569 -0.1171  0.1425  0.1555
  801MPD2    C511854   0.827   2.049  14.466  0.0331 -0.1402 -0.0725
  801MPD2     H11855   0.699   1.692  14.531  2.2553 -0.2145 -0.9489
  801MPD2    H111856   0.703   2.122  14.621 -3.2394 -0.7575 -0.3179
  801MPD2    H211857   0.944   1.954  14.313  0.5218  0.8883  1.1972
  801MPD2    H311858   0.863   2.145  14.432 -1.0572 -0.4448 -2.1006
  801MPD2     N11859   0.575   1.896  14.690 -0.2345 -0.2828 -0.3742
  801MPD2    H511860   0.562   1.974  14.754  2.7494  0.2872 -0.4753
  801MPD2    N111861   0.856   1.696  14.344 -0.0627  0.0186  0.0673
  801MPD2    H711862   0.801   1.612  14.357  0.6171 -0.4483 -0.0738
  802MPD2     C11863   4.431   2.659   0.164 -0.0913  0.2048 -0.3496
  802MPD2    C111864   4.352   2.577   0.231 -0.1880 -0.1695  0.4458
  802MPD2    C211865   4.359   2.440   0.205  0.1320 -0.0779 -0.0885
  802MPD2    C311866   4.435   2.391   0.106 -1.1771 -0.2858  0.4578
  802MPD2    C411867   4.513   2.475   0.032  0.0548 -0.1385  0.2367
  802MPD2    C511868   4.505   2.609   0.062  0.2766  0.3198 -0.4281
  802MPD2     H11869   4.285   2.372   0.245  1.8319 -2.5668 -1.1814
  802MPD2    H111870   4.583   2.451  17.704  0.0705 -2.7754  1.0655
  802MPD2    H211871   4.443   2.762   0.197  0.1615  0.3479 -0.9008
  802MPD2    H311872   4.575   2.674   0.011  1.6598  0.9843  2.3361
  802MPD2     N11873   4.427   2.253   0.076 -0.5687 -0.3110  1.2961
  802MPD2    H511874   4.372   2.200   0.143 -1.2455 -1.7206 -0.3679
  802MPD2    N111875   4.262   2.613   0.333 -0.0198  1.0378 -0.0458
  802MPD2    H711876   4.216   2.535   0.379 -1.4256  2.4635  0.9478
  803MPD2     C11877   0.767   4.327  12.254  0.1510 -0.6942  0.0718
  803MPD2    C111878   0.859   4.425  12.250 -0.5370  0.7338  0.4971
  803MPD2    C211879   0.899   4.461  12.376 -0.2819 -0.0244  0.4317
  803MPD2    C311880   0.838   4.410  12.498 -0.6209  0.6134  0.3559
  803MPD2    C411881   0.744   4.311  12.490  0.2829  0.1808 -0.1603
  803MPD2    C511882   0.712   4.261  12.366  0.6159 -0.1731 -0.3276
  803MPD2     H11883   0.967   4.542  12.401 -0.1889 -0.0678  0.3205
  803MPD2    H111884   0.695   4.271  12.578  2.2146 -3.7363 -0.8626
  803MPD2    H211885   0.738   4.271  12.166 -0.9434 -2.5201  1.5778
  803MPD2    H311886   0.643   4.181  12.343  0.2737  0.0857 -0.2039
  803MPD2     N11887   0.865   4.465  12.629  0.9277  0.6887  0.3197
  803MPD2    H511888   0.830   4.414  12.710 -0.4361  1.8171  0.4498
  803MPD2    N111889   0.908   4.503  12.138  0.6140 -0.2376  0.1254
  803MPD2    H711890   0.978   4.573  12.162 -0.3645  0.9084 -0.3877
  804MPD2     C11891   0.161   1.628  16.983 -0.1935  0.3241 -0.5039
  804MPD2    C111892   0.164   1.614  17.125 -0.7497 -0.3541  0.4232
  804MPD2    C211893   0.254   1.695  17.194  0.4534  0.9041  0.0323
  804MPD2    C311894   0.326   1.802  17.135  0.2586 -0.4899 -0.2902
  804MPD2    C411895   0.299   1.822  17.001 -0.0075 -0.2478 -0.2133
  804MPD2    C511896   0.228   1.733  16.929 -1.1607 -0.5393 -0.7253
  804MPD2     H11897   0.279   1.668  17.295 -2.5461  0.8165  0.7532
  804MPD2    H111898   0.344   1.909  16.955  1.3032 -0.2448  1.1084
  804MPD2    H211899   0.094   1.571  16.920  0.6096 -1.7130  0.4850
  804MPD2    H311900   0.212   1.752  16.823 -1.2605 -3.0358 -1.1637
  804MPD2     N11901   0.428   1.861  17.215 -0.3784  0.1819  0.9080
  804MPD2    H511902   0.408   1.880  17.312  0.9621 -0.6592  1.3405
  804MPD2    N111903   0.097   1.504  17.191  0.4062 -0.2095 -0.1444
  804MPD2    H711904   0.088   1.501  17.292  1.1255  1.5716 -0.0248
  805MPD2     C11905   4.650   0.421  15.890 -0.4104  0.3734 -0.8001
  805MPD2    C111906   4.689   0.314  15.816  0.0437  0.3481 -0.5412
  805MPD2    C211907   0.061   0.242  15.862  1.1555  0.2595 -0.3539
  805MPD2    C311908   0.122   0.276  15.984  1.1494  0.0958  0.2830
  805MPD2    C411909   0.077   0.388  16.053 -0.4488  0.0027 -0.1115
  805MPD2    C511910   4.717   0.467  15.999 -0.3111 -0.1692  0.8173
  805MPD2     H11911   0.095   0.153  15.810 -2.3024 -2.3022  1.7542
  805MPD2    H111912   0.112   0.423  16.150 -1.0718  0.1656  0.0501
  805MPD2    H211913   4.575   0.495  15.863 -0.0027  0.9163 -0.4462
  805MPD2    H311914   4.683   0.556  16.049  0.5109  0.8869 -0.5084
  805MPD2     N11915   0.236   0.195  16.021 -0.0979  0.1590  0.5583
  805MPD2    H511916   0.237   0.104  15.976  0.1019 -0.0624  1.0038
  805MPD2    N111917   4.622   0.268  15.702  0.0829 -0.3503 -0.0907
  805MPD2    H711918   4.669   0.199  15.645 -1.8122 -0.4584 -1.5153
  806MPD2     C11919   0.253   0.090   0.974  0.6109  0.1956 -0.4163
  806MPD2    C111920   0.385   0.076   0.992 -0.3267  0.2770 -0.6925
  806MPD2    C211921   0.459   0.023   0.885 -0.2175 -0.3174  0.2005
  806MPD2    C311922   0.400   4.734   0.766 -0.5905  0.1213  0.2244
  806MPD2    C411923   0.267   0.031   0.743 -0.1569 -0.2981 -0.0260
  806MPD2    C511924   0.195   0.076   0.845 -0.3304  0.0463 -0.6677
  806MPD2     H11925   0.562   4.729   0.899 -0.5688 -0.8064  1.6441
  806MPD2    H111926   0.203   0.039   0.656  0.3998 -0.5721 -0.4531
  806MPD2    H211927   0.180   0.117   1.049  0.3923 -2.1735  0.2177
  806MPD2    H311928   0.091   0.104   0.834 -0.6211 -0.7538  0.0791
  806MPD2     N11929   0.471   4.676   0.656  0.1968  0.0981  0.2155
  806MPD2    H511930   0.570   4.661   0.671  0.2079  0.7583  0.8297
  806MPD2    N111931   0.435   0.118   1.122  0.0235  0.1894 -1.0112
  806MPD2    H711932   0.368   0.158   1.187 -1.9049 -2.6574 -1.2456
  807MPD2     C11933   0.553   4.501   1.786 -0.5004  0.0219  0.2961
  807MPD2    C111934   0.468   4.541   1.684  0.7121 -1.0642 -0.0635
  807MPD2    C211935   0.376   4.447   1.648  0.2207  1.2272  0.5253
  807MPD2    C311936   0.367   4.325   1.712 -0.1250  0.4313 -0.0692
  807MPD2    C411937   0.455   4.291   1.812 -0.3191 -0.5204 -0.6666
  807MPD2    C511938   0.547   4.380   1.852  0.0865 -0.4284 -0.1495
  807MPD2     H11939   0.310   4.466   1.564  0.2496  1.7487  0.6201
  807MPD2    H111940   0.442   4.199   1.867 -3.9308  0.0191 -0.6386
  807MPD2    H211941   0.633   4.569   1.812  0.3280 -0.6673 -0.4519
  807MPD2    H311942   0.622   4.357   1.927  0.1506  1.3651  0.3244
  807MPD2     N11943   0.264   4.235   1.671 -0.1491 -0.5648  0.8908
  807MPD2    H511944   0.220   4.252   1.581 -2.5523  0.2484  2.2209
  807MPD2    N111945   0.481   4.660   1.602 -0.5027 -0.7621  0.0311
  807MPD2    H711946   0.401   4.681   1.544  0.8913  1.4275 -1.0962
  808MPD2     C11947   0.537   1.184   9.611  0.0350 -0.0577  0.1353
  808MPD2    C111948   0.564   1.212   9.739  1.0213 -0.1210 -0.8422
  808MPD2    C211949   0.610   1.337   9.777  0.4305  0.8704 -0.1784
  808MPD2    C311950   0.625   1.430   9.675 -0.0458  0.0276  0.7095
  808MPD2    C411951   0.616   1.396   9.545 -0.1319 -0.0452 -0.1086
  808MPD2    C511952   0.572   1.273   9.515 -0.4927 -0.3645  0.1727
  808MPD2     H11953   0.625   1.350   9.884  0.0398 -0.8892  0.0919
  808MPD2    H111954   0.633   1.468   9.466 -0.6581 -0.3752 -0.5171
  808MPD2    H211955   0.501   1.088   9.577  2.0236 -1.3917  1.8078
  808MPD2    H311956   0.538   1.249   9.415  2.5361  0.8758 -1.1504
  808MPD2     N11957   0.662   1.564   9.699 -0.4183  0.1319 -0.4229
  808MPD2    H511958   0.671   1.616   9.612  0.1288 -2.0904 -1.6984
  808MPD2    N111959   0.532   1.119   9.841 -0.5389 -0.2880 -0.5578
  808MPD2    H711960   0.537   1.161   9.933  1.4576  0.7031 -1.1230
  809MPD2     C11961   1.439   1.735   9.429 -0.1181 -0.0000 -0.1654
  809MPD2    C111962   1.391   1.629   9.503  0.3536  0.4288 -0.2657
  809MPD2    C211963   1.271   1.652   9.573  0.1010  0.2787 -0.1164
  809MPD2    C311964   1.198   1.772   9.560  0.0502 -0.2052  0.3830
  809MPD2    C411965   1.247   1.873   9.486 -0.3069 -0.1769  0.3603
  809MPD2    C511966   1.370   1.857   9.432  0.1590 -0.0557 -0.3082
  809MPD2     H11967   1.241   1.574   9.643 -2.5097  1.2974 -0.1366
  809MPD2    H111968   1.199   1.969   9.471  0.0458  0.3812  2.8541
  809MPD2    H211969   1.525   1.737   9.363 -1.6517  0.1955 -2.1591
  809MPD2    H311970   1.400   1.944   9.375  2.4503 -0.4801  0.2620
  809MPD2     N11971   1.078   1.790   9.636 -0.2436 -0.3393 -1.0650
  809MPD2    H511972   1.031   1.712   9.678  0.6093 -0.5602 -0.5246
  809MPD2    N111973   1.463   1.506   9.522 -0.9378 -0.1608 -0.5192
  809MPD2    H711974   1.424   1.442   9.591 -1.2983 -0.2759 -0.8298
  810MPD2     C11975   0.258   0.504  11.341 -0.8871 -0.8621  0.3700
  810MPD2    C111976   0.166   0.536  11.246 -0.1114 -0.7347 -0.1436
  810MPD2    C211977   0.152   0.666  11.199 -0.9805 -0.4311  0.3252
  810MPD2    C311978   0.231   0.767  11.250 -0.2111  0.0221  0.4614
  810MPD2    C411979   0.319   0.732  11.357  0.1271 -0.5589  0.4552
  810MPD2    C511980   0.328   0.598  11.398  0.4578  0.3023 -0.5935
  810MPD2     H11981   0.071   0.673  11.127 -0.5216  1.1326 -0.0474
  810MPD2    H111982   0.371   0.806  11.416  0.7048 -1.9515  1.6906
  810MPD2    H211983   0.263   0.404  11.383 -0.4252 -0.7618  0.5564
  810MPD2    H311984   0.383   0.560  11.484  0.6132  1.1570 -0.3079
  810MPD2     N11985   0.238   0.899  11.191  0.6011  0.0294  0.4802
  810MPD2    H511986   0.292   0.970  11.240  0.4926  0.6617 -0.3157
  810MPD2    N111987   0.084   0.426  11.192  0.6379  0.2934 -0.2007
  810MPD2    H711988   0.095   0.335  11.237  1.5462  0.1733 -0.6510
  811MPD2     C11989   4.540   4.664  10.430 -0.0833  0.2699  0.2546
  811MPD2    C111990   4.577   0.044  10.481  0.0402 -0.0232 -0.1835
  811MPD2    C211991   4.573   0.148  10.400 -0.9558 -0.0631  0.2598
  811MPD2    C311992   4.567   0.144  10.267  0.8437 -0.4284 -0.3687
  811MPD2    C411993   4.514   0.027  10.218 -0.2781 -0.2486  0.4925
  811MPD2    C511994   4.499   4.655  10.297  0.3769 -0.0807 -0.1483
  811MPD2     H11995   4.598   0.245  10.441 -0.8340  0.1739 -0.3619
  811MPD2    H111996   4.485   0.021  10.113  2.5704 -2.3632 -0.1549
  811MPD2    H211997   4.527   4.574  10.490 -2.4067  0.6671  0.3587
  811MPD2    H311998   4.465   4.558  10.261 -1.1760  0.6211 -0.5622
  811MPD2     N11999   4.594   0.259  10.187  0.0300 -0.7757 -0.7874
  811MPD2    H512000   4.637   0.336  10.237  1.0142 -0.7173 -1.7248
  811MPD2    N112001   4.603   0.057  10.620 -0.0305  1.0596  0.2763
  811MPD2    H712002   4.577   4.714  10.675  2.1659 -1.1158 -1.9204
  812MPD2     C12003   3.589   0.056  12.452 -0.5703  0.3376 -0.4044
  812MPD2    C112004   3.651   0.171  12.495  0.3441 -0.4053  0.9736
  812MPD2    C212005   3.724   0.172  12.613 -0.6765 -0.4074  0.0372
  812MPD2    C312006   3.737   0.055  12.684  0.1572 -0.4647  0.6785
  812MPD2    C412007   3.673   4.674  12.641 -0.3589  0.8375 -0.4658
  812MPD2    C512008   3.599   4.681  12.521 -0.2154  0.2930  0.7783
  812MPD2     H12009   3.778   0.264  12.633  0.6647 -1.2979  0.4797
  812MPD2    H112010   3.676   4.581  12.697 -1.6928  1.1563  0.1330
  812MPD2    H212011   3.534   0.053  12.358 -1.0875 -0.2012 -0.0903
  812MPD2    H312012   3.551   4.595  12.476 -0.1729  0.1287  1.0463
  812MPD2     N12013   3.800   0.065  12.808 -0.4970 -0.7308  0.2294
  812MPD2    H512014   3.843   0.154  12.830  0.2173 -0.6698 -1.3721
  812MPD2    N112015   3.625   0.286  12.415  0.1602 -0.2834  0.7464
  812MPD2    H712016   3.545   0.285  12.354  0.0068 -0.1641  0.9441
  813MPD2     C12017   3.241   1.812  12.670 -0.0407 -0.3203  0.6770
  813MPD2    C112018   3.228   1.931  12.743 -0.2803  0.0528  1.1075
  813MPD2    C212019   3.162   1.935  12.869  0.2680  0.1176  0.2212
  813MPD2    C312020   3.116   1.819  12.918  0.2236  0.4275 -0.0279
  813MPD2    C412021   3.126   1.699  12.848  0.1959 -0.1933 -0.1659
  813MPD2    C512022   3.189   1.698  12.723  0.9369 -0.3870 -0.7364
  813MPD2     H12023   3.145   2.023  12.929 -0.3625  0.1076  0.0521
  813MPD2    H112024   3.081   1.608  12.885  1.0524 -0.8830 -0.8056
  813MPD2    H212025   3.280   1.813  12.569  1.2178  0.2726  1.1759
  813MPD2    H312026   3.189   1.607  12.664 -2.3739 -1.5870  1.1252
  813MPD2     N12027   3.060   1.827  13.044 -0.0058  0.4211 -0.0237
  813MPD2    H512028   3.069   1.916  13.092  1.5209 -0.2813  1.0111
  813MPD2    N112029   3.301   2.050  12.705 -0.4451 -0.3927  0.0047
  813MPD2    H712030   3.302   2.126  12.773  1.0457 -0.8810  0.5213
  814MPD2     C12031   3.428   3.178  12.834  0.2026  0.4633  0.1867
  814MPD2    C112032   3.502   3.200  12.718 -0.8018  0.3413  0.1580
  814MPD2    C212033   3.580   3.310  12.712 -0.4101  0.5188  0.0334
  814MPD2    C312034   3.591   3.394  12.821  0.1097  0.4262  0.3292
  814MPD2    C412035   3.515   3.379  12.932  0.8246  0.4680  0.0774
  814MPD2    C512036   3.440   3.269  12.941  0.4652  0.5757 -0.0370
  814MPD2     H12037   3.635   3.333  12.621  1.4336  0.1990  1.0715
  814MPD2    H112038   3.504   3.446  13.016 -2.8203 -0.1984  0.1158
  814MPD2    H212039   3.351   3.104  12.852 -0.2837  0.5071 -1.7293
  814MPD2    H312040   3.381   3.245  13.029  0.6315 -1.4957 -0.4952
  814MPD2     N12041   3.667   3.515  12.811  0.1203 -0.6330 -0.4458
  814MPD2    H512042   3.679   3.568  12.896 -0.5182  0.1332 -0.8308
  814MPD2    N112043   3.489   3.120  12.594 -0.3957 -0.1756 -0.2663
  814MPD2    H712044   3.546   3.137  12.512 -1.2158 -1.1246 -1.0273
  815MPD2     C12045   4.144   2.011  11.950 -0.3962  0.5808  0.6826
  815MPD2    C112046   4.067   1.909  11.904 -0.4523  0.0177 -0.1859
  815MPD2    C212047   3.983   1.843  11.995 -0.3032 -0.4295 -0.4920
  815MPD2    C312048   3.988   1.881  12.128 -0.4519 -0.0170  0.1562
  815MPD2    C412049   4.083   1.966  12.173  0.3123 -0.3549 -0.4046
  815MPD2    C512050   4.158   2.038  12.081 -0.1216  0.0760  0.7052
  815MPD2     H12051   3.911   1.772  11.955  1.6257 -2.8045  0.2833
  815MPD2    H112052   4.100   1.998  12.275  0.2517 -3.4607  0.5817
  815MPD2    H212053   4.203   2.073  11.883 -1.9942  1.6251  0.2496
  815MPD2    H312054   4.235   2.105  12.117  0.2381 -1.0632  2.0627
  815MPD2     N12055   3.900   1.817  12.220 -0.1600 -0.0281 -0.1449
  815MPD2    H512056   3.834   1.749  12.182 -0.1511 -0.0848 -0.0596
  815MPD2    N112057   4.085   1.863  11.772 -0.1903 -0.3222  0.0770
  815MPD2    H712058   4.154   1.911  11.715 -1.5492  1.6155  0.0635
  816MPD2     C12059   3.735   0.908  17.176 -0.2099 -0.2580 -0.4025
  816MPD2    C112060   3.735   1.008  17.079 -0.3317 -1.2731 -0.6695
  816MPD2    C212061   3.843   1.022  16.998 -0.7231  1.2604  0.2415
  816MPD2    C312062   3.957   0.945  17.016  0.8710 -0.3805 -0.1364
  816MPD2    C412063   3.957   0.844  17.117 -0.5009 -0.6939 -0.5224
  816MPD2    C512064   3.844   0.830  17.187  0.0235  1.3164 -0.1533
  816MPD2     H12065   3.846   1.101  16.923  1.2684  1.5820  0.6427
  816MPD2    H112066   4.045   0.781  17.129 -0.3529 -0.6249 -1.2454
  816MPD2    H212067   3.653   0.909  17.247  0.0388 -1.1610 -0.1053
  816MPD2    H312068   3.842   0.749  17.259 -2.7666 -0.9072 -2.7598
  816MPD2     N12069   4.064   0.969  16.930 -0.0225 -0.0403 -0.3177
  816MPD2    H512070   4.049   1.030  16.850 -1.6231  0.7105  0.5671
  816MPD2    N112071   3.630   1.104  17.064 -0.6371  0.4055 -0.0662
  816MPD2    H712072   3.640   1.181  16.999  0.1746  2.0943  2.0382
  817MPD2     C12073   2.978   2.903  10.124  0.4394  0.0009 -0.5147
  817MPD2    C112074   2.987   2.878   9.993  0.5430  0.4916 -0.1322
  817MPD2    C212075   2.888   2.937   9.910  0.7409  0.2129  0.0071
  817MPD2    C312076   2.788   3.018   9.957 -0.4961 -0.0665  0.2751
  817MPD2    C412077   2.789   3.043  10.088 -0.4317 -0.2151 -0.4015
  817MPD2    C512078   2.886   2.993  10.165  0.1625  0.4900 -0.1092
  817MPD2     H12079   2.883   2.911   9.805  1.1680 -0.3540  0.1282
  817MPD2    H112080   2.714   3.102  10.139 -0.6642  0.9786 -2.1361
  817MPD2    H212081   3.050   2.860  10.193 -0.8294 -0.3305  0.6193
  817MPD2    H312082   2.888   3.012  10.272 -0.7862  2.0990 -0.3630
  817MPD2     N12083   2.686   3.072   9.873  0.2699 -1.0374 -0.1627
  817MPD2    H512084   2.691   3.046   9.775 -0.7346 -1.7747 -0.0234
  817MPD2    N112085   3.087   2.791   9.945 -0.8688  0.3787 -0.1828
  817MPD2    H712086   3.074   2.761   9.849 -0.3585  0.6050 -0.3209
  818MPD2     C12087   1.574   2.523   9.991 -0.1232  0.0189 -0.3983
  818MPD2    C112088   1.565   2.447  10.105 -0.2705 -0.0022  0.2419
  818MPD2    C212089   1.593   2.310  10.099  0.2060  0.1303 -0.4618
  818MPD2    C312090   1.614   2.248   9.979  0.5275 -0.2258 -0.6442
  818MPD2    C412091   1.618   2.319   9.869 -0.7048 -0.1142 -0.3467
  818MPD2    C512092   1.599   2.454   9.878 -0.5982  0.0256  0.2814
  818MPD2     H12093   1.605   2.248  10.188  1.4142  2.7640  1.1980
  818MPD2    H112094   1.626   2.274   9.771 -4.1276  0.1938 -0.7704
  818MPD2    H212095   1.550   2.628   9.979  0.1807  0.2538  1.0647
  818MPD2    H312096   1.620   2.516   9.792 -1.1391 -0.9588 -0.5502
  818MPD2     N12097   1.655   2.113   9.969 -0.0272  0.3566 -0.2892
  818MPD2    H512098   1.708   2.087   9.887 -2.8347  1.0306 -2.3003
  818MPD2    N112099   1.544   2.500  10.237  0.7239  0.1385 -0.6125
  818MPD2    H712100   1.546   2.436  10.316 -0.6981  1.4821  0.5047
  819MPD2     C12101   0.268   4.426  16.106  0.7276  0.3884  0.1558
  819MPD2    C112102   0.321   4.319  16.032  0.5134  0.7367 -0.2854
  819MPD2    C212103   0.449   4.264  16.066 -0.1649 -0.1240 -0.1984
  819MPD2    C312104   0.523   4.325  16.165  0.8919 -0.0322  0.7700
  819MPD2    C412105   0.464   4.422  16.247 -0.2966 -0.6431  0.2705
  819MPD2    C512106   0.345   4.479  16.207  0.7310 -0.2405 -0.1425
  819MPD2     H12107   0.493   4.185  16.007  2.1276 -0.3866  1.8399
  819MPD2    H112108   0.518   4.477  16.322 -0.3555 -0.0087 -0.1492
  819MPD2    H212109   0.165   4.459  16.097  0.7783  0.5362  0.1199
  819MPD2    H312110   0.299   4.552  16.273  1.3547 -1.7080  1.9074
  819MPD2     N12111   0.653   4.276  16.186 -0.1903 -0.7855 -0.6010
  819MPD2    H512112   0.673   4.184  16.149 -1.3647 -0.7738 -1.2665
  819MPD2    N112113   0.236   4.263  15.937  0.6259 -0.3100  0.3779
  819MPD2    H712114   0.143   4.302  15.923  1.4176  0.8922 -1.5382
  820MPD2     C12115   4.291   4.403  15.240  0.2363 -0.1188 -0.5484
  820MPD2    C112116   4.384   4.473  15.316  0.0018 -0.0917  0.3341
  820MPD2    C212117   4.460   4.402  15.409 -0.9034  0.4165 -0.4638
  820MPD2    C312118   4.455   4.261  15.421 -0.7024  0.2747 -0.2448
  820MPD2    C412119   4.361   4.195  15.345  0.0682  0.4544  0.4772
  820MPD2    C512120   4.280   4.267  15.259  0.4810  0.0887  0.5167
  820MPD2     H12121   4.536   4.459  15.462 -1.9735  1.3066  0.1209
  820MPD2    H112122   4.349   4.087  15.347 -0.1304  0.4932  1.5001
  820MPD2    H212123   4.234   4.455  15.164 -2.4574 -0.0447  1.5051
  820MPD2    H312124   4.209   4.205  15.208  1.7698 -1.4262  0.5509
  820MPD2     N12125   4.524   4.188  15.519  0.6692  0.4414 -0.7414
  820MPD2    H512126   4.491   4.093  15.535  1.0630  0.2417 -1.1433
  820MPD2    N112127   4.398   4.615  15.301  0.2585  0.9180  0.1830
  820MPD2    H712128   4.335   4.657  15.234  2.0646  2.1528 -0.7610
  821MPD2     C12129   0.398   1.460  13.274  0.5358  0.4707  0.1915
  821MPD2    C112130   0.478   1.348  13.287  0.2005  0.3968  0.3420
  821MPD2    C212131   0.601   1.341  13.212  0.2440  0.2041  0.3789
  821MPD2    C312132   0.625   1.427  13.109 -0.3905 -0.3741 -0.2444
  821MPD2    C412133   0.535   1.525  13.080 -0.0016  0.1648 -0.5895
  821MPD2    C512134   0.432   1.541  13.168  0.3314  0.8150  0.7591
  821MPD2     H12135   0.675   1.267  13.240 -1.0244 -1.1111  0.1901
  821MPD2    H112136   0.551   1.599  13.002  3.2722  1.2296  1.1041
  821MPD2    H212137   0.302   1.473  13.324 -0.0456 -0.4716 -0.6672
  821MPD2    H312138   0.378   1.635  13.165  0.8858  1.1062 -0.0796
  821MPD2     N12139   0.748   1.424  13.031 -0.6733 -0.0604 -0.1955
  821MPD2    H512140   0.750   1.483  12.948 -1.4066 -1.8670 -1.5139
  821MPD2    N112141   0.452   1.237  13.366 -0.8847  0.4674 -0.8187
  821MPD2    H712142   0.516   1.163  13.340 -0.5992 -0.0968  1.4633
  822MPD2     C12143   0.941   0.753  16.006  0.0262  0.6827 -0.0760
  822MPD2    C112144   0.997   0.834  16.100  0.0196  0.1751 -0.3336
  822MPD2    C212145   0.931   0.939  16.150  0.2837 -0.0660 -0.3423
  822MPD2    C312146   0.800   0.954  16.118 -0.5035  0.5918  0.3297
  822MPD2    C412147   0.736   0.871  16.028  0.3251  0.3566 -0.6172
  822MPD2    C512148   0.809   0.774  15.974 -0.4321 -1.2995 -0.1485
  822MPD2     H12149   0.990   1.009  16.208 -2.0756  0.1796  1.7489
  822MPD2    H112150   0.631   0.874  16.002 -0.0127 -1.6000  0.5992
  822MPD2    H212151   0.988   0.660  15.977 -0.2220  1.0857 -1.7748
  822MPD2    H312152   0.752   0.704  15.914 -0.8889 -0.8339 -0.2588
  822MPD2     N12153   0.731   1.064  16.172  0.1186 -0.3432  0.0178
  822MPD2    H512154   0.634   1.072  16.145 -0.0029  1.9352  1.1113
  822MPD2    N112155   1.129   0.816  16.152  0.7176  0.6693  0.0379
  822MPD2    H712156   1.156   0.879  16.227 -0.4826  1.2467 -0.0141
  823MPD2     C12157   0.388   1.284  16.925  0.9181 -0.0644 -0.2005
  823MPD2    C112158   0.473   1.226  16.837 -0.7570  0.3612  0.4401
  823MPD2    C212159   0.577   1.149  16.878  0.9849  0.1978  0.3500
  823MPD2    C312160   0.596   1.137  17.013  0.0715 -0.2072 -0.4180
  823MPD2    C412161   0.513   1.196  17.106 -0.7945  0.2914  0.5348
  823MPD2    C512162   0.408   1.278  17.059 -0.0692  0.7517  0.1018
  823MPD2     H12163   0.641   1.096  16.809  0.2324  0.4228 -0.5215
  823MPD2    H112164   0.526   1.186  17.214  1.6944  1.9954  0.3873
  823MPD2    H212165   0.299   1.337  16.892  2.5036  1.0741 -2.6061
  823MPD2    H312166   0.343   1.337  17.123  0.3986 -0.9956  2.2162
  823MPD2     N12167   0.706   1.054  17.064 -0.0396  0.1614 -0.4858
  823MPD2    H512168   0.698   1.031  17.163 -1.5968  0.0745 -0.6271
  823MPD2    N112169   0.455   1.256  16.705  0.2309 -0.1281 -1.2576
  823MPD2    H712170   0.385   1.326  16.685  0.0639 -0.0951 -0.5599
  824MPD2     C12171   1.870   0.337  16.194 -0.0583  0.6041  0.6375
  824MPD2    C112172   1.749   0.347  16.127  0.0306 -0.0302  0.3581
  824MPD2    C212173   1.736   0.256  16.017  0.4715 -0.1373  0.1238
  824MPD2    C312174   1.817   0.140  16.005 -1.3691 -0.1623 -0.3077
  824MPD2    C412175   1.929   0.127  16.089  0.4774  0.4100 -0.2317
  824MPD2    C512176   1.949   0.220  16.191  0.7713 -0.5319 -0.6823
  824MPD2     H12177   1.650   0.276  15.955  0.4639 -1.2153 -0.1973
  824MPD2    H112178   1.995   0.042  16.080  0.5637  0.6530 -1.9140
  824MPD2    H212179   1.895   0.410  16.270  1.7428 -1.2206  1.8011
  824MPD2    H312180   2.031   0.213  16.262 -0.2259 -0.0578  0.5194
  824MPD2     N12181   1.798   0.042  15.906  0.0039  0.1593 -0.6248
  824MPD2    H512182   1.732   0.068  15.834  1.5224 -0.6439 -2.3057
  824MPD2    N112183   1.641   0.437  16.163 -0.3363 -0.0765 -0.2383
  824MPD2    H712184   1.562   0.427  16.100  0.3704 -0.3041 -1.0866
  825MPD2     C12185   2.261   4.581  15.225  0.4424 -0.0558  0.3888
  825MPD2    C112186   2.192   4.658  15.315 -0.1590 -1.0221 -0.6161
  825MPD2    C212187   2.240   0.049  15.341 -0.0543 -0.7736 -0.0463
  825MPD2    C312188   2.346   0.099  15.269  0.6166  0.5856 -0.0590
  825MPD2    C412189   2.411   0.016  15.184  0.3494 -0.3995 -0.7671
  825MPD2    C512190   2.368   4.626  15.153  0.2402  0.6343  0.7220
  825MPD2     H12191   2.195   0.119  15.410  0.7458 -1.9770  1.7185
  825MPD2    H112192   2.495   0.061  15.133  0.4388  1.8429  1.3809
  825MPD2    H212193   2.217   4.483  15.212  0.0923  0.3305 -1.3895
  825MPD2    H312194   2.405   4.568  15.070 -0.1317 -1.8560  2.3001
  825MPD2     N12195   2.401   0.233  15.292  0.0571  0.0233 -0.0479
  825MPD2    H512196   2.486   0.260  15.244  1.1075 -0.0836  1.7536
  825MPD2    N112197   2.093   4.595  15.394  0.7317  0.0871  0.2077
  825MPD2    H712198   2.084   4.494  15.380 -0.8925  0.0615  1.4497
  826MPD2     C12199   1.695   4.432  13.872  0.3676  0.1032 -0.2487
  826MPD2    C112200   1.779   4.539  13.860  0.8083  0.4930 -0.6283
  826MPD2    C212201   1.724   4.663  13.841  0.9781  0.8689  0.3662
  826MPD2    C312202   1.590   4.687  13.860 -0.4232 -0.0642 -0.1545
  826MPD2    C412203   1.508   4.583  13.883  0.0092  0.6357  0.1724
  826MPD2    C512204   1.565   4.459  13.883 -0.1898  0.2703  0.9269
  826MPD2     H12205   1.785   0.011  13.815 -1.4579  1.7331 -2.4977
  826MPD2    H112206   1.400   4.584  13.891 -0.1397 -1.2560 -1.4696
  826MPD2    H212207   1.730   4.331  13.893  0.5954  0.1132 -0.5607
  826MPD2    H312208   1.494   4.383  13.913 -0.3516 -0.2357 -0.7217
  826MPD2     N12209   1.520   0.072  13.858 -0.6383  0.3108  0.2268
  826MPD2    H512210   1.429   0.083  13.902 -0.8595 -0.3083 -0.0797
  826MPD2    N112211   1.921   4.512  13.859 -0.5451  0.9509  0.2986
  826MPD2    H712212   1.943   4.413  13.865 -1.7854  0.5316 -2.0488
  827MPD2     C12213   3.056   1.905  10.235  0.0842 -0.5850 -0.1062
  827MPD2    C112214   3.005   1.817  10.330  0.5111 -0.7351  0.0678
  827MPD2    C212215   2.916   1.714  10.280  0.0357  0.1088  0.1364
  827MPD2    C312216   2.888   1.698  10.141  0.1149  0.8928 -0.5564
  827MPD2    C412217   2.941   1.793  10.053 -0.1282  0.0614 -0.0125
  827MPD2    C512218   3.026   1.887  10.097 -0.6258 -0.2857 -0.6206
  827MPD2     H12219   2.871   1.643  10.349  0.1064 -1.7234 -1.6773
  827MPD2    H112220   2.928   1.790   9.946 -0.7297 -1.2617  0.0939
  827MPD2    H212221   3.114   1.995  10.253 -0.9745  0.1280 -0.2853
  827MPD2    H312222   3.074   1.956  10.029 -2.2865  1.3751 -0.1147
  827MPD2     N12223   2.810   1.592  10.098 -0.2995 -0.2252  0.4278
  827MPD2    H512224   2.761   1.527  10.158  1.5966 -1.6310  0.4528
  827MPD2    N112225   3.059   1.837  10.462  0.1510  0.4085 -0.4623
  827MPD2    H712226   3.138   1.900  10.474  0.4328 -0.1102  0.3613
  828MPD2     C12227   1.318   1.015  12.553  0.3033  0.3662 -0.1828
  828MPD2    C112228   1.332   1.137  12.490 -0.5402 -0.4657  0.2894
  828MPD2    C212229   1.449   1.159  12.412  0.1394  0.0593 -0.5053
  828MPD2    C312230   1.550   1.074  12.415  0.4880  0.5104 -0.0621
  828MPD2    C412231   1.534   0.954  12.479  0.0112 -0.1999 -0.0258
  828MPD2    C512232   1.423   0.929  12.557 -0.0239  0.3378 -0.9199
  828MPD2     H12233   1.451   1.251  12.355  0.4744 -0.0961 -0.7403
  828MPD2    H112234   1.610   0.877  12.478  1.1232  0.8599  2.8847
  828MPD2    H212235   1.231   0.975  12.604  1.1631 -1.2382  0.0415
  828MPD2    H312236   1.410   0.839  12.616 -2.2705  0.7123 -0.8375
  828MPD2     N12237   1.673   1.099  12.350  0.0421 -0.2653  0.3155
  828MPD2    H512238   1.754   1.042  12.370 -0.3663 -0.6853  0.7781
  828MPD2    N112239   1.227   1.237  12.489 -0.1670  0.5859 -0.3227
  828MPD2    H712240   1.250   1.320  12.434  3.3283  0.6436  1.2735
  829MPD2     C12241   1.289   1.906  11.979  0.6636  0.0053  0.3541
  829MPD2    C112242   1.157   1.916  12.007 -0.3082  0.0859  0.2878
  829MPD2    C212243   1.107   1.823  12.099  0.5995 -0.1270  0.1346
  829MPD2    C312244   1.186   1.725  12.164  0.1653 -0.1189 -0.2808
  829MPD2    C412245   1.318   1.726  12.142 -0.3681 -0.2308  0.5298
  829MPD2    C512246   1.366   1.813  12.051  0.2472 -0.1079 -0.3909
  829MPD2     H12247   0.999   1.823  12.106  0.6366 -2.0186  0.8022
  829MPD2    H112248   1.390   1.659  12.188  0.4587 -1.4555 -2.5666
  829MPD2    H212249   1.333   1.969  11.902 -3.5079  4.7698  1.8232
  829MPD2    H312250   1.472   1.805  12.030  0.2746 -0.4701 -0.1197
  829MPD2     N12251   1.129   1.636  12.262  0.2336 -0.3976 -0.0120
  829MPD2    H512252   1.197   1.579  12.313 -0.1882 -0.8725  0.0204
  829MPD2    N112253   1.073   2.008  11.932 -0.3201  0.3522 -0.0998
  829MPD2    H712254   1.124   2.071  11.871 -1.6815 -2.1484 -3.7938
  830MPD2     C12255   0.890   3.892  15.772  0.1567  0.0965  0.6491
  830MPD2    C112256   0.993   3.929  15.845  0.1897 -0.2759  0.6664
  830MPD2    C212257   1.119   3.947  15.783  0.4150 -0.0550 -0.6048
  830MPD2    C312258   1.127   3.931  15.647  0.7818  0.1511  0.7998
  830MPD2    C412259   1.024   3.886  15.570  0.2227 -0.1274 -0.1509
  830MPD2    C512260   0.908   3.864  15.639 -0.1217  0.1478  0.1230
  830MPD2     H12261   1.198   4.003  15.831  0.4174 -1.4600  1.0624
  830MPD2    H112262   1.030   3.866  15.464  0.6319  1.1516 -0.3616
  830MPD2    H212263   0.790   3.884  15.813 -0.6326 -1.6269 -1.6251
  830MPD2    H312264   0.825   3.818  15.587  0.1803 -2.6242  2.0758
  830MPD2     N12265   1.250   3.964  15.590  0.1830 -0.0062 -0.7257
  830MPD2    H512266   1.327   3.995  15.648  1.4936  1.4245 -3.2150
  830MPD2    N112267   0.966   3.980  15.976  0.2695 -0.0602  0.4453
  830MPD2    H712268   0.874   3.968  16.018 -0.5934  2.8838 -0.6575
  831MPD2     C12269   1.080   1.325  16.551 -0.5392  0.3599 -0.6163
  831MPD2    C112270   1.109   1.219  16.478  0.1728 -0.2090  0.5724
  831MPD2    C212271   1.019   1.109  16.482  0.0076  0.0430  0.2876
  831MPD2    C312272   0.906   1.104  16.560 -0.1055 -0.4408  0.0353
  831MPD2    C412273   0.886   1.220  16.632 -0.0855 -0.1660 -0.4143
  831MPD2    C512274   0.972   1.325  16.636 -0.2742  0.3577 -0.4828
  831MPD2     H12275   1.038   1.027  16.413 -0.5672  1.4349 -1.5126
  831MPD2    H112276   0.793   1.229  16.688 -0.0755  0.7534 -0.5555
  831MPD2    H212277   1.149   1.408  16.561 -0.0758 -0.1396  0.3537
  831MPD2    H312278   0.947   1.415  16.691  2.5647  1.0599 -0.3260
  831MPD2     N12279   0.814   0.995  16.569 -0.0046  0.4902 -0.6843
  831MPD2    H512280   0.732   1.019  16.626 -0.8572 -0.7429 -1.3975
  831MPD2    N112281   1.232   1.225  16.405 -0.3773  0.5060 -0.2645
  831MPD2    H712282   1.279   1.314  16.407 -0.4288  0.5579 -1.3088
  832MPD2     C12283   4.274   2.264  17.198  0.3796 -0.9695  0.2108
  832MPD2    C112284   4.208   2.376  17.233 -0.1740 -0.3961 -0.0642
  832MPD2    C212285   4.092   2.400  17.163 -0.5494 -0.4583 -0.3304
  832MPD2    C312286   4.040   2.310  17.069  0.2130 -0.1482  0.8829
  832MPD2    C412287   4.110   2.197  17.042 -0.0797  0.1523  0.2534
  832MPD2    C512288   4.225   2.173  17.107  0.4423  0.1954  0.2693
  832MPD2     H12289   4.031   2.484  17.196  0.3352 -0.2358  0.7294
  832MPD2    H112290   4.063   2.129  16.972 -0.5132 -1.0948  1.7793
  832MPD2    H212291   4.370   2.244  17.244 -1.1972  1.4375  4.5547
  832MPD2    H312292   4.279   2.081  17.089 -0.8404 -0.6470  0.6885
  832MPD2     N12293   3.913   2.334  17.009  0.4353  0.7110  0.5650
  832MPD2    H512294   3.876   2.270  16.939  1.0165 -0.1945  1.1002
  832MPD2    N112295   4.269   2.473  17.316 -0.0443  0.4597  0.1170
  832MPD2    H712296   4.364   2.451  17.345  0.5109  2.2930 -0.3263
  833MPD2     C12297   2.227   3.997  12.536  0.4502  0.0745  0.1156
  833MPD2    C112298   2.116   4.015  12.457 -0.6314  0.9576  1.1396
  833MPD2    C212299   2.126   3.992  12.320  0.3063  0.0175 -0.1848
  833MPD2    C312300   2.241   3.954  12.261 -0.6054  0.3442 -0.0269
  833MPD2    C412301   2.350   3.937  12.339  0.3096 -0.8787  0.8082
  833MPD2    C512302   2.347   3.963  12.472 -0.0766 -1.2646  0.2250
  833MPD2     H12303   2.036   4.009  12.261  0.6989  1.3582 -0.3999
  833MPD2    H112304   2.444   3.901  12.298 -0.2188 -0.5294 -0.7152
  833MPD2    H212305   2.224   4.016  12.643  0.4173  1.5168 -0.1294
  833MPD2    H312306   2.440   3.948  12.525  1.6623 -1.5828 -2.9867
  833MPD2     N12307   2.232   3.904  12.124 -0.8983 -0.8810  0.1452
  833MPD2    H512308   2.142   3.911  12.076 -0.8040 -0.4772  0.0278
  833MPD2    N112309   1.993   4.054  12.505  0.4051  0.3128 -0.0807
  833MPD2    H712310   1.917   4.071  12.440  0.6754  0.2428 -0.4182
  834MPD2     C12311   1.907   2.957  11.948 -0.2534  0.2359  0.4098
  834MPD2    C112312   1.858   3.036  11.848 -0.0093  0.3464  0.4338
  834MPD2    C212313   1.902   3.168  11.841 -0.4688  0.6385 -0.7550
  834MPD2    C312314   1.996   3.216  11.924 -0.6456 -0.3022  0.3132
  834MPD2    C412315   2.052   3.132  12.015  0.3849  0.7465  0.2590
  834MPD2    C512316   1.999   3.004  12.030 -0.1390  0.2794 -0.2373
  834MPD2     H12317   1.856   3.231  11.766 -1.7338  1.9400  1.1241
  834MPD2    H112318   2.137   3.167  12.072  0.6014 -0.0723  0.4463
  834MPD2    H212319   1.884   2.854  11.969  0.4331 -0.1770 -0.9047
  834MPD2    H312320   2.042   2.937  12.103 -1.4209 -1.7166 -1.3030
  834MPD2     N12321   2.031   3.349  11.912  0.8457 -0.0038  0.1138
  834MPD2    H512322   1.983   3.407  11.843 -1.1751 -1.1055  0.6012
  834MPD2    N112323   1.759   2.968  11.770 -0.2928  0.3337 -0.3344
  834MPD2    H712324   1.747   2.869  11.788  1.5195  0.3941  1.1514
  835MPD2     C12325   2.199   1.653  11.480  0.0855 -0.2337  0.2351
  835MPD2    C112326   2.213   1.756  11.577 -0.2141  0.2703  0.3676
  835MPD2    C212327   2.287   1.719  11.686 -0.1493 -0.3189  0.0067
  835MPD2    C312328   2.336   1.591  11.705 -0.3742  0.7860 -0.5295
  835MPD2    C412329   2.313   1.491  11.617 -0.3009 -0.0469  0.0892
  835MPD2    C512330   2.242   1.528  11.504 -0.0318 -0.9731  0.0953
  835MPD2     H12331   2.283   1.792  11.766  1.9500 -0.3629  0.1393
  835MPD2    H112332   2.341   1.388  11.634 -0.8671 -0.0560  0.9614
  835MPD2    H212333   2.155   1.677  11.384 -0.0424  0.6030  0.5004
  835MPD2    H312334   2.234   1.453  11.425 -2.8513 -1.5240  0.9099
  835MPD2     N12335   2.382   1.547  11.831  0.2557 -0.1570  0.7018
  835MPD2    H512336   2.404   1.448  11.835 -2.3432 -0.7895 -0.9772
  835MPD2    N112337   2.165   1.886  11.565 -0.2560  0.5993  0.2664
  835MPD2    H712338   2.203   1.948  11.636  2.0072  1.9399 -2.1020
  836MPD2     C12339   2.044   1.349  12.580 -0.0557  0.0215  0.3875
  836MPD2    C112340   2.118   1.457  12.548 -0.3980 -0.2051  0.7834
  836MPD2    C212341   2.095   1.583  12.605 -0.1607 -0.6815  0.0520
  836MPD2    C312342   1.997   1.595  12.701 -0.4081  0.6517 -0.4435
  836MPD2    C412343   1.919   1.487  12.727 -0.2466 -0.6418 -0.1771
  836MPD2    C512344   1.949   1.362  12.672 -0.2547  0.1193 -0.6896
  836MPD2     H12345   2.152   1.673  12.583 -1.8064  0.1072 -1.0018
  836MPD2    H112346   1.840   1.490  12.801 -1.3529  0.6960 -1.4107
  836MPD2    H212347   2.074   1.253  12.541 -2.3196 -1.1668  1.5446
  836MPD2    H312348   1.890   1.277  12.704 -0.1335 -0.6719 -2.5605
  836MPD2     N12349   1.965   1.715  12.770 -0.4259 -0.0006  0.1603
  836MPD2    H512350   1.880   1.715  12.825 -0.3491 -0.4111  0.2732
  836MPD2    N112351   2.215   1.441  12.442  0.0499  0.3439  0.4094
  836MPD2    H712352   2.213   1.350  12.398 -0.3962 -0.0620  1.2655
  837MPD2     C12353   0.151   0.939  10.226  0.3801  0.4238  0.6346
  837MPD2    C112354   0.075   0.943  10.114 -0.7251 -0.0642 -0.3644
  837MPD2    C212355   0.015   1.060  10.072  0.6658 -0.4703  0.2958
  837MPD2    C312356   0.020   1.170  10.158 -0.0799 -0.6517  0.5288
  837MPD2    C412357   0.078   1.162  10.280  0.4103  0.3608  0.8989
  837MPD2    C512358   0.147   1.046  10.310  0.2038  1.2567  0.4350
  837MPD2     H12359   4.689   1.060   9.984  2.7092  2.5137 -1.1977
  837MPD2    H112360   0.092   1.250  10.343  1.5050  0.9577 -0.1767
  837MPD2    H212361   0.200   0.845  10.250 -0.3327  0.8577  3.8397
  837MPD2    H312362   0.203   1.045  10.403  1.4016  1.6116 -0.2913
  837MPD2     N12363   4.665   1.274  10.128  0.6670 -0.5386  0.0696
  837MPD2    H512364   4.608   1.266  10.044  0.5894  1.0990 -0.0376
  837MPD2    N112365   0.047   0.826  10.042  0.2569 -0.5454 -0.4494
  837MPD2    H712366   4.721   0.832   9.964 -0.6535 -1.1557  0.2515
  838MPD2     C12367   3.114   3.727  11.177 -1.1095  0.0520 -0.3362
  838MPD2    C112368   3.155   3.724  11.314 -0.2327 -0.1682  0.3834
  838MPD2    C212369   3.059   3.671  11.407 -0.0418  0.4779 -0.4897
  838MPD2    C312370   2.924   3.646  11.367 -0.8868 -0.2091  0.0632
  838MPD2    C412371   2.894   3.671  11.235 -0.1546  0.0541 -0.3768
  838MPD2    C512372   2.988   3.705  11.143  0.1471  0.3500 -0.2070
  838MPD2     H12373   3.100   3.650  11.505  0.0052  0.7335 -0.4546
  838MPD2    H112374   2.792   3.669  11.199  0.1324  0.8961 -1.2274
  838MPD2    H212375   3.176   3.770  11.100 -1.9404  0.7246 -0.6258
  838MPD2    H312376   2.963   3.717  11.038 -0.6238 -0.7273 -0.1431
  838MPD2     N12377   2.822   3.594  11.454 -0.2422  0.0479 -0.1131
  838MPD2    H512378   2.733   3.579  11.409 -1.0254  0.7815  1.1946
  838MPD2    N112379   3.283   3.772  11.358 -0.4777  0.0301  0.7429
  838MPD2    H712380   3.299   3.772  11.458  0.1225 -0.4669  0.6443
  839MPD2     C12381   3.524   3.563  12.096  0.5576 -0.2205  0.2561
  839MPD2    C112382   3.524   3.514  11.971 -0.0368 -0.0387 -0.6337
  839MPD2    C212383   3.565   3.595  11.868 -0.1621 -0.0953 -0.3380
  839MPD2    C312384   3.609   3.721  11.887 -0.1254 -0.3420 -0.0207
  839MPD2    C412385   3.592   3.782  12.013 -0.7294  0.3665 -0.0486
  839MPD2    C512386   3.554   3.695  12.114 -0.4530  0.4339  0.8555
  839MPD2     H12387   3.574   3.547  11.771  2.5443  0.4524 -0.3419
  839MPD2    H112388   3.607   3.887  12.034  0.5773 -0.1805  1.7788
  839MPD2    H212389   3.486   3.515  12.186 -1.8705 -0.1319 -0.7338
  839MPD2    H312390   3.546   3.745  12.210  0.6277  0.0245  1.1577
  839MPD2     N12391   3.651   3.804  11.773  0.0629 -0.1543 -0.1362
  839MPD2    H512392   3.633   3.901  11.795 -1.2288 -0.3370 -0.3367
  839MPD2    N112393   3.457   3.402  11.929  0.5886  0.7196 -0.1212
  839MPD2    H712394   3.440   3.383  11.830 -2.8745  1.5387  0.3013
  840MPD2     C12395   3.283   2.359  10.670  0.0940  0.3192 -0.0869
  840MPD2    C112396   3.282   2.291  10.794  0.5223 -0.5577  0.0602
  840MPD2    C212397   3.388   2.321  10.878 -0.2898 -0.2490 -0.0508
  840MPD2    C312398   3.484   2.423  10.847  0.3598  0.5493 -0.8668
  840MPD2    C412399   3.466   2.495  10.731 -0.4240 -0.5573 -0.6320
  840MPD2    C512400   3.374   2.454  10.639 -0.0860  0.5391 -1.4338
  840MPD2     H12401   3.409   2.266  10.969 -0.4990  0.1729  0.2524
  840MPD2    H112402   3.538   2.570  10.700 -0.5645 -0.0392  0.2943
  840MPD2    H212403   3.217   2.322  10.592  1.6482  1.3016 -1.8574
  840MPD2    H312404   3.381   2.497  10.540  0.1728  1.0804 -1.1827
  840MPD2     N12405   3.594   2.455  10.932  1.2587 -0.7476  0.6778
  840MPD2    H512406   3.642   2.541  10.907  3.1879 -1.9778  0.1999
  840MPD2    N112407   3.203   2.178  10.808  0.4211  0.3603 -0.4703
  840MPD2    H712408   3.153   2.161  10.721 -0.8853  0.5100  0.2366
  841MPD2     C12409   2.679   1.866  14.850  0.4031  0.3151 -0.2455
  841MPD2    C112410   2.673   1.776  14.743 -0.7310  0.2366  0.3573
  841MPD2    C212411   2.756   1.799  14.637 -0.3888  0.0931 -0.1192
  841MPD2    C312412   2.823   1.917  14.609 -0.3042 -0.0035 -0.5727
  841MPD2    C412413   2.819   2.012  14.711  0.2327  0.0323 -0.3746
  841MPD2    C512414   2.761   1.981  14.835 -0.0640  0.2802  0.2034
  841MPD2     H12415   2.748   1.722  14.561 -1.1834  0.1531 -0.0899
  841MPD2    H112416   2.886   2.096  14.720 -0.4203  0.5093  0.0677
  841MPD2    H212417   2.633   1.853  14.947 -0.7015  1.0418 -0.6814
  841MPD2    H312418   2.771   2.039  14.926 -1.7444  2.0368 -0.7203
  841MPD2     N12419   2.910   1.929  14.498  0.3008 -0.1942 -0.4651
  841MPD2    H512420   2.912   1.844  14.442  2.0266 -0.9874  0.8161
  841MPD2    N112421   2.602   1.654  14.744 -0.3821  0.2872  0.5426
  841MPD2    H712422   2.597   1.602  14.657  1.9651 -0.2177  0.7045
  842MPD2     C12423   3.159   2.280  16.895  0.2584  0.8747 -0.0240
  842MPD2    C112424   3.198   2.410  16.907 -0.0288  0.0795 -0.0226
  842MPD2    C212425   3.255   2.449  17.032  0.1652 -0.0227  0.0697
  842MPD2    C312426   3.259   2.364  17.143 -0.8253  0.9252  0.6017
  842MPD2    C412427   3.210   2.237  17.125  0.1065 -0.8344 -0.2925
  842MPD2    C512428   3.169   2.191  16.999 -1.0172 -0.4214 -0.3983
  842MPD2     H12429   3.287   2.552  17.041 -0.2733  0.4229 -3.3559
  842MPD2    H112430   3.201   2.171  17.210  0.7470 -0.5350  0.0058
  842MPD2    H212431   3.114   2.253  16.800 -0.3199 -0.4951  0.6401
  842MPD2    H312432   3.131   2.091  16.981  2.3063 -2.0363  1.5929
  842MPD2     N12433   3.297   2.404  17.274  0.1955  0.1850 -0.1749
  842MPD2    H512434   3.283   2.333  17.345 -1.3845 -0.1565 -0.8277
  842MPD2    N112435   3.176   2.490  16.793  0.1292  0.0966 -0.3685
  842MPD2    H712436   3.125   2.461  16.710 -0.1326  1.7476 -0.7895
  843MPD2     C12437   0.760   3.741  17.617  0.0226  0.0679 -0.8684
  843MPD2    C112438   0.692   3.709  17.733  0.0871  0.3152  0.4051
  843MPD2    C212439   0.737   3.749   0.110  0.1797  0.8248  0.1156
  843MPD2    C312440   0.857   3.812   0.120 -0.3517  0.0724  0.0627
  843MPD2    C412441   0.931   3.830   0.008 -0.6583 -0.0410 -0.7561
  843MPD2    C512442   0.884   3.789  17.633  0.1165  0.0170  0.0090
  843MPD2     H12443   0.668   3.741   0.193 -0.8091  1.4577 -0.6370
  843MPD2    H112444   1.029   3.875   0.019 -0.4914 -0.4372 -0.6265
  843MPD2    H212445   0.724   3.723  17.516 -2.0800  1.4362 -0.3647
  843MPD2    H312446   0.939   3.809  17.542  0.7159  2.2981  0.8861
  843MPD2     N12447   0.900   3.865   0.240  0.1107 -0.4074 -0.4690
  843MPD2    H512448   0.984   3.922   0.236 -0.2644  0.1243 -0.8800
  843MPD2    N112449   0.575   3.628  17.725  0.1929  0.0254  0.0731
  843MPD2    H712450   0.527   3.626  17.635  1.0907 -0.6170 -0.3820
  844MPD2     C12451   3.852   2.196  16.497 -0.0631 -0.0241 -0.1753
  844MPD2    C112452   3.974   2.137  16.484 -0.0453 -0.2754  0.2851
  844MPD2    C212453   4.076   2.179  16.566 -0.3460  0.4252  1.2381
  844MPD2    C312454   4.066   2.289  16.649 -0.2448 -0.1042 -0.3364
  844MPD2    C412455   3.944   2.350  16.659  0.6137  0.1474  0.1132
  844MPD2    C512456   3.843   2.304  16.581  0.3017  0.3850 -0.1705
  844MPD2     H12457   4.172   2.128  16.566  0.0416  1.1691 -0.6118
  844MPD2    H112458   3.922   2.437  16.720  1.4674  1.0631 -0.8818
  844MPD2    H212459   3.767   2.147  16.449  0.3579 -1.4587  0.5376
  844MPD2    H312460   3.752   2.362  16.584 -0.6606 -1.1266 -0.0461
  844MPD2     N12461   4.181   2.338  16.722 -0.4338 -0.4213 -0.8264
  844MPD2    H512462   4.271   2.291  16.716 -0.1846  0.0183 -0.5572
  844MPD2    N112463   4.004   2.034  16.390  0.3419  0.5193 -0.4941
  844MPD2    H712464   4.098   1.998  16.385  1.6677  3.8298  0.6000
  845MPD2     C12465   4.420   3.192  17.266  0.1741  0.4927 -0.3968
  845MPD2    C112466   4.308   3.110  17.283  0.3111  0.1727  0.2561
  845MPD2    C212467   4.289   2.993  17.213 -0.2627 -0.1638  0.2194
  845MPD2    C312468   4.397   2.941  17.142  0.2750  0.5704  0.0130
  845MPD2    C412469   4.512   3.018  17.139  0.4366  0.1167 -0.0057
  845MPD2    C512470   4.521   3.140  17.195  0.0214  0.1437  0.2764
  845MPD2     H12471   4.202   2.931  17.232  0.0348 -0.6573 -0.0467
  845MPD2    H112472   4.600   2.975  17.092 -0.1350 -1.9776  0.8447
  845MPD2    H212473   4.436   3.295  17.293  2.4818  0.0803 -0.1986
  845MPD2    H312474   4.610   3.202  17.187 -0.7712  1.3677  0.9956
  845MPD2     N12475   4.388   2.816  17.083 -0.7390  0.0428 -0.5836
  845MPD2    H512476   4.298   2.771  17.081 -1.3403  1.1330  1.4628
  845MPD2    N112477   4.208   3.181  17.352 -0.3209 -0.3336  0.8089
  845MPD2    H712478   4.205   3.279  17.378  0.7419 -0.2754  0.6977
  846MPD2     C12479   1.229   3.133  13.883 -0.1601  0.3806 -0.1811
  846MPD2    C112480   1.152   3.244  13.874  0.4368 -0.0475  0.5655
  846MPD2    C212481   1.123   3.309  13.992 -0.1122  0.3048  0.1714
  846MPD2    C312482   1.154   3.255  14.112 -0.2747 -0.8055 -0.0649
  846MPD2    C412483   1.239   3.145  14.111 -0.2252 -0.6443 -0.0854
  846MPD2    C512484   1.281   3.092  13.994 -0.4239 -0.1871  1.2309
  846MPD2     H12485   1.061   3.398  13.994  1.5393  1.4758 -1.7125
  846MPD2    H112486   1.283   3.095  14.196  2.6354 -1.0148 -1.7434
  846MPD2    H212487   1.249   3.081  13.790  0.5969  0.2075  0.0721
  846MPD2    H312488   1.350   3.009  14.000  1.1080  0.9522 -0.9761
  846MPD2     N12489   1.111   3.308  14.237  0.3643 -0.0709  0.2090
  846MPD2    H512490   1.039   3.379  14.237 -0.2273 -0.6833 -0.7802
  846MPD2    N112491   1.107   3.288  13.743  0.2157  0.0010  1.1412
  846MPD2    H712492   1.082   3.386  13.733 -1.6038 -0.3929  2.0151
  847MPD2     C12493   1.214   4.041  14.326 -0.3393  0.4021  0.0654
  847MPD2    C112494   1.279   4.143  14.390 -0.1540  0.1276  0.0367
  847MPD2    C212495   1.396   4.113  14.453 -0.5653 -0.6972 -0.1718
  847MPD2    C312496   1.444   3.989  14.456 -0.1761  0.7971  0.0778
  847MPD2    C412497   1.376   3.881  14.398  0.3705  0.5551 -0.0386
  847MPD2    C512498   1.259   3.911  14.332  0.4741  0.5303  0.1073
  847MPD2     H12499   1.459   4.187  14.501 -0.6027 -1.1602  0.5930
  847MPD2    H112500   1.411   3.779  14.389  2.9303  1.4176  0.2768
  847MPD2    H212501   1.133   4.067  14.260  1.1132  1.1241 -1.4440
  847MPD2    H312502   1.205   3.835  14.278  2.8116 -0.9281 -0.1758
  847MPD2     N12503   1.570   3.974  14.515  0.0661 -0.1705 -0.0644
  847MPD2    H512504   1.612   4.062  14.544 -0.6923  1.3329 -3.5451
  847MPD2    N112505   1.239   4.279  14.384 -0.0478 -0.4836  0.3595
  847MPD2    H712506   1.306   4.350  14.410 -1.2533  0.4314  0.9285
  848MPD2     C12507   3.543   2.715  16.405 -0.0177 -0.0948 -0.4196
  848MPD2    C112508   3.625   2.754  16.514  0.3992 -0.0034 -0.2402
  848MPD2    C212509   3.695   2.873  16.506  0.2015  0.5516  0.3324
  848MPD2    C312510   3.674   2.959  16.396  1.0615  0.6671 -0.3221
  848MPD2    C412511   3.597   2.917  16.288  0.0827  0.7160  0.1381
  848MPD2    C512512   3.535   2.797  16.298  0.7997  0.2907 -0.1151
  848MPD2     H12513   3.753   2.900  16.594  0.4457  1.3765 -0.0766
  848MPD2    H112514   3.581   2.969  16.195  0.6292  0.9992  0.2016
  848MPD2    H212515   3.475   2.631  16.396 -0.2093 -0.1029  1.0441
  848MPD2    H312516   3.468   2.762  16.220 -0.7207  0.0226  1.3075
  848MPD2     N12517   3.735   3.085  16.384  0.3193  0.1470 -0.0030
  848MPD2    H512518   3.707   3.149  16.310 -0.0512 -0.2082 -0.1752
  848MPD2    N112519   3.644   2.672  16.631  0.7691 -0.2886 -0.7757
  848MPD2    H712520   3.710   2.706  16.700 -0.1657  1.0320 -0.5284
  849MPD2     C12521   3.424   1.973  14.124 -0.8508 -0.4263 -0.2990
  849MPD2    C112522   3.385   2.068  14.025 -0.2990 -0.1200 -0.6114
  849MPD2    C212523   3.455   2.189  14.017 -0.4917  0.1615 -0.5635
  849MPD2    C312524   3.562   2.217  14.106  0.7527  0.3879  0.8966
  849MPD2    C412525   3.588   2.124  14.202  0.6317  0.0120 -0.5216
  849MPD2    C512526   3.531   2.002  14.207  0.1631  0.0781  0.4043
  849MPD2     H12527   3.420   2.258  13.941 -1.0366  0.0316 -0.4300
  849MPD2    H112528   3.657   2.139  14.285 -2.0619 -0.6568  1.8342
  849MPD2    H212529   3.373   1.880  14.147 -0.0113 -0.3658  1.7821
  849MPD2    H312530   3.571   1.941  14.287 -1.7771 -0.7425  0.7313
  849MPD2     N12531   3.641   2.338  14.087  0.1736  0.6695  0.2583
  849MPD2    H512532   3.617   2.393  14.005 -2.1769  0.4033  0.7669
  849MPD2    N112533   3.279   2.050  13.934  0.4261  0.5350  0.6279
  849MPD2    H712534   3.264   2.130  13.873 -0.9144  0.2545  0.6031
  850MPD2     C12535   1.228   0.301  15.117 -0.3886 -0.5839  0.0394
  850MPD2    C112536   1.256   0.250  15.242  0.7797 -0.0712  0.4089
  850MPD2    C212537   1.380   0.220  15.276 -0.1787 -0.1802 -0.1458
  850MPD2    C312538   1.483   0.247  15.194 -0.1588  1.1437  0.3250
  850MPD2    C412539   1.454   0.284  15.060  0.3035  0.1669 -0.1458
  850MPD2    C512540   1.324   0.307  15.021 -1.0188 -0.0961  1.2344
  850MPD2     H12541   1.387   0.197  15.382  0.1162 -0.4108 -0.2140
  850MPD2    H112542   1.535   0.295  14.989  0.9334  2.7132  0.9452
  850MPD2    H212543   1.125   0.330  15.099  0.5494  0.3657 -3.7547
  850MPD2    H312544   1.300   0.356  14.928  1.0511 -2.9404 -0.8074
  850MPD2     N12545   1.618   0.244  15.239  0.0785 -0.7557  0.9785
  850MPD2    H512546   1.690   0.280  15.177 -0.6722  1.5546  1.4368
  850MPD2    N112547   1.161   0.246  15.350 -0.3471  0.0285  0.3330
  850MPD2    H712548   1.185   0.196  15.435  0.5823  2.7425  1.6263
  851MPD2     C12549   1.404   4.656  15.929  0.8609  0.3213 -0.6213
  851MPD2    C112550   1.361   4.675  15.799 -0.4107  0.2066  0.7174
  851MPD2    C212551   1.390   4.576  15.698  0.1383 -0.4944 -0.9740
  851MPD2    C312552   1.464   4.466  15.727  0.1276 -0.1547 -0.2384
  851MPD2    C412553   1.525   4.458  15.856 -0.0541  0.4336  0.5331
  851MPD2    C512554   1.491   4.548  15.952  0.2849  0.0422  0.0214
  851MPD2     H12555   1.336   4.577  15.604 -1.7526  0.5231  0.1178
  851MPD2    H112556   1.591   4.379  15.888  1.5087  1.1897 -0.8486
  851MPD2    H212557   1.373   4.715  16.014 -2.2079 -0.5237 -1.1496
  851MPD2    H312558   1.522   4.522  16.052  2.1036  1.6644 -0.1111
  851MPD2     N12559   1.485   4.370  15.629  0.2049  0.2086  0.1245
  851MPD2    H512560   1.433   4.383  15.543  2.8689 -4.7946 -2.2292
  851MPD2    N112561   1.272   0.051  15.775  0.0285 -0.2507  0.2256
  851MPD2    H712562   1.252   0.105  15.859 -0.1531  1.5560 -0.9848
  852MPD2     C12563   0.825   3.232   9.796  0.2597 -0.2979 -0.0434
  852MPD2    C112564   0.916   3.290   9.888 -0.0878  0.0353 -0.0935
  852MPD2    C212565   0.898   3.421   9.938  0.3370 -0.1689  1.1573
  852MPD2    C312566   0.780   3.488   9.906  0.0339  0.0250  0.2159
  852MPD2    C412567   0.684   3.425   9.828 -0.8549  0.5585 -0.5488
  852MPD2    C512568   0.716   3.306   9.767 -0.8007  0.0169 -0.3961
  852MPD2     H12569   0.974   3.472   9.996 -1.1883  1.8802  1.3594
  852MPD2    H112570   0.595   3.479   9.796 -0.0310  1.5990 -1.0760
  852MPD2    H212571   0.834   3.131   9.757 -0.1219  0.0798 -1.1058
  852MPD2    H312572   0.639   3.270   9.700 -0.6618  2.2528 -1.7318
  852MPD2     N12573   0.770   3.621   9.956 -0.0144 -0.1150  0.6481
  852MPD2    H512574   0.838   3.650  10.026  1.0029  1.7675 -1.1191
  852MPD2    N112575   1.041   3.234   9.924 -0.3415 -0.4266  0.5534
  852MPD2    H712576   1.108   3.290   9.975 -1.6542  0.4849  1.2901
  853MPD2     C12577   3.035   2.323  12.604 -0.0080  0.3166  0.0765
  853MPD2    C112578   2.955   2.431  12.592  0.5447 -1.2870 -0.4829
  853MPD2    C212579   2.939   2.481  12.461  0.1270  0.0957 -0.5504
  853MPD2    C312580   2.990   2.419  12.349 -0.1895  0.4909  0.4868
  853MPD2    C412581   3.067   2.308  12.371 -0.0808  0.0043  0.1727
  853MPD2    C512582   3.086   2.255  12.500 -0.1167 -0.0442  0.6640
  853MPD2     H12583   2.877   2.568  12.446  0.1807  0.0341 -1.1150
  853MPD2    H112584   3.106   2.247  12.290 -0.9543  0.6130 -0.7100
  853MPD2    H212585   3.051   2.279  12.701  0.9868 -0.2011 -0.3203
  853MPD2    H312586   3.146   2.165  12.504 -0.4975 -0.2129  2.4235
  853MPD2     N12587   2.974   2.472  12.219  0.0580 -0.0816  0.0799
  853MPD2    H512588   3.031   2.428  12.148  1.0478 -1.6181  1.8329
  853MPD2    N112589   2.910   2.485  12.711 -0.1653  0.1873 -0.7957
  853MPD2    H712590   2.917   2.429  12.796  1.6315  1.6983  0.0586
  854MPD2     C12591   4.609   2.848  12.525 -0.3786 -0.2803  0.6655
  854MPD2    C112592   4.720   2.907  12.463 -0.6759 -0.0065 -0.0220
  854MPD2    C212593   0.108   2.863  12.480  0.4304 -0.6427 -0.5031
  854MPD2    C312594   0.125   2.754  12.572  0.0978 -0.3218  0.6318
  854MPD2    C412595   0.014   2.691  12.628 -1.1060 -0.0995 -0.4198
  854MPD2    C512596   4.626   2.739  12.607 -0.3224  0.4787  1.0083
  854MPD2     H12597   0.191   2.907  12.427  0.1669 -2.9384 -2.7966
  854MPD2    H112598   0.025   2.599  12.683 -2.4922 -0.1166 -0.1682
  854MPD2    H212599   4.509   2.881  12.502  0.3812  0.2448 -1.8706
  854MPD2    H312600   4.540   2.682  12.642 -1.0951 -0.4615 -2.4937
  854MPD2     N12601   0.245   2.681  12.611  0.6499  0.3685  0.0528
  854MPD2    H512602   0.233   2.627  12.695 -1.0223  0.7288  0.0342
  854MPD2    N112603   4.692   3.030  12.394  0.0963 -0.9419 -0.2027
  854MPD2    H712604   4.597   3.061  12.405  0.1846 -0.6222 -0.3654
  855MPD2     C12605   0.675   2.879  13.461 -0.1862 -0.4204  0.2552
  855MPD2    C112606   0.617   2.767  13.412  0.0036  0.4623 -0.5433
  855MPD2    C212607   0.582   2.751  13.280 -0.3353 -0.6376 -0.4302
  855MPD2    C312608   0.633   2.847  13.189  0.3530 -0.0385  0.1674
  855MPD2    C412609   0.726   2.944  13.232  0.0733  0.3165  0.2162
  855MPD2    C512610   0.741   2.958  13.369  0.2487  0.3420  1.0443
  855MPD2     H12611   0.544   2.659  13.238  1.6038 -1.4916 -0.3093
  855MPD2    H112612   0.781   3.009  13.164 -1.2927  1.3707  0.1134
  855MPD2    H212613   0.699   2.900  13.564  2.2194 -1.4184 -0.0902
  855MPD2    H312614   0.801   3.041  13.404  0.2007  1.3057 -1.1698
  855MPD2     N12615   0.629   2.821  13.047 -0.4468  0.3647  0.1881
  855MPD2    H512616   0.676   2.882  12.981 -0.8074  0.0767 -0.3296
  855MPD2    N112617   0.585   2.667  13.502  0.1710  0.4280 -0.7803
  855MPD2    H712618   0.558   2.578  13.460  0.4877 -0.2541  0.4723
  856MPD2     C12619   2.249   3.297  14.350 -0.5579 -0.3268  0.3348
  856MPD2    C112620   2.332   3.406  14.325 -0.0617  0.1119 -0.3499
  856MPD2    C212621   2.337   3.444  14.186 -0.0155  0.7921  0.1414
  856MPD2    C312622   2.272   3.376  14.085 -0.7111 -0.0624 -0.3381
  856MPD2    C412623   2.202   3.264  14.116  0.1247  0.0658  0.0860
  856MPD2    C512624   2.193   3.226  14.247  0.4986  0.1346 -0.1831
  856MPD2     H12625   2.406   3.523  14.158  0.1190  0.6449  0.0612
  856MPD2    H112626   2.164   3.195  14.041 -0.5647  2.6541 -1.9561
  856MPD2    H212627   2.224   3.271  14.452  0.8680 -0.1943  0.7279
  856MPD2    H312628   2.137   3.135  14.269 -1.3027  1.4522  0.6290
  856MPD2     N12629   2.280   3.407  13.945 -0.0055  0.0474 -0.1185
  856MPD2    H512630   2.212   3.360  13.886 -1.3885 -0.5562  1.9638
  856MPD2    N112631   2.398   3.484  14.419  0.7963  0.1761 -0.4820
  856MPD2    H712632   2.453   3.561  14.383  0.1643  1.3587  1.0836
  857MPD2     C12633   3.685   0.964  13.302  0.5248 -0.0318  0.8666
  857MPD2    C112634   3.815   0.924  13.334  0.0273 -0.4622  0.9102
  857MPD2    C212635   3.883   0.989  13.436  0.5003 -0.5029 -0.4742
  857MPD2    C312636   3.815   1.082  13.514 -0.4467  0.2139 -0.7401
  857MPD2    C412637   3.685   1.114  13.487 -0.0541 -0.1764 -0.2670
  857MPD2    C512638   3.622   1.054  13.379  0.0835  0.5637 -0.5383
  857MPD2     H12639   3.988   0.968  13.450  0.5413  0.0480  0.0235
  857MPD2    H112640   3.628   1.186  13.544  0.0574 -0.7168  0.5421
  857MPD2    H212641   3.632   0.921  13.218  0.9094  1.3201 -0.0545
  857MPD2    H312642   3.526   1.091  13.345 -1.3225 -1.5885  1.0302
  857MPD2     N12643   3.895   1.162  13.604  0.2289  0.1338  0.3202
  857MPD2    H512644   3.991   1.142  13.580  0.5880 -0.0681  1.9305
  857MPD2    N112645   3.878   0.827  13.246  0.2577 -0.3495  0.2516
  857MPD2    H712646   3.828   0.790  13.166 -0.3731 -1.5205  1.1879
  858MPD2     C12647   4.033   4.694  16.912  0.1197 -0.7378  0.1593
  858MPD2    C112648   4.153   0.008  16.859  0.8808 -0.3229  0.1714
  858MPD2    C212649   4.174   0.141  16.875  0.4026  0.2687  0.0777
  858MPD2    C312650   4.083   0.222  16.946  0.4052 -0.2697  0.4440
  858MPD2    C412651   3.965   0.162  16.993  0.5310  0.1942  0.5569
  858MPD2    C512652   3.939   0.031  16.971 -0.5893  0.2211  0.8329
  858MPD2     H12653   4.266   0.186  16.841  0.5566  0.5661  0.8907
  858MPD2    H112654   3.893   0.224  17.046  0.3246 -0.6708  1.3063
  858MPD2    H212655   4.007   4.589  16.901 -1.6265 -0.4262  1.4642
  858MPD2    H312656   3.852   4.715  17.008 -0.5619 -1.3237 -1.3431
  858MPD2     N12657   4.110   0.357  16.978  0.1286 -0.2871  0.6654
  858MPD2    H512658   4.068   0.400  17.059 -1.8747  0.3363 -0.7148
  858MPD2    N112659   4.256   4.650  16.827  0.6007 -0.4335  0.7742
  858MPD2    H712660   4.228   4.553  16.834  1.1002 -0.5467  1.1751
  859MPD2     C12661   3.151   2.249  14.917 -0.3351  0.2055  0.4558
  859MPD2    C112662   3.115   2.240  15.049 -0.7104  0.1144  0.1367
  859MPD2    C212663   3.068   2.118  15.101 -0.2531 -0.0367  0.0509
  859MPD2    C312664   3.071   2.003  15.024  0.3344 -0.3206 -0.3391
  859MPD2    C412665   3.121   2.007  14.897  0.5296  0.4455  0.1057
  859MPD2    C512666   3.152   2.130  14.843 -0.4073  0.4180 -0.4520
  859MPD2     H12667   3.024   2.107  15.199 -2.4042 -0.3066 -0.9458
  859MPD2    H112668   3.131   1.923  14.829  1.8268  0.4573  0.2872
  859MPD2    H212669   3.177   2.341  14.866 -0.7049  0.5620  0.9074
  859MPD2    H312670   3.185   2.136  14.739 -3.0171 -1.6911 -1.3873
  859MPD2     N12671   3.014   1.880  15.063  0.2862  0.1344 -0.1414
  859MPD2    H512672   3.009   1.809  14.991  0.3413  0.7132 -0.7119
  859MPD2    N112673   3.107   2.361  15.119 -0.0138  0.5261 -0.1247
  859MPD2    H712674   3.123   2.449  15.070  0.2935  0.4086 -0.2362
  860MPD2     C12675   1.525   3.333  11.838  0.1046  0.0727 -0.0239
  860MPD2    C112676   1.523   3.228  11.934 -0.3644 -0.3486 -0.2245
  860MPD2    C212677   1.429   3.127  11.921 -0.1870 -0.0188 -0.2677
  860MPD2    C312678   1.338   3.117  11.811  0.1431 -0.4196 -0.9219
  860MPD2    C412679   1.354   3.215  11.710 -0.1370 -0.0257 -0.1363
  860MPD2    C512680   1.432   3.326  11.732  0.5094  0.1526 -0.4117
  860MPD2     H12681   1.418   3.052  11.999  1.6594  0.1811  0.1750
  860MPD2    H112682   1.302   3.213  11.615 -1.3764 -0.0248  0.5423
  860MPD2    H212683   1.592   3.417  11.849  1.1218 -0.9399  1.4050
  860MPD2    H312684   1.440   3.411  11.665  0.2646  0.1599 -0.4310
  860MPD2     N12685   1.273   2.995  11.790 -0.2128 -0.3185 -0.0399
  860MPD2    H512686   1.286   2.923  11.861 -1.5338 -1.9860 -1.5179
  860MPD2    N112687   1.603   3.228  12.050  0.2977 -0.0292 -0.2625
  860MPD2    H712688   1.603   3.137  12.095  0.2435  0.2763  0.3480
  861MPD2     C12689   4.469   0.680  11.369 -0.1072  0.1255  0.2392
  861MPD2    C112690   4.544   0.782  11.327 -0.8097 -0.0614  0.3823
  861MPD2    C212691   4.511   0.841  11.205  0.3027 -0.0118 -0.3462
  861MPD2    C312692   4.412   0.797  11.124  0.1139  0.6370  0.0796
  861MPD2    C412693   4.351   0.682  11.160  0.0482 -0.7745  0.6400
  861MPD2    C512694   4.375   0.629  11.289 -0.0569 -0.6585 -0.1156
  861MPD2     H12695   4.574   0.921  11.170  0.2044  0.4034  0.4355
  861MPD2    H112696   4.290   0.638  11.082  0.9933 -1.7628  0.4565
  861MPD2    H212697   4.480   0.631  11.465 -0.1452 -0.3602 -0.0023
  861MPD2    H312698   4.327   0.538  11.321  0.1887 -0.6051  0.3993
  861MPD2     N12699   4.383   0.854  10.998 -0.5925  0.0671  0.3009
  861MPD2    H512700   4.295   0.820  10.960  0.1094 -1.0813 -0.2852
  861MPD2    N112701   4.652   0.830  11.408 -0.2732  0.1950  0.2826
  861MPD2    H712702   4.694   0.918  11.378  0.4188 -0.1007  0.3922
  862MPD2     C12703   4.012   0.578  10.488  1.1068  0.6767  0.6555
  862MPD2    C112704   4.069   0.605  10.610  0.2676  0.1899 -0.7647
  862MPD2    C212705   4.038   0.516  10.709  0.3739  0.4268  0.2115
  862MPD2    C312706   3.947   0.412  10.686 -0.0508 -0.1050 -0.5114
  862MPD2    C412707   3.897   0.382  10.563 -0.9775 -0.5475  0.0773
  862MPD2    C512708   3.928   0.469  10.462 -0.2229 -0.5500 -0.0659
  862MPD2     H12709   4.074   0.529  10.810 -0.1401 -1.7112  0.6688
  862MPD2    H112710   3.833   0.295  10.545 -1.7964  0.3931 -1.6406
  862MPD2    H212711   3.998   0.648  10.406  2.1481 -0.1101 -0.1859
  862MPD2    H312712   3.885   0.457  10.364  1.2335  1.5680 -0.9718
  862MPD2     N12713   3.891   0.342  10.795 -0.0007  0.2374  0.4810
  862MPD2    H512714   3.939   0.337  10.885 -0.3263 -0.5673  0.6067
  862MPD2    N112715   4.148   0.714  10.643 -0.2788  0.1237  0.0572
  862MPD2    H712716   4.175   0.725  10.741  1.8073  0.6571 -0.5647
  863MPD2     C12717   2.384   3.828  17.311 -0.7275  0.3311  0.3689
  863MPD2    C112718   2.448   3.951  17.316 -0.8937  0.3624 -0.5722
  863MPD2    C212719   2.572   3.954  17.377 -0.6337  0.5886  0.1692
  863MPD2    C312720   2.628   3.847  17.448  0.0724 -0.3629  1.5025
  863MPD2    C412721   2.558   3.730  17.448 -0.5269 -0.3957 -0.4578
  863MPD2    C512722   2.443   3.713  17.372 -0.3034  0.6843 -0.1664
  863MPD2     H12723   2.620   4.051  17.385  0.5880 -0.0543  0.6755
  863MPD2    H112724   2.591   3.648  17.511 -2.3133  0.2382  1.2985
  863MPD2    H212725   2.288   3.812  17.264 -0.1322  0.5733 -0.9386
  863MPD2    H312726   2.387   3.620  17.370  1.5336 -0.3882 -0.9946
  863MPD2     N12727   2.743   3.857  17.527  0.5614 -0.1169 -0.6553
  863MPD2    H512728   2.760   3.780  17.590  2.1601  0.7629  0.0061
  863MPD2    N112729   2.385   4.066  17.262  0.5186 -0.0079 -0.0080
  863MPD2    H712730   2.300   4.049  17.208  0.2437 -1.2167  0.7827
  864MPD2     C12731   2.922   0.783  17.307  0.0606 -0.8645 -0.2304
  864MPD2    C112732   3.011   0.698  17.245  0.2072  1.0183 -0.1316
  864MPD2    C212733   3.098   0.742  17.148 -0.2296  0.0258  0.3785
  864MPD2    C312734   3.100   0.875  17.104 -0.0231 -0.3427 -0.5286
  864MPD2    C412735   3.001   0.952  17.157  0.0411  0.0324  0.5019
  864MPD2    C512736   2.911   0.903  17.251  0.8860 -0.3222  0.3189
  864MPD2     H12737   3.175   0.671  17.118  0.5191  1.1189 -0.2558
  864MPD2    H112738   3.000   1.050  17.110 -0.5013  0.5641  1.6367
  864MPD2    H212739   2.859   0.767  17.394 -0.9153 -0.1529 -0.8065
  864MPD2    H312740   2.834   0.967  17.294  2.8872  1.2088  1.5977
  864MPD2     N12741   3.188   0.926  17.005 -0.4088 -0.8405  0.3579
  864MPD2    H512742   3.167   1.019  16.971 -1.8210 -1.5340 -0.6991
  864MPD2    N112743   3.028   0.560  17.282  0.0279 -0.9802 -0.2979
  864MPD2    H712744   3.086   0.510  17.215 -1.5278 -3.4993  0.2738
  865MPD2     C12745   3.573   0.999  16.208 -0.1544 -0.4497 -0.1939
  865MPD2    C112746   3.519   0.936  16.318 -0.4085  0.0879 -0.1108
  865MPD2    C212747   3.457   1.011  16.414 -0.5392 -0.3069 -0.4912
  865MPD2    C312748   3.433   1.152  16.402 -0.0343  0.0183 -0.2345
  865MPD2    C412749   3.489   1.205  16.283  0.7655  0.4649  0.0043
  865MPD2    C512750   3.553   1.137  16.182  0.3046  0.8166 -0.2189
  865MPD2     H12751   3.415   0.959  16.500 -0.4568 -0.6972 -0.6876
  865MPD2    H112752   3.493   1.312  16.268  2.5059  0.8499  2.9381
  865MPD2    H212753   3.628   0.937  16.138  0.2313  0.4775 -0.7213
  865MPD2    H312754   3.582   1.198  16.097  0.1336  2.8826  1.2325
  865MPD2     N12755   3.371   1.238  16.495  0.5067 -0.1487  0.2663
  865MPD2    H512756   3.348   1.329  16.457  2.7351  0.4550  0.4009
  865MPD2    N112757   3.543   0.799  16.344 -0.0381 -0.0869  0.9546
  865MPD2    H712758   3.620   0.758  16.292  0.8774  0.5041  1.8411
  866MPD2     C12759   0.357   1.489  11.523 -0.2897 -0.0126  0.1246
  866MPD2    C112760   0.351   1.360  11.468 -0.2553 -0.0571  0.6741
  866MPD2    C212761   0.233   1.317  11.405 -0.4121 -0.5922 -0.0863
  866MPD2    C312762   0.139   1.404  11.367  0.1824  0.2261  1.1196
  866MPD2    C412763   0.155   1.536  11.399  0.5305 -0.0832  0.4343
  866MPD2    C512764   0.254   1.576  11.482  0.0593 -0.0846 -0.4063
  866MPD2     H12765   0.228   1.214  11.372  3.7832 -0.2182 -1.8329
  866MPD2    H112766   0.081   1.613  11.384  0.5923 -0.4354 -1.7279
  866MPD2    H212767   0.438   1.531  11.581 -0.9404  0.8364  0.4167
  866MPD2    H312768   0.266   1.679  11.515  1.3897  0.0386 -1.2827
  866MPD2     N12769   0.024   1.361  11.292  0.3275 -0.1986  0.0682
  866MPD2    H512770   4.706   1.439  11.261  0.1226  0.4083  1.9950
  866MPD2    N112771   0.469   1.278  11.481 -0.2661 -0.5618 -0.1705
  866MPD2    H712772   0.540   1.313  11.544 -1.6670  0.9867  0.5322
  867MPD2     C12773   2.047   0.777  16.990 -0.3440  0.6979 -0.1333
  867MPD2    C112774   2.071   0.726  17.114  0.5985 -0.3845  0.0007
  867MPD2    C212775   2.099   0.818  17.219  0.7669  0.1877  1.2906
  867MPD2    C312776   2.099   0.953  17.191 -1.1652 -0.4902 -0.4451
  867MPD2    C412777   2.078   1.004  17.071 -0.3647  0.1157  0.2326
  867MPD2    C512778   2.048   0.916  16.971  0.0911 -0.7902 -0.6197
  867MPD2     H12779   2.120   0.775  17.316  1.6745  0.0302  1.0289
  867MPD2    H112780   2.072   1.111  17.055  0.6614  0.1307 -0.0311
  867MPD2    H212781   2.031   0.706  16.911 -1.6099  0.7401  0.0943
  867MPD2    H312782   2.033   0.954  16.871  1.8322 -0.3133 -0.7104
  867MPD2     N12783   2.143   1.045  17.294  0.0706  0.0346 -0.5820
  867MPD2    H512784   2.158   1.142  17.269  2.4436 -0.7207 -2.0054
  867MPD2    N112785   2.085   0.584  17.114 -0.0146  0.4893 -0.6676
  867MPD2    H712786   2.088   0.542  17.021 -0.8161 -0.6409 -0.1832
  868MPD2     C12787   4.019   4.539  13.736  0.4562 -0.0211 -0.3830
  868MPD2    C112788   4.040   4.405  13.726  0.3432 -0.5603  0.2811
  868MPD2    C212789   4.015   4.324  13.839  0.2669 -0.3709 -0.1159
  868MPD2    C312790   3.979   4.390  13.957  0.5465  0.0605  0.8699
  868MPD2    C412791   3.960   4.525  13.960 -0.3543 -0.2706 -0.2765
  868MPD2    C512792   3.970   4.595  13.843 -0.3420  0.1928  0.0804
  868MPD2     H12793   4.028   4.217  13.843 -1.2269 -0.5593 -0.3766
  868MPD2    H112794   3.917   4.581  14.042 -0.6549  2.1839 -2.1294
  868MPD2    H212795   4.041   4.596  13.646  1.6824  1.2684  0.7426
  868MPD2    H312796   3.944   4.701  13.848  2.5159  0.7131  3.3316
  868MPD2     N12797   3.957   4.311  14.076 -0.0394 -0.1571 -0.2451
  868MPD2    H512798   3.928   4.365  14.157 -3.4551  2.1147 -2.9833
  868MPD2    N112799   4.091   4.359  13.603 -0.1962  0.4187 -0.6516
  868MPD2    H712800   4.088   4.425  13.527 -0.0274  1.8442  0.5810
  869MPD2     C12801   4.692   1.935   0.263 -0.9647  0.3415 -0.2323
  869MPD2    C112802   4.603   1.958   0.368 -0.1344  0.4925 -0.4168
  869MPD2    C212803   4.592   2.091   0.420  0.1764 -0.5852 -0.0908
  869MPD2    C312804   4.644   2.196   0.351 -0.2055  0.1143 -0.2797
  869MPD2    C412805   4.724   2.170   0.240 -0.6514  0.7175  0.5779
  869MPD2    C512806   0.024   2.040   0.206  0.3897 -0.1132 -0.0806
  869MPD2     H12807   4.524   2.112   0.501 -0.4445 -0.3563 -0.6736
  869MPD2    H112808   0.043   2.252   0.197 -0.4790  0.0013 -0.5505
  869MPD2    H212809   4.718   1.833   0.235 -0.0293  0.2632  0.9212
  869MPD2    H312810   0.109   2.028   0.140  0.5825 -2.2491  0.5402
  869MPD2     N12811   4.618   2.333   0.385 -0.2959  0.1610 -0.8630
  869MPD2    H512812   4.684   2.396   0.341 -0.7197 -0.9941 -3.1483
  869MPD2    N112813   4.529   1.848   0.419 -0.4206 -0.7570 -0.1413
  869MPD2    H712814   4.549   1.756   0.379  0.6742  0.0796 -1.5429
  870MPD2     C12815   4.136   1.940   1.596 -0.0160  0.0579  0.8276
  870MPD2    C112816   4.212   1.882   1.495  0.2981  0.0495  0.2494
  870MPD2    C212817   4.146   1.814   1.394 -0.0699 -0.3253  0.1615
  870MPD2    C312818   4.007   1.821   1.378  0.0756  0.5559 -0.0759
  870MPD2    C412819   3.937   1.888   1.476  0.4931 -0.1424  1.0244
  870MPD2    C512820   4.002   1.946   1.588  0.9374  0.8239  0.1470
  870MPD2     H12821   4.192   1.753   1.317 -2.0629  0.2282 -1.4703
  870MPD2    H112822   3.829   1.898   1.474  0.5759  1.2005  2.5593
  870MPD2    H212823   4.188   1.965   1.687  0.9754  0.2592  0.2064
  870MPD2    H312824   3.961   1.988   1.679  0.9446  2.1465 -0.4482
  870MPD2     N12825   3.947   1.756   1.273 -0.4272  0.8655  0.3455
  870MPD2    H512826   4.011   1.707   1.210 -0.4594  1.6491 -0.2894
  870MPD2    N112827   4.358   1.878   1.503 -0.0264 -0.1126 -0.0157
  870MPD2    H712828   4.404   1.910   1.588  0.5604 -1.6400  0.2436
  871MPD2     C12829   1.114   0.581  16.562 -0.1330  0.4074 -0.1827
  871MPD2    C112830   1.075   0.535  16.686 -0.3993 -0.9216  0.0361
  871MPD2    C212831   1.066   0.396  16.711  0.7496  0.2669 -0.3963
  871MPD2    C312832   1.089   0.297  16.620 -0.6298  1.0618  0.0531
  871MPD2    C412833   1.113   0.347  16.493  0.3411 -0.6820  0.1786
  871MPD2    C512834   1.126   0.479  16.465 -0.6054  0.5841  0.3748
  871MPD2     H12835   1.041   0.360  16.810 -1.5585 -0.1094 -1.1148
  871MPD2    H112836   1.137   0.282  16.409  1.4038 -1.2048  0.8903
  871MPD2    H212837   1.112   0.685  16.533  0.3617  0.0548 -1.4547
  871MPD2    H312838   1.148   0.502  16.362  0.0128 -1.5175  0.0320
  871MPD2     N12839   1.081   0.167  16.652  0.2364 -0.5114 -0.1747
  871MPD2    H512840   1.077   0.139  16.749  3.3642  0.3418  0.1885
  871MPD2    N112841   1.055   0.632  16.791 -0.0927 -0.5204  0.4250
  871MPD2    H712842   1.046   0.730  16.769 -1.1550 -0.4825  1.0565
  872MPD2     C12843   2.248   2.554  14.675 -0.6710 -0.5570 -0.0860
  872MPD2    C112844   2.185   2.622  14.569  0.7774 -0.0252  0.5055
  872MPD2    C212845   2.059   2.675  14.594  0.3074 -0.4191  0.1395
  872MPD2    C312846   1.999   2.670  14.718  0.1604 -0.3655  0.1656
  872MPD2    C412847   2.063   2.603  14.823 -0.3252  0.7363 -0.2283
  872MPD2    C512848   2.178   2.531  14.792  0.0475 -0.1783 -0.8678
  872MPD2     H12849   2.024   2.726  14.505 -0.1406 -0.9794 -0.0101
  872MPD2    H112850   2.014   2.609  14.920 -0.7560  0.5202 -0.4310
  872MPD2    H212851   2.346   2.509  14.665 -0.1532  0.8079 -1.1571
  872MPD2    H312852   2.237   2.473  14.862 -2.9083 -0.5969  1.2971
  872MPD2     N12853   1.876   2.736  14.739 -0.2253  0.1320  0.3574
  872MPD2    H512854   1.828   2.719  14.827 -0.2018 -0.6554  0.2126
  872MPD2    N112855   2.246   2.647  14.444  0.8076 -0.0977 -0.1278
  872MPD2    H712856   2.195   2.712  14.384  0.6191 -0.0284  0.1048
  873MPD2     C12857   3.656   2.966   1.132 -0.8413 -0.2488 -0.1219
  873MPD2    C112858   3.545   2.973   1.210  0.3575  0.0402 -0.6958
  873MPD2    C212859   3.451   2.867   1.203  0.1948 -0.3399 -0.0726
  873MPD2    C312860   3.459   2.771   1.109  0.1231 -0.4018 -0.6640
  873MPD2    C412861   3.573   2.771   1.028  0.6011 -0.3714  0.3360
  873MPD2    C512862   3.669   2.862   1.043  0.2528  0.4711  0.2601
  873MPD2     H12863   3.364   2.861   1.267 -0.6846  2.6450 -1.0034
  873MPD2    H112864   3.599   2.684   0.969  1.3002  0.7099 -0.9394
  873MPD2    H212865   3.728   3.047   1.135  0.3989 -1.3257 -0.5840
  873MPD2    H312866   3.757   2.836   0.984 -0.4476  0.8975 -0.9759
  873MPD2     N12867   3.383   2.658   1.092 -0.5111  0.1403  0.3840
  873MPD2    H512868   3.395   2.615   1.001 -0.9973 -0.0951  0.4317
  873MPD2    N112869   3.532   3.094   1.285  0.4848  0.3167  0.4493
  873MPD2    H712870   3.610   3.158   1.297 -1.6469  3.0810 -0.5825
  874MPD2     C12871   3.213   3.184  16.198  0.2707  0.2033  0.0489
  874MPD2    C112872   3.263   3.156  16.316 -0.2445  0.3918 -0.5785
  874MPD2    C212873   3.374   3.221  16.362 -0.7292 -0.3684  0.0106
  874MPD2    C312874   3.434   3.319  16.283  0.3632 -0.1293  0.2435
  874MPD2    C412875   3.393   3.345  16.160 -0.3771 -0.6766 -0.2444
  874MPD2    C512876   3.281   3.275  16.117  0.5043  0.1842 -0.0490
  874MPD2     H12877   3.427   3.187  16.451  1.8673  2.9548 -0.2571
  874MPD2    H112878   3.429   3.423  16.094 -0.2798  0.0126  0.6201
  874MPD2    H212879   3.137   3.129  16.143  0.0896  0.3186  0.1837
  874MPD2    H312880   3.242   3.279  16.016  0.9674 -1.2969 -0.2874
  874MPD2     N12881   3.555   3.375  16.330  0.2988 -0.2046  0.0443
  874MPD2    H512882   3.580   3.343  16.423  2.9129 -1.1243 -0.9624
  874MPD2    N112883   3.203   3.050  16.386 -0.5415 -0.0154  0.2779
  874MPD2    H712884   3.113   3.017  16.353  0.4229 -1.8376 -0.5113
  875MPD2     C12885   4.649   1.416  14.624  0.3120  0.1921  0.5409
  875MPD2    C112886   4.520   1.475  14.635  0.5478 -0.3459  0.1025
  875MPD2    C212887   4.493   1.555  14.748  0.5036  0.1389 -0.3506
  875MPD2    C312888   4.589   1.566  14.848 -0.1881  0.1856 -0.3115
  875MPD2    C412889   4.710   1.502  14.841  0.2266  0.1685  0.4744
  875MPD2    C512890   0.005   1.443  14.721  0.3195  0.8528  0.3797
  875MPD2     H12891   4.394   1.595  14.766 -0.1098 -1.1287 -0.8935
  875MPD2    H112892   0.047   1.507  14.918  1.0855  1.5931 -0.4401
  875MPD2    H212893   4.683   1.367  14.534 -0.9158 -0.7006  0.5713
  875MPD2    H312894   0.098   1.392  14.701 -1.2730 -2.7716  2.1949
  875MPD2     N12895   4.540   1.627  14.974 -0.1301  0.5437 -0.0536
  875MPD2    H512896   4.443   1.658  14.977 -0.1955  0.1951  1.5836
  875MPD2    N112897   4.430   1.475  14.528 -0.5308 -0.4447  0.3762
  875MPD2    H712898   4.345   1.530  14.529 -0.9308 -1.1000  1.9056
  876MPD2     C12899   3.144   3.008  15.893 -0.1073  0.1637  0.0423
  876MPD2    C112900   3.269   2.955  15.873 -0.1588  0.2414 -0.7654
  876MPD2    C212901   3.309   2.841  15.933 -0.1669  0.6866 -0.3435
  876MPD2    C312902   3.222   2.771  16.024  0.0072  0.2899 -0.0471
  876MPD2    C412903   3.096   2.825  16.043 -0.8775 -0.0169  0.3055
  876MPD2    C512904   3.059   2.946  15.984 -0.0120 -0.4607  0.3498
  876MPD2     H12905   3.409   2.801  15.922 -1.5991 -2.3260 -2.4648
  876MPD2    H112906   3.023   2.782  16.111  0.6026 -1.2274  1.1309
  876MPD2    H212907   3.109   3.098  15.843  1.2981 -0.3137 -1.8132
  876MPD2    H312908   2.972   3.008  16.001  0.4976  0.7410 -1.5022
  876MPD2     N12909   3.267   2.653  16.087  0.2420 -0.9786 -0.0737
  876MPD2    H512910   3.364   2.624  16.076  0.7802  1.1222 -0.8715
  876MPD2    N112911   3.355   3.025  15.780 -0.3674 -0.1825 -0.2056
  876MPD2    H712912   3.311   3.097  15.725  1.4407  0.6739 -0.5380
  877MPD2     C12913   3.119   3.164  15.142  0.7504  0.3326 -0.0345
  877MPD2    C112914   3.234   3.238  15.136 -0.4326  0.3429 -0.0771
  877MPD2    C212915   3.256   3.304  15.019  0.0090  0.4999  0.3600
  877MPD2    C312916   3.179   3.303  14.902 -0.0581  0.1660 -0.0112
  877MPD2    C412917   3.068   3.232  14.916  0.1554 -0.0789  0.7440
  877MPD2    C512918   3.031   3.173  15.037  0.6093 -0.5178  0.4168
  877MPD2     H12919   3.348   3.360  15.021  1.2457 -1.5980  1.9280
  877MPD2    H112920   2.993   3.238  14.838 -1.2837  1.5828  2.2829
  877MPD2    H212921   3.090   3.105  15.228  0.9822  3.3795  2.1314
  877MPD2    H312922   2.940   3.117  15.023  1.5045 -1.2824 -2.3582
  877MPD2     N12923   3.205   3.371  14.781  0.2003  0.0252  0.1443
  877MPD2    H512924   3.154   3.340  14.699 -0.5903 -0.0406  0.6615
  877MPD2    N112925   3.324   3.258  15.244 -0.3413  0.0150  0.1303
  877MPD2    H712926   3.409   3.308  15.220 -1.5928  1.4549 -1.3497
  878MPD2     C12927   3.455   1.781  12.977  0.2193  0.1174  0.4135
  878MPD2    C112928   3.498   1.907  13.019  0.3357 -0.6672  0.1821
  878MPD2    C212929   3.455   1.943  13.148  0.6966  0.8263 -0.8319
  878MPD2    C312930   3.395   1.852  13.235  0.2898  0.4478  0.2241
  878MPD2    C412931   3.367   1.717  13.187 -0.3733  0.6007 -0.4974
  878MPD2    C512932   3.400   1.690  13.055 -0.9010  0.5992 -0.0551
  878MPD2     H12933   3.471   2.045  13.181  2.5059  0.6770 -1.2118
  878MPD2    H112934   3.309   1.653  13.253 -2.8123  0.4616 -2.7763
  878MPD2    H212935   3.475   1.756  12.873 -1.1131  0.9953 -0.0502
  878MPD2    H312936   3.374   1.593  13.015  0.7113 -0.9268  2.6655
  878MPD2     N12937   3.346   1.900  13.361 -0.7392  0.5175 -0.1414
  878MPD2    H512938   3.382   1.992  13.386  2.4697 -1.4797  2.5411
  878MPD2    N112939   3.545   1.997  12.919 -0.0747 -0.1005 -0.3406
  878MPD2    H712940   3.553   1.951  12.828  1.7391 -0.0624 -0.1994
  879MPD2     C12941   3.239   3.979  17.384 -0.0982 -0.5777 -0.4728
  879MPD2    C112942   3.255   3.862  17.453 -0.3220  0.3694 -0.3498
  879MPD2    C212943   3.161   3.762  17.435  0.1359 -0.3765 -0.6719
  879MPD2    C312944   3.056   3.775  17.342 -0.1528  0.2499  0.2988
  879MPD2    C412945   3.050   3.892  17.267  0.2180 -0.0841 -0.7887
  879MPD2    C512946   3.137   3.993  17.295 -0.5988  0.2964 -0.2507
  879MPD2     H12947   3.166   3.673  17.497  0.2420  0.4003  0.4418
  879MPD2    H112948   2.970   3.906  17.196 -1.8148 -0.3741  1.4230
  879MPD2    H212949   3.312   4.057  17.404 -1.0549 -0.0371  0.8848
  879MPD2    H312950   3.138   4.090  17.247 -1.1229  1.6804  2.5515
  879MPD2     N12951   2.956   3.685  17.308  0.1553 -0.1014  0.4581
  879MPD2    H512952   2.911   3.713  17.221 -3.8964 -1.6451  2.0819
  879MPD2    N112953   3.372   3.850  17.533 -0.7172  1.0988  0.5257
  879MPD2    H712954   3.435   3.928  17.515  0.3238 -0.1995 -1.4138
  880MPD2     C12955   0.104   0.662   0.258 -0.1241 -0.2993  0.3898
  880MPD2    C112956   0.035   0.652   0.378 -0.5096  0.4964 -0.3075
  880MPD2    C212957   0.084   0.567   0.477  0.4306  0.5174  0.8154
  880MPD2    C312958   0.196   0.487   0.452 -0.1203  0.1121  0.0148
  880MPD2    C412959   0.237   0.477   0.322  0.0979  1.0695 -0.1961
  880MPD2    C512960   0.185   0.557   0.220  0.4497 -0.1744 -0.5158
  880MPD2     H12961   0.031   0.562   0.571 -0.8855  3.1947  0.2307
  880MPD2    H112962   0.318   0.409   0.298 -0.6379  0.5692 -1.2357
  880MPD2    H212963   0.085   0.743   0.189  1.7479 -0.1670  0.0174
  880MPD2    H312964   0.216   0.559   0.116 -1.1799 -0.3224 -1.0056
  880MPD2     N12965   0.266   0.430   0.562  0.3709  0.0432  0.0678
  880MPD2    H512966   0.241   0.466   0.654  0.3084 -0.5013  0.2673
  880MPD2    N112967   4.669   0.742   0.394 -0.4476  0.2905  0.0574
  880MPD2    H712968   4.651   0.803   0.316  0.2062 -0.8874 -1.0066
  881MPD2     C12969   4.245   1.306  17.540 -0.4400  0.4825 -0.0567
  881MPD2    C112970   4.373   1.296  17.602 -0.9058 -0.1721  0.1137
  881MPD2    C212971   4.376   1.224  17.721 -0.1558 -0.6289 -0.5009
  881MPD2    C312972   4.261   1.179   0.033  0.7694 -0.0722  0.4437
  881MPD2    C412973   4.138   1.209  17.734  0.3269  0.4952  0.4031
  881MPD2    C512974   4.134   1.270  17.614  0.2809  0.1277 -0.2818
  881MPD2     H12975   4.472   1.211   0.019 -1.1884  0.3871  1.8343
  881MPD2    H112976   4.048   1.159   0.016  1.1494 -0.4261  1.2420
  881MPD2    H212977   4.235   1.361  17.447 -1.6001  2.0897  1.0264
  881MPD2    H312978   4.031   1.291  17.587  0.2861  0.5756  0.0458
  881MPD2     N12979   4.268   1.109   0.153  0.0227  0.0917 -0.1100
  881MPD2    H512980   4.176   1.083   0.188  0.3906 -0.2575  0.5924
  881MPD2    N112981   4.490   1.316  17.522  1.2872  0.2851  0.4116
  881MPD2    H712982   4.467   1.341  17.427  0.0793 -0.1689  0.5815
  882MPD2     C12983   3.390   3.064  14.249  0.1857  0.2307 -0.2327
  882MPD2    C112984   3.277   3.145  14.270  0.3506 -0.5071 -0.3525
  882MPD2    C212985   3.151   3.090  14.270  0.0596  0.5523  0.3193
  882MPD2    C312986   3.138   2.951  14.261 -0.5215 -0.2784 -0.3069
  882MPD2    C412987   3.249   2.871  14.247 -0.1353  0.5144 -0.1138
  882MPD2    C512988   3.372   2.931  14.245  0.5787  0.1159 -0.0045
  882MPD2     H12989   3.062   3.150  14.278 -0.7152 -0.5872  0.2391
  882MPD2    H112990   3.241   2.763  14.236  1.0073  0.3342  0.8032
  882MPD2    H212991   3.492   3.103  14.245 -0.5514  2.0980 -0.8044
  882MPD2    H312992   3.454   2.863  14.223 -2.7314 -4.0602  0.5040
  882MPD2     N12993   3.012   2.893  14.292 -0.0987 -0.4048 -0.3387
  882MPD2    H512994   3.013   2.792  14.293 -2.6139 -0.4093  1.2055
  882MPD2    N112995   3.308   3.281  14.290  0.4447  0.2349  0.0500
  882MPD2    H712996   3.408   3.298  14.282  0.4182 -0.0875 -0.9702
  883MPD2     C12997   0.536   2.676  17.023  0.5784  0.2164  0.2815
  883MPD2    C112998   0.559   2.797  16.962  0.2121 -0.4946 -0.3338
  883MPD2    C212999   0.614   2.904  17.033 -0.3162  0.2111 -0.5133
  883MPD2    C313000   0.636   2.886  17.171  0.5416 -0.4054 -0.1450
  883MPD2    C413001   0.606   2.771  17.231 -0.0375 -0.3953  0.3579
  883MPD2    C513002   0.565   2.665  17.155  0.3255  0.5236  0.2778
  883MPD2     H13003   0.642   2.998  16.988 -1.0924  0.2475 -0.9250
  883MPD2    H113004   0.619   2.762  17.338 -1.3762 -2.1626  0.3721
  883MPD2    H213005   0.492   2.591  16.972  2.7853 -0.5621 -0.3271
  883MPD2    H313006   0.553   2.568  17.202  2.2669  0.5962  0.9096
  883MPD2     N13007   0.697   2.994  17.245 -0.0041  0.2268  0.8839
  883MPD2    H513008   0.739   3.070  17.192  0.3464  0.4060  1.4140
  883MPD2    N113009   0.544   2.820  16.828 -0.2916 -0.0722  0.3014
  883MPD2    H713010   0.574   2.914  16.803  0.9152 -0.6258 -0.3523
  884MPD2     C13011   2.326   3.511  15.643 -0.3806 -0.5324  0.5549
  884MPD2    C113012   2.321   3.581  15.525 -0.0807  0.4413 -0.0984
  884MPD2    C213013   2.208   3.653  15.491  0.9501 -0.1808  0.0382
  884MPD2    C313014   2.093   3.659  15.583 -0.6162  0.5735  0.4680
  884MPD2    C413015   2.106   3.583  15.702 -0.4123  0.0126 -0.0922
  884MPD2    C513016   2.224   3.514  15.726  0.9396  0.0936  0.1413
  884MPD2     H13017   2.188   3.707  15.399 -1.3681 -1.8420 -0.4537
  884MPD2    H113018   2.030   3.577  15.779 -1.3554 -0.1969 -1.0296
  884MPD2    H213019   2.418   3.460  15.668  0.4165  0.5194 -0.2453
  884MPD2    H313020   2.249   3.454  15.813 -1.0554  0.8041  1.1993
  884MPD2     N13021   1.978   3.737  15.553  0.5738  0.3873  0.6730
  884MPD2    H513022   1.981   3.798  15.472 -0.1079  0.2367  0.5299
  884MPD2    N113023   2.441   3.588  15.455 -0.4828  0.0871 -0.8764
  884MPD2    H713024   2.519   3.537  15.495 -0.1974  3.6374  3.0680
  885MPD2     C13025   0.636   4.043   0.720 -0.7107  0.4486 -0.2697
  885MPD2    C113026   0.731   4.138   0.723 -0.0136 -0.3509 -0.3681
  885MPD2    C213027   0.766   4.201   0.608  0.0714  0.4328 -0.3169
  885MPD2    C313028   0.712   4.163   0.485  0.3223  0.3202 -0.3016
  885MPD2    C413029   0.615   4.066   0.486 -0.8445  0.4012  0.1976
  885MPD2    C513030   0.577   4.002   0.600  0.6469 -0.6461 -1.0531
  885MPD2     H13031   0.823   4.293   0.610 -0.0828  0.5170  0.2237
  885MPD2    H113032   0.564   4.035   0.395 -0.7515  3.4497 -0.8840
  885MPD2    H213033   0.613   3.986   0.809  1.7804 -0.9811 -0.5393
  885MPD2    H313034   0.511   3.916   0.598  2.2773 -1.8684 -2.4933
  885MPD2     N13035   0.749   4.230   0.364 -0.0997  0.5701  0.0819
  885MPD2    H513036   0.826   4.296   0.372 -0.8834  1.6311 -1.1650
  885MPD2    N113037   0.796   4.168   0.838 -0.6008  0.1882 -0.0842
  885MPD2    H713038   0.781   4.105   0.916 -1.6807  0.8108  0.2236
  886MPD2     C13039   1.796   2.449  15.481  0.4108  0.4685  0.1756
  886MPD2    C113040   1.930   2.441  15.485  0.0582  0.8036 -0.1954
  886MPD2    C213041   1.999   2.554  15.518  0.0861  0.6297  0.3659
  886MPD2    C313042   1.935   2.668  15.549 -0.7625 -0.5906 -0.7792
  886MPD2    C413043   1.802   2.677  15.554 -0.4211 -0.9877  0.2148
  886MPD2    C513044   1.733   2.557  15.524 -0.0721  0.6481  1.0581
  886MPD2     H13045   2.107   2.552  15.518  0.0237 -1.4764 -2.2294
  886MPD2    H113046   1.748   2.766  15.582  0.7393 -0.4094  0.5928
  886MPD2    H213047   1.741   2.356  15.474 -0.8344  1.2810 -0.7244
  886MPD2    H313048   1.626   2.563  15.509 -0.2136 -1.5570  1.1279
  886MPD2     N13049   2.021   2.783  15.558 -0.5067 -0.2411  0.4391
  886MPD2    H513050   2.119   2.766  15.538 -0.7853 -0.2742 -0.8574
  886MPD2    N113051   2.011   2.327  15.472  0.2476  0.2963  0.4225
  886MPD2    H713052   2.111   2.343  15.483  0.2933  0.1947  0.1551
  887MPD2     C13053   2.675   2.206  15.569  0.0888  0.9762  0.5217
  887MPD2    C113054   2.544   2.226  15.610 -0.1429 -0.3989 -0.2359
  887MPD2    C213055   2.530   2.310  15.714 -0.0712 -0.4053 -0.0582
  887MPD2    C313056   2.636   2.373  15.781 -0.4111  0.9215  0.2232
  887MPD2    C413057   2.761   2.358  15.725 -1.0866  0.2462 -0.5194
  887MPD2    C513058   2.782   2.269  15.625  0.5863 -0.0165 -0.1495
  887MPD2     H13059   2.433   2.353  15.737  1.6782  2.3224  2.1418
  887MPD2    H113060   2.839   2.423  15.765 -0.9948 -1.0833  1.4940
  887MPD2    H213061   2.694   2.143  15.483  0.8607  1.6984  0.1627
  887MPD2    H313062   2.877   2.259  15.574  0.5826 -1.3237  0.0974
  887MPD2     N13063   2.602   2.461  15.890  0.6023  0.1019  0.2578
  887MPD2    H513064   2.502   2.479  15.896  0.3972 -1.4785  1.6277
  887MPD2    N113065   2.431   2.167  15.557  0.3359  0.3060 -0.7229
  887MPD2    H713066   2.345   2.196  15.601 -0.3237 -2.1304 -0.4267
  888MPD2     C13067   4.278   2.492  15.025  0.3734  0.2077 -0.7476
  888MPD2    C113068   4.300   2.545  15.154  0.3757  0.2256 -0.0588
  888MPD2    C213069   4.382   2.658  15.164  0.2914  0.3075  0.4814
  888MPD2    C313070   4.433   2.709  15.045  0.7302  0.4662 -0.2304
  888MPD2    C413071   4.405   2.658  14.923 -0.5122  1.1410 -0.2618
  888MPD2    C513072   4.324   2.549  14.905 -0.1941 -0.2047 -0.1009
  888MPD2     H13073   4.413   2.704  15.257  1.4532  0.1639  0.1667
  888MPD2    H113074   4.426   2.724  14.839 -2.7273  1.8077 -0.2943
  888MPD2    H213075   4.206   2.415  14.998 -1.3784  1.0825  1.3883
  888MPD2    H313076   4.288   2.520  14.807  0.6090  1.8726 -1.0134
  888MPD2     N13077   4.517   2.827  15.056 -0.8331 -0.2084  0.3716
  888MPD2    H513078   4.530   2.873  15.145  0.6638  0.6911 -0.2920
  888MPD2    N113079   4.239   2.492  15.271  0.4260  0.2942 -0.2334
  888MPD2    H713080   4.255   2.541  15.359  1.0949 -0.1229 -0.1212
  889MPD2     C13081   3.805   1.768  13.370  0.0977  0.0067  0.3668
  889MPD2    C113082   3.882   1.789  13.487  0.3920 -0.0392 -0.4165
  889MPD2    C213083   3.886   1.926  13.519 -0.5558 -0.4541  0.1920
  889MPD2    C313084   3.850   2.026  13.437 -0.4164 -0.4803  0.9979
  889MPD2    C413085   3.803   1.994  13.309 -0.2893 -0.2969 -0.7978
  889MPD2    C513086   3.760   1.864  13.280 -0.1580  0.0285 -0.2567
  889MPD2     H13087   3.932   1.951  13.614  2.1449 -2.9467 -0.4816
  889MPD2    H113088   3.774   2.069  13.236 -3.2100 -0.5145  0.1346
  889MPD2    H213089   3.768   1.668  13.351  1.2788 -0.1470 -1.1232
  889MPD2    H313090   3.712   1.832  13.189  1.8274 -1.3168 -0.8333
  889MPD2     N13091   3.846   2.158  13.493  0.4041  0.3346  0.1029
  889MPD2    H513092   3.885   2.172  13.586 -0.2480 -0.0380  0.4344
  889MPD2    N113093   3.908   1.677  13.576 -0.2964  0.1076 -0.1138
  889MPD2    H713094   3.878   1.582  13.557 -1.2569  0.1938  0.9497
  890MPD2     C13095   3.147   3.949  15.468 -0.2302 -0.1955  0.0394
  890MPD2    C113096   3.190   4.031  15.567 -0.3414  0.2412  0.3179
  890MPD2    C213097   3.196   3.982  15.698  0.7049 -0.4756 -0.0558
  890MPD2    C313098   3.182   3.845  15.723  0.4175  0.4696  0.0057
  890MPD2    C413099   3.160   3.759  15.618  0.2685 -0.1396  0.1318
  890MPD2    C513100   3.138   3.818  15.496  0.1294  0.0005  0.2534
  890MPD2     H13101   3.213   4.046  15.783 -2.1014  1.5971 -1.0357
  890MPD2    H113102   3.153   3.651  15.617  2.6606 -0.3062  1.3686
  890MPD2    H213103   3.136   3.977  15.364 -0.5916 -0.1312  0.0964
  890MPD2    H313104   3.107   3.752  15.416  2.0644  1.1272 -1.4089
  890MPD2     N13105   3.202   3.795  15.856 -0.4699 -0.0200  0.2142
  890MPD2    H513106   3.238   3.862  15.924  0.9350 -0.1691 -0.3875
  890MPD2    N113107   3.234   4.154  15.523  0.3059  0.3024  0.4517
  890MPD2    H713108   3.227   4.175  15.424 -0.7148 -0.9236  0.2733
  891MPD2     C13109   1.478   2.305  16.800  0.1570  0.6912  0.7186
  891MPD2    C113110   1.378   2.234  16.851  0.6906  0.2598 -0.4703
  891MPD2    C213111   1.413   2.115  16.919 -0.5728 -0.8388  0.1682
  891MPD2    C313112   1.541   2.063  16.925 -0.2194  0.1602  0.8267
  891MPD2    C413113   1.644   2.141  16.876  0.1705 -0.3163 -0.0665
  891MPD2    C513114   1.605   2.260  16.817  1.0650  0.0488  0.7753
  891MPD2     H13115   1.336   2.065  16.977 -1.8278  1.1101  0.2214
  891MPD2    H113116   1.753   2.135  16.881  0.0480 -1.5141  1.3512
  891MPD2    H213117   1.466   2.399  16.747  0.1358  0.7172  0.7702
  891MPD2    H313118   1.681   2.327  16.781  0.3813 -0.4425 -1.5996
  891MPD2     N13119   1.568   1.941  16.985 -0.4912 -0.2080  0.5631
  891MPD2    H513120   1.493   1.885  17.025 -0.1509  0.1614  1.7419
  891MPD2    N113121   1.249   2.292  16.845  0.9906 -0.7111 -0.0748
  891MPD2    H713122   1.237   2.379  16.794 -1.1451 -1.4328 -0.8109
  892MPD2     C13123   2.604   3.158  15.094 -0.4240  0.1996  0.0539
  892MPD2    C113124   2.525   3.193  14.993  0.4369  0.6571 -0.0805
  892MPD2    C213125   2.529   3.137  14.867 -0.2867 -0.0287  0.1460
  892MPD2    C313126   2.615   3.028  14.857  0.3534  0.6582  0.4644
  892MPD2    C413127   2.701   2.982  14.961  0.3206 -0.0668 -0.3724
  892MPD2    C513128   2.687   3.050  15.078 -0.4453  0.3154 -0.0414
  892MPD2     H13129   2.462   3.161  14.785  1.4706  0.1491 -1.2352
  892MPD2    H113130   2.778   2.906  14.951  1.6051  1.2325 -0.3135
  892MPD2    H213131   2.587   3.198  15.193 -2.6332  0.4730 -0.4348
  892MPD2    H313132   2.748   3.027  15.165 -0.9617  0.8957  0.4731
  892MPD2     N13133   2.611   2.960  14.733  0.1889  0.4227  0.6988
  892MPD2    H513134   2.555   3.008  14.663 -1.7871 -0.3005  1.7572
  892MPD2    N113135   2.424   3.294  15.010 -0.5501  0.2720 -0.0643
  892MPD2    H713136   2.361   3.317  14.934  0.3647 -0.0148 -0.9023
  893MPD2     C13137   3.429   2.186   1.507 -0.4653 -0.4036  0.0075
  893MPD2    C113138   3.534   2.268   1.538  0.6413  0.0969  0.1969
  893MPD2    C213139   3.506   2.371   1.626 -0.6646  0.3820  0.2768
  893MPD2    C313140   3.385   2.383   1.690 -0.4625 -0.4087  0.2525
  893MPD2    C413141   3.287   2.283   1.672 -0.8280  0.5010  0.3343
  893MPD2    C513142   3.310   2.190   1.574 -0.2868 -0.2770  0.1243
  893MPD2     H13143   3.580   2.450   1.637  1.5306 -1.4139 -1.3616
  893MPD2    H113144   3.195   2.286   1.730 -0.4212  1.1774  0.9459
  893MPD2    H213145   3.444   2.103   1.439  0.8577 -1.2250  1.2808
  893MPD2    H313146   3.222   2.129   1.554 -0.6669  0.3177 -0.0171
  893MPD2     N13147   3.360   2.497   1.767  0.1748  0.3329  0.6877
  893MPD2    H513148   3.263   2.505   1.795 -0.0291 -0.0888  0.1074
  893MPD2    N113149   3.664   2.239   1.489 -0.1817 -0.9898  0.1472
  893MPD2    H713150   3.670   2.168   1.417  1.3366 -0.0840 -0.6079
  894MPD2     C13151   2.490   4.316   1.430 -0.3260  0.4661  0.1492
  894MPD2    C113152   2.385   4.396   1.448 -0.6428 -0.3080  0.2373
  894MPD2    C213153   2.342   4.460   1.334  0.1095 -0.3340  0.4060
  894MPD2    C313154   2.402   4.466   1.215 -0.5216  0.7276  0.3254
  894MPD2    C413155   2.523   4.396   1.204  0.0782 -0.7076 -0.6183
  894MPD2    C513156   2.558   4.317   1.313  0.3646  0.9513  0.0313
  894MPD2     H13157   2.243   4.505   1.336  1.3983  2.5476 -1.0197
  894MPD2    H113158   2.577   4.390   1.110 -0.2983  1.4111 -0.9738
  894MPD2    H213159   2.538   4.255   1.506 -2.1304 -0.5011  0.5037
  894MPD2    H313160   2.644   4.252   1.300 -1.4280 -1.6052  0.8852
  894MPD2     N13161   2.349   4.557   1.120 -0.2334 -0.0208  0.2952
  894MPD2    H513162   2.263   4.607   1.142 -1.2587  0.0900 -3.9615
  894MPD2    N113163   2.315   4.417   1.571  0.0268 -0.2157  0.1535
  894MPD2    H713164   2.232   4.474   1.559  1.0497  1.1132 -0.5162
  895MPD2     C13165   2.060   2.492  14.092 -0.2512 -0.3271  0.2502
  895MPD2    C113166   1.982   2.464  13.986 -0.2103  0.6022 -0.0775
  895MPD2    C213167   2.017   2.363  13.891 -0.3590  0.3195 -0.3000
  895MPD2    C313168   2.138   2.310  13.890 -0.5474 -0.3655 -0.5993
  895MPD2    C413169   2.222   2.335  14.002  0.7762 -0.0328 -0.0393
  895MPD2    C513170   2.181   2.419  14.106 -0.4928 -0.1179  0.0066
  895MPD2     H13171   1.948   2.352  13.809 -2.2498  2.4634  0.9745
  895MPD2    H113172   2.318   2.283  14.004 -1.2790 -3.9016 -1.7105
  895MPD2    H213173   2.047   2.565  14.171 -0.4420 -1.2037  1.0175
  895MPD2    H313174   2.247   2.432  14.191  0.0221  2.0819 -0.7417
  895MPD2     N13175   2.186   2.220  13.787  0.1097 -0.0528 -0.6421
  895MPD2    H513176   2.282   2.190  13.798  0.1788  1.3422  2.5019
  895MPD2    N113177   1.863   2.536  13.961 -0.6198  0.5401 -0.3945
  895MPD2    H713178   1.817   2.517  13.873  1.0974 -1.7628 -0.7988
  896MPD2     C13179   3.529   1.158   1.235  0.6597 -0.5727  0.1012
  896MPD2    C113180   3.588   1.070   1.148  0.1791 -0.0210  0.0617
  896MPD2    C213181   3.508   0.997   1.062  0.7290 -0.2803  0.6928
  896MPD2    C313182   3.367   1.010   1.064  0.1109  0.8584 -0.2685
  896MPD2    C413183   3.305   1.108   1.145  0.2061 -0.3555 -0.2919
  896MPD2    C513184   3.386   1.183   1.227 -0.1830 -0.2103  0.7249
  896MPD2     H13185   3.556   0.942   0.982 -1.3215  0.2025 -0.8522
  896MPD2    H113186   3.204   1.146   1.145  0.5182  0.4813  0.4517
  896MPD2    H213187   3.586   1.222   1.301  1.5127 -0.8285 -0.3919
  896MPD2    H313188   3.345   1.241   1.309  0.9767  0.1100  1.0745
  896MPD2     N13189   3.291   0.933   0.973 -0.6312  0.4141 -0.2208
  896MPD2    H513190   3.342   0.859   0.926 -0.3281  0.0963  0.6129
  896MPD2    N113191   3.725   1.063   1.128  0.1735  0.6165 -0.2044
  896MPD2    H713192   3.787   1.140   1.152  1.8366 -0.3518 -1.3899
  897MPD2     C13193   0.399   1.818  10.486 -0.0560 -1.0504 -0.5875
  897MPD2    C113194   0.359   1.948  10.523  0.0401  0.3919  0.0117
  897MPD2    C213195   0.322   1.973  10.646 -0.8060 -0.1043  0.2848
  897MPD2    C313196   0.279   1.873  10.732 -0.2171  0.2409 -0.7604
  897MPD2    C413197   0.305   1.746  10.697 -0.3487 -0.5256 -0.3516
  897MPD2    C513198   0.371   1.722  10.582 -0.2056 -0.2397  0.1880
  897MPD2     H13199   0.294   2.071  10.682  0.6282  0.0178  1.0605
  897MPD2    H113200   0.265   1.657  10.744  1.4104 -1.5517 -0.7893
  897MPD2    H213201   0.427   1.790  10.385 -3.3868 -1.6085 -1.3414
  897MPD2    H313202   0.361   1.618  10.552 -1.7172 -0.3433  1.0515
  897MPD2     N13203   0.200   1.910  10.846 -0.8586  0.3680 -0.3891
  897MPD2    H513204   0.184   2.010  10.852  0.4357  0.5832 -0.7305
  897MPD2    N113205   0.376   2.050  10.427 -1.1881 -0.3362 -0.7792
  897MPD2    H713206   0.420   2.027  10.338  0.3060  1.1704 -0.4341
  898MPD2     C13207   2.593   2.563   0.269 -0.2541 -0.3100 -0.4271
  898MPD2    C113208   2.584   2.700   0.315  0.6431 -0.8610  0.3320
  898MPD2    C213209   2.485   2.781   0.258  0.2632  0.1810 -0.5022
  898MPD2    C313210   2.388   2.725   0.176  0.1663  1.3526  0.5151
  898MPD2    C413211   2.388   2.591   0.158  0.7763 -0.4787  0.3343
  898MPD2    C513212   2.495   2.513   0.188 -0.3537  0.5690  0.7567
  898MPD2     H13213   2.482   2.887   0.280  0.1744  0.1966 -0.5887
  898MPD2    H113214   2.314   2.541   0.097  0.1956  2.0098 -1.0264
  898MPD2    H213215   2.664   2.497   0.317 -1.0059 -1.3850 -0.8070
  898MPD2    H313216   2.493   2.406   0.169 -0.3338  0.9637 -1.5326
  898MPD2     N13217   2.289   2.817   0.128 -0.0857 -0.1730 -0.0441
  898MPD2    H513218   2.310   2.916   0.132 -2.3501  0.2730  1.0827
  898MPD2    N113219   2.671   2.757   0.412  0.3749  0.3637  1.1005
  898MPD2    H713220   2.651   2.852   0.443 -0.3194  0.2620  0.9490
  899MPD2     C13221   2.996   3.326  17.734  0.2957  0.2701 -0.3763
  899MPD2    C113222   3.012   3.422   0.073  0.1441  0.3057 -0.3959
  899MPD2    C213223   3.012   3.391   0.208 -0.0918 -0.4619 -0.4857
  899MPD2    C313224   2.990   3.258   0.251 -0.1620  0.1558  0.4147
  899MPD2    C413225   2.982   3.160   0.157  0.6014  0.2348 -0.0367
  899MPD2    C513226   2.989   3.198   0.024  0.0648 -0.1498 -0.7540
  899MPD2     H13227   3.045   3.462   0.284  0.0130 -0.1415 -0.8275
  899MPD2    H113228   2.986   3.054   0.176  1.4964  0.3727  0.5591
  899MPD2    H213229   2.993   3.356  17.630  0.6388  0.6230 -0.2878
  899MPD2    H313230   2.969   3.113  17.710  3.2913 -2.7864  1.7119
  899MPD2     N13231   3.004   3.222   0.388 -0.1800 -0.8131 -0.0069
  899MPD2    H513232   3.056   3.140   0.416  0.0040 -0.8687 -0.5276
  899MPD2    N113233   3.019   3.558   0.029  0.2881 -0.0818  0.2403
  899MPD2    H713234   3.028   3.571  17.679 -0.6029 -1.2577  0.0175
  900MPD2     C13235   3.299   4.578  12.826  0.0811  0.1490  0.0068
  900MPD2    C113236   3.174   4.515  12.834  0.2894 -0.1147 -0.2289
  900MPD2    C213237   3.082   4.534  12.733 -0.2721  0.0773  0.6760
  900MPD2    C313238   3.100   4.629  12.630 -0.2798 -0.1151 -0.4757
  900MPD2    C413239   3.226   4.687  12.614 -0.6039 -0.5270 -0.0433
  900MPD2    C513240   3.315   4.665  12.724  0.4599 -0.3357  0.2685
  900MPD2     H13241   2.988   4.482  12.739  0.3506 -1.0844  0.4701
  900MPD2    H113242   3.261   0.001  12.526 -1.1896  1.3609  0.8394
  900MPD2    H213243   3.370   4.564  12.907  1.7335  0.7624 -1.3345
  900MPD2    H313244   3.410   4.718  12.719  0.9100 -1.1956 -0.2574
  900MPD2     N13245   3.000   4.650  12.534  0.4052  0.4493  0.0998
  900MPD2    H513246   2.913   4.600  12.551  0.2831 -0.2005 -2.4707
  900MPD2    N113247   3.149   4.434  12.945  0.4077 -0.2036  0.1064
  900MPD2    H713248   3.214   4.444  13.023  1.1395 -0.7971 -0.4285
  901MPD2     C13249   2.610   3.640  12.946  0.1322 -0.0746  0.3046
  901MPD2    C113250   2.748   3.630  12.941 -0.2805 -0.2257  0.4961
  901MPD2    C213251   2.819   3.736  12.975 -0.3988  0.4525  0.2924
  901MPD2    C313252   2.765   3.847  13.051  0.2595  0.1179 -0.5373
  901MPD2    C413253   2.623   3.857  13.060  0.9134 -0.1265 -0.7183
  901MPD2    C513254   2.550   3.754  13.000 -0.2734  0.1092  0.6732
  901MPD2     H13255   2.921   3.739  12.940  0.3196 -1.2358  2.2164
  901MPD2    H113256   2.563   3.938  13.100  0.2147 -0.2692 -1.4780
  901MPD2    H213257   2.545   3.563  12.906 -1.3161  1.0063  0.5851
  901MPD2    H313258   2.442   3.745  13.002 -0.3297  0.1601 -1.5732
  901MPD2     N13259   2.852   3.947  13.103  0.4266 -0.4189  0.0359
  901MPD2    H513260   2.942   3.968  13.062 -0.4725  3.8036  0.2438
  901MPD2    N113261   2.803   3.521  12.875  0.3536 -0.1701  0.1178
  901MPD2    H713262   2.754   3.436  12.849  0.5601  0.2077 -1.4969
  902MPD2     C13263   1.825   2.689  12.767 -0.1750  0.9299 -0.0834
  902MPD2    C113264   1.922   2.759  12.832  0.8921 -0.1348  0.1164
  902MPD2    C213265   2.041   2.700  12.877 -0.2048  0.0776  0.4202
  902MPD2    C313266   2.060   2.562  12.852  0.7349 -0.6640 -0.1643
  902MPD2    C413267   1.965   2.499  12.778 -1.2654 -0.1985  0.3413
  902MPD2    C513268   1.852   2.556  12.737  0.5383 -0.2327  0.2221
  902MPD2     H13269   2.115   2.754  12.934 -1.2426  1.0239  0.8537
  902MPD2    H113270   1.968   2.394  12.751 -1.0238 -0.2305  0.4887
  902MPD2    H213271   1.743   2.746  12.724 -1.0410 -0.2578 -0.0190
  902MPD2    H313272   1.784   2.484  12.693  1.3483 -1.4148  0.8754
  902MPD2     N13273   2.177   2.489  12.887 -0.5575  0.1218  0.4072
  902MPD2    H513274   2.198   2.418  12.818 -0.7906 -0.2776  0.7483
  902MPD2    N113275   1.901   2.896  12.848 -0.1515 -0.4841 -0.4083
  902MPD2    H713276   1.820   2.932  12.798 -0.6576 -1.5544 -0.3547
  903MPD2     C13277   2.408   3.213  12.754 -0.5720 -0.2160 -0.5267
  903MPD2    C113278   2.349   3.097  12.714  0.4530  0.1051 -0.0310
  903MPD2    C213279   2.239   3.095  12.640  0.0890  0.0493  0.7668
  903MPD2    C313280   2.184   3.214  12.590  0.7001 -0.0842  0.6802
  903MPD2    C413281   2.242   3.331  12.638  0.1688  0.5034 -0.8076
  903MPD2    C513282   2.349   3.333  12.727  0.5850  0.1526  0.1955
  903MPD2     H13283   2.192   3.002  12.610  2.1242 -1.0532  1.0258
  903MPD2    H113284   2.196   3.428  12.618  0.4600  0.8966  0.4210
  903MPD2    H213285   2.490   3.210  12.824 -0.3557 -2.9339 -0.9135
  903MPD2    H313286   2.386   3.432  12.752 -2.8517  1.2273  1.0871
  903MPD2     N13287   2.071   3.207  12.514  0.0550 -0.1176  0.3869
  903MPD2    H513288   2.021   3.119  12.503  3.1317 -1.7811 -0.2993
  903MPD2    N113289   2.425   2.979  12.740 -0.3934  0.6923  0.1357
  903MPD2    H713290   2.492   2.978  12.816 -0.0194 -2.0632 -0.2160
  904MPD2     C13291   1.635   1.521  14.052 -0.1414 -0.3539  1.1218
  904MPD2    C113292   1.702   1.635  14.075  0.1565  0.2764 -0.0162
  904MPD2    C213293   1.833   1.626  14.111  0.9866  0.4440 -0.0118
  904MPD2    C313294   1.896   1.505  14.128  0.0183  0.1177  0.1004
  904MPD2    C413295   1.823   1.386  14.107 -0.3601  0.2664 -0.3424
  904MPD2    C513296   1.696   1.402  14.064 -0.2663  0.5131  0.3209
  904MPD2     H13297   1.886   1.720  14.122  0.3648  0.6385  1.4074
  904MPD2    H113298   1.867   1.287  14.113 -2.0208 -0.5846 -1.9199
  904MPD2    H213299   1.531   1.517  14.024 -0.0160  1.9578  0.3148
  904MPD2    H313300   1.635   1.317  14.036  0.8566  0.2042 -1.1655
  904MPD2     N13301   2.030   1.509  14.164 -0.2578  0.5751 -0.0177
  904MPD2    H513302   2.081   1.597  14.158  0.5989  0.0909  0.1044
  904MPD2    N113303   1.651   1.761  14.053 -0.0033  0.0153 -0.1926
  904MPD2    H713304   1.718   1.835  14.070  0.6332 -0.1448 -1.9381
  905MPD2     C13305   1.514   2.042  13.376 -0.2974 -0.2412 -0.1328
  905MPD2    C113306   1.576   2.094  13.488 -0.1430 -0.2127 -0.0328
  905MPD2    C213307   1.717   2.109  13.492 -1.0789 -0.1560  0.4352
  905MPD2    C313308   1.784   2.075  13.375  0.0953 -0.0912  0.2209
  905MPD2    C413309   1.722   2.032  13.263  0.1672  0.0923  0.9229
  905MPD2    C513310   1.587   2.015  13.266  0.0578 -0.2965  0.5627
  905MPD2     H13311   1.770   2.140  13.581 -2.4648  1.4919  0.6897
  905MPD2    H113312   1.780   1.995  13.180  0.3065  3.4321 -0.5007
  905MPD2    H213313   1.409   2.012  13.382 -0.1724 -0.6556  0.0253
  905MPD2    H313314   1.541   1.977  13.175 -1.8443 -0.9564  1.8054
  905MPD2     N13315   1.926   2.065  13.389  0.3559 -0.3677 -0.1501
  905MPD2    H513316   1.969   2.119  13.463  0.5072 -0.2104 -0.3530
  905MPD2    N113317   1.504   2.093  13.612  0.4536  0.7200 -0.2166
  905MPD2    H713318   1.410   2.057  13.619  0.4272  0.9882  0.8176
  906MPD2     C13319   3.899   2.352  11.733 -0.2190 -0.5000 -0.4905
  906MPD2    C113320   3.851   2.284  11.619  0.2651  0.5174 -0.3686
  906MPD2    C213321   3.805   2.153  11.633 -0.7461  0.1437 -0.5851
  906MPD2    C313322   3.796   2.098  11.761 -0.3309  0.0954  0.0586
  906MPD2    C413323   3.852   2.169  11.867  0.4811 -0.2368 -0.1236
  906MPD2    C513324   3.902   2.296  11.858  0.3589 -0.9920  0.6937
  906MPD2     H13325   3.757   2.102  11.550  0.4166  1.0558 -1.8144
  906MPD2    H113326   3.859   2.108  11.956  0.4111  2.6673  1.8653
  906MPD2    H213327   3.932   2.455  11.727  1.3726 -0.9572  0.4170
  906MPD2    H313328   3.951   2.353  11.936 -0.9504  1.9190 -0.5743
  906MPD2     N13329   3.732   1.977  11.794 -0.0383 -0.0471 -0.0254
  906MPD2    H513330   3.718   1.963  11.894  1.4817  0.1746  0.2299
  906MPD2    N113331   3.858   2.335  11.490  0.5535  0.0335  0.5259
  906MPD2    H713332   3.827   2.274  11.415  2.3764  1.3385 -1.2707
  907MPD2     C13333   2.239   0.947  15.704  0.7470 -0.1525  0.6353
  907MPD2    C113334   2.332   0.848  15.694  0.1887  0.5792  0.2081
  907MPD2    C213335   2.407   0.804  15.797 -0.1954  0.3661 -0.5466
  907MPD2    C313336   2.401   0.865  15.920  0.4457  0.2150 -0.1074
  907MPD2    C413337   2.312   0.979  15.936 -0.3525  0.0361  0.2307
  907MPD2    C513338   2.235   1.009  15.825  0.0327  0.4443  0.0213
  907MPD2     H13339   2.475   0.721  15.781 -2.8758 -1.8260 -0.6711
  907MPD2    H113340   2.290   1.036  16.025  0.6394  0.0982  0.4341
  907MPD2    H213341   2.165   0.977  15.630  1.6848 -1.3734 -0.7854
  907MPD2    H313342   2.162   1.088  15.824 -0.1631  0.2748  0.7394
  907MPD2     N13343   2.488   0.828  16.025  0.0473  0.7011 -0.7232
  907MPD2    H513344   2.557   0.755  16.013 -1.4307 -0.3458 -2.8722
  907MPD2    N113345   2.345   0.774  15.579 -0.8998 -0.1832 -0.3517
  907MPD2    H713346   2.414   0.700  15.583  1.7145  2.3893  1.7498
  908MPD2     C13347   0.399   1.827   9.647 -0.2076 -0.6852  0.7843
  908MPD2    C113348   0.290   1.842   9.729  0.0056  0.1678  0.0523
  908MPD2    C213349   0.286   1.942   9.829 -0.6883 -0.0286 -0.1132
  908MPD2    C313350   0.397   2.027   9.846  0.2256 -0.5858  0.2502
  908MPD2    C413351   0.507   2.015   9.767  0.8313 -0.1541  0.1388
  908MPD2    C513352   0.504   1.920   9.665  0.2448  0.2164 -0.0798
  908MPD2     H13353   0.203   1.960   9.897  1.2401  1.4120  1.8936
  908MPD2    H113354   0.599   2.070   9.783  1.3598 -0.1909 -2.8637
  908MPD2    H213355   0.395   1.750   9.571 -2.0787  0.0167  0.1635
  908MPD2    H313356   0.591   1.909   9.601  0.2969 -0.2883  0.0805
  908MPD2     N13357   0.389   2.130   9.945 -0.4485  0.0196 -0.3096
  908MPD2    H513358   0.321   2.111  10.017 -0.6941 -0.1422 -0.5837
  908MPD2    N113359   0.181   1.747   9.708  0.0275  0.2133  0.6292
  908MPD2    H713360   0.194   1.666   9.649 -0.3375  0.1610  0.6212
  909MPD2     C13361   0.671   0.004  11.898  0.6536 -0.1490 -0.2614
  909MPD2    C113362   0.708   0.138  11.926  0.1637 -0.3713 -0.5360
  909MPD2    C213363   0.667   0.199  12.038 -0.1795  1.3201  0.8212
  909MPD2    C313364   0.592   0.135  12.131 -0.3132  0.3630  0.0572
  909MPD2    C413365   0.565   0.001  12.110  0.0586  0.3080 -0.5449
  909MPD2    C513366   0.598   4.679  11.995  0.0396 -0.1106  0.9791
  909MPD2     H13367   0.691   0.304  12.052  2.4946  0.5588  1.9690
  909MPD2    H113368   0.520   4.674  12.185  2.4340 -0.2809  0.3707
  909MPD2    H213369   0.696   4.688  11.808 -2.1150  0.0232 -1.1546
  909MPD2    H313370   0.573   4.573  11.989  0.2139 -0.2727  3.1295
  909MPD2     N13371   0.543   0.204  12.244 -0.2751  0.9138 -0.0556
  909MPD2    H513372   0.559   0.304  12.240  3.1068  0.3669 -0.3326
  909MPD2    N113373   0.788   0.213  11.847 -0.6434  0.2654 -0.5236
  909MPD2    H713374   0.818   0.304  11.882  1.0932 -0.5702  0.1866
  910MPD2     C13375   1.881   1.167  16.166  0.5163 -0.5859  0.0902
  910MPD2    C113376   1.938   1.071  16.086 -0.0726 -0.2181 -0.0962
  910MPD2    C213377   1.906   1.083  15.950  0.1486  0.5603 -0.1019
  910MPD2    C313378   1.806   1.174  15.902  0.1742  0.2013  0.2058
  910MPD2    C413379   1.756   1.269  15.996  0.5182  0.4120  0.3215
  910MPD2    C513380   1.789   1.259  16.127  0.5832  0.5599  0.3342
  910MPD2     H13381   1.932   1.013  15.872  1.3390 -0.1772  0.9668
  910MPD2    H113382   1.686   1.346  15.965 -1.1527 -1.4686 -0.6119
  910MPD2    H213383   1.882   1.169  16.275  0.2413 -0.4393  0.0889
  910MPD2    H313384   1.760   1.330  16.204  0.2237 -0.4388  1.1268
  910MPD2     N13385   1.762   1.185  15.771 -0.2766 -0.2102  0.3943
  910MPD2    H513386   1.690   1.254  15.751  0.1258 -0.7287 -2.8625
  910MPD2    N113387   2.014   0.960  16.143 -0.1457 -0.0058 -0.2840
  910MPD2    H713388   2.032   0.879  16.085  1.0377 -0.7860  1.1630
  911MPD2     C13389   4.410   2.188  16.178 -1.0079  0.0850 -0.0391
  911MPD2    C113390   4.424   2.225  16.309  0.6219  0.2586  0.7679
  911MPD2    C213391   4.353   2.332  16.364 -0.8712 -0.4349 -0.5836
  911MPD2    C313392   4.268   2.408  16.284 -0.3018  0.3600 -0.0533
  911MPD2    C413393   4.253   2.370  16.150 -0.4150 -0.9380  0.5721
  911MPD2    C513394   4.321   2.256  16.102  0.2740 -0.0470  0.6183
  911MPD2     H13395   4.366   2.371  16.464 -0.6706  0.3593 -0.9185
  911MPD2    H113396   4.180   2.421  16.087  0.7153 -0.0848 -0.0562
  911MPD2    H213397   4.482   2.118  16.138  0.3087  3.0231 -2.8023
  911MPD2    H313398   4.323   2.230  15.997 -2.6050 -2.7938  1.2387
  911MPD2     N13399   4.184   2.514  16.334 -0.3297  0.2285  0.3001
  911MPD2    H513400   4.102   2.541  16.282  0.5566  0.6640 -0.8613
  911MPD2    N113401   4.513   2.150  16.385 -0.2509  0.3770 -0.0397
  911MPD2    H713402   4.571   2.091  16.326 -1.4418 -0.8064 -0.0197
  912MPD2     C13403   3.980   2.557  15.902  0.1361  0.6240  0.3391
  912MPD2    C113404   3.928   2.509  16.024  0.1068 -0.2285  0.3680
  912MPD2    C213405   3.916   2.373  16.040  0.0146 -0.6158 -0.5712
  912MPD2    C313406   3.980   2.285  15.952 -0.8156 -0.5027 -0.4943
  912MPD2    C413407   4.041   2.338  15.834  0.1707  0.5367  0.1824
  912MPD2    C513408   4.036   2.471  15.812  0.6571  0.6197  0.3925
  912MPD2     H13409   3.889   2.327  16.134  1.1861 -0.2544 -0.0709
  912MPD2    H113410   4.104   2.275  15.773 -0.5119  0.7178 -0.6986
  912MPD2    H213411   3.988   2.662  15.879 -1.2839  0.5943 -0.2967
  912MPD2    H313412   4.082   2.508  15.722  1.1630 -0.3957  0.2404
  912MPD2     N13413   3.982   2.148  15.976 -0.0532  0.7727 -0.2810
  912MPD2    H513414   3.923   2.118  16.052  0.5584  0.4262  0.0613
  912MPD2    N113415   3.897   2.601  16.118 -0.1525 -0.0903 -0.3215
  912MPD2    H713416   3.911   2.697  16.087  2.8482 -0.8535 -1.3429
  913MPD2     C13417   0.108   3.306  10.381  0.3124 -0.7910 -0.4414
  913MPD2    C113418   0.152   3.416  10.444  0.2248 -0.3666 -0.5293
  913MPD2    C213419   0.118   3.535  10.389 -0.6517 -0.2130 -0.6383
  913MPD2    C313420   0.064   3.542  10.268  0.2413 -0.1558  0.5373
  913MPD2    C413421   0.043   3.430  10.190 -0.6581 -0.0941  0.7590
  913MPD2    C513422   0.060   3.314  10.253 -1.3801 -0.5843 -0.8704
  913MPD2     H13423   0.131   3.626  10.446 -1.8875 -2.7058  3.5684
  913MPD2    H113424   4.735   3.425  10.092  0.6041 -0.1331  0.1604
  913MPD2    H213425   0.104   3.207  10.424 -0.3062 -1.0644 -1.1279
  913MPD2    H313426   0.034   3.222  10.202 -0.8034 -0.1085 -2.0038
  913MPD2     N13427   0.031   3.660  10.195  0.6356  0.6764 -0.2126
  913MPD2    H513428   0.001   3.634  10.102 -2.0102 -0.8154  1.0374
  913MPD2    N113429   0.209   3.409  10.575  0.1944 -0.9995  0.1190
  913MPD2    H713430   0.228   3.317  10.613  0.6535 -1.1550 -0.4841
  914MPD2     C13431   2.430   3.187  12.208  0.3909  0.0158 -0.6126
  914MPD2    C113432   2.539   3.267  12.178  0.2677 -0.1605 -0.0672
  914MPD2    C213433   2.649   3.277  12.264 -0.4531  0.1686  0.0526
  914MPD2    C313434   2.641   3.209  12.380 -0.8965 -0.3740  0.4003
  914MPD2    C413435   2.526   3.139  12.418  0.8657  0.0074  0.3167
  914MPD2    C513436   2.422   3.128  12.329  0.5171  0.5217 -0.2276
  914MPD2     H13437   2.742   3.331  12.245 -0.1664 -0.4976 -0.4491
  914MPD2    H113438   2.523   3.085  12.512  1.5156  0.0165  0.3425
  914MPD2    H213439   2.364   3.160  12.127 -1.0518 -1.1397  0.9598
  914MPD2    H313440   2.344   3.054  12.348  1.4164 -0.6211 -0.9692
  914MPD2     N13441   2.750   3.229  12.471  0.5616 -0.6257  0.4278
  914MPD2    H513442   2.810   3.309  12.454  0.4205 -0.9552 -1.5473
  914MPD2    N113443   2.542   3.328  12.046 -0.5998  0.5401 -0.5930
  914MPD2    H713444   2.470   3.293  11.983  0.5565  0.9292 -2.1398
  915MPD2     C13445   1.175   3.668  16.034 -0.4612 -0.3540  0.1546
  915MPD2    C113446   1.037   3.633  16.042 -0.5672  0.1501 -0.3074
  915MPD2    C213447   0.968   3.657  16.168 -0.9654  0.3909 -0.1534
  915MPD2    C313448   1.031   3.725  16.272 -0.6300  0.2042  0.2113
  915MPD2    C413449   1.164   3.743  16.267  0.2110  1.2262  0.2378
  915MPD2    C513450   1.234   3.711  16.151  0.1123 -0.3163 -0.0084
  915MPD2     H13451   0.861   3.640  16.161 -0.5721 -2.2653  0.5096
  915MPD2    H113452   1.222   3.779  16.351  1.3639 -1.5209  0.6236
  915MPD2    H213453   1.243   3.640  15.954 -0.6204 -1.0897  0.2734
  915MPD2    H313454   1.341   3.721  16.153 -0.1221  1.9695  0.3263
  915MPD2     N13455   0.951   3.751  16.389  0.1054  0.0368  0.2024
  915MPD2    H513456   0.852   3.734  16.375  0.1251 -0.4119  0.5925
  915MPD2    N113457   0.974   3.575  15.930 -0.3630  0.4037  0.1725
  915MPD2    H713458   1.016   3.570  15.838 -0.4864 -0.3195  0.1540
  916MPD2     C13459   3.620   2.311  15.783  0.0735  0.2315 -0.6329
  916MPD2    C113460   3.572   2.209  15.860  0.3248  0.0709 -0.2542
  916MPD2    C213461   3.599   2.077  15.825  1.0578  0.1454 -0.5449
  916MPD2    C313462   3.672   2.044  15.714 -0.5397  0.7321 -0.1158
  916MPD2    C413463   3.721   2.150  15.636 -0.4568  0.3118 -0.5381
  916MPD2    C513464   3.693   2.277  15.667  0.0370  0.2524 -0.8825
  916MPD2     H13465   3.555   2.000  15.889  1.3266  2.8331  2.8739
  916MPD2    H113466   3.793   2.131  15.556  0.2879  1.6600 -0.1912
  916MPD2    H213467   3.596   2.416  15.798  0.1448  0.5512 -2.6773
  916MPD2    H313468   3.732   2.360  15.609  0.5065  0.0696 -0.8277
  916MPD2     N13469   3.716   1.916  15.684 -0.5488  0.0852 -0.4951
  916MPD2    H513470   3.709   1.843  15.754  3.5026 -0.0437 -0.2189
  916MPD2    N113471   3.489   2.247  15.968  0.4035 -0.1073 -0.2206
  916MPD2    H713472   3.470   2.347  15.975  0.9990  0.0084 -0.2620
  917MPD2     C13473   4.020   3.929  11.563 -0.6860  0.1942  0.2019
  917MPD2    C113474   4.059   3.985  11.682 -0.2193  0.2285  0.0985
  917MPD2    C213475   4.151   4.088  11.667 -0.0927 -0.5481 -0.0997
  917MPD2    C313476   4.176   4.154  11.554 -0.3035  0.3302 -0.2216
  917MPD2    C413477   4.118   4.115  11.435 -0.3025 -0.6771 -0.2100
  917MPD2    C513478   4.050   3.999  11.443 -0.4807  0.2791  0.4031
  917MPD2     H13479   4.180   4.130  11.763  0.2066  1.2767 -0.9827
  917MPD2    H113480   4.125   4.171  11.343 -2.4448  2.7356  1.7096
  917MPD2    H213481   3.947   3.850  11.549  0.2479 -0.2588 -2.2416
  917MPD2    H313482   4.027   3.964  11.343 -1.2570 -1.7396  1.2837
  917MPD2     N13483   4.265   4.265  11.549  0.0325  0.3009 -0.0206
  917MPD2    H513484   4.269   4.316  11.461 -2.7980 -2.0712 -1.5182
  917MPD2    N113485   4.016   3.928  11.804  0.3846  0.1009  0.2063
  917MPD2    H713486   3.970   3.839  11.794  0.9247  0.0709 -2.0108
  918MPD2     C13487   3.979   4.425  12.632 -0.1543 -1.0294 -0.1636
  918MPD2    C113488   4.103   4.396  12.573 -0.8386 -0.3325 -0.5807
  918MPD2    C213489   4.112   4.298  12.479 -0.1317  0.0600  0.7898
  918MPD2    C313490   3.995   4.221  12.455 -0.1755 -0.4004  0.2215
  918MPD2    C413491   3.869   4.248  12.521  0.4138  0.0411 -0.5247
  918MPD2    C513492   3.866   4.355  12.608  0.6099 -0.0769  0.2073
  918MPD2     H13493   4.204   4.282  12.425 -0.8889  0.3860 -0.6020
  918MPD2    H113494   3.782   4.184  12.512  0.6387 -0.4756  0.9608
  918MPD2    H213495   3.966   4.509  12.699  0.1176 -0.8683 -0.3129
  918MPD2    H313496   3.769   4.380  12.650  0.5593  0.7960 -0.4121
  918MPD2     N13497   4.009   4.099  12.376 -0.6233 -0.2722 -0.4291
  918MPD2    H513498   4.089   4.088  12.316  0.3042  0.5635  0.6430
  918MPD2    N113499   4.213   4.479  12.585 -0.1798 -0.3001  0.6374
  918MPD2    H713500   4.295   4.445  12.536 -0.4782  0.2733 -0.2618
  919MPD2     C13501   4.504   3.184  11.935  0.6399 -0.3372  0.5172
  919MPD2    C113502   4.564   3.082  11.873  0.5900 -0.7176  0.3241
  919MPD2    C213503   4.583   3.098  11.737 -0.0941  0.1721  0.3745
  919MPD2    C313504   4.548   3.216  11.666  0.0923  0.3694 -0.1995
  919MPD2    C413505   4.501   3.324  11.737  0.4698  0.5133 -0.3250
  919MPD2    C513506   4.478   3.302  11.870  0.4445  0.3927  0.5625
  919MPD2     H13507   4.628   3.016  11.683 -0.8802  0.4214 -0.6645
  919MPD2    H113508   4.497   3.425  11.697  0.6925  0.7156  0.1643
  919MPD2    H213509   4.491   3.193  12.042 -0.6724  0.1712  0.3148
  919MPD2    H313510   4.454   3.391  11.927 -2.8928  0.1231 -0.4312
  919MPD2     N13511   4.565   3.235  11.526  0.0385 -0.0640 -0.4039
  919MPD2    H513512   4.526   3.321  11.488  1.7850  1.1459  0.5335
  919MPD2    N113513   4.588   2.956  11.935  0.0134 -0.0331 -0.0756
  919MPD2    H713514   4.619   2.885  11.870 -1.6081  1.6480 -2.6684
  920MPD2     C13515   4.590   4.025  11.003  0.9967 -0.1548  0.1905
  920MPD2    C113516   4.521   3.943  10.918  0.8025  0.2423 -0.4916
  920MPD2    C213517   4.525   3.803  10.937  0.3600 -0.3754  0.1464
  920MPD2    C313518   4.586   3.755  11.050 -0.3373  0.0165  0.1481
  920MPD2    C413519   4.656   3.844  11.132  0.3892  0.1588 -0.6008
  920MPD2    C513520   4.656   3.980  11.107  0.3193 -0.2241  0.0320
  920MPD2     H13521   4.467   3.733  10.879  1.2000  0.7903 -2.1203
  920MPD2    H113522   4.718   3.804  11.211  0.0160  0.4302 -0.1696
  920MPD2    H213523   4.588   4.133  10.995  4.1848 -0.0503  0.6804
  920MPD2    H313524   4.714   4.043  11.174  0.7839 -1.0400  0.3924
  920MPD2     N13525   4.587   3.616  11.076  0.3176  0.3052 -0.0681
  920MPD2    H513526   4.543   3.559  11.004  1.5805  1.4133 -1.6976
  920MPD2    N113527   4.443   4.000  10.809 -0.0328 -0.3236 -0.1708
  920MPD2    H713528   4.396   3.928  10.755 -2.2531  1.6429 -0.8700
  921MPD2     C13529   0.409   2.274  17.186  0.3111  0.4127  0.1360
  921MPD2    C113530   0.472   2.259  17.058 -0.2001 -0.4616 -0.0622
  921MPD2    C213531   0.393   2.201  16.962 -0.4117  0.3885 -0.4354
  921MPD2    C313532   0.261   2.172  16.982  0.2037  0.2794  0.6513
  921MPD2    C413533   0.204   2.186  17.107 -0.2811 -0.0862 -0.6518
  921MPD2    C513534   0.278   2.232  17.212 -0.2947  0.3475 -0.1557
  921MPD2     H13535   0.439   2.191  16.864  0.4725  1.8298 -0.1681
  921MPD2    H113536   0.111   2.140  17.140  0.1949 -1.6280 -1.4438
  921MPD2    H213537   0.470   2.316  17.265  0.3582  0.8545 -0.1387
  921MPD2    H313538   0.238   2.227  17.313 -1.0506 -3.1762 -0.6084
  921MPD2     N13539   0.178   2.126  16.881  0.6460  0.3570  0.1398
  921MPD2    H513540   0.084   2.107  16.915  0.0010  2.5287 -0.4715
  921MPD2    N113541   0.611   2.299  17.043  0.2178  0.6532  0.0975
  921MPD2    H713542   0.662   2.329  17.125 -0.7469  1.4208  0.4278
  922MPD2     C13543   1.672   0.119  17.247  1.1532 -0.3437 -0.4973
  922MPD2    C113544   1.593   0.208  17.313  0.0033  0.1217  0.3577
  922MPD2    C213545   1.494   0.160  17.395 -0.3533 -0.7147  0.4145
  922MPD2    C313546   1.463   0.029  17.404 -0.3938 -0.2606  0.4790
  922MPD2    C413547   1.527   4.682  17.323 -0.5267 -0.2879 -0.1692
  922MPD2    C513548   1.628   4.731  17.239  0.1804  0.3823 -0.0549
  922MPD2     H13549   1.432   0.225  17.456 -2.0148 -0.0780 -1.9192
  922MPD2    H113550   1.481   4.584  17.326  0.4912 -0.8241 -1.7595
  922MPD2    H213551   1.735   0.158  17.168  2.0265 -2.3961 -0.8051
  922MPD2    H313552   1.656   4.669  17.154  0.6084  0.4830  0.0112
  922MPD2     N13553   1.361   4.732  17.504 -0.2079  0.3070  0.1513
  922MPD2    H513554   1.321   0.076  17.549  1.2953  2.2664 -2.0509
  922MPD2    N113555   1.612   0.350  17.312  0.6205  0.3762  0.0595
  922MPD2    H713556   1.543   0.415  17.347  1.5061  0.3821  1.7601
  923MPD2     C13557   2.495   1.876   8.947  1.4394  1.0125 -0.6805
  923MPD2    C113558   2.443   1.924   9.064 -0.2502 -0.6227  0.4020
  923MPD2    C213559   2.522   1.997   9.148 -0.8776  0.4541  0.0256
  923MPD2    C313560   2.654   2.034   9.109  0.1770  0.7406  0.2664
  923MPD2    C413561   2.698   1.997   8.982 -0.4320 -0.8625  0.6002
  923MPD2    C513562   2.620   1.917   8.907 -0.4749 -0.3819  0.6411
  923MPD2     H13563   2.492   2.012   9.251  3.7117 -1.1787  1.5895
  923MPD2    H113564   2.796   2.021   8.943  0.1823  0.5072  2.9533
  923MPD2    H213565   2.432   1.812   8.887 -0.1371  2.8070 -0.9275
  923MPD2    H313566   2.645   1.895   8.804  1.7289  3.8978  0.2602
  923MPD2     N13567   2.743   2.116   9.186  0.3193 -1.0204 -0.2103
  923MPD2    H513568   2.824   2.147   9.133  1.5483 -0.1808  2.1532
  923MPD2    N113569   2.322   1.868   9.104  0.2464 -0.6541 -0.2099
  923MPD2    H713570   2.289   1.788   9.052 -1.1128 -0.7583  0.7870
  924MPD2     C13571   3.023   0.183  15.963 -0.4790 -0.1398  0.2010
  924MPD2    C113572   3.012   0.220  16.095  0.0833 -0.3478  0.3477
  924MPD2    C213573   2.957   0.342  16.133 -0.5777  0.0994 -0.3506
  924MPD2    C313574   2.907   0.428  16.037  0.7516  0.2904  0.5150
  924MPD2    C413575   2.911   0.384  15.906  0.1207  0.4066 -0.0760
  924MPD2    C513576   2.980   0.272  15.866  0.3327 -0.2687 -0.7000
  924MPD2     H13577   2.941   0.367  16.237 -0.0335 -2.0244  0.2253
  924MPD2    H113578   2.879   0.445  15.821  0.4265  0.3115 -0.2563
  924MPD2    H213579   3.067   0.086  15.940 -2.2905 -0.5747 -1.4564
  924MPD2    H313580   2.983   0.238  15.763  0.8460 -1.6019 -0.2453
  924MPD2     N13581   2.858   0.552  16.079  0.1892  0.3670 -0.2404
  924MPD2    H513582   2.806   0.600  16.007  1.8162  1.1794 -0.8831
  924MPD2    N113583   3.061   0.127  16.191 -0.6672  0.0531 -0.1258
  924MPD2    H713584   3.105   0.042  16.159 -0.7596  0.1015 -0.3847
  925MPD2     C13585   1.593   2.935  15.356  0.3631 -0.4715  0.0448
  925MPD2    C113586   1.559   2.815  15.290 -0.1725  0.0281 -0.5453
  925MPD2    C213587   1.479   2.719  15.351 -0.1668  0.2493 -0.6107
  925MPD2    C313588   1.432   2.737  15.485  0.6208 -0.3145 -0.4566
  925MPD2    C413589   1.472   2.853  15.552 -0.3575 -0.0039  0.1644
  925MPD2    C513590   1.551   2.949  15.491 -0.4092  0.3066 -0.3060
  925MPD2     H13591   1.445   2.633  15.293  0.2886 -0.4020  0.0980
  925MPD2    H113592   1.434   2.885  15.648  0.6613 -2.3021  1.3422
  925MPD2    H213593   1.654   3.009  15.304  0.4047  0.7211  1.7886
  925MPD2    H313594   1.588   3.037  15.543 -0.4160 -0.2912  0.7148
  925MPD2     N13595   1.348   2.644  15.558  0.2574  0.2029  0.3446
  925MPD2    H513596   1.336   2.666  15.657  1.1608  0.6783  0.3494
  925MPD2    N113597   1.599   2.787  15.157  0.9466  0.5003 -0.7777
  925MPD2    H713598   1.554   2.704  15.120  0.3831  1.1222 -1.4707
  926MPD2     C13599   0.415   1.402  13.809 -0.2426  0.4391  0.3069
  926MPD2    C113600   0.378   1.530  13.770 -0.5078  0.0448  0.3524
  926MPD2    C213601   0.451   1.589  13.669 -0.8525 -0.3563  0.6725
  926MPD2    C313602   0.551   1.519  13.603  0.3404 -0.2253 -1.2038
  926MPD2    C413603   0.587   1.392  13.639  0.2466  0.1657 -0.2734
  926MPD2    C513604   0.519   1.333  13.750  1.1157  0.2669  0.0272
  926MPD2     H13605   0.424   1.684  13.624  2.7348 -0.4654 -1.7751
  926MPD2    H113606   0.669   1.340  13.589 -1.8616 -1.4125 -2.0921
  926MPD2    H213607   0.352   1.359  13.886 -0.2673  1.8377  1.0729
  926MPD2    H313608   0.552   1.240  13.792  2.8319  0.7521 -0.2729
  926MPD2     N13609   0.625   1.575  13.495  0.6557  0.5079 -0.2266
  926MPD2    H513610   0.690   1.517  13.445 -0.5431 -0.4773 -0.6423
  926MPD2    N113611   0.268   1.600  13.832 -0.2553 -0.0498  0.0024
  926MPD2    H713612   0.249   1.697  13.806 -0.3838 -0.1608 -0.3169
  927MPD2     C13613   4.230   3.644  17.473  0.1386  0.4620  0.8407
  927MPD2    C113614   4.342   3.670  17.553 -0.3730  0.9775 -0.5370
  927MPD2    C213615   4.467   3.643  17.491 -0.3746 -0.2854  0.8179
  927MPD2    C313616   4.486   3.609  17.354 -0.2202 -0.4072 -0.1705
  927MPD2    C413617   4.372   3.584  17.282  0.5327 -0.1626  0.4188
  927MPD2    C513618   4.248   3.602  17.344 -0.0802  0.2958  0.2798
  927MPD2     H13619   4.551   3.639  17.559  0.9066  1.2325 -0.6914
  927MPD2    H113620   4.377   3.563  17.176  0.9706  2.3261 -0.0616
  927MPD2    H213621   4.134   3.668  17.519  0.0078  0.1857  0.7106
  927MPD2    H313622   4.159   3.589  17.283  0.1553 -0.2201  0.0475
  927MPD2     N13623   4.618   3.612  17.300 -0.2049  0.6355 -0.1254
  927MPD2    H513624   4.687   3.657  17.359 -0.1818 -0.6492  0.8373
  927MPD2    N113625   4.324   3.712  17.687  0.6558  0.0648  0.7694
  927MPD2    H713626   4.226   3.727  17.709  0.4650  0.2151 -0.1915
  928MPD2     C13627   1.887   2.311   0.796  0.1482 -0.0128 -0.6042
  928MPD2    C113628   1.974   2.344   0.902 -0.3625  0.0540 -0.6130
  928MPD2    C213629   2.109   2.350   0.880  0.4289  0.2785  0.3556
  928MPD2    C313630   2.170   2.333   0.749 -0.5662  0.4422  0.5581
  928MPD2    C413631   2.080   2.288   0.651  1.1674 -0.2737 -0.0824
  928MPD2    C513632   1.941   2.281   0.678 -0.0102  0.3383 -0.6198
  928MPD2     H13633   2.167   2.381   0.966  1.8830 -0.8283 -0.2171
  928MPD2    H113634   2.110   2.270   0.549 -0.2670  1.0928 -0.7367
  928MPD2    H213635   1.781   2.311   0.817  0.5318  0.1746  1.3691
  928MPD2    H313636   1.877   2.254   0.595 -0.6900 -0.7074  0.2521
  928MPD2     N13637   2.305   2.355   0.721  0.6163  0.1255 -0.2702
  928MPD2    H513638   2.324   2.328   0.625  1.2507 -2.0003  0.4469
  928MPD2    N113639   1.924   2.389   1.029 -0.4788 -0.2132  0.0103
  928MPD2    H713640   1.983   2.443   1.091 -0.1663  0.6237 -1.0108
  929MPD2     C13641   2.376   2.400   9.985  0.0388 -0.3958 -0.0775
  929MPD2    C113642   2.416   2.284  10.050  0.5388  0.7549  0.4720
  929MPD2    C213643   2.333   2.173  10.042 -0.3720  0.8739  0.5575
  929MPD2    C313644   2.226   2.168   9.956  0.2649 -0.1287 -0.2898
  929MPD2    C413645   2.199   2.283   9.886  0.5984 -0.5385 -0.5010
  929MPD2    C513646   2.270   2.394   9.903  0.5214 -0.5325  0.1831
  929MPD2     H13647   2.368   2.075  10.074  0.2522 -0.1391 -3.2058
  929MPD2    H113648   2.109   2.283   9.825 -1.3780  0.5542  2.4001
  929MPD2    H213649   2.432   2.491   9.999  0.8538 -1.3633  2.8262
  929MPD2    H313650   2.236   2.488   9.861  0.3208 -0.6062  0.1807
  929MPD2     N13651   2.132   2.061   9.944 -0.1538  0.2878  0.0375
  929MPD2    H513652   2.055   2.076   9.880  0.6496 -0.2253 -1.0375
  929MPD2    N113653   2.545   2.281  10.110 -0.1408 -0.1355  0.1025
  929MPD2    H713654   2.584   2.374  10.121  1.4905 -0.7134 -0.7634
  930MPD2     C13655   4.326   3.884  14.483 -0.2481 -0.5516  0.3492
  930MPD2    C113656   4.423   3.982  14.467 -0.0116  0.4672  0.5745
  930MPD2    C213657   4.446   4.028  14.333  0.0415  0.6215 -0.4018
  930MPD2    C313658   4.374   3.969  14.226  0.6102  0.1405 -0.4806
  930MPD2    C413659   4.290   3.859  14.257  0.1013 -0.4704  0.7220
  930MPD2    C513660   4.273   3.814  14.382 -0.1426 -0.5653 -0.7828
  930MPD2     H13661   4.519   4.105  14.312 -2.0940  2.3271 -1.5625
  930MPD2    H113662   4.242   3.809  14.173  2.4503 -0.6546 -0.5167
  930MPD2    H213663   4.298   3.857  14.584  0.1207  1.9687  1.1185
  930MPD2    H313664   4.205   3.731  14.399  0.2085 -0.2844  2.0318
  930MPD2     N13665   4.391   4.005  14.089 -0.2091 -0.2199 -0.6322
  930MPD2    H513666   4.350   3.944  14.020  0.4105  0.2684 -1.4371
  930MPD2    N113667   4.494   4.030  14.577 -0.3942 -0.4989  0.4644
  930MPD2    H713668   4.492   3.982  14.666 -0.2138 -1.5210 -0.0749
  931MPD2     C13669   0.044   3.519   0.522  0.2744 -0.3373 -0.2178
  931MPD2    C113670   4.684   3.594   0.575 -0.3969 -0.7365  0.0449
  931MPD2    C213671   4.677   3.610   0.713 -0.6825  0.1141 -0.3021
  931MPD2    C313672   0.028   3.543   0.800  0.5090 -0.2142  0.3573
  931MPD2    C413673   0.130   3.475   0.738  0.8150  0.5987  0.4598
  931MPD2    C513674   0.138   3.460   0.603 -0.1958 -0.5223  0.2956
  931MPD2     H13675   4.587   3.651   0.758 -0.4039  0.8695 -0.4380
  931MPD2    H113676   0.203   3.421   0.799  1.5601  1.2309  0.1301
  931MPD2    H213677   0.060   3.504   0.416  0.4158 -0.4350 -0.1825
  931MPD2    H313678   0.217   3.402   0.558 -1.9506 -1.7330 -1.2376
  931MPD2     N13679   0.003   3.524   0.936  0.3071  0.6848  0.1975
  931MPD2    H513680   0.067   3.467   0.990  1.9627  1.5730 -0.8531
  931MPD2    N113681   4.586   3.650   0.487  0.6271 -0.0076  0.1900
  931MPD2    H713682   4.593   3.621   0.390  1.4580  2.0831 -0.3657
  932MPD2     C13683   1.830   2.462  11.298  0.4222  0.3990 -0.1761
  932MPD2    C113684   1.844   2.529  11.422  0.2976 -0.8706 -0.2172
  932MPD2    C213685   1.971   2.514  11.480  0.1502 -0.0268  0.0924
  932MPD2    C313686   2.076   2.454  11.419  0.8521  0.3346  0.5844
  932MPD2    C413687   2.056   2.387  11.298  0.0614 -0.5289  1.2679
  932MPD2    C513688   1.934   2.392  11.243 -0.1845  0.1839  0.5228
  932MPD2     H13689   1.990   2.565  11.574  3.4829 -1.3145  0.1289
  932MPD2    H113690   2.138   2.348  11.238 -1.0994 -1.8881  0.5642
  932MPD2    H213691   1.735   2.456  11.246 -0.3229  1.6156  1.0473
  932MPD2    H313692   1.903   2.345  11.150 -0.7777  0.5928  0.5171
  932MPD2     N13693   2.209   2.440  11.472 -0.1571  0.3263  0.1650
  932MPD2    H513694   2.255   2.356  11.439 -1.3888 -0.0343 -0.6463
  932MPD2    N113695   1.744   2.604  11.482  0.3369  0.0703 -0.0109
  932MPD2    H713696   1.776   2.658  11.562  0.2966 -0.6645  0.4901
  933MPD2     C13697   1.195   2.751   1.058 -0.5330  0.0449 -0.2074
  933MPD2    C113698   1.310   2.800   1.117 -0.0215 -0.6418 -0.1222
  933MPD2    C213699   1.328   2.941   1.117  0.2593  0.7758 -0.2494
  933MPD2    C313700   1.237   3.031   1.077  0.9621  0.0327  0.3499
  933MPD2    C413701   1.114   2.977   1.036 -0.3191  0.2063  0.0400
  933MPD2    C513702   1.096   2.843   1.016  0.3796  0.4036 -0.1430
  933MPD2     H13703   1.426   2.976   1.149 -0.7031  3.0130  0.2185
  933MPD2    H113704   1.036   3.043   0.999 -0.7854 -0.5836 -0.3843
  933MPD2    H213705   1.178   2.645   1.049 -0.4453 -0.0862  1.1385
  933MPD2    H313706   1.005   2.807   0.971  1.5387  0.7007 -2.7122
  933MPD2     N13707   1.264   3.171   1.090 -0.1833  0.1144  0.2145
  933MPD2    H513708   1.362   3.185   1.112 -0.3979  0.7374  0.7776
  933MPD2    N113709   1.392   2.702   1.171 -0.1000  0.6428  0.9412
  933MPD2    H713710   1.365   2.605   1.160 -3.0288  1.5350  0.2121
  934MPD2     C13711   3.598   0.848   1.413 -0.1529 -0.0180  0.0606
  934MPD2    C113712   3.672   0.739   1.387  0.4008  0.3536  0.0251
  934MPD2    C213713   3.620   0.620   1.367  0.2551  0.0349  0.3957
  934MPD2    C313714   3.484   0.611   1.386  0.2193  0.2768 -0.3670
  934MPD2    C413715   3.402   0.716   1.408 -0.1332 -0.2033 -0.2148
  934MPD2    C513716   3.464   0.837   1.426 -0.2274 -0.4992 -0.3593
  934MPD2     H13717   3.685   0.539   1.337 -0.1273 -0.5223  1.0683
  934MPD2    H113718   3.295   0.704   1.417 -0.3979  1.2442 -1.3659
  934MPD2    H213719   3.633   0.946   1.443  0.8115 -0.7947  1.4851
  934MPD2    H313720   3.408   0.928   1.447 -1.1906 -0.9061 -1.1727
  934MPD2     N13721   3.412   0.494   1.352  0.3985 -0.1098  0.2175
  934MPD2    H513722   3.311   0.504   1.354  0.4845  0.9790 -1.0246
  934MPD2    N113723   3.811   0.746   1.393  0.2171 -0.0439 -0.1459
  934MPD2    H713724   3.864   0.660   1.383 -0.9278 -0.5538 -1.7878
  935MPD2     C13725   3.564   4.287   1.604  0.4051  0.3273  0.6149
  935MPD2    C113726   3.506   4.282   1.483  0.6783  0.1739 -0.0164
  935MPD2    C213727   3.449   4.396   1.429 -0.0869  0.0631 -0.4449
  935MPD2    C313728   3.458   4.524   1.495 -0.4343  0.5821 -0.2108
  935MPD2    C413729   3.525   4.523   1.616 -0.2856  0.5587 -0.9936
  935MPD2    C513730   3.575   4.407   1.670  0.3846 -0.0060  0.1369
  935MPD2     H13731   3.384   4.389   1.341 -0.0696  1.0198 -0.5242
  935MPD2    H113732   3.536   4.610   1.680  2.9662  0.5653 -1.5609
  935MPD2    H213733   3.617   4.210   1.658  1.0705 -0.8521 -1.7165
  935MPD2    H313734   3.622   4.412   1.767  2.6026 -3.2863 -0.7627
  935MPD2     N13735   3.393   4.643   1.450  0.1815 -0.6174  0.0810
  935MPD2    H513736   3.423   4.731   1.489  1.5588 -2.2896  2.8182
  935MPD2    N113737   3.490   4.157   1.411 -0.3571 -0.6545  0.1529
  935MPD2    H713738   3.444   4.167   1.321 -0.9778  0.9107  0.6504
  936MPD2     C13739   2.476   0.527  12.818  0.6587  0.2943  0.4072
  936MPD2    C113740   2.438   0.648  12.777  0.6109 -0.0571  0.1410
  936MPD2    C213741   2.524   0.727  12.702  0.1506 -0.0093  0.8202
  936MPD2    C313742   2.654   0.693  12.672  0.0010 -0.4362  0.2573
  936MPD2    C413743   2.691   0.567  12.711  0.3688 -0.7613 -0.4311
  936MPD2    C513744   2.599   0.485  12.773 -0.3421 -0.5567  0.8494
  936MPD2     H13745   2.496   0.825  12.664  0.2626 -0.7217 -1.0640
  936MPD2    H113746   2.792   0.536  12.685  0.7588 -1.7536  2.2067
  936MPD2    H213747   2.407   0.460  12.867  2.8919 -2.4026 -0.1153
  936MPD2    H313748   2.618   0.379  12.783  2.5608 -0.1255  0.0208
  936MPD2     N13749   2.740   0.784  12.601 -0.4019 -0.0014  0.2975
  936MPD2    H513750   2.699   0.871  12.571  1.5852  0.7816 -0.1471
  936MPD2    N113751   2.309   0.701  12.809  0.3159  0.6964  0.0903
  936MPD2    H713752   2.283   0.787  12.763  1.0193  0.6324 -0.4380
  937MPD2     C13753   0.269   2.431  11.709 -0.2574 -0.4537  0.3169
  937MPD2    C113754   0.223   2.558  11.734  0.2109 -0.2130 -0.1604
  937MPD2    C213755   0.236   2.641  11.623  0.6853  0.1598  0.0061
  937MPD2    C313756   0.316   2.615  11.515 -0.2020  0.4017 -0.5247
  937MPD2    C413757   0.356   2.487  11.496  0.4903 -0.3140 -0.0019
  937MPD2    C513758   0.329   2.397  11.594  0.3710  0.3220 -0.7369
  937MPD2     H13759   0.204   2.744  11.635  1.1301  0.4324 -1.1321
  937MPD2    H113760   0.407   2.453  11.406  0.8801  0.1930  0.0306
  937MPD2    H213761   0.251   2.351  11.780  0.4043 -1.7988 -1.0183
  937MPD2    H313762   0.358   2.293  11.586  0.9179  0.3704  0.7180
  937MPD2     N13763   0.338   2.719  11.420  0.1132 -0.4680 -0.3506
  937MPD2    H513764   0.310   2.813  11.445 -1.4956 -0.3483 -2.5409
  937MPD2    N113765   0.132   2.590  11.833  0.6413  0.1390  0.2648
  937MPD2    H713766   0.076   2.670  11.806  0.8637  0.0903 -0.3301
  938MPD2     C13767   2.681   4.025   0.909 -0.5961  0.3447  0.3460
  938MPD2    C113768   2.566   4.096   0.923 -0.4243 -0.0278 -0.3019
  938MPD2    C213769   2.484   4.074   1.033  0.4565  0.2172  0.0543
  938MPD2    C313770   2.525   3.982   1.128  0.1787 -0.0200  0.8113
  938MPD2    C413771   2.638   3.909   1.113  0.2152 -0.6298  0.8637
  938MPD2    C513772   2.715   3.928   1.002  0.4305 -0.4557 -0.2904
  938MPD2     H13773   2.399   4.140   1.048  0.2301  0.1912 -1.0795
  938MPD2    H113774   2.686   3.857   1.195 -0.0728 -0.3473  1.2105
  938MPD2    H213775   2.753   4.036   0.829 -0.7805 -0.3161  0.0880
  938MPD2    H313776   2.809   3.874   0.999  1.3502  1.0991  0.3162
  938MPD2     N13777   2.466   3.975   1.257  0.1766 -0.1159  0.5168
  938MPD2    H513778   2.514   3.932   1.336  0.3660  1.3824  1.2303
  938MPD2    N113779   2.548   4.215   0.844  0.8374 -0.2899  0.1220
  938MPD2    H713780   2.473   4.279   0.867  0.0128 -0.5908 -1.7691
  939MPD2     C13781   4.151   0.181   0.605  0.0290  0.0156  0.3025
  939MPD2    C113782   4.051   0.187   0.515 -0.5420  0.6644  0.3514
  939MPD2    C213783   4.067   0.112   0.401  0.7671 -0.1079 -0.9807
  939MPD2    C313784   4.181   0.033   0.380  0.5124 -0.0908 -0.1517
  939MPD2    C413785   4.287   0.037   0.478  0.5539 -0.4458  0.8068
  939MPD2    C513786   4.268   0.116   0.592 -0.2770  0.0074  0.2332
  939MPD2     H13787   3.987   0.097   0.330  1.2185  0.6077 -1.6519
  939MPD2    H113788   4.380   4.721   0.460 -0.7139 -2.3726  0.1265
  939MPD2    H213789   4.147   0.229   0.702  0.0169 -1.3095  0.9627
  939MPD2    H313790   4.348   0.120   0.665  2.1565 -0.6602 -2.4325
  939MPD2     N13791   4.199   4.704   0.256  0.7480  0.5307 -0.3267
  939MPD2    H513792   4.129   4.714   0.184  1.9087  2.7911 -1.1365
  939MPD2    N113793   3.943   0.273   0.542 -0.1638 -0.2872 -0.2276
  939MPD2    H713794   3.927   0.310   0.635 -1.9428 -0.7846 -0.3318
  940MPD2     C13795   3.122   0.623  13.538  0.8701  0.0290 -0.1198
  940MPD2    C113796   3.003   0.647  13.477  0.0747  0.3657  0.4344
  940MPD2    C213797   2.992   0.633  13.337 -0.6858  0.0220 -0.0196
  940MPD2    C313798   3.105   0.606  13.262  0.6134 -0.4156 -1.0626
  940MPD2    C413799   3.226   0.576  13.327  0.5501  0.1826  0.5539
  940MPD2    C513800   3.235   0.581  13.464  0.3643  0.9911  0.4497
  940MPD2     H13801   2.900   0.653  13.284  0.0891  1.4951 -0.8090
  940MPD2    H113802   3.317   0.541  13.280  0.6411 -0.9281  1.5541
  940MPD2    H213803   3.142   0.659  13.639 -1.2535 -3.0987  1.4200
  940MPD2    H313804   3.324   0.562  13.522  0.0413  1.0275  0.9569
  940MPD2     N13805   3.101   0.593  13.125  0.2703 -0.1097 -0.0018
  940MPD2    H513806   3.014   0.601  13.072 -1.1531  0.7694  2.4699
  940MPD2    N113807   2.894   0.691  13.550 -0.0179 -0.3791  0.1193
  940MPD2    H713808   2.815   0.727  13.497 -2.3229 -0.2311  3.6430
  941MPD2     C13809   2.283   0.547  10.702 -0.2829  0.3504  0.2286
  941MPD2    C113810   2.170   0.620  10.673  0.8474 -0.0048  0.6822
  941MPD2    C213811   2.043   0.584  10.711  0.3214  0.1657 -0.3627
  941MPD2    C313812   2.030   0.460  10.763  0.5654  0.0760  0.2405
  941MPD2    C413813   2.141   0.379  10.791  0.0476  0.4259 -0.1371
  941MPD2    C513814   2.264   0.425  10.764 -0.2214 -0.0269  0.3814
  941MPD2     H13815   1.963   0.652  10.686  2.0052  1.4088 -2.3587
  941MPD2    H113816   2.125   0.284  10.841 -0.7282 -0.6388 -2.4170
  941MPD2    H213817   2.385   0.579  10.685 -0.9359  3.1241  1.6539
  941MPD2    H313818   2.350   0.364  10.791  1.0347  0.5491 -2.2751
  941MPD2     N13819   1.906   0.402  10.790 -0.2849 -0.8070 -0.2845
  941MPD2    H513820   1.909   0.302  10.808  1.1023 -1.0031 -1.5635
  941MPD2    N113821   2.177   0.741  10.606  0.9846  0.8485 -0.0846
  941MPD2    H713822   2.097   0.802  10.619  0.4493 -0.1745  1.4208
  942MPD2     C13823   2.234   1.820   9.733 -0.4508 -0.5887 -0.0635
  942MPD2    C113824   2.244   1.699   9.675  0.6305  0.1584  0.5362
  942MPD2    C213825   2.324   1.689   9.557  0.4652  0.6819  0.0047
  942MPD2    C313826   2.405   1.793   9.507  0.0861  0.8176  0.1427
  942MPD2    C413827   2.401   1.908   9.573 -0.2574  0.7172  0.1781
  942MPD2    C513828   2.311   1.919   9.680  0.3578 -0.4051  0.3947
  942MPD2     H13829   2.340   1.589   9.519  0.2733  1.0106 -0.9290
  942MPD2    H113830   2.456   1.994   9.539  0.9830  0.6690  2.0859
  942MPD2    H213831   2.160   1.838   9.811  1.0412  0.4191  1.1163
  942MPD2    H313832   2.306   2.020   9.719  0.5731  0.0946 -0.8730
  942MPD2     N13833   2.501   1.776   9.409 -0.0854 -0.2506  0.1948
  942MPD2    H513834   2.560   1.854   9.382  0.8353 -1.3194 -0.8683
  942MPD2    N113835   2.169   1.584   9.719 -0.3055  0.0830  0.0835
  942MPD2    H713836   2.205   1.494   9.689 -1.1035 -0.7025  1.5016
  943MPD2     C13837   0.832   0.635  10.196  0.2493 -0.0179  0.2819
  943MPD2    C113838   0.760   0.530  10.228  0.1056  0.2682  0.8221
  943MPD2    C213839   0.712   0.516  10.354 -0.1980  0.3628 -0.0431
  943MPD2    C313840   0.748   0.611  10.452 -0.2196  0.1214 -0.3181
  943MPD2    C413841   0.825   0.721  10.418 -0.0092 -0.4809 -0.2700
  943MPD2    C513842   0.866   0.731  10.289  0.8902  0.2384  0.3587
  943MPD2     H13843   0.654   0.429  10.384  0.1419 -0.3415 -1.3844
  943MPD2    H113844   0.840   0.807  10.483  3.5223 -1.1496 -0.1708
  943MPD2    H213845   0.860   0.658  10.094 -1.1876  1.3878  0.2041
  943MPD2    H313846   0.914   0.821  10.251 -0.5359  0.6314 -0.5191
  943MPD2     N13847   0.710   0.615  10.590  0.2827  0.4815  0.3521
  943MPD2    H513848   0.750   0.687  10.649  2.6552 -0.8143  0.3130
  943MPD2    N113849   0.736   0.449  10.114 -0.2457  0.3316  0.1785
  943MPD2    H713850   0.761   0.484  10.022  0.8402 -2.0442 -0.4235
  944MPD2     C13851   0.573   4.516  11.214  0.4716 -0.0485  0.2331
  944MPD2    C113852   0.501   4.463  11.316  0.0718 -0.2818  0.0669
  944MPD2    C213853   0.479   4.528  11.438  0.3236 -0.6468 -0.4048
  944MPD2    C313854   0.504   4.660  11.448 -0.2923  0.6652  0.8355
  944MPD2    C413855   0.577   4.724  11.340 -0.4430 -0.1996  0.3887
  944MPD2    C513856   0.611   4.652  11.227  0.0748 -0.9334  0.2526
  944MPD2     H13857   0.434   4.477  11.522 -0.8142  2.2070  0.7096
  944MPD2    H113858   0.585   0.094  11.327  3.1202 -0.4650  0.3974
  944MPD2    H213859   0.590   4.463  11.121  0.0210 -0.5236  0.4196
  944MPD2    H313860   0.672   4.700  11.152 -0.2860  0.2646  0.7323
  944MPD2     N13861   0.458   4.731  11.563  0.0673  0.2418  0.2227
  944MPD2    H513862   0.420   4.671  11.636 -0.2437  0.5627  0.3244
  944MPD2    N113863   0.463   4.332  11.283  0.0914 -0.6058  0.6653
  944MPD2    H713864   0.503   4.306  11.194 -2.0598  0.6759 -0.6628
    1TMC1    C113865   4.161   1.182  14.809 -0.2031 -0.6198 -0.2412
    1TMC1    C213866   4.254   1.258  14.866 -0.0729 -0.7673 -0.2739
    1TMC1    C313867   4.294   1.216  14.993  0.2779 -0.0818  0.0216
    1TMC1    C413868   4.095   1.083  14.882  0.3045  0.7531  0.3028
    1TMC1    C513869   4.137   1.055  15.011 -0.1471  0.2651 -0.8023
    1TMC1    C613870   4.241   1.119  15.072  1.2090  0.7474  0.4637
    1TMC1     C13871   4.102   1.233  14.691 -0.0101 -0.1017  0.2903
    1TMC1     O13872   4.166   1.296  14.608  0.0904  0.5481 -0.0421
    1TMC1     H13873   4.308   1.334  14.811  0.8634 -1.9916 -1.0749
    1TMC1    H113874   4.035   1.007  14.832  0.8938  0.5006 -0.0285
    1TMC1    H213875   4.280   1.094  15.170 -1.4964  1.9185  1.8349
    1TMC1    C713876   4.102   0.927  15.071 -0.6275 -0.7813  0.0896
    1TMC1    C813877   4.409   1.273  15.055 -0.6222 -0.3843 -0.0585
    1TMC1    O113878   3.991   0.890  15.039 -0.3638 -0.0143 -0.0503
    1TMC1    O213879   4.419   1.268  15.178  0.1065  0.5417 -0.0944
    1TMC1    O313880   4.208   0.838  15.074 -0.2036 -0.2454 -0.4867
    1TMC1    H313881   4.293   0.885  15.088 -0.1286 -0.9043  1.2335
    1TMC1    O513882   4.509   1.241  14.972 -0.2332 -0.7263 -0.5570
    1TMC1    H513883   4.483   1.236  14.878 -1.5273 -0.7627 -0.1942
    2MPD2     C13884   3.694   1.260  14.381  0.3172 -1.0541  0.1736
    2MPD2    C113885   3.649   1.236  14.512  0.0808  0.3033  0.1389
    2MPD2    C213886   3.737   1.222  14.617 -0.1033 -0.1831  0.1769
    2MPD2    C313887   3.873   1.231  14.597  1.0381  0.1216  0.4074
    2MPD2    C413888   3.916   1.252  14.470 -0.2808  0.1579 -0.0535
    2MPD2    C513889   3.833   1.260  14.362  0.4941 -0.4756  0.5348
    2MPD2     H13890   3.704   1.205  14.719  0.3373 -0.5015  0.2676
    2MPD2    H113891   4.022   1.246  14.447 -0.1942  0.3030  0.3147
    2MPD2    H213892   3.631   1.251  14.293 -0.8691  1.9115  0.6996
    2MPD2    H313893   3.874   1.270  14.262  2.3919 -2.2832  1.1385
    2MPD2     N13894   3.963   1.223  14.708 -0.3208 -0.0591 -0.3223
    2MPD2    H513895   3.926   1.205  14.801  1.6343  1.9324  0.8571
    2MPD2    N113896   3.512   1.215  14.527  0.1138 -0.1446 -0.6175
    2MPD2    H713897   3.459   1.233  14.442  0.9995 -0.6659 -1.2758
    3TMC2    C113898   3.307   1.165  14.617 -0.1022 -0.3806  0.0466
    3TMC2    C213899   3.234   1.160  14.739 -0.0409  0.0730  0.6285
    3TMC2    C313900   3.110   1.105  14.724  0.3024 -0.6681  0.3850
    3TMC2    C413901   3.257   1.131  14.495 -0.4125 -0.0242  0.2298
    3TMC2    C513902   3.128   1.088  14.491  0.3923  0.2208  0.0529
    3TMC2    C613903   3.055   1.069  14.602  0.2919 -0.2587 -0.0931
    3TMC2     C13904   3.442   1.198  14.639  0.5832 -1.1198  0.0357
    3TMC2     O13905   3.485   1.185  14.755  0.4298  0.3849 -0.4133
    3TMC2     H13906   3.273   1.213  14.825 -0.1234  1.6535 -0.2835
    3TMC2    H113907   3.322   1.139  14.409 -0.9350 -1.8856 -0.3494
    3TMC2    H213908   2.954   1.030  14.592  0.1369  1.3797 -4.9020
    3TMC2    C713909   3.053   1.114  14.368  0.0211 -0.2016 -0.4628
    3TMC2    C813910   3.030   1.077  14.842  0.5311 -0.7774 -0.2932
    3TMC2    O113911   2.948   1.053  14.361 -0.4920 -0.0777 -0.3718
    3TMC2    O213912   2.912   1.058  14.835 -0.6098  0.1802 -0.0132
    3TMC2    O513913   3.096   1.120  14.949  0.4467  0.4210  0.0240
    3TMC2    H513914   3.190   1.097  14.931  0.7087  0.0568  1.8523
    4TMC2    C113915   3.479   1.539  13.571  0.0083 -0.5546 -0.2526
    4TMC2    C213916   3.527   1.667  13.585 -0.3529  0.5974 -0.2198
    4TMC2    C313917   3.522   1.723  13.710 -0.3138 -0.0314 -0.6090
    4TMC2    C413918   3.415   1.471  13.674 -0.3120  0.8110  0.2089
    4TMC2    C513919   3.396   1.536  13.788  0.3257 -0.5698  0.3240
    4TMC2    C613920   3.456   1.655  13.813  0.2327  0.1256  0.0724
    4TMC2     C13921   3.493   1.468  13.450 -0.1773  0.0371 -0.0662
    4TMC2     O13922   3.597   1.484  13.387  0.2653  0.1851 -0.6014
    4TMC2     H13923   3.589   1.703  13.503  1.6038  0.8412  1.3498
    4TMC2    H113924   3.371   1.372  13.671  0.2048  0.5464  1.3191
    4TMC2    H213925   3.435   1.705  13.907  3.9432 -0.9596  1.4891
    4TMC2    C713926   3.316   1.482  13.893 -0.3512  0.5532 -0.4437
    4TMC2    C813927   3.597   1.841  13.732  0.0119  0.5838 -0.5524
    4TMC2    O113928   3.336   1.535  14.006  0.0302 -0.0996 -0.1128
    4TMC2    O213929   3.603   1.936  13.657  0.1740 -0.2311  0.0729
    4TMC2    O513930   3.654   1.831  13.854 -0.4019 -0.0129 -0.1941
    4TMC2    H513931   3.678   1.738  13.872 -1.3389 -0.1773  0.1956
    5MPD2     C13932   3.238   1.317  13.031 -0.3318 -0.1730 -0.5226
    5MPD2    C113933   3.148   1.319  13.135 -0.0874 -0.3257 -0.2423
    5MPD2    C213934   3.201   1.358  13.257  0.2671  0.7679  0.9992
    5MPD2    C313935   3.339   1.363  13.282  0.2236  0.4703 -0.6737
    5MPD2    C413936   3.427   1.333  13.184  0.0136  0.4623 -0.2736
    5MPD2    C513937   3.374   1.315  13.055  0.7605 -0.3261  0.3161
    5MPD2     H13938   3.126   1.384  13.331 -1.1005 -2.5097  0.7946
    5MPD2    H113939   3.534   1.334  13.201 -0.2758 -0.0920  1.5483
    5MPD2    H213940   3.220   1.299  12.926 -0.6591 -2.4941 -0.0668
    5MPD2    H313941   3.433   1.286  12.969  0.1793 -0.0794 -0.1666
    5MPD2     N13942   3.374   1.418  13.410  0.0228 -0.3235 -0.9344
    5MPD2    H513943   3.293   1.435  13.469  1.3222 -0.7720  0.9801
    5MPD2    N113944   3.007   1.310  13.100 -0.4108  0.4274 -0.4309
    5MPD2    H713945   2.982   1.288  13.005 -0.0811  0.7465 -0.5913
    6MPD1     C13946   2.699   3.001  13.609  0.0293  0.1351  0.3419
    6MPD1    C113947   2.682   3.002  13.473 -0.3370 -0.5717  0.2816
    6MPD1    C213948   2.625   2.887  13.413  0.1338  0.0141 -0.1742
    6MPD1    C313949   2.622   2.770  13.485 -0.6026 -0.0272 -0.0082
    6MPD1    C413950   2.666   2.765  13.617 -0.6315 -0.0661 -0.3382
    6MPD1    C513951   2.691   2.887  13.681 -0.6829 -0.2854  1.2176
    6MPD1     H13952   2.607   2.879  13.307  1.8849  4.8152 -0.8731
    6MPD1    H113953   2.672   2.680  13.684 -0.1599  1.4588  1.5768
    6MPD1    H213954   2.743   3.082  13.666 -2.3030  3.0343 -1.9530
    6MPD1    H313955   2.715   2.887  13.787  0.6018 -2.6417  0.9327
    6MPD1     N13956   2.591   2.646  13.425  0.1056 -0.4903  0.3422
    6MPD1    H513957   2.589   2.570  13.493 -2.1910  0.4115  1.3029
    6MPD1    N113958   2.683   3.127  13.407  0.1894 -0.0130  0.0311
    6MPD1    H613959   2.740   3.197  13.455 -1.3798  0.3629  1.3899
    6MPD1    H713960   2.710   3.115  13.310  3.1753 -2.1007  1.1296
    7MPD2     C13961   2.549   1.895  13.579  0.3149  0.7610  0.0571
    7MPD2    C113962   2.518   1.909  13.444 -0.2759 -0.7629 -0.4088
    7MPD2    C213963   2.493   1.806  13.361  0.2058 -0.6510  0.2981
    7MPD2    C313964   2.515   1.676  13.404 -0.1492 -0.1490 -0.4628
    7MPD2    C413965   2.542   1.656  13.537 -0.0949 -0.4040  0.7420
    7MPD2    C513966   2.555   1.769  13.621  0.0072 -0.6485 -0.3754
    7MPD2     H13967   2.473   1.825  13.257  0.9161 -0.3600  0.2145
    7MPD2    H113968   2.557   1.561  13.587 -1.0117 -1.3959 -0.8679
    7MPD2    H213969   2.554   1.979  13.647 -1.1334  1.1058 -0.2621
    7MPD2    H313970   2.572   1.758  13.728 -2.2755  0.7026  0.1065
    7MPD2     N13971   2.489   1.573  13.307 -0.2950 -0.4172 -0.3022
    7MPD2    H513972   2.479   1.604  13.211 -2.3564 -0.2704 -0.0467
    7MPD2    N113973   2.503   2.032  13.379 -0.2418  0.5862 -0.5136
    7MPD2    H713974   2.478   2.042  13.280 -2.5564  0.2033  0.0198
    8TMC3    C113975   2.544   1.373  13.203 -0.3073 -0.4578  0.7929
    8TMC3    C213976   2.661   1.304  13.222 -0.1076  0.1049 -0.0536
    8TMC3    C313977   2.766   1.340  13.137  0.4174  0.4522 -0.4818
    8TMC3    C413978   2.524   1.447  13.088 -0.8207 -0.4192  0.9483
    8TMC3    C513979   2.634   1.494  13.024  0.2784  0.2029 -0.6442
    8TMC3    C613980   2.755   1.438  13.041  0.0070  0.1055  0.3018
    8TMC3     C13981   2.504   1.437  13.329 -0.1448 -0.2807  0.0448
    8TMC3     O13982   2.518   1.379  13.434 -0.0831  0.4986 -0.5791
    8TMC3     H13983   2.683   1.256  13.316 -2.0799 -0.7217 -0.0365
    8TMC3    H113984   2.425   1.485  13.064  0.4477  2.2735 -0.0205
    8TMC3    H213985   2.842   1.479  12.992  0.9740 -2.1904  0.1009
    8TMC3    C713986   2.642   1.636  12.994  0.7509  0.0065  1.0095
    8TMC3    C813987   2.903   1.327  13.192 -0.2200 -0.2307  0.0335
    8TMC3    O113988   2.548   1.693  13.053  0.1888 -0.0681 -0.5770
    8TMC3    O213989   2.912   1.337  13.315  0.1687  0.5575  0.0388
    9TMC3    C113990   2.565   2.476  13.265 -0.0311 -0.0665  0.4623
    9TMC3    C213991   2.625   2.435  13.155  0.4020 -0.3170 -0.0779
    9TMC3    C313992   2.637   2.305  13.124 -0.1416 -0.6437 -0.2414
    9TMC3    C413993   2.519   2.390  13.358 -0.2696  0.1505 -0.3560
    9TMC3    C513994   2.536   2.254  13.329  0.4610 -0.5184 -0.3451
    9TMC3    C613995   2.597   2.209  13.215 -0.7596 -0.4215  0.4652
    9TMC3     C13996   2.572   2.616  13.290 -0.5142 -0.2303  0.1567
    9TMC3     O13997   2.568   2.692  13.195 -0.6536  0.2057  0.8260
    9TMC3     H13998   2.674   2.504  13.087  3.6127 -2.7375 -0.2296
    9TMC3    H113999   2.488   2.427  13.455  1.2097 -2.4332  1.1111
    9TMC3    H214000   2.621   2.106  13.193  0.7362 -0.6527  3.1231
    9TMC3    C714001   2.502   2.156  13.437 -0.2200  0.4394  0.5444
    9TMC3    C814002   2.680   2.269  12.991  0.6299  0.5972 -0.0260
    9TMC3    O114003   2.505   2.196  13.552 -0.2089 -0.2330 -0.5085
    9TMC3    O214004   2.760   2.345  12.937  0.7748 -0.4259  0.1584
   10MPD2     C14005   2.824   1.849  12.743 -0.2176  0.6425 -0.4989
   10MPD2    C114006   2.743   1.811  12.850 -0.1064 -0.1306 -0.1605
   10MPD2    C214007   2.680   1.911  12.919 -0.1646 -0.7945  0.4844
   10MPD2    C314008   2.707   2.039  12.891 -0.6101 -0.0927 -0.4201
   10MPD2    C414009   2.798   2.078  12.790 -0.0356 -0.4708 -0.4415
   10MPD2    C514010   2.852   1.980  12.710  0.3309  0.2785 -0.8068
   10MPD2     H14011   2.615   1.892  13.004  0.7322 -0.8131  1.1650
   10MPD2    H114012   2.802   2.182  12.761 -3.6994  0.3137  1.7859
   10MPD2    H214013   2.864   1.768  12.683  0.9392 -0.8056  2.2266
   10MPD2    H314014   2.899   2.010  12.616  2.3952  0.5153  0.2878
   10MPD2     N14015   2.647   2.141  12.967  0.0287 -0.4270 -0.0847
   10MPD2    H514016   2.574   2.108  13.028 -1.7959  1.5615 -1.1829
   10MPD2    N114017   2.720   1.671  12.888  0.2627 -0.6001 -0.3109
   10MPD2    H714018   2.777   1.606  12.835 -0.4782 -0.0741 -1.7529
   11MPD2     C14019   2.979   1.146  14.088  0.0070  0.0118  0.1992
   11MPD2    C114020   3.087   1.215  14.145  0.3383 -0.1486  0.0393
   11MPD2    C214021   3.160   1.301  14.068 -0.0423 -0.3998 -0.9491
   11MPD2    C314022   3.124   1.321  13.943  0.3861 -0.3547  0.1268
   11MPD2    C414023   3.022   1.244  13.885  0.3503  0.0398 -0.1496
   11MPD2    C514024   2.949   1.151  13.956 -0.5768  0.2355  0.6143
   11MPD2     H14025   3.247   1.349  14.111 -0.7633  1.1731 -1.2427
   11MPD2    H114026   2.997   1.270  13.783 -0.1000  1.3207  0.2894
   11MPD2    H214027   2.916   1.079  14.146  0.1367 -0.7818 -0.5792
   11MPD2    H314028   2.874   1.089  13.907 -1.2680  0.9600  0.7523
   11MPD2     N14029   3.214   1.397  13.852  0.7263  0.5266 -0.2337
   11MPD2    H514030   3.198   1.373  13.755 -0.5060 -0.2697  0.1659
   11MPD2    N114031   3.121   1.199  14.283 -0.3491 -0.4527  0.0878
   11MPD2    H714032   3.197   1.249  14.327  1.1168 -0.1223 -2.8464
    1MPD1     C14033   2.073   2.512  17.349 -0.1777  0.0111  0.3042
    1MPD1    C114034   2.044   2.535  17.481 -0.1112 -0.7141  0.4340
    1MPD1    C214035   1.916   2.542  17.522  0.0341 -0.0256 -0.2195
    1MPD1    C314036   1.810   2.517  17.428 -0.2731 -0.1903 -0.1267
    1MPD1    C414037   1.844   2.506  17.294 -0.2660  0.6910  0.5599
    1MPD1    C514038   1.976   2.503  17.253  0.6133  0.5077 -0.4756
    1MPD1     H14039   1.895   2.542  17.628 -2.0586 -0.3496 -0.6340
    1MPD1    H114040   1.767   2.519  17.219 -2.6589  0.0823  2.8663
    1MPD1    H214041   2.175   2.512  17.313 -0.2449 -1.0422  0.1105
    1MPD1    H314042   2.002   2.488  17.149  0.8101 -1.0632 -0.1881
    1MPD1     N14043   1.670   2.532  17.460  0.6009 -0.0933  0.0598
    1MPD1    H514044   1.603   2.521  17.384  0.5560 -1.0626  0.2378
    1MPD1    N114045   2.140   2.519  17.580 -0.3629 -0.1115 -0.2188
    1MPD1    H614046   2.232   2.552  17.551  0.0350 -0.7918  0.2782
    1MPD1    H714047   2.119   2.563  17.669  1.4567  0.4824 -0.0699
    2MPD1     C14048   1.107   2.760  16.882 -0.4252 -0.0700 -0.2983
    2MPD1    C114049   1.218   2.678  16.890  0.6206  0.1817 -0.1830
    2MPD1    C214050   1.265   2.640  17.020 -0.2383  0.4563 -0.1352
    2MPD1    C314051   1.198   2.679  17.134 -0.4804 -0.3321  0.8500
    2MPD1    C414052   1.103   2.777  17.121  0.2962 -0.7938 -0.1268
    2MPD1    C514053   1.051   2.803  16.999  0.7490  0.3153 -0.2813
    2MPD1     H14054   1.347   2.572  17.037 -1.1010 -0.8755 -1.3502
    2MPD1    H114055   1.066   2.818  17.215 -1.1282  0.1347 -1.1024
    2MPD1    H214056   1.074   2.806  16.790 -0.6810 -1.2158 -0.7818
    2MPD1    H314057   0.971   2.877  16.999 -0.7634 -1.3395  0.5924
    2MPD1     N14058   1.247   2.629  17.258 -1.5533  0.4874 -0.2378
    2MPD1    H514059   1.330   2.571  17.249 -0.9544  1.2915  0.0926
    2MPD1    N114060   1.263   2.611  16.776  0.3667  0.4448 -0.1317
    2MPD1    H614061   1.241   2.663  16.692  1.6519  1.4655  0.1587
    2MPD1    H714062   1.365   2.602  16.776  0.3375  0.0346  1.3368
    3TMC3    C114063   1.275   2.609  17.490 -0.7956 -0.3626 -0.1675
    3TMC3    C214064   1.212   2.629  17.613 -0.1527  0.0417 -0.0515
    3TMC3    C314065   1.293   2.613  17.726 -0.1681 -0.3262  0.0455
    3TMC3    C414066   1.413   2.610  17.480  0.2129 -0.7462  0.0780
    3TMC3    C514067   1.480   2.592  17.594 -0.5675  0.4842 -0.0363
    3TMC3    C614068   1.429   2.596  17.721 -0.0020 -0.7633 -0.1443
    3TMC3     C14069   1.189   2.651  17.382  0.3797  0.6823  0.5597
    3TMC3     O14070   1.088   2.714  17.410 -0.0948 -0.6567  0.4641
    3TMC3     H14071   1.104   2.634  17.617 -0.1609 -0.3516  0.2316
    3TMC3    H114072   1.455   2.604  17.380 -0.1915 -0.8492 -0.0856
    3TMC3    H214073   1.490   2.566   0.055 -1.5737 -1.2344  0.8046
    3TMC3    C714074   1.622   2.562  17.590 -0.3087  0.4491  0.2831
    3TMC3    C814075   1.227   2.578   0.094  0.8764  1.4158  0.4441
    3TMC3    O114076   1.688   2.597  17.693 -0.1491  0.4439 -0.5296
    3TMC3    O214077   1.274   2.490   0.165  0.1014 -0.2720 -0.3126
    4MPD1     C14078   0.809   2.627   0.401  0.4694  0.0302 -0.2215
    4MPD1    C114079   0.789   2.708   0.289 -0.6880  0.0527  0.1223
    4MPD1    C214080   0.897   2.724   0.198  0.0316 -0.3325 -0.5267
    4MPD1    C314081   1.009   2.640   0.199 -0.1724 -0.3126  0.0225
    4MPD1    C414082   1.017   2.550   0.297  0.1206 -0.7231  0.4267
    4MPD1    C514083   0.927   2.548   0.398 -0.6055 -0.1061 -0.3858
    4MPD1     H14084   0.905   2.795   0.117 -0.0493  1.5629  1.1325
    4MPD1    H114085   1.098   2.478   0.304 -0.3040 -1.2406  0.0176
    4MPD1    H214086   0.735   2.606   0.478 -1.4043  2.7154 -1.2933
    4MPD1    H314087   0.942   2.471   0.473  0.8287 -1.1914 -1.7820
    4MPD1     N14088   1.109   2.653   0.102  0.6465  0.1404 -0.4700
    4MPD1    H514089   1.098   2.728   0.035  1.0520  0.2051 -0.4653
    4MPD1    N114090   0.674   2.786   0.280  0.6795 -0.0804  0.1352
    4MPD1    H614091   0.650   2.811   0.184  1.6669 -1.8144 -0.5685
    4MPD1    H714092   0.599   2.727   0.316  0.8516 -0.7007 -0.5134
    1TCq1    O114093   1.922   2.315  10.024  0.5960  0.0090 -0.0313
    1TCq1    C114094   1.928   2.443   9.967  0.4822  0.2874 -0.2623
    1TCq1    O214095   1.949   2.476   9.848 -0.1403  0.1664  0.6211
    1TCq1    C214096   1.941   2.557  10.065 -0.3423  0.2632 -0.1015
    1TCq1    C314097   2.036   2.653  10.038 -0.1916 -0.1059 -0.6217
    1TCq1    C414098   2.044   2.751  10.134 -0.1769  0.6593 -0.8430
    1TCq1    C514099   1.986   2.734  10.260 -0.2470 -0.1704 -0.3888
    1TCq1    C614100   1.906   2.623  10.284 -0.0882  0.8695  0.2567
    1TCq1    C714101   1.880   2.537  10.184 -0.5283  0.5808  0.1612
    1TCq1    C814102   1.857   2.582  10.418  0.5158 -0.2060 -0.5174
    1TCq1    O414103   1.818   2.469  10.433  0.2023  0.2341  0.7774
    1TCq1    C914104   2.163   2.836  10.136 -0.3885  0.6311 -0.2388
    1TCq1    O514105   2.195   2.900  10.031 -0.0700  0.3005 -0.5382
    1TCq1    O614106   2.229   2.845  10.249  0.1938  0.6865 -0.0246
    1TCq1    H114107   1.929   2.315  10.122  0.6581 -0.8965 -0.0436
    1TCq1    H214108   2.088   2.650   9.943  1.0533  1.0157  0.0336
    1TCq1    H314109   2.018   2.802  10.338 -1.9721  1.5027 -1.1531
    1TCq1    H414110   1.810   2.456  10.202  0.2678 -0.0779  0.3151
    2MPD1     C14111   1.891   2.659  10.923 -0.1106  0.1688  0.2716
    2MPD1    C114112   1.894   2.786  10.861  0.0910  0.9437 -0.7598
    2MPD1    C214113   1.892   2.790  10.723 -0.0375  0.0738  0.4326
    2MPD1    C314114   1.876   2.669  10.649  0.8955 -0.1363  1.0901
    2MPD1    C414115   1.886   2.540  10.716 -0.2630  0.5315 -0.0516
    2MPD1    C514116   1.884   2.535  10.853  0.0330  0.6489  0.2957
    2MPD1     H14117   1.886   2.886  10.675  1.6371  0.4322  0.9484
    2MPD1    H114118   1.892   2.451  10.654 -0.4905  2.0307 -2.2524
    2MPD1    H214119   1.897   2.660  11.031 -3.8280  2.9210  0.4620
    2MPD1    H314120   1.866   2.447  10.914 -1.3368  2.0423  1.9109
    2MPD1     N14121   1.865   2.684  10.513  0.3452  0.7868  0.4037
    2MPD1    H514122   1.877   2.775  10.469 -0.3351  0.9741  0.6086
    2MPD1    N114123   1.908   2.902  10.937 -0.3930  0.2055 -0.1534
    2MPD1    H614124   1.893   2.987  10.882 -1.1318  0.2051  0.0456
    2MPD1    H714125   1.856   2.905  11.025  1.5990  1.7307  0.9701
    1TMC1    C114126   0.188   3.867   0.713  0.5502 -0.0762 -0.1853
    1TMC1    C214127   0.085   3.946   0.761  0.0573 -0.2277  0.1456
    1TMC1    C314128   4.738   3.994   0.665 -0.4176  0.4207 -0.2380
    1TMC1    C414129   0.205   3.840   0.578  0.6194  0.5946  0.1662
    1TMC1    C514130   0.131   3.906   0.482 -0.4295  0.3625 -0.2376
    1TMC1    C614131   0.027   3.971   0.538 -0.3054  0.4144 -0.0663
    1TMC1     C14132   0.295   3.845   0.807  0.3329  0.6276 -0.1217
    1TMC1     O14133   0.361   3.746   0.801 -0.0837 -0.2123  0.2438
    1TMC1     H14134   0.075   3.970   0.866  0.4357  0.2441  0.0756
    1TMC1    H114135   0.294   3.784   0.551 -0.0265 -0.4647  0.2037
    1TMC1    H214136   4.698   4.019   0.468 -1.4046 -0.9369  0.0681
    1TMC1    C714137   0.120   3.871   0.347 -0.1923 -0.5130 -0.3746
    1TMC1    C814138   4.633   4.092   0.684 -0.5994  0.5183 -0.2699
    1TMC1    O114139   0.007   3.880   0.302 -0.2392  0.4618  0.1332
    1TMC1    O214140   4.588   4.164   0.595 -0.2070  0.0599 -0.8837
    1TMC1    O314141   0.200   3.764   0.340 -0.2957  0.0317 -0.0896
    1TMC1    H314142   0.290   3.774   0.377 -0.6843  1.0543  0.5768
    1TMC1    O514143   4.563   4.079   0.796  0.0608  0.0645 -0.6636
    1TMC1    H514144   4.595   4.013   0.861 -1.3065  1.9699  1.9716
    2MPD1     C14145   0.611   4.046   1.170  0.5959  0.1322 -0.9868
    2MPD1    C114146   0.528   4.142   1.131 -0.7740 -0.1252  0.2957
    2MPD1    C214147   0.426   4.105   1.044  0.2611  0.7938 -1.1881
    2MPD1    C314148   0.409   3.976   0.993  0.1371 -0.2249  0.1461
    2MPD1    C414149   0.497   3.882   1.033  0.2746 -0.5063  0.2568
    2MPD1    C514150   0.596   3.923   1.114  1.3947  0.7017 -0.4948
    2MPD1     H14151   0.361   4.186   1.012 -1.2709  0.8784  2.2092
    2MPD1    H114152   0.496   3.781   0.995 -0.9484 -0.2450 -0.4250
    2MPD1    H214153   0.694   4.060   1.240  0.1337 -0.6976 -0.2828
    2MPD1    H314154   0.669   3.852   1.150 -0.6190 -1.2801 -0.3733
    2MPD1     N14155   0.314   3.948   0.894 -0.1497 -0.6267 -0.7787
    2MPD1    H514156   0.257   4.027   0.865 -0.3520  0.1004  1.5841
    2MPD1    N114157   0.527   4.265   1.193 -0.5388  0.0193 -1.0044
    2MPD1    H614158   0.487   4.343   1.142 -0.1927  2.0681  1.8072
    2MPD1    H714159   0.617   4.283   1.237 -1.1663 -1.5210  0.8990
    1MPD1     C14160   3.975   1.956  11.224  0.0750  0.4091  0.7955
    1MPD1    C114161   4.086   1.993  11.141 -0.3913 -0.0574  0.0655
    1MPD1    C214162   4.195   2.042  11.207  0.2341 -0.0478 -0.1115
    1MPD1    C314163   4.206   2.041  11.347 -0.0955  0.1955 -0.4020
    1MPD1    C414164   4.101   2.000  11.422 -0.4727  1.0083 -0.4374
    1MPD1    C514165   3.985   1.961  11.356 -0.0102  0.0373 -0.0972
    1MPD1     H14166   4.278   2.079  11.149  0.8396  1.6259  1.8038
    1MPD1    H114167   4.088   2.017  11.528  0.5951  1.4919 -0.3768
    1MPD1    H214168   3.879   1.931  11.179 -0.5873  2.6659  0.9993
    1MPD1    H314169   3.893   1.943  11.411  1.4548  1.2170  2.7547
    1MPD1     N14170   4.331   2.070  11.406  0.4227 -0.0982  0.4710
    1MPD1    H514171   4.402   2.104  11.341  1.8275 -1.1733  1.4254
    1MPD1    N114172   4.080   1.998  10.995 -0.3952  0.2251 -0.3126
    1MPD1    H614173   4.174   1.991  10.957 -0.0522 -0.2276  0.6312
    1MPD1    H714174   4.019   1.930  10.949 -0.1420 -0.3751  0.2342
    2MPD1     C14175   2.433   2.669  11.313 -0.6863 -0.1430 -0.3604
    2MPD1    C114176   2.522   2.692  11.419 -0.0271  0.0904 -0.1212
    2MPD1    C214177   2.656   2.655  11.402  0.3187 -0.3917 -0.2443
    2MPD1    C314178   2.693   2.581  11.294  0.2832  0.2206 -0.3020
    2MPD1    C414179   2.599   2.545  11.195  0.1102  0.7088 -0.6122
    2MPD1    C514180   2.471   2.590  11.209  0.2138 -0.3142 -0.5146
    2MPD1     H14181   2.731   2.680  11.476  0.2751  0.9773 -0.6589
    2MPD1    H114182   2.631   2.493  11.106 -0.7987 -0.4976 -0.2360
    2MPD1    H214183   2.333   2.707  11.293 -1.8005 -2.3089  1.0912
    2MPD1    H314184   2.391   2.557  11.144 -0.8921  1.4883 -0.0487
    2MPD1     N14185   2.824   2.537  11.266 -0.6627  0.1662 -0.0265
    2MPD1    H514186   2.836   2.473  11.188 -0.6579 -0.3249  0.3767
    2MPD1    N114187   2.482   2.779  11.525  0.0594  0.1849  0.0257
    2MPD1    H614188   2.390   2.751  11.560  0.8995 -0.3355  1.8061
    2MPD1    H714189   2.548   2.767  11.601  0.7092 -0.6704 -0.6707
    3MPD1     C14190   2.943   2.682  10.454 -0.0964 -0.2339  0.0894
    3MPD1    C114191   2.866   2.589  10.524  0.5630  0.5061 -0.5856
    3MPD1    C214192   2.908   2.556  10.651  0.0160 -0.5305 -0.0215
    3MPD1    C314193   3.027   2.600  10.703  0.7453 -0.0342  0.2801
    3MPD1    C414194   3.106   2.682  10.631  0.9316  0.5976 -0.7066
    3MPD1    C514195   3.054   2.727  10.512  0.8921 -0.1331  0.1648
    3MPD1     H14196   2.847   2.495  10.717 -2.1400  0.8643 -0.7315
    3MPD1    H114197   3.202   2.723  10.660 -0.6198  3.4978  0.3155
    3MPD1    H214198   2.929   2.725  10.356 -0.5186 -2.3249 -0.7799
    3MPD1    H314199   3.131   2.784  10.461  2.0178 -1.0811  0.7944
    3MPD1     N14200   3.059   2.555  10.834  0.3700 -0.5330  0.0386
    3MPD1    H514201   3.003   2.492  10.891 -1.7377 -0.1176 -1.5858
    3MPD1    N114202   2.739   2.567  10.480  0.3538 -0.5339  0.8624
    3MPD1    H614203   2.708   2.481  10.524  0.0121 -1.3567 -0.9691
    3MPD1    H714204   2.733   2.557  10.379 -1.4826  3.0260  0.6094
    4MPD2     C14205   4.323   2.415  11.997  0.7885  0.8781  0.1221
    4MPD2    C114206   4.404   2.461  11.895 -0.5663 -0.6837 -0.6594
    4MPD2    C214207   4.374   2.586  11.836  0.0150  0.1661  0.3202
    4MPD2    C314208   4.265   2.659  11.881  0.9208 -0.3106  0.6358
    4MPD2    C414209   4.187   2.609  11.983  0.1848 -0.6277  0.0751
    4MPD2    C514210   4.224   2.488  12.043  0.0015 -0.6364  0.5491
    4MPD2     H14211   4.441   2.611  11.755 -1.3990 -0.4250 -1.0384
    4MPD2    H114212   4.102   2.670  12.012 -0.2880 -1.4738  0.4952
    4MPD2    H214213   4.331   2.325  12.057 -1.3133  0.9792  0.5660
    4MPD2    H314214   4.171   2.451  12.130 -0.0923  0.7142  1.0666
    4MPD2     N14215   4.216   2.769  11.805  0.3018 -0.2701  0.6978
    4MPD2    H514216   4.130   2.810  11.842  2.2469  1.0868  3.7593
    4MPD2    N114217   4.509   2.385  11.844 -0.0593  0.4362 -0.4697
    4MPD2    H714218   4.553   2.427  11.762  2.3676  1.3508  1.2986
    5TMC3    C114219   4.603   2.189  11.764  0.4919 -0.6732 -0.1947
    5TMC3    C214220   4.519   2.093  11.713 -0.6333  0.0880  0.1030
    5TMC3    C314221   4.484   2.105  11.580 -0.2976 -0.4669 -0.1317
    5TMC3    C414222   4.662   2.279  11.688 -0.1040  0.2616  0.0178
    5TMC3    C514223   4.624   2.295  11.565  0.7254 -0.2477 -0.2648
    5TMC3    C614224   4.541   2.203  11.501 -0.1001  0.1730 -0.5806
    5TMC3     C14225   4.533   2.255  11.878  0.4918  0.3917 -0.3816
    5TMC3     O14226   4.477   2.182  11.957 -0.2397 -0.2110 -0.6533
    5TMC3     H14227   4.480   2.020  11.783 -2.3228  1.0089  0.1341
    5TMC3    H114228   4.734   2.350  11.728 -0.0104 -0.2435  0.7413
    5TMC3    H214229   4.505   2.250  11.410 -0.0443  0.8389 -0.2580
    5TMC3    C714230   4.623   2.432  11.515 -0.5565  0.1970  0.4450
    5TMC3    C814231   4.359   2.061  11.541 -0.1836  0.1553 -0.1573
    5TMC3    O114232   4.609   2.514  11.606  0.8853 -0.0746  0.3220
    5TMC3    O214233   4.290   2.026  11.638 -0.0174  0.2832  0.1311
    6TMC3    C114234   3.057   2.553  11.251 -0.2479  0.2660  0.6844
    6TMC3    C214235   3.055   2.560  11.118  0.2705 -0.5352 -0.6428
    6TMC3    C314236   3.173   2.549  11.045 -0.4869 -0.0998  0.0176
    6TMC3    C414237   3.163   2.551  11.326 -0.6450  0.3674  0.1188
    6TMC3    C514238   3.287   2.560  11.260 -0.7623  0.3830  0.3640
    6TMC3    C614239   3.285   2.569  11.117 -0.3722 -0.0966  0.4659
    6TMC3     C14240   2.933   2.583  11.327 -0.1226  0.9334  0.6472
    6TMC3     O14241   2.954   2.652  11.431  0.5345  0.7424 -0.2841
    6TMC3     H14242   2.962   2.573  11.065 -0.7104 -0.7459  1.0242
    6TMC3    H114243   3.155   2.531  11.432 -3.6495 -2.6543 -0.6699
    6TMC3    H214244   3.377   2.571  11.060  0.0355  1.8362  1.1749
    6TMC3    C714245   3.400   2.619  11.328  0.6397  0.1757  0.2932
    6TMC3    C814246   3.172   2.602  10.907  0.1232 -0.1285 -0.4041
    6TMC3    O114247   3.508   2.639  11.268  0.3537  0.0903 -0.0798
    6TMC3    O214248   3.252   2.695  10.889 -0.4446 -0.6926  0.4615
    7MPD2     C14249   4.437   2.734  11.154 -0.0051  0.7264 -0.0297
    7MPD2    C114250   4.432   2.742  11.287  0.0385 -0.2580 -0.1280
    7MPD2    C214251   4.497   2.644  11.360  0.1045 -0.1316  0.0883
    7MPD2    C314252   4.567   2.537  11.310 -0.0803 -0.3997  0.6380
    7MPD2    C414253   4.569   2.530  11.176 -0.3287  0.0413 -0.0454
    7MPD2    C514254   4.499   2.629  11.103  0.3172  0.8174  0.6253
    7MPD2     H14255   4.468   2.654  11.464  2.1056  3.9202  0.2397
    7MPD2    H114256   4.610   2.444  11.124  4.5562  1.2319  1.8942
    7MPD2    H214257   4.388   2.806  11.091 -1.9433 -1.9207 -1.5162
    7MPD2    H314258   4.479   2.626  10.997 -0.7893  1.9716  0.8034
    7MPD2     N14259   4.634   2.442  11.381 -0.0009  0.3204  0.8199
    7MPD2    H514260   4.658   2.356  11.332 -1.7582  0.1403  0.2595
    7MPD2    N114261   4.342   2.835  11.346  0.5766 -0.5659  0.6071
    7MPD2    H714262   4.332   2.818  11.446 -0.5782 -1.3905  0.3586
    8TMC3    C114263   4.178   2.978  11.405  0.2570 -0.0816  0.5554
    8TMC3    C214264   4.045   2.960  11.398  0.5122  0.1172 -0.1008
    8TMC3    C314265   3.980   2.925  11.508  0.5790  0.4234  0.7895
    8TMC3    C414266   4.249   2.968  11.520  0.1867  0.1977  0.5053
    8TMC3    C514267   4.187   2.935  11.634  1.4051  0.5678 -0.8182
    8TMC3    C614268   4.048   2.910  11.628  0.6261  0.3385  0.1979
    8TMC3     C14269   4.257   2.925  11.290  0.3461  0.4302  0.3052
    8TMC3     O14270   4.223   2.944  11.177  0.2362 -0.0637  0.6157
    8TMC3     H14271   4.002   2.972  11.300  0.1210 -1.5141 -0.1247
    8TMC3    H114272   4.352   3.003  11.523  0.3780 -0.2410 -0.6674
    8TMC3    H214273   4.002   2.886  11.723  2.1182 -1.5710  0.4490
    8TMC3    C714274   4.274   2.838  11.700 -0.1779 -0.3432  0.4074
    8TMC3    C814275   3.848   2.894  11.496  0.1947 -0.0428  0.1178
    8TMC3    O114276   4.383   2.820  11.640 -0.4723  0.3697 -0.4426
    8TMC3    O214277   3.805   2.894  11.381 -0.1812  0.1396 -0.6920
    9MPD2     C14278   3.621   2.803  11.758  0.2035 -0.2078 -0.4185
    9MPD2    C114279   3.664   2.810  11.628  0.1424  0.7700 -0.0957
    9MPD2    C214280   3.585   2.752  11.525  0.1162 -0.1448 -0.6098
    9MPD2    C314281   3.456   2.703  11.555  0.1249 -0.2364 -0.6277
    9MPD2    C414282   3.409   2.711  11.682 -0.3151  0.3293  0.3983
    9MPD2    C514283   3.498   2.752  11.783 -0.6530  0.0232  0.0307
    9MPD2     H14284   3.617   2.751  11.421 -0.0923 -1.1670 -0.6671
    9MPD2    H114285   3.313   2.675  11.717 -0.3463 -1.7248 -1.8533
    9MPD2    H214286   3.680   2.844  11.840  0.0790  0.7583 -0.8045
    9MPD2    H314287   3.445   2.773  11.875 -1.6600  3.0501 -1.2063
    9MPD2     N14288   3.370   2.641  11.461 -0.0849 -0.0284 -0.2581
    9MPD2    H514289   3.293   2.587  11.498  0.0442 -0.0861 -0.0719
    9MPD2    N114290   3.790   2.860  11.612  0.4936 -0.7580 -0.0913
    9MPD2    H714291   3.841   2.881  11.697  1.7501 -0.9605 -0.7918
    1MPD1     C14292   2.640   1.219  16.604  0.1183 -0.1200 -0.3179
    1MPD1    C114293   2.534   1.171  16.532 -0.2416 -0.2875 -0.4974
    1MPD1    C214294   2.526   1.200  16.397  0.2955  0.1431  0.7348
    1MPD1    C314295   2.634   1.267  16.334  0.7437 -0.7004  0.0602
    1MPD1    C414296   2.739   1.305  16.407  0.4708 -0.5541 -0.0659
    1MPD1    C514297   2.739   1.294  16.540  0.3442  0.6440  0.2543
    1MPD1     H14298   2.443   1.165  16.336  2.5805 -2.9146 -0.6125
    1MPD1    H114299   2.820   1.358  16.357  0.5897 -0.8359 -0.1770
    1MPD1    H214300   2.646   1.210  16.712 -0.6517 -3.0604 -0.5318
    1MPD1    H314301   2.830   1.330  16.586  1.7600 -1.5476 -0.8269
    1MPD1     N14302   2.649   1.282  16.194  0.0146  0.3032 -0.8171
    1MPD1    H514303   2.741   1.302  16.154 -0.7298  0.6271 -2.3933
    1MPD1    N114304   2.429   1.113  16.601  0.0273  0.0930  0.2495
    1MPD1    H614305   2.382   1.043  16.544 -1.9442  3.1707 -1.9213
    1MPD1    H714306   2.461   1.073  16.689  0.2056  0.2340  0.2476
    2TMC2    C114307   2.748   1.070  15.867  0.3805 -0.5632  0.2884
    2TMC2    C214308   2.668   1.070  15.765  0.4470 -0.8795  0.7191
    2TMC2    C314309   2.560   1.150  15.762  0.1061 -0.4417 -0.6306
    2TMC2    C414310   2.723   1.140  15.975  0.1426 -0.3083  0.1851
    2TMC2    C514311   2.602   1.213  15.975  0.2810  0.6858  0.2665
    2TMC2    C614312   2.513   1.219  15.869 -0.0377  0.2447 -0.4580
    2TMC2     C14313   2.857   0.975  15.883 -0.1286  0.2077 -0.3818
    2TMC2     O14314   2.894   0.944  15.993  0.4872  0.6042 -0.1981
    2TMC2     H14315   2.705   1.025  15.674  1.6687  0.3448  0.6097
    2TMC2    H114316   2.783   1.126  16.064 -0.1863 -1.1329  0.2727
    2TMC2    H214317   2.416   1.266  15.876 -0.3382 -0.4465  0.1231
    2TMC2    C714318   2.545   1.248  16.108  0.0128  0.3910 -0.2040
    2TMC2    C814319   2.493   1.172  15.637 -0.6207 -0.1499  0.4434
    2TMC2    O114320   2.422   1.265  16.118 -0.0564  0.3736 -0.1521
    2TMC2    O214321   2.476   1.090  15.544 -0.2846 -0.6164  0.0797
    2TMC2    O514322   2.489   1.308  15.629  0.0833 -0.1050  0.5444
    2TMC2    H514323   2.519   1.356  15.709 -0.8800  0.8926  0.3122
    3MPD1     C14324   3.140   0.581  15.693  0.4334  0.9163  0.2426
    3MPD1    C114325   3.090   0.655  15.588 -0.0382 -0.2359  0.6362
    3MPD1    C214326   3.028   0.782  15.617  0.5086 -0.4867  0.1133
    3MPD1    C314327   2.998   0.826  15.751  0.4383  0.3859  0.6104
    3MPD1    C414328   3.047   0.737  15.847 -0.0288  0.4340 -0.4807
    3MPD1    C514329   3.108   0.620  15.821  0.3640  0.7535 -1.1121
    3MPD1     H14330   2.998   0.841  15.531 -1.2382 -0.6758  0.5792
    3MPD1    H114331   3.035   0.758  15.953  2.4085  1.1672 -0.3538
    3MPD1    H214332   3.201   0.492  15.687  1.0880  1.2909  1.1790
    3MPD1    H314333   3.130   0.549  15.900 -0.7927  1.2139 -0.3856
    3MPD1     N14334   2.916   0.937  15.770 -0.3879 -0.4534 -0.3992
    3MPD1    H514335   2.890   0.994  15.689 -0.9019  1.1869  0.9112
    3MPD1    N114336   3.140   0.635  15.460  0.5388  0.1137  0.2525
    3MPD1    H614337   3.087   0.679  15.386 -0.1296 -0.6790  0.2614
    3MPD1    H714338   3.143   0.537  15.433  0.7529 -0.1564  1.2528
    1TMC1    C114339   1.742   0.370  13.140  0.4221  0.0056  0.2217
    1TMC1    C214340   1.675   0.427  13.242 -0.3113  0.0186 -0.6440
    1TMC1    C314341   1.539   0.449  13.215  0.1906  0.1991  0.2635
    1TMC1    C414342   1.684   0.320  13.026 -0.7736 -0.0220 -0.0867
    1TMC1    C514343   1.546   0.337  13.010 -0.2972  0.6382  0.2182
    1TMC1    C614344   1.475   0.393  13.109 -0.2187 -0.0113  0.0867
    1TMC1     C14345   1.876   0.338  13.161 -0.6279 -0.3111  0.1549
    1TMC1     O14346   1.945   0.329  13.058  0.5819  0.8236 -0.0922
    1TMC1     H14347   1.727   0.473  13.325 -0.7752  1.6128 -1.2363
    1TMC1    H114348   1.745   0.276  12.949 -2.0187  1.1839 -1.7746
    1TMC1    H214349   1.369   0.409  13.093 -0.8413 -3.6492  0.5556
    1TMC1    C714350   1.476   0.249  12.913  0.2262  0.4542 -0.1233
    1TMC1    C814351   1.448   0.491  13.320 -0.3938 -0.6649 -0.0096
    1TMC1    O114352   1.385   0.173  12.948 -0.3635  0.2106  0.4413
    1TMC1    O214353   1.343   0.555  13.296 -0.0118  0.4716 -0.1895
    1TMC1    O314354   1.468   0.324  12.801  0.2808  0.4671 -0.0734
    1TMC1    H314355   1.555   0.368  12.800  1.3101 -1.6160 -2.5683
    1TMC1    O514356   1.474   0.444  13.446  0.8215 -0.5657  0.4638
    1TMC1    H514357   1.551   0.382  13.455 -0.3253 -2.4244 -2.5667
    2MPD2     C14358   2.156   0.274  13.252 -0.0355 -0.1700  0.2225
    2MPD2    C114359   2.046   0.289  13.336  0.0715 -0.2392  0.1908
    2MPD2    C214360   2.065   0.284  13.474  0.4633  0.0930 -0.3465
    2MPD2    C314361   2.194   0.266  13.524  0.0190 -0.6591  0.3795
    2MPD2    C414362   2.302   0.256  13.442  0.3532  0.0087  0.3264
    2MPD2    C514363   2.279   0.256  13.309 -0.1530  0.0844  0.2352
    2MPD2     H14364   1.986   0.317  13.540  0.2500 -1.6133  0.2553
    2MPD2    H114365   2.401   0.245  13.483  0.4211  0.3722  0.2606
    2MPD2    H214366   2.156   0.273  13.144 -1.2569 -1.3661  0.2435
    2MPD2    H314367   2.369   0.244  13.249  0.7128 -0.5553  1.6790
    2MPD2     N14368   2.206   0.253  13.666  0.5302 -0.3704 -0.3135
    2MPD2    H514369   2.127   0.268  13.727  1.2855  0.4228  0.4797
    2MPD2    N114370   1.910   0.322  13.292  0.7756 -0.3396 -0.4878
    2MPD2    H714371   1.844   0.337  13.367 -1.2653  0.9991 -2.5862
    3TCq1    O114372   2.316   0.022  14.292 -0.4862 -0.6073 -0.0211
    3TCq1    C114373   2.371   0.040  14.172 -0.5139 -0.1008 -0.2699
    3TCq1    O214374   2.475   4.733  14.133 -0.0651  0.1380  0.1382
    3TCq1    C214375   2.303   0.124  14.080  0.1518  0.4703  0.7624
    3TCq1    C314376   2.205   0.204  14.122 -0.1885  0.2616 -0.1625
    3TCq1    C414377   2.171   0.311  14.036 -0.6206  0.5523 -0.2400
    3TCq1    C514378   2.222   0.328  13.912 -0.3815  0.0166  0.2353
    3TCq1    C614379   2.318   0.240  13.876  0.0639  0.4361 -0.4860
    3TCq1    C714380   2.358   0.138  13.955  0.4078 -0.0575  0.3399
    3TCq1    C814381   2.328   0.214  13.736  0.5906  0.4811  0.3873
    3TCq1    O414382   2.427   0.154  13.698  0.0327  0.3183  0.3187
    3TCq1    C914383   2.067   0.401  14.081  0.4338  0.1214 -0.5454
    3TCq1    O514384   2.003   0.368  14.187 -0.5846 -0.1853  0.2300
    3TCq1    O614385   2.024   0.487  14.001  0.1088  0.5373  0.3422
    3TCq1    H114386   2.219   0.034  14.297 -0.2946  1.7128 -1.6249
    3TCq1    H214387   2.160   0.188  14.219 -1.1752 -0.8885 -0.8119
    3TCq1    H314388   2.210   0.414  13.849 -0.4104 -1.5943 -1.9451
    3TCq1    H414389   2.448   0.088  13.923  1.1427  0.8710  0.9495
    1MPD2     C14390   1.844   1.190  14.949 -0.4741 -0.4535 -0.0145
    1MPD2    C114391   1.741   1.106  14.923  0.2718 -0.2849  0.6135
    1MPD2    C214392   1.708   1.011  15.018  0.1023  0.6741 -0.4198
    1MPD2    C314393   1.772   0.997  15.139 -0.2686  0.1714 -0.3205
    1MPD2    C414394   1.876   1.088  15.165 -0.0905  0.3491  0.0042
    1MPD2    C514395   1.911   1.187  15.071 -0.1274  0.1350  0.5537
    1MPD2     H14396   1.619   0.950  15.007  0.5747  0.1656 -1.4256
    1MPD2    H114397   1.938   1.081  15.254 -1.2699 -1.5801  0.6552
    1MPD2    H214398   1.877   1.270  14.884  1.5745 -0.2786  1.2083
    1MPD2    H314399   2.009   1.232  15.077 -0.0449  0.2253 -1.2882
    1MPD2     N14400   1.739   0.903  15.237  0.7410  0.0875  0.0566
    1MPD2    H514401   1.777   0.905  15.331  0.5738 -0.7732  0.1417
    1MPD2    N114402   1.683   1.109  14.791  0.3322 -0.2471 -0.1763
    1MPD2    H714403   1.690   1.197  14.741  0.5670  0.0126  0.3134
    2TMC3    C114404   1.518   1.043  14.631  0.0457 -1.1425  0.3825
    2TMC3    C214405   1.448   0.939  14.573 -0.2294  0.1393 -0.4486
    2TMC3    C314406   1.321   0.955  14.526  0.0392 -0.5606  0.3641
    2TMC3    C414407   1.469   1.169  14.634  1.0451  0.3947  0.1346
    2TMC3    C514408   1.344   1.185  14.577  0.5045 -0.6979  1.1156
    2TMC3    C614409   1.271   1.080  14.531 -0.4965  0.6337 -0.1395
    2TMC3     C14410   1.610   1.008  14.736  0.4839  0.7332  0.4091
    2TMC3     O14411   1.602   0.893  14.775 -0.6845 -0.2192  0.0870
    2TMC3     H14412   1.511   0.852  14.552  0.3225  1.0348 -2.5602
    2TMC3    H114413   1.517   1.254  14.679  3.1372 -1.3028  1.0762
    2TMC3    H214414   1.164   1.097  14.530 -0.4378  1.1206  1.1691
    2TMC3    C714415   1.275   1.307  14.573  0.3610  0.3096 -0.5141
    2TMC3    C814416   1.237   0.869  14.601 -0.6101  0.8235 -0.0737
    2TMC3    O114417   1.163   1.303  14.526 -0.8841  0.2355 -0.6399
    2TMC3    O214418   1.114   0.875  14.583 -0.7380  0.2296 -0.2857
    3TCq1    O114419   1.514   2.500  14.660  0.3511 -0.1434  0.9482
    3TCq1    C114420   1.613   2.450  14.738 -0.1407 -0.2512 -0.4981
    3TCq1    O214421   1.705   2.512  14.792  0.6645  0.3619 -0.4156
    3TCq1    C214422   1.611   2.311  14.746 -0.7942 -0.8830 -0.8189
    3TCq1    C314423   1.671   2.255  14.855 -0.2251 -0.4673 -0.0166
    3TCq1    C414424   1.679   2.119  14.855  0.6171 -0.4317  0.1645
    3TCq1    C514425   1.611   2.046  14.761 -0.1264 -0.4072  0.1812
    3TCq1    C614426   1.542   2.109  14.658 -0.1317  0.2375 -0.3247
    3TCq1    C714427   1.534   2.242  14.656 -0.2723  0.1927  0.5315
    3TCq1    C814428   1.436   2.031  14.603 -0.2226  0.4869  1.5823
    3TCq1    O414429   1.350   2.096  14.546  0.0940 -0.7916  0.5080
    3TCq1    C914430   1.740   2.045  14.958  0.0817 -0.2046 -0.0197
    3TCq1    O514431   1.819   2.109  15.035 -0.0744  0.0138 -0.0601
    3TCq1    O614432   1.749   1.920  14.949 -0.6714 -0.5499  0.0227
    3TCq1    H114433   1.461   2.420  14.635  1.2937 -1.5549  3.4951
    3TCq1    H214434   1.722   2.318  14.927  1.0829 -0.1452 -1.2361
    3TCq1    H314435   1.631   1.940  14.774  0.2326 -0.6636 -2.4641
    3TCq1    H414436   1.488   2.288  14.569 -0.0693  0.9246  0.8130
    4MPD2     C14437   1.219   1.825  14.601  0.9635  0.3725 -0.7530
    4MPD2    C114438   1.350   1.794  14.629 -0.5056 -0.4730  0.5852
    4MPD2    C214439   1.391   1.663  14.632  0.2997 -0.2560 -0.3702
    4MPD2    C314440   1.302   1.556  14.618 -0.2454  0.2943  0.0269
    4MPD2    C414441   1.165   1.588  14.618  0.9376 -0.8652  0.1063
    4MPD2    C514442   1.129   1.716  14.605  0.0153  0.4842  0.1264
    4MPD2     H14443   1.497   1.643  14.649  0.1972  0.9372  1.7131
    4MPD2    H114444   1.088   1.512  14.627  0.9988 -0.8405  0.8050
    4MPD2    H214445   1.181   1.924  14.579  0.0052  0.0145 -0.7160
    4MPD2    H314446   1.024   1.740  14.593  0.3069  0.8104 -1.6945
    4MPD2     N14447   1.352   1.420  14.616 -0.2143 -0.3380  0.2177
    4MPD2    H514448   1.446   1.399  14.648 -1.0519 -1.3217  2.0634
    4MPD2    N114449   1.453   1.894  14.627  0.2802  0.0052 -0.2193
    4MPD2    H714450   1.550   1.866  14.636 -0.4441 -2.2841  0.3417
    5TMC2    C114451   1.412   0.626  15.371 -0.2796  0.6943  0.6819
    5TMC2    C214452   1.391   0.706  15.483  0.1039 -0.0092 -0.2232
    5TMC2    C314453   1.494   0.789  15.520  0.8874 -0.3919  0.1328
    5TMC2    C414454   1.537   0.623  15.315  0.6729  0.0497 -0.4268
    5TMC2    C514455   1.636   0.717  15.349  0.0961 -0.9494  0.4224
    5TMC2    C614456   1.616   0.803  15.453 -0.4075 -0.1070 -0.2897
    5TMC2     C14457   1.299   0.605  15.282  0.1104  0.0017  0.2221
    5TMC2     O14458   1.189   0.600  15.326  0.1094  1.1782  0.2704
    5TMC2     H14459   1.293   0.724  15.526  1.1662  0.0168  2.1940
    5TMC2    H114460   1.556   0.541  15.246  0.1777  0.1456 -0.6767
    5TMC2    H214461   1.685   0.877  15.491 -0.8147  0.8745 -1.4688
    5TMC2    C714462   1.661   0.788  15.219 -0.1312 -0.6574  0.5556
    5TMC2    C814463   1.468   0.878  15.630  0.4415 -0.0928 -0.0632
    5TMC2    O114464   1.604   0.754  15.116 -0.7215 -0.2511 -0.5454
    5TMC2    O214465   1.549   0.896  15.719 -0.0792 -0.0064  0.2830
    5TMC2    O514466   1.399   0.975  15.572 -0.8475  0.4925 -0.3668
    5TMC2    H514467   1.365   0.957  15.481 -0.1466 -1.1507 -0.2899
    6MPD2     C14468   1.127   0.684  14.801 -0.4960  0.2843  0.3491
    6MPD2    C114469   1.256   0.735  14.812 -0.1630  0.4508  0.5164
    6MPD2    C214470   1.326   0.714  14.926 -0.9296 -0.2017  0.1806
    6MPD2    C314471   1.267   0.646  15.036  0.6099  0.2590  0.3564
    6MPD2    C414472   1.143   0.590  15.016  0.4296  0.1644 -0.3127
    6MPD2    C514473   1.068   0.620  14.905 -0.2521  0.0833  0.6909
    6MPD2     H14474   1.417   0.765  14.953 -1.4846  1.6829 -1.5463
    6MPD2    H114475   1.080   0.548  15.093  1.2629 -0.5268 -0.0059
    6MPD2    H214476   1.064   0.698  14.713  1.1945  1.8569 -0.6221
    6MPD2    H314477   0.973   0.567  14.899 -1.1868  1.8696 -0.2800
    6MPD2     N14478   1.342   0.630  15.153  0.7250 -0.4644  0.4425
    6MPD2    H514479   1.440   0.652  15.138  0.6281 -0.2533  0.1237
    6MPD2    N114480   1.309   0.814  14.705 -0.2122  0.4525  0.8681
    6MPD2    H714481   1.406   0.845  14.703 -1.0216  2.8756 -0.8241
  945NH3     N114482   1.699   4.691   0.263 -0.1312 -0.1968  0.7431
  945NH3     H214483   1.651   4.617   0.212  0.0689 -0.6991  1.2755
  945NH3     H314484   1.770   4.644   0.317  1.3024 -1.4631 -2.2093
  945NH3     H414485   1.745   0.013   0.196 -0.0341 -0.5573  0.4848
  946SOD     NA14486   1.829   1.947  15.173  0.0843 -0.0222  0.3671
  947SOD     NA14487   2.619   0.153  10.176  0.3076  0.1392 -0.8878
  948SOD     NA14488   0.459   1.755   3.984 -0.0736 -0.3715 -0.4557
  949SOD     NA14489   3.981   2.812   5.788  0.3169  0.3779  0.5342
  950SOD     NA14490   2.088   1.521  11.101 -0.0960 -0.3134  0.4305
  951SOD     NA14491   0.112   0.360  14.201  0.3246 -0.1315  0.2309
  952SOD     NA14492   0.429   3.297  13.216  0.5412  0.0823 -0.5230
  953SOD     NA14493   2.758   4.250  17.367  0.1643  0.1877 -0.4952
  954SOL     OW14494   1.877   0.996   4.433  0.4431 -0.3890  0.0006
  954SOL    HW114495   1.890   1.068   4.371  0.6728 -0.3638  0.0756
  954SOL    HW214496   1.968   0.981   4.458  0.5725 -1.7192 -1.2456
  955SOL     OW14497   0.053   4.435   8.101 -0.1844 -0.3122 -0.0174
  955SOL    HW114498   0.005   4.410   8.021  2.3238 -1.5054 -1.1478
  955SOL    HW214499   0.015   4.373   8.164  0.2615 -0.3565  0.2024
  956SOL     OW14500   4.216   2.735   7.528 -0.3323  0.7482 -0.2469
  956SOL    HW114501   4.122   2.749   7.515 -1.0336 -0.3981  3.3663
  956SOL    HW214502   4.209   2.709   7.620  2.3682  0.2097 -0.1896
  957SOL     OW14503   2.654   4.084  16.929  0.2262  0.3210  0.0964
  957SOL    HW114504   2.731   4.029  16.913 -0.4156 -0.8355  0.9755
  957SOL    HW214505   2.590   4.013  16.934 -1.1988  1.4305 -2.2130
  958SOL     OW14506   1.453   4.202   6.496 -0.3097  0.1046  0.2661
  958SOL    HW114507   1.463   4.219   6.590  2.3188 -2.4092  0.4289
  958SOL    HW214508   1.387   4.133   6.492  1.9377 -2.1036  0.9954
  959SOL     OW14509   0.954   4.634   5.104  0.7371 -0.0471  0.7860
  959SOL    HW114510   0.875   4.629   5.051  0.3758 -1.9248  1.5060
  959SOL    HW214511   0.945   4.552   5.152  0.4084 -0.7656 -0.5119
  960SOL     OW14512   2.802   2.064   3.221 -0.2216 -0.0908  0.0922
  960SOL    HW114513   2.818   1.975   3.253 -1.0005 -0.9880 -1.9640
  960SOL    HW214514   2.757   2.097   3.298 -3.2817  0.0816 -1.7688
  961SOL     OW14515   3.975   0.070   9.197 -0.6763  0.0151  0.5793
  961SOL    HW114516   3.960   4.732   9.252 -0.4507 -0.6608 -0.3104
  961SOL    HW214517   4.029   0.121   9.258 -0.3768  0.2751  0.0960
  962SOL     OW14518   0.728   3.265   2.115 -0.3383  0.3779  0.1952
  962SOL    HW114519   0.786   3.221   2.052 -1.5707 -0.9815  0.0339
  962SOL    HW214520   0.650   3.214   2.095  0.0325  0.1765 -0.7401
  963SOL     OW14521   3.737   1.509  16.925 -0.3403 -0.3385 -0.0293
  963SOL    HW114522   3.729   1.604  16.929 -0.4098 -0.2366 -2.9405
  963SOL    HW214523   3.725   1.490  16.832  0.2008 -1.1004  0.0573
  964SOL     OW14524   4.072   2.765   3.300  0.1362 -0.0837  0.5512
  964SOL    HW114525   3.996   2.820   3.317  0.3100  0.3647 -0.1029
  964SOL    HW214526   4.132   2.788   3.371 -1.6066  2.8973  1.0093
  965SOL     OW14527   4.455   0.115   2.228  0.1161  0.1459  0.3777
  965SOL    HW114528   4.518   0.135   2.158 -1.7017  1.9788 -0.7205
  965SOL    HW214529   4.404   0.195   2.215 -0.9574 -0.5222  0.4873
  966SOL     OW14530   4.359   4.447   8.617  0.3251  0.3607 -0.2746
  966SOL    HW114531   4.354   4.539   8.592 -0.7408  0.9641  2.1237
  966SOL    HW214532   4.278   4.440   8.667  0.2450 -0.8517 -0.5629
  967SOL     OW14533   0.923   4.588  13.412 -0.3615  0.5597  0.3398
  967SOL    HW114534   0.921   4.678  13.378 -0.4327 -0.1581 -1.5516
  967SOL    HW214535   0.896   4.598  13.504 -0.3240 -5.6464  0.9964
  968SOL     OW14536   0.148   0.865   0.690 -0.1438 -0.1493 -0.5251
  968SOL    HW114537   0.239   0.893   0.704  0.0753 -0.0314 -2.1357
  968SOL    HW214538   0.115   0.914   0.614 -0.4510  2.2410  1.1509
  969SOL     OW14539   3.353   3.625   5.146 -0.4246 -0.6288 -0.0418
  969SOL    HW114540   3.337   3.645   5.238 -0.0714 -1.8496  0.2908
  969SOL    HW214541   3.434   3.574   5.149  0.0475  0.1069 -0.5430
  970SOL     OW14542   1.274   1.391   2.251 -0.4188 -0.0962 -0.3547
  970SOL    HW114543   1.197   1.345   2.219 -1.2912  2.0449 -1.3622
  970SOL    HW214544   1.271   1.363   2.342 -1.6492  0.3134 -0.2728
  971SOL     OW14545   1.306   1.565   5.014  0.3019  0.2246 -0.2031
  971SOL    HW114546   1.355   1.608   5.084  0.1005  0.9052 -0.4780
  971SOL    HW214547   1.224   1.613   5.018 -0.4191 -1.1213  1.4600
  972SOL     OW14548   3.842   4.492   9.975  0.4149 -0.1713 -0.4012
  972SOL    HW114549   3.858   4.399   9.988 -0.0801 -0.4759 -2.0143
  972SOL    HW214550   3.822   4.487   9.881 -0.0777 -2.4266 -0.1810
  973SOL     OW14551   1.083   0.934   5.184 -0.4514 -0.4055 -0.2301
  973SOL    HW114552   1.126   0.870   5.127 -1.5432  0.5358 -2.1057
  973SOL    HW214553   1.094   0.901   5.273  1.1303  0.3807 -0.1318
  974SOL     OW14554   4.125   1.996   6.886 -0.0897  0.0793  0.4910
  974SOL    HW114555   4.061   1.996   6.957 -0.2663  0.7259  0.3283
  974SOL    HW214556   4.130   1.901   6.878 -0.9221 -0.0089  1.0375
  975SOL     OW14557   1.277   1.972   5.542 -0.1306  0.0817 -0.3975
  975SOL    HW114558   1.236   1.981   5.628 -0.6787  3.8834 -1.0424
  975SOL    HW214559   1.284   2.063   5.514 -1.5424 -0.4386 -2.4283
  976SOL     OW14560   3.017   3.557   2.339  0.2059 -0.3151 -0.0803
  976SOL    HW114561   3.030   3.591   2.250  0.0520 -1.9251 -0.7216
  976SOL    HW214562   3.026   3.640   2.385  3.0308  0.0986 -1.3815
  977SOL     OW14563   4.201   4.167   1.354 -0.6682  0.3311 -0.1326
  977SOL    HW114564   4.255   4.094   1.383  0.3556  0.7736 -0.9036
  977SOL    HW214565   4.184   4.138   1.264  3.1689 -0.8023 -0.4838
  978SOL     OW14566   1.636   2.749   3.837  0.1022 -0.2796  0.2384
  978SOL    HW114567   1.692   2.696   3.780 -0.4539 -1.4929  0.8168
  978SOL    HW214568   1.585   2.802   3.776 -0.2467 -0.6370  0.2184
  979SOL     OW14569   1.855   2.670   1.892 -0.3540 -0.3052  0.2881
  979SOL    HW114570   1.944   2.646   1.918  0.4147  3.3209  0.9662
  979SOL    HW214571   1.879   2.722   1.815 -0.4494 -1.3202 -0.4291
  980SOL     OW14572   3.427   0.204   9.576  0.0316  0.5969 -0.2791
  980SOL    HW114573   3.385   0.258   9.643 -1.8040 -0.1544 -0.8426
  980SOL    HW214574   3.510   0.169   9.609 -0.8234  1.4128  2.7025
  981SOL     OW14575   1.778   3.474  11.201  0.5438 -0.8708  0.1645
  981SOL    HW114576   1.686   3.493  11.180  0.5612 -1.0519 -0.0749
  981SOL    HW214577   1.767   3.433  11.287  2.4605 -1.5183  0.0861
  982SOL     OW14578   1.867   0.940  13.756 -0.3794 -0.5434 -0.0922
  982SOL    HW114579   1.851   0.856  13.712 -3.0137  1.3675 -2.8004
  982SOL    HW214580   1.961   0.956  13.749 -0.5888  1.5627  2.0063
  983SOL     OW14581   1.162   2.850   3.263  0.4623  0.0833 -0.3374
  983SOL    HW114582   1.239   2.858   3.206  1.1457 -1.4978  0.3463
  983SOL    HW214583   1.204   2.809   3.339 -1.3920  0.5450  0.9261
  984SOL     OW14584   1.336   0.593   6.536 -0.0891  0.5998 -0.2048
  984SOL    HW114585   1.271   0.638   6.481 -1.3774 -0.6580  0.2828
  984SOL    HW214586   1.324   0.637   6.620  1.9820 -0.3504  0.5672
  985SOL     OW14587   3.336   2.030   5.495 -0.4709  0.0913 -0.5884
  985SOL    HW114588   3.396   2.071   5.558 -0.2861  1.1516 -1.4523
  985SOL    HW214589   3.378   1.945   5.481  0.5564  0.5906 -0.5390
  986SOL     OW14590   3.299   3.464   1.002 -0.1449 -1.3379  0.3911
  986SOL    HW114591   3.274   3.480   1.093 -1.6736  0.4633 -0.3495
  986SOL    HW214592   3.360   3.535   0.984  0.0739 -1.5596  0.2404
  987SOL     OW14593   2.056   1.440   2.703 -0.2201 -0.2279 -0.2068
  987SOL    HW114594   1.998   1.365   2.701 -0.5590  0.0029  1.0177
  987SOL    HW214595   2.025   1.499   2.634  0.1821  1.4173  1.0187
  988SOL     OW14596   0.173   3.443   4.980  0.1502  0.8633 -0.6343
  988SOL    HW114597   0.268   3.440   4.990 -0.1432 -1.7068  1.3482
  988SOL    HW214598   0.156   3.415   4.890 -1.5574  2.6796 -0.8832
  989SOL     OW14599   2.979   1.561   2.929 -0.3079 -0.0448 -0.7728
  989SOL    HW114600   3.002   1.638   2.981  0.2851 -0.4715 -0.4069
  989SOL    HW214601   3.046   1.495   2.948  0.9475  1.5224  0.2654
  990SOL     OW14602   2.962   2.799  15.269 -0.9252 -0.9198  0.2920
  990SOL    HW114603   3.041   2.812  15.217 -1.1373 -2.8930 -0.4960
  990SOL    HW214604   2.899   2.758  15.210  1.1197  0.1074 -2.5878
  991SOL     OW14605   2.553   3.365  10.844 -0.1219 -0.0427 -0.7201
  991SOL    HW114606   2.523   3.283  10.883 -2.0167 -0.1369 -2.3973
  991SOL    HW214607   2.641   3.370  10.883 -0.3587 -1.7839  0.0436
  992SOL     OW14608   0.196   2.695  12.245 -0.2413 -0.3321 -0.3684
  992SOL    HW114609   0.120   2.737  12.285 -2.5853 -2.7765 -2.3061
  992SOL    HW214610   0.258   2.720  12.314 -1.9197  0.6066  0.7972
  993SOL     OW14611   2.389   2.037   6.489 -0.3157 -0.5184  0.4741
  993SOL    HW114612   2.332   2.042   6.413  1.1068 -1.3802 -0.6446
  993SOL    HW214613   2.409   1.943   6.487  0.2195 -0.4652  2.9882
  994SOL     OW14614   4.095   0.350   5.688 -0.8750  0.0768  0.5343
  994SOL    HW114615   4.108   0.256   5.673 -1.1296  0.3641 -1.4568
  994SOL    HW214616   4.029   0.379   5.624  0.9573  2.5254 -0.2244
  995SOL     OW14617   2.579   3.737   8.038 -0.7226 -0.3422 -0.4319
  995SOL    HW114618   2.484   3.750   8.041 -0.6212  0.6524 -1.4638
  995SOL    HW214619   2.585   3.642   8.048  1.8813  0.0378  1.7062
  996SOL     OW14620   1.222   4.663  10.897  0.1855 -0.2038 -0.9896
  996SOL    HW114621   1.174   4.698  10.972  1.2756 -0.5161 -0.1470
  996SOL    HW214622   1.312   4.693  10.911  0.2461 -0.6771 -0.3841
  997SOL     OW14623   3.832   3.488   6.953 -0.2119  0.3746 -0.5973
  997SOL    HW114624   3.736   3.484   6.944 -0.1169  1.2480 -1.9593
  997SOL    HW214625   3.827   3.513   7.045  0.9264  3.9851 -1.5353
  998SOL     OW14626   0.075   0.429  13.998 -0.3448 -0.2035 -0.1701
  998SOL    HW114627   0.147   0.478  13.958 -2.2938  1.4837 -1.6112
  998SOL    HW214628   0.047   0.385  13.918  0.3867  1.6529 -1.4631
  999SOL     OW14629   3.898   1.213  16.252 -0.0659  0.1506  0.3917
  999SOL    HW114630   3.880   1.134  16.202 -2.2023  0.9278 -0.0652
  999SOL    HW214631   3.942   1.178  16.330 -0.2362 -0.2717  0.2972
 1000SOL     OW14632   4.210   2.156   1.936  0.4907  0.4248  0.0223
 1000SOL    HW114633   4.253   2.075   1.963  2.1010  0.9039 -1.1313
 1000SOL    HW214634   4.270   2.222   1.971 -0.7207 -0.1023  3.0818
 1001SOL     OW14635   0.112   0.609   2.786 -0.0107 -0.2963  0.4480
 1001SOL    HW114636   0.079   0.531   2.740  1.8226 -0.2250 -0.9655
 1001SOL    HW214637   0.030   0.645   2.821 -0.2622  0.2976 -0.7658
 1002SOL     OW14638   3.282   3.115   2.970  0.0161  0.0012  0.4477
 1002SOL    HW114639   3.208   3.079   2.922  2.4330 -0.8059 -2.6608
 1002SOL    HW214640   3.345   3.098   2.900 -0.0759 -0.3776  0.4575
 1003SOL     OW14641   1.776   1.537   4.124 -0.2988 -0.1956  0.3013
 1003SOL    HW114642   1.689   1.497   4.120 -0.7554  0.6907  1.5528
 1003SOL    HW214643   1.763   1.631   4.134 -4.7350 -0.8525  0.5524
 1004SOL     OW14644   1.978   0.117  14.586 -0.1717  1.0835 -0.5081
 1004SOL    HW114645   1.971   0.200  14.538 -1.7001  1.5894  0.6250
 1004SOL    HW214646   1.889   0.082  14.579 -0.0847  0.6704  0.5170
 1005SOL     OW14647   1.362   4.400   3.767  0.0308  0.0887  0.4122
 1005SOL    HW114648   1.400   4.333   3.710  0.8852 -0.6637  1.8467
 1005SOL    HW214649   1.320   4.347   3.835  0.3862 -0.7377 -0.0176
 1006SOL     OW14650   4.576   2.516   3.148  0.0300  0.0681  0.2176
 1006SOL    HW114651   4.564   2.422   3.131 -2.1534  0.6203 -1.3706
 1006SOL    HW214652   4.665   2.524   3.181  0.0282 -2.3108  0.8314
 1007SOL     OW14653   3.766   4.182  11.728 -0.3134 -0.0856 -0.2580
 1007SOL    HW114654   3.704   4.136  11.785  1.0173 -0.1682  1.1306
 1007SOL    HW214655   3.799   4.246  11.792 -1.4676  0.2753 -0.0213
 1008SOL     OW14656   4.414   1.466   7.529 -0.4585 -0.3417  0.1739
 1008SOL    HW114657   4.462   1.459   7.611 -1.8787 -0.3486  1.0013
 1008SOL    HW214658   4.447   1.551   7.500 -2.3119  0.1721 -0.4696
 1009SOL     OW14659   3.776   0.747   3.213  0.0338 -0.1024  0.3364
 1009SOL    HW114660   3.807   0.662   3.182 -0.0500  0.4338 -1.2137
 1009SOL    HW214661   3.833   0.773   3.286 -0.6823  0.4668  0.6987
 1010SOL     OW14662   4.286   4.727   9.339  0.2844 -0.1731  0.3137
 1010SOL    HW114663   4.306   4.738   9.432  0.7663 -1.4458  0.3506
 1010SOL    HW214664   4.213   4.665   9.340 -0.2524  0.4584  0.6495
 1011SOL     OW14665   4.074   4.592  15.584 -0.1242 -0.0691  0.1010
 1011SOL    HW114666   4.101   4.647  15.657  0.0018  1.6018 -1.1969
 1011SOL    HW214667   4.096   4.657  15.517  1.5910 -0.8495 -0.0998
 1012SOL     OW14668   3.120   2.538   9.168  0.1941  0.2721  0.1774
 1012SOL    HW114669   3.195   2.539   9.109 -1.8053  0.4450 -2.3537
 1012SOL    HW214670   3.051   2.521   9.104  1.3209 -0.0283 -0.9631
 1013SOL     OW14671   3.148   2.751   5.597 -0.2574 -0.4123 -0.2319
 1013SOL    HW114672   3.160   2.740   5.502  1.9251 -0.6884  0.0652
 1013SOL    HW214673   3.101   2.671   5.620 -3.3126  1.3323 -0.3979
 1014SOL     OW14674   3.952   2.234  10.908 -0.6422 -0.2870  0.0582
 1014SOL    HW114675   3.996   2.157  10.944  0.1611 -0.4834 -1.3387
 1014SOL    HW214676   4.022   2.282  10.865 -0.2174 -1.8888 -1.0530
 1015SOL     OW14677   0.105   1.816   2.386  0.1166 -0.1247 -0.2657
 1015SOL    HW114678   0.037   1.779   2.330 -0.9636 -0.0442  0.9847
 1015SOL    HW214679   0.133   1.891   2.334  1.9819 -0.9143 -0.3909
 1016SOL     OW14680   1.009   4.698   5.962 -0.5176  0.4300  0.2078
 1016SOL    HW114681   1.009   0.011   5.881 -0.8452 -0.6176 -0.4517
 1016SOL    HW214682   1.043   4.614   5.933 -1.4762  0.2068 -0.2807
 1017SOL     OW14683   2.476   1.266   5.689  0.0579  0.8999  0.0350
 1017SOL    HW114684   2.488   1.232   5.778  1.0654 -0.9895 -0.8229
 1017SOL    HW214685   2.490   1.359   5.707 -2.3939  1.2295  0.2077
 1018SOL     OW14686   3.829   2.988  10.285  0.1469 -0.5756 -0.0191
 1018SOL    HW114687   3.887   3.034  10.224 -3.3631  1.1326 -2.0438
 1018SOL    HW214688   3.894   2.952  10.346 -1.2885 -2.5079  0.3668
 1019SOL     OW14689   3.753   1.338   6.391 -0.3981  0.0332  0.0724
 1019SOL    HW114690   3.840   1.305   6.416 -0.5401  0.7992  1.5497
 1019SOL    HW214691   3.758   1.359   6.298  1.8359  1.4256  0.5190
 1020SOL     OW14692   0.167   2.721   4.735  0.3891  0.2732  0.0265
 1020SOL    HW114693   0.202   2.647   4.686  1.3224  2.4228 -2.5043
 1020SOL    HW214694   0.088   2.731   4.682  1.2193 -0.3995 -1.3300
 1021SOL     OW14695   3.500   1.050   5.986  0.8242 -0.3832  0.0158
 1021SOL    HW114696   3.516   1.136   6.027 -0.8025  0.6169 -1.4190
 1021SOL    HW214697   3.406   1.046   6.004  1.0979 -3.9476  0.6561
 1022SOL     OW14698   1.208   1.441  11.446 -0.0631 -0.0899 -0.3812
 1022SOL    HW114699   1.177   1.353  11.466 -3.9547  0.7815 -2.6205
 1022SOL    HW214700   1.130   1.464  11.395 -0.9160 -0.5384  0.7373
 1023SOL     OW14701   3.257   1.195   2.082  0.2544 -0.1869  0.5054
 1023SOL    HW114702   3.331   1.166   2.135  0.2490  1.7992  1.6154
 1023SOL    HW214703   3.294   1.211   1.996  0.6943 -2.0236  0.3464
 1024SOL     OW14704   3.141   3.392   6.470 -0.0908  0.4699  0.7430
 1024SOL    HW114705   3.048   3.382   6.492  0.0743 -1.0040  0.8062
 1024SOL    HW214706   3.137   3.477   6.428  0.2406 -0.3443 -0.9553
 1025SOL     OW14707   3.854   1.283   8.909 -0.4102 -0.4297  0.2722
 1025SOL    HW114708   3.813   1.332   8.838  1.4759  1.1072  0.2614
 1025SOL    HW214709   3.911   1.350   8.947 -2.0211 -0.1955  2.2373
 1026SOL     OW14710   4.037   0.353   2.696 -0.2087  0.5115 -0.3455
 1026SOL    HW114711   4.091   0.344   2.775 -0.5250  1.0997 -0.0577
 1026SOL    HW214712   3.963   0.308   2.735  1.3181 -2.3692 -0.7782
 1027SOL     OW14713   2.241   1.066   2.685  0.0742 -0.0319  0.1029
 1027SOL    HW114714   2.301   1.046   2.613 -0.9634 -1.4763 -0.3610
 1027SOL    HW214715   2.263   1.157   2.705  0.0518 -0.0012 -0.0093
 1028SOL     OW14716   1.715   1.065  13.924  0.2821 -0.1363 -0.5904
 1028SOL    HW114717   1.773   1.042  13.997 -1.5306 -2.8996 -0.0257
 1028SOL    HW214718   1.779   1.048  13.856 -0.7376  2.4967 -2.1894
 1029SOL     OW14719   3.442   4.079   4.395 -0.5328  0.1727 -0.3449
 1029SOL    HW114720   3.523   4.117   4.363 -0.1461  0.6303  1.2058
 1029SOL    HW214721   3.428   4.134   4.472 -0.3788 -0.0402 -0.1662
 1030SOL     OW14722   4.075   3.576   0.023 -0.0936  0.2533  0.1809
 1030SOL    HW114723   4.141   3.513   0.051 -0.1508  0.5158  0.9028
 1030SOL    HW214724   3.997   3.520   0.020  0.9035 -1.1063 -0.9318
 1031SOL     OW14725   2.138   3.310   1.949  0.3030 -0.3539  0.2921
 1031SOL    HW114726   2.186   3.335   2.028  2.0523  2.1385 -1.5440
 1031SOL    HW214727   2.215   3.294   1.894  1.2187  0.6228  1.2869
 1032SOL     OW14728   1.236   0.125   3.264 -0.0003 -0.6636  0.2006
 1032SOL    HW114729   1.142   0.113   3.246  0.0105 -1.5172  0.7477
 1032SOL    HW214730   1.257   0.202   3.212  1.8655 -1.3816 -0.0883
 1033SOL     OW14731   3.887   1.411  13.397 -0.2915 -0.4410 -0.3013
 1033SOL    HW114732   3.799   1.442  13.378  0.7464  0.6653 -3.2885
 1033SOL    HW214733   3.879   1.324  13.357 -1.5729 -0.1405 -0.6750
 1034SOL     OW14734   2.444   4.311   6.345 -0.2110 -0.2827  0.1861
 1034SOL    HW114735   2.468   4.397   6.312  1.9159 -1.7033 -2.0508
 1034SOL    HW214736   2.396   4.334   6.424 -1.1838 -0.0965 -0.4607
 1035SOL     OW14737   2.067   2.825  14.256  0.6029  0.0881  0.1650
 1035SOL    HW114738   1.978   2.859  14.251 -1.0799 -4.5183 -1.3725
 1035SOL    HW214739   2.071   2.805  14.162  2.0580  2.6130 -0.2874
 1036SOL     OW14740   4.566   3.638   7.377 -0.0720  0.4739  0.1454
 1036SOL    HW114741   4.478   3.638   7.414  0.0359 -1.1493  0.4085
 1036SOL    HW214742   4.595   3.548   7.395 -2.2784 -0.3490 -0.4938
 1037SOL     OW14743   3.240   2.296   3.205 -0.2971 -0.2023 -0.5248
 1037SOL    HW114744   3.209   2.222   3.256 -0.0426 -1.2094 -1.8438
 1037SOL    HW214745   3.161   2.317   3.155 -1.4176 -2.1447  0.4380
 1038SOL     OW14746   3.794   3.432  11.487 -0.4939  0.5144 -0.8793
 1038SOL    HW114747   3.707   3.400  11.461 -0.1428 -0.5921 -0.7095
 1038SOL    HW214748   3.768   3.500  11.548 -0.7627 -0.2132 -0.1776
 1039SOL     OW14749   3.708   1.515   2.466 -0.3295  0.5193  0.2812
 1039SOL    HW114750   3.783   1.557   2.425 -0.3615 -2.6297 -3.0398
 1039SOL    HW214751   3.719   1.538   2.558 -0.0208  0.6400  0.2115
 1040SOL     OW14752   1.408   2.276   0.095  0.3362  0.3424  0.6403
 1040SOL    HW114753   1.361   2.356   0.116  0.2232  0.8342 -1.5211
 1040SOL    HW214754   1.414   2.228   0.178 -0.8612 -2.4349 -0.8791
 1041SOL     OW14755   1.938   2.735  15.892  0.3329  0.5860  0.2908
 1041SOL    HW114756   1.928   2.737  15.987 -0.2949 -3.9050  0.3017
 1041SOL    HW214757   1.925   2.641  15.882 -0.4420  0.6092  1.1555
 1042SOL     OW14758   3.006   0.616  15.191  0.4171 -0.2453 -0.5420
 1042SOL    HW114759   2.997   0.685  15.126  0.1459  1.5112  1.3722
 1042SOL    HW214760   2.920   0.574  15.182  0.6490 -1.0277  0.8238
 1043SOL     OW14761   3.703   1.149   4.992 -0.0732  0.3605  0.2115
 1043SOL    HW114762   3.648   1.185   4.923  1.2483 -2.0069 -2.0865
 1043SOL    HW214763   3.771   1.216   4.998  1.2413 -1.1364  1.9756
 1044SOL     OW14764   2.101   2.336  16.160 -0.3347 -0.3916 -0.9142
 1044SOL    HW114765   2.142   2.307  16.242 -1.8929 -0.2890 -0.0937
 1044SOL    HW214766   2.160   2.409  16.142 -1.9441  1.5380  1.7104
 1045SOL     OW14767   0.596   1.536  11.331 -0.0281  0.1180  0.1278
 1045SOL    HW114768   0.586   1.620  11.376  0.7319 -1.0179  2.3622
 1045SOL    HW214769   0.508   1.499  11.325 -0.2832  0.7263  0.0917
 1046SOL     OW14770   1.345   2.303   6.978  0.0358  0.1382 -0.6140
 1046SOL    HW114771   1.358   2.214   6.945  1.2738 -0.5613  1.7664
 1046SOL    HW214772   1.436   2.334   6.982 -0.3542  1.3893 -1.5629
 1047SOL     OW14773   3.736   2.479   5.095  0.2275  0.6538 -0.2955
 1047SOL    HW114774   3.654   2.527   5.106  0.5277  0.3893  3.3679
 1047SOL    HW214775   3.739   2.471   5.000  0.3662  1.5103 -0.3692
 1048SOL     OW14776   1.554   1.473   3.823  0.8312  0.0433  0.2705
 1048SOL    HW114777   1.620   1.542   3.821  0.5968  0.2315 -1.1659
 1048SOL    HW214778   1.475   1.527   3.835  1.1675  1.0068 -1.7512
 1049SOL     OW14779   1.016   0.930  14.181  0.7899 -0.1762 -0.0999
 1049SOL    HW114780   1.049   0.845  14.153 -2.2425 -1.0393 -1.0916
 1049SOL    HW214781   0.934   0.936  14.131  1.2227 -1.6289 -0.9910
 1050SOL     OW14782   3.446   2.426   2.165 -0.1862 -0.4763  0.2180
 1050SOL    HW114783   3.410   2.515   2.167 -0.0235 -0.3691 -1.9293
 1050SOL    HW214784   3.420   2.394   2.251  0.4795  0.7492  0.8738
 1051SOL     OW14785   3.608   4.169   3.469  1.0717  0.2707 -0.7226
 1051SOL    HW114786   3.579   4.083   3.500 -1.0618  1.3362  0.1781
 1051SOL    HW214787   3.698   4.151   3.440  0.4024  1.1093 -3.3486
 1052SOL     OW14788   1.804   0.852  11.726 -0.3664  0.0936 -0.1149
 1052SOL    HW114789   1.883   0.799  11.732  0.9197  1.8990 -1.5236
 1052SOL    HW214790   1.830   0.924  11.669  0.3427  0.0385  0.1479
 1053SOL     OW14791   0.886   1.953   4.481 -0.5436 -0.5797 -0.1980
 1053SOL    HW114792   0.849   1.969   4.394  0.4295 -0.3654 -0.5813
 1053SOL    HW214793   0.813   1.910   4.524 -0.8193 -0.7957 -0.8876
 1054SOL     OW14794   1.988   4.484   8.077 -0.5738  0.1483  0.1811
 1054SOL    HW114795   1.970   4.465   8.169  0.6216  0.9816  0.5973
 1054SOL    HW214796   1.968   4.578   8.078 -0.9448  0.1057 -2.8710
 1055SOL     OW14797   3.630   1.249   8.217 -0.1202  0.6480 -0.2595
 1055SOL    HW114798   3.625   1.206   8.302 -1.2952  0.9807 -0.1671
 1055SOL    HW214799   3.725   1.249   8.205 -0.1882  0.1263 -0.7958
 1056SOL     OW14800   1.390   3.154   0.484 -0.0777 -0.4174  0.7261
 1056SOL    HW114801   1.360   3.151   0.393  1.7606 -1.0999  0.1225
 1056SOL    HW214802   1.407   3.059   0.486  2.5653  0.0153 -0.8151
 1057SOL     OW14803   0.560   2.604   2.660 -0.3873 -0.1914  0.6591
 1057SOL    HW114804   0.582   2.697   2.657 -1.3752 -0.0017 -1.1540
 1057SOL    HW214805   0.570   2.585   2.753 -1.8373  0.4783  0.9570
 1058SOL     OW14806   3.483   3.784   4.741  0.3022 -0.3883 -0.0158
 1058SOL    HW114807   3.554   3.744   4.791  0.5895 -0.5969 -0.5874
 1058SOL    HW214808   3.423   3.800   4.813  1.5986 -2.0112  1.4016
 1059SOL     OW14809   0.786   2.330   7.918  0.3507  0.1396  0.0531
 1059SOL    HW114810   0.695   2.336   7.890  0.9952  1.7707 -1.6424
 1059SOL    HW214811   0.823   2.299   7.835 -0.3319  1.8310 -0.8636
 1060SOL     OW14812   3.015   4.492   2.977 -0.4769  0.2635  0.1806
 1060SOL    HW114813   2.921   4.472   2.982 -0.4512  0.0316 -0.3098
 1060SOL    HW214814   3.019   4.585   2.999  0.1157  0.2511  0.1139
 1061SOL     OW14815   2.203   4.307   6.501 -0.5918  0.2451  0.1375
 1061SOL    HW114816   2.120   4.264   6.481 -0.2484 -0.9135  1.2149
 1061SOL    HW214817   2.226   4.265   6.583 -1.0103  2.2786  1.3015
 1062SOL     OW14818   1.331   0.808   1.771  0.4014 -0.0443 -0.4778
 1062SOL    HW114819   1.247   0.851   1.754 -0.3655  0.0320  3.3578
 1062SOL    HW214820   1.312   0.717   1.750 -2.1495 -0.3269  3.0370
 1063SOL     OW14821   1.638   3.185  16.570  0.1263  0.1823 -0.0511
 1063SOL    HW114822   1.654   3.114  16.507  2.1021  0.2752  0.3266
 1063SOL    HW214823   1.547   3.203  16.549  0.3871  0.8282 -0.6556
 1064SOL     OW14824   2.831   2.496   6.609 -0.0629  0.2278  0.4962
 1064SOL    HW114825   2.771   2.426   6.582 -1.1101  1.0439  0.7506
 1064SOL    HW214826   2.877   2.457   6.683 -1.9085  0.1359  1.5898
 1065SOL     OW14827   4.017   1.454  12.120 -0.0255 -0.0044  0.7397
 1065SOL    HW114828   3.936   1.466  12.170 -1.2792 -0.6382 -1.1657
 1065SOL    HW214829   3.988   1.378  12.069  2.3603  1.3835 -2.6948
 1066SOL     OW14830   3.729   3.734   5.105 -0.2896  0.5119 -0.0248
 1066SOL    HW114831   3.795   3.790   5.064 -0.3050 -0.3798 -1.2621
 1066SOL    HW214832   3.682   3.793   5.164 -2.5526 -1.0602 -0.2594
 1067SOL     OW14833   1.926   1.962   7.010  0.3165 -0.3479 -0.5168
 1067SOL    HW114834   1.960   2.048   7.035  1.6268 -0.5228 -1.6583
 1067SOL    HW214835   1.969   1.946   6.925  0.9891 -1.9864  0.1358
 1068SOL     OW14836   0.899   2.314  12.178 -0.0882 -0.0690 -0.2208
 1068SOL    HW114837   0.863   2.304  12.266  0.8212  1.0268  0.2919
 1068SOL    HW214838   0.993   2.302  12.194  0.0662  1.9834  0.4245
 1069SOL     OW14839   4.209   1.916   4.884 -0.3570  0.2293 -0.1745
 1069SOL    HW114840   4.175   1.909   4.973 -1.2685  1.5040 -0.4067
 1069SOL    HW214841   4.280   1.978   4.899 -0.1437  0.2052 -1.0908
 1070SOL     OW14842   1.514   1.066   8.959 -0.8040  0.0807  0.0238
 1070SOL    HW114843   1.451   1.007   8.918  1.5745 -1.6319 -1.1724
 1070SOL    HW214844   1.495   1.141   8.902 -0.7179  0.2047  0.1587
 1071SOL     OW14845   2.647   0.060   6.774  0.1731  0.0973 -1.0503
 1071SOL    HW114846   2.686   0.006   6.843  0.7205 -1.6364 -2.7091
 1071SOL    HW214847   2.716   0.054   6.708 -0.3608  0.9969 -1.6926
 1072SOL     OW14848   0.277   4.245   8.448 -0.1298  0.2700 -0.5211
 1072SOL    HW114849   0.226   4.313   8.493  0.8146  1.8165 -1.7535
 1072SOL    HW214850   0.366   4.259   8.483 -0.5139 -1.2921  1.0869
 1073SOL     OW14851   3.287   1.932   4.888 -0.1024 -0.0961  0.3027
 1073SOL    HW114852   3.278   1.988   4.965 -0.6083 -1.5462  1.3013
 1073SOL    HW214853   3.223   1.965   4.825 -1.4866 -1.4239  1.0164
 1074SOL     OW14854   1.819   4.054  13.346 -0.5236 -0.5424 -0.2091
 1074SOL    HW114855   1.862   3.972  13.320  0.6115  0.3577 -1.1821
 1074SOL    HW214856   1.867   4.082  13.424  0.4282 -0.8649 -0.6684
 1075SOL     OW14857   1.553   2.217  15.826  0.3059 -0.2975  0.7704
 1075SOL    HW114858   1.590   2.178  15.747 -1.4310 -1.9197  0.7512
 1075SOL    HW214859   1.542   2.142  15.884  0.9622 -1.4739 -0.6139
 1076SOL     OW14860   3.656   2.115   3.739 -0.3665 -0.0515  0.4832
 1076SOL    HW114861   3.597   2.077   3.804  0.3291  1.6587  2.1348
 1076SOL    HW214862   3.586   2.147   3.682  0.4038 -2.7563 -1.9717
 1077SOL     OW14863   2.596   1.653   0.158  1.3034  0.3669  0.1441
 1077SOL    HW114864   2.615   1.597   0.083  2.7334 -0.7632  1.3491
 1077SOL    HW214865   2.625   1.736   0.121 -1.1053  0.7011 -1.0016
 1078SOL     OW14866   1.583   2.467   6.706  0.4435  0.5821 -0.3759
 1078SOL    HW114867   1.603   2.380   6.739 -1.2928  0.4483  0.3364
 1078SOL    HW214868   1.614   2.512   6.784 -0.0569  0.4761 -0.1129
 1079SOL     OW14869   2.215   1.724   4.676 -0.1805  0.0370 -0.0134
 1079SOL    HW114870   2.203   1.657   4.743 -0.9370  1.4639  1.2877
 1079SOL    HW214871   2.126   1.746   4.648 -0.7215 -2.0148  0.1129
 1080SOL     OW14872   0.259   3.989   5.617  0.1617  0.3944  0.2805
 1080SOL    HW114873   0.222   4.077   5.629 -1.3270 -0.1810 -0.0189
 1080SOL    HW214874   0.315   3.988   5.694 -0.0340 -1.0398  0.4090
 1081SOL     OW14875   4.037   1.590  16.351 -0.3783  0.1887  0.7617
 1081SOL    HW114876   3.961   1.576  16.295 -0.5405  0.9312  0.7899
 1081SOL    HW214877   4.022   1.536  16.428  1.2970 -0.9256  0.3164
 1082SOL     OW14878   2.612   1.454   8.617 -0.0833  0.3171 -0.7758
 1082SOL    HW114879   2.677   1.398   8.574  0.6465  0.7803 -0.2721
 1082SOL    HW214880   2.645   1.459   8.707 -2.2928 -0.1382  0.0651
 1083SOL     OW14881   0.457   2.767  15.168 -0.0984 -0.2208  0.1363
 1083SOL    HW114882   0.516   2.698  15.138 -0.6605  0.4506 -2.5697
 1083SOL    HW214883   0.430   2.805  15.084  0.8108 -2.4377 -1.1470
 1084SOL     OW14884   3.510   2.775   3.451  0.7084  0.6876  0.2245
 1084SOL    HW114885   3.443   2.734   3.505 -0.6626  1.3588 -0.9613
 1084SOL    HW214886   3.467   2.792   3.367 -0.4327 -0.0632  0.6590
 1085SOL     OW14887   3.945   3.692  15.358  0.8480 -0.0641 -0.8022
 1085SOL    HW114888   3.944   3.675  15.264 -1.1150  1.8841 -1.1408
 1085SOL    HW214889   4.036   3.671  15.381  0.3246 -0.4572  0.8640
 1086SOL     OW14890   1.364   1.690   2.232 -0.5570  0.5091 -0.0151
 1086SOL    HW114891   1.402   1.610   2.194  3.0837  1.1057  2.4008
 1086SOL    HW214892   1.434   1.754   2.222 -1.7489  1.9635  1.0173
 1087SOL     OW14893   0.254   1.290   2.133 -0.2244 -0.3046 -0.3418
 1087SOL    HW114894   0.253   1.196   2.149 -1.6574 -0.3894 -1.0052
 1087SOL    HW214895   0.215   1.307   2.047 -0.5349  2.2241  0.2869
 1088SOL     OW14896   1.737   1.962   5.344 -0.0888  0.2403  0.4044
 1088SOL    HW114897   1.663   1.909   5.374  0.7302 -2.1386 -1.7972
 1088SOL    HW214898   1.688   2.032   5.300 -0.6148 -1.0552 -1.0778
 1089SOL     OW14899   4.456   3.183   8.679  1.0468  1.0060 -0.6383
 1089SOL    HW114900   4.527   3.234   8.640  2.7414  2.0101  3.7591
 1089SOL    HW214901   4.408   3.177   8.596 -0.7749 -2.1849  0.6562
 1090SOL     OW14902   2.552   0.212   2.365  0.8720  0.3994  0.0129
 1090SOL    HW114903   2.524   0.121   2.374  2.0185 -0.0643 -1.1884
 1090SOL    HW214904   2.533   0.231   2.457 -0.6403  0.0436 -0.2154
 1091SOL     OW14905   0.892   3.887   4.715  0.1052  0.6305  1.0564
 1091SOL    HW114906   0.874   3.841   4.797 -3.2532  2.9002  1.5810
 1091SOL    HW214907   0.987   3.885   4.727  0.0606 -0.6807  1.1951
 1092SOL     OW14908   1.515   2.421   3.021  0.7141  0.6012  0.4690
 1092SOL    HW114909   1.514   2.496   3.081 -2.6774  1.6410 -0.9263
 1092SOL    HW214910   1.490   2.351   3.082 -0.4766  0.2382 -0.4382
 1093SOL     OW14911   1.265   3.468   2.413  0.3371 -0.0204  0.3145
 1093SOL    HW114912   1.220   3.431   2.489  0.4938 -1.1524 -0.1397
 1093SOL    HW214913   1.281   3.391   2.359  0.8978  0.8791 -0.8199
 1094SOL     OW14914   0.482   2.397   5.390  0.3928  0.0660  0.2339
 1094SOL    HW114915   0.483   2.384   5.485 -0.6973  0.2243  0.2691
 1094SOL    HW214916   0.577   2.394   5.377  0.3388 -0.3412 -0.0802
 1095SOL     OW14917   2.015   0.432   2.231  0.0471  0.4127 -0.2638
 1095SOL    HW114918   2.040   0.357   2.286  1.2596 -0.8854 -2.5323
 1095SOL    HW214919   2.054   0.508   2.274 -0.2785  1.3168 -1.5682
 1096SOL     OW14920   2.339   2.009   3.471 -0.2244 -0.2691  0.1963
 1096SOL    HW114921   2.368   1.922   3.498  0.6629 -0.5013 -1.4837
 1096SOL    HW214922   2.249   1.995   3.442 -0.0469 -1.4601  0.2245
 1097SOL     OW14923   2.379   1.133  13.376 -0.1454 -0.2876 -0.7314
 1097SOL    HW114924   2.448   1.066  13.371 -0.6768 -0.8793 -0.1718
 1097SOL    HW214925   2.420   1.216  13.399 -0.8724  0.1781 -1.1443
 1098SOL     OW14926   2.011   3.418  11.549  0.3667  0.1767  0.3637
 1098SOL    HW114927   2.062   3.343  11.517 -0.6336  0.0211 -0.8526
 1098SOL    HW214928   2.082   3.466  11.591  0.6372 -0.4544  0.6281
 1099SOL     OW14929   3.855   0.744  11.948 -0.1496  0.5446 -0.6303
 1099SOL    HW114930   3.779   0.723  11.893 -0.1598 -1.5882  0.2156
 1099SOL    HW214931   3.836   0.838  11.949 -1.7122  0.2030  1.0078
 1100SOL     OW14932   1.619   2.483   8.725  0.4871  0.2409 -0.0286
 1100SOL    HW114933   1.672   2.562   8.735 -1.2478  1.5851 -1.3966
 1100SOL    HW214934   1.540   2.495   8.777  1.1319 -2.3978  1.5470
 1101SOL     OW14935   4.548   4.630   7.119 -0.2715  0.0451 -0.2986
 1101SOL    HW114936   4.478   4.629   7.054  0.0625  1.6150 -0.6677
 1101SOL    HW214937   4.624   4.634   7.062  1.0196 -1.3529  1.3056
 1102SOL     OW14938   0.434   4.719   2.695  0.2974 -0.4355  0.1580
 1102SOL    HW114939   0.347   0.015   2.676 -0.0489 -3.1915 -3.2481
 1102SOL    HW214940   0.451   4.668   2.616 -2.2602 -4.2388  2.0644
 1103SOL     OW14941   4.658   0.072   6.778 -0.1410 -0.2466  0.2139
 1103SOL    HW114942   4.689   4.732   6.823 -2.6609 -0.4974  1.4629
 1103SOL    HW214943   4.680   0.134   6.848 -0.7049 -0.6458  0.7461
 1104SOL     OW14944   2.967   0.125  13.730  0.1888  0.0927 -0.2195
 1104SOL    HW114945   2.902   0.196  13.726  2.1216  2.0144  2.3937
 1104SOL    HW214946   2.969   0.098  13.821 -0.4210  0.7791 -0.0005
 1105SOL     OW14947   0.497   3.135   1.316  0.1088 -0.2037  0.0349
 1105SOL    HW114948   0.550   3.200   1.362  0.1805 -0.0503 -0.2668
 1105SOL    HW214949   0.496   3.163   1.225 -0.9459  0.9533  0.3951
 1106SOL     OW14950   0.757   0.635  15.013 -0.1204 -0.4031 -0.4567
 1106SOL    HW114951   0.775   0.616  15.105 -0.1714  0.9310 -0.1739
 1106SOL    HW214952   0.757   0.548  14.973 -0.1506 -0.6192  0.0074
 1107SOL     OW14953   3.866   0.371   4.330  0.2963 -0.2961 -0.0191
 1107SOL    HW114954   3.878   0.297   4.390 -0.3330 -1.9398 -1.9300
 1107SOL    HW214955   3.893   0.330   4.248  1.3778 -0.1811  0.2874
 1108SOL     OW14956   2.094   4.070   3.504  0.2784 -0.3609 -0.4832
 1108SOL    HW114957   2.086   4.072   3.409 -0.6735 -0.9760 -0.4184
 1108SOL    HW214958   2.040   4.147   3.524  0.4941 -0.7014  1.4011
 1109SOL     OW14959   3.404   3.075   2.714  1.0682  0.0320 -0.0539
 1109SOL    HW114960   3.410   2.981   2.698  0.6073 -0.3239  1.8618
 1109SOL    HW214961   3.425   3.102   2.625  3.4479 -0.5290  0.3301
 1110SOL     OW14962   0.189   0.259  17.739  0.3006 -0.2127  0.3779
 1110SOL    HW114963   0.199   0.244   0.082  0.4465 -1.2899  0.1970
 1110SOL    HW214964   0.245   0.189  17.704 -0.4179 -0.1814 -0.8267
 1111SOL     OW14965   1.429   0.573   2.498  0.0404 -0.2463  0.1373
 1111SOL    HW114966   1.395   0.576   2.408  1.8049 -1.9404 -0.5975
 1111SOL    HW214967   1.383   0.494   2.525  0.3908 -0.2919  0.5923
 1112SOL     OW14968   2.956   3.264   2.372  0.9670  0.2923  0.1891
 1112SOL    HW114969   2.945   3.190   2.431  2.7323  0.4495  0.7093
 1112SOL    HW214970   2.939   3.344   2.421 -1.0009  0.6505 -1.0524
 1113SOL     OW14971   2.094   0.260   4.599 -0.8365 -0.1235  0.2168
 1113SOL    HW114972   2.142   0.177   4.604  0.0039  0.3437 -0.1063
 1113SOL    HW214973   2.067   0.259   4.691  0.6802 -0.1830  0.6734
 1114SOL     OW14974   1.742   0.471   2.199  0.3167  0.3807  0.2481
 1114SOL    HW114975   1.835   0.449   2.200 -0.0798 -1.1836  2.5545
 1114SOL    HW214976   1.688   0.392   2.189  1.0187  0.2588 -2.5788
 1115SOL     OW14977   1.308   4.496  12.033 -0.0802  0.0487  0.3940
 1115SOL    HW114978   1.244   4.563  12.060  0.5445  1.3470 -1.2720
 1115SOL    HW214979   1.266   4.423  12.078  2.7198 -1.5321  0.3784
 1116SOL     OW14980   2.208   1.655   8.940  0.1863  0.2874 -0.7211
 1116SOL    HW114981   2.115   1.643   8.925  0.4037 -2.1706 -0.0391
 1116SOL    HW214982   2.248   1.601   8.872  2.1444  1.4985 -0.5259
 1117SOL     OW14983   4.095   0.763  12.090  0.5712 -0.1064 -0.3367
 1117SOL    HW114984   4.028   0.766  12.022  1.7967 -0.0241 -1.5380
 1117SOL    HW214985   4.087   0.668  12.099  2.3360 -0.2701 -0.4092
 1118SOL     OW14986   1.458   1.056   6.617 -0.4234 -0.5171  0.1966
 1118SOL    HW114987   1.411   1.011   6.687  1.0153 -1.8194  0.3298
 1118SOL    HW214988   1.448   1.004   6.537  0.8743  0.9418 -0.9178
 1119SOL     OW14989   0.291   0.734   2.921 -0.3105  0.0473 -0.3161
 1119SOL    HW114990   0.236   0.671   2.876  3.0979 -1.7812 -1.8782
 1119SOL    HW214991   0.301   0.678   2.998  1.1082 -1.4785 -1.6407
 1120SOL     OW14992   0.970   3.419   6.179 -0.1299  0.2180 -0.2687
 1120SOL    HW114993   0.920   3.338   6.193  1.4802 -1.2175 -2.6806
 1120SOL    HW214994   1.029   3.406   6.105 -0.4652 -2.1160 -0.1396
 1121SOL     OW14995   3.287   0.165   5.526  0.1277  0.4266  0.1920
 1121SOL    HW114996   3.209   0.112   5.516 -0.5464  2.0497 -3.4428
 1121SOL    HW214997   3.339   0.139   5.450  1.9208 -1.3286  2.0175
 1122SOL     OW14998   0.344   4.136   3.307  0.4178  0.1931 -0.5126
 1122SOL    HW114999   0.322   4.195   3.234  2.2112 -0.6497 -1.7095
 1122SOL    HW215000   0.346   4.208   3.370 -0.6522  0.4436 -0.7571
 1123SOL     OW15001   2.285   3.378   8.563 -0.0910  0.4351  1.1346
 1123SOL    HW115002   2.328   3.434   8.498 -1.1894 -2.3642 -2.0317
 1123SOL    HW215003   2.359   3.362   8.621 -0.0470  1.0228  1.2436
 1124SOL     OW15004   0.644   2.179   2.018  0.0659  0.3519  0.1302
 1124SOL    HW115005   0.712   2.112   2.031  0.2854  0.5782  0.1521
 1124SOL    HW215006   0.691   2.243   1.965 -0.9605 -0.5972 -1.9168
 1125SOL     OW15007   0.336   2.085   6.243  0.1106 -0.3712  0.0499
 1125SOL    HW115008   0.249   2.104   6.278 -0.4010 -0.3514 -1.2154
 1125SOL    HW215009   0.336   1.990   6.244  0.3555 -0.3160  3.6435
 1126SOL     OW15010   0.522   4.530  10.839 -0.0247 -0.2128  0.2542
 1126SOL    HW115011   0.445   4.472  10.841 -0.7851  0.7271 -1.7482
 1126SOL    HW215012   0.490   4.596  10.778  0.1105  1.0595  1.5520
 1127SOL     OW15013   2.034   3.437  16.471 -0.3710 -0.0015 -0.4700
 1127SOL    HW115014   2.000   3.357  16.510 -0.6705 -0.7907 -2.3957
 1127SOL    HW215015   1.990   3.513  16.510  0.2448 -0.4548  1.1063
 1128SOL     OW15016   1.983   0.982   1.653  0.3527 -0.7991 -0.1888
 1128SOL    HW115017   1.926   0.906   1.647 -1.0332  0.2318  0.1691
 1128SOL    HW215018   2.070   0.963   1.690  1.7178  2.6446 -1.5642
 1129SOL     OW15019   0.725   1.209   7.148  0.5260  0.8384  0.2720
 1129SOL    HW115020   0.689   1.240   7.065  3.0799 -0.3059 -1.2595
 1129SOL    HW215021   0.651   1.166   7.192 -0.1304  0.0136 -1.6463
 1130SOL     OW15022   0.406   1.472   2.279 -0.1388  0.2886 -0.0753
 1130SOL    HW115023   0.362   1.415   2.217 -1.0731  2.8386 -1.7479
 1130SOL    HW215024   0.489   1.493   2.235 -1.1163  2.7913 -0.7420
 1131SOL     OW15025   1.101   0.503   1.620  0.6623 -0.0515  0.1166
 1131SOL    HW115026   1.028   0.448   1.591  0.7575  0.0103 -0.2384
 1131SOL    HW215027   1.081   0.582   1.570 -1.5791 -0.1588  0.8218
 1132SOL     OW15028   2.464   0.821   4.430 -0.1925  0.2376 -0.1866
 1132SOL    HW115029   2.421   0.832   4.345  1.1252 -0.1292 -0.8903
 1132SOL    HW215030   2.393   0.802   4.492 -0.0820  2.3224  0.5976
 1133SOL     OW15031   2.305   2.356   0.423  0.0161  0.3412  0.6807
 1133SOL    HW115032   2.256   2.438   0.421 -1.9514 -0.7771  2.6498
 1133SOL    HW215033   2.272   2.317   0.342  0.3114 -0.0682  0.7583
 1134SOL     OW15034   0.654   2.602   5.879  0.2478 -0.5226  0.4303
 1134SOL    HW115035   0.576   2.605   5.934  0.2829 -2.0862  0.5552
 1134SOL    HW215036   0.623   2.661   5.810  2.8321 -0.7033 -0.8807
 1135SOL     OW15037   2.865   1.816   6.313  0.6439  0.5224 -0.4853
 1135SOL    HW115038   2.953   1.813   6.275  0.8142 -2.7162  0.1655
 1135SOL    HW215039   2.836   1.724   6.315 -1.3783  1.0965 -3.3472
 1136SOL     OW15040   0.235   0.140   3.338 -0.2797 -0.6084  1.0328
 1136SOL    HW115041   0.241   0.063   3.282  1.4050  0.7641 -0.6956
 1136SOL    HW215042   0.269   0.208   3.279 -1.0640 -1.0757  0.0378
 1137SOL     OW15043   3.324   3.935  10.929 -0.1051  0.0878 -0.3419
 1137SOL    HW115044   3.280   4.003  10.980  2.0059  0.0141  1.5266
 1137SOL    HW215045   3.334   3.864  10.992 -0.5488 -2.3679 -3.0027
 1138SOL     OW15046   0.663   2.251   2.520 -0.6049 -0.2728 -0.4130
 1138SOL    HW115047   0.671   2.179   2.582 -1.0504  1.0726  1.2113
 1138SOL    HW215048   0.711   2.225   2.441  2.5424  2.9456  0.4699
 1139SOL     OW15049   3.506   3.660   5.982 -0.0654  0.0687  0.1742
 1139SOL    HW115050   3.551   3.583   5.948 -0.4510  0.5333 -1.3981
 1139SOL    HW215051   3.425   3.617   6.010  0.4781 -0.4105  0.9894
 1140SOL     OW15052   0.744   3.793   4.198 -0.3468 -0.1991  0.3172
 1140SOL    HW115053   0.738   3.793   4.294  1.3129  0.9066  0.4246
 1140SOL    HW215054   0.652   3.793   4.173 -0.1574  0.1253 -0.3589
 1141SOL     OW15055   0.014   2.049   1.021 -0.2654  0.4808  0.1760
 1141SOL    HW115056   4.723   2.137   0.996 -0.2134 -0.1375 -2.0352
 1141SOL    HW215057   0.082   2.029   0.956 -0.6383  1.5054 -0.5375
 1142SOL     OW15058   4.476   3.320   7.232 -0.3532 -0.1538  0.3535
 1142SOL    HW115059   4.421   3.307   7.309  1.4631 -0.8713  1.5449
 1142SOL    HW215060   4.413   3.332   7.161 -0.0375  1.9317  0.4200
 1143SOL     OW15061   1.924   0.542   6.321 -0.6558  0.2995  0.5142
 1143SOL    HW115062   2.009   0.525   6.361 -0.6993 -1.6386 -0.2217
 1143SOL    HW215063   1.934   0.637   6.312  0.6783 -0.1114 -2.1909
 1144SOL     OW15064   0.572   3.723   2.594 -0.3502 -0.3969 -0.1852
 1144SOL    HW115065   0.479   3.719   2.573 -0.6882 -0.9566  1.3728
 1144SOL    HW215066   0.592   3.817   2.599  1.7024 -0.8641  0.6761
 1145SOL     OW15067   0.427   3.183   8.865 -0.4119 -0.0067 -0.5069
 1145SOL    HW115068   0.496   3.248   8.879 -0.4303  0.1105 -0.9827
 1145SOL    HW215069   0.375   3.202   8.944 -0.8599 -1.3511 -0.4849
 1146SOL     OW15070   2.198   2.048   0.428 -0.2180  0.0196 -0.7543
 1146SOL    HW115071   2.187   2.086   0.341 -1.1734  2.2344  0.3152
 1146SOL    HW215072   2.288   2.065   0.456  0.1361 -1.9145 -0.7297
 1147SOL     OW15073   0.177   1.269  17.742  0.3572  0.1119 -0.4761
 1147SOL    HW115074   0.159   1.352   0.037 -1.3197 -0.5477  0.0597
 1147SOL    HW215075   0.090   1.231  17.731  0.0494  0.8055 -0.4260
 1148SOL     OW15076   0.604   1.657  12.241  0.3412  0.3007 -0.5168
 1148SOL    HW115077   0.664   1.685  12.173  2.3038  1.3990  1.6540
 1148SOL    HW215078   0.585   1.742  12.281 -1.9862 -0.2128 -0.5136
 1149SOL     OW15079   3.644   4.114   2.657 -0.4592 -0.3385  0.1872
 1149SOL    HW115080   3.619   4.120   2.564 -0.4943 -0.0683  0.2137
 1149SOL    HW215081   3.585   4.174   2.702  0.4499 -0.2324  1.2163
 1150SOL     OW15082   1.263   1.491   6.426 -0.2370  0.1752  0.2428
 1150SOL    HW115083   1.228   1.401   6.425 -1.6564  0.7412 -2.1017
 1150SOL    HW215084   1.192   1.535   6.473 -0.5884  1.4836 -1.4957
 1151SOL     OW15085   0.387   2.414  10.711 -0.1334  0.1044 -1.0492
 1151SOL    HW115086   0.329   2.357  10.661  2.4901 -1.7763 -1.9528
 1151SOL    HW215087   0.335   2.417  10.791  2.1401  1.3071  0.3735
 1152SOL     OW15088   3.312   3.835   4.524 -0.2878  0.1257  0.4607
 1152SOL    HW115089   3.374   3.802   4.589 -1.1598 -1.9424  0.2485
 1152SOL    HW215090   3.373   3.877   4.463  1.0337 -1.7456  0.4931
 1153SOL     OW15091   1.265   1.364   3.376  0.0090 -0.1481 -0.1088
 1153SOL    HW115092   1.284   1.413   3.297  1.0638 -1.7809 -0.8718
 1153SOL    HW215093   1.262   1.436   3.438  2.0879 -0.1528 -0.0123
 1154SOL     OW15094   3.240   3.601  16.911 -0.6365 -0.5266  0.3429
 1154SOL    HW115095   3.266   3.579  16.822 -0.2598 -0.9060  0.5502
 1154SOL    HW215096   3.322   3.631  16.948 -0.4438 -2.4620  1.4801
 1155SOL     OW15097   2.539   3.512   4.814 -0.6321  0.3214 -0.1779
 1155SOL    HW115098   2.562   3.452   4.742  0.1030  0.5516 -0.1307
 1155SOL    HW215099   2.621   3.560   4.804  0.5198 -1.5211  0.3466
 1156SOL     OW15100   1.399   4.638   7.139 -0.1886 -0.1516  0.6034
 1156SOL    HW115101   1.412   4.598   7.225 -1.3377 -1.7227  0.0575
 1156SOL    HW215102   1.478   4.609   7.092 -1.4226  0.3648 -1.7954
 1157SOL     OW15103   3.968   2.157   9.125  0.4701  0.1671  0.9934
 1157SOL    HW115104   3.886   2.162   9.175  0.1864  3.3219  0.2649
 1157SOL    HW215105   4.012   2.236   9.158 -0.8967  1.0934  0.6345
 1158SOL     OW15106   3.534   0.542   5.499 -0.1366  0.4195 -0.4975
 1158SOL    HW115107   3.515   0.474   5.564  0.6333 -0.2724 -0.9942
 1158SOL    HW215108   3.586   0.603   5.551  2.4980  0.5831 -3.3545
 1159SOL     OW15109   1.302   4.567  14.141 -0.2262 -0.1776  0.4179
 1159SOL    HW115110   1.354   4.642  14.171 -0.6640 -0.3739  1.6673
 1159SOL    HW215111   1.345   4.504  14.199 -1.1425 -1.4375 -0.2707
 1160SOL     OW15112   1.418   0.411  15.959 -0.0836  0.0018 -0.1634
 1160SOL    HW115113   1.352   0.468  15.920  0.3206  0.2770 -0.4397
 1160SOL    HW215114   1.366   0.332  15.976 -1.7157  0.9586 -0.7367
 1161SOL     OW15115   3.505   1.576  14.199  0.5537  0.2087 -0.0557
 1161SOL    HW115116   3.433   1.565  14.137 -0.9208 -1.1256  1.8940
 1161SOL    HW215117   3.577   1.604  14.143 -0.0100  2.2596  0.2593
 1162SOL     OW15118   4.548   4.410   8.933  0.4579 -0.4913  0.6883
 1162SOL    HW115119   4.477   4.474   8.933  1.6217  0.7914  1.2261
 1162SOL    HW215120   4.568   4.418   9.026  0.7596 -0.3674  0.6138
 1163SOL     OW15121   3.490   1.812   5.516 -0.2336 -0.0494  0.0564
 1163SOL    HW115122   3.473   1.764   5.435 -1.0778 -1.4337  1.0528
 1163SOL    HW215123   3.567   1.769   5.552  0.7271  0.1015 -1.7934
 1164SOL     OW15124   0.634   3.898   9.604  0.2288  0.1357  0.2641
 1164SOL    HW115125   0.573   3.924   9.535 -0.2340 -0.8129  0.3237
 1164SOL    HW215126   0.574   3.849   9.659 -1.0206  0.9439 -0.3880
 1165SOL     OW15127   0.795   0.380  13.473 -0.0018  0.7061  0.6834
 1165SOL    HW115128   0.748   0.398  13.391 -1.8205  1.4111  1.8857
 1165SOL    HW215129   0.745   0.304  13.501 -2.2491  0.9241 -2.6145
 1166SOL     OW15130   0.175   1.761   6.674 -0.5557  0.3217  0.1331
 1166SOL    HW115131   0.215   1.710   6.744 -1.1254  0.3706  0.4946
 1166SOL    HW215132   0.247   1.819   6.650  0.2934 -0.5153  0.6761
 1167SOL     OW15133   2.587   1.627   3.220 -0.1536  0.1558  0.3666
 1167SOL    HW115134   2.620   1.587   3.301 -1.0177  0.7994  1.0337
 1167SOL    HW215135   2.641   1.590   3.150  1.4247 -0.0556  1.6809
 1168SOL     OW15136   4.400   4.530   3.230 -0.4076  0.1540 -0.1193
 1168SOL    HW115137   4.381   4.512   3.138 -0.6778  1.4306 -0.3168
 1168SOL    HW215138   4.324   4.576   3.265  1.0851  2.0412  0.6528
 1169SOL     OW15139   1.275   1.425   4.777  0.4280 -0.5593 -0.9046
 1169SOL    HW115140   1.296   1.474   4.857 -4.4128  1.0206 -0.6093
 1169SOL    HW215141   1.235   1.488   4.717  3.2457  1.3774 -0.7834
 1170SOL     OW15142   1.093   0.467   2.192  0.1049  0.5240  0.4069
 1170SOL    HW115143   1.066   0.515   2.113  0.7302  0.0383 -0.1034
 1170SOL    HW215144   1.026   0.399   2.198 -0.3800  1.0427  0.9571
 1171SOL     OW15145   3.546   2.054   7.872 -0.1680  0.0440  0.4019
 1171SOL    HW115146   3.456   2.078   7.893 -0.4270  0.4549 -1.1615
 1171SOL    HW215147   3.589   2.139   7.866  1.7682 -0.8698  1.3993
 1172SOL     OW15148   1.841   0.959   5.212  0.2689 -0.0316  0.0457
 1172SOL    HW115149   1.923   1.005   5.200  1.1137 -1.7300 -0.7048
 1172SOL    HW215150   1.871   0.890   5.272  2.9187  2.5907  1.7195
 1173SOL     OW15151   2.869   1.179   2.935 -0.0699  0.9814  0.1965
 1173SOL    HW115152   2.873   1.087   2.960  0.3677  0.9001 -0.1821
 1173SOL    HW215153   2.869   1.166   2.840 -2.5449  1.8424  0.0601
 1174SOL     OW15154   2.447   1.573   5.054 -0.1305 -0.7476  0.2345
 1174SOL    HW115155   2.496   1.642   5.011 -0.7030 -1.1957 -1.1284
 1174SOL    HW215156   2.358   1.588   5.021 -0.1493  1.4138  1.3134
 1175SOL     OW15157   1.351   4.660  13.016  0.0769 -0.3579  0.6607
 1175SOL    HW115158   1.422   4.650  12.952 -0.6640 -0.4404 -0.1378
 1175SOL    HW215159   1.356   0.018  13.021 -1.5613 -0.0601 -3.0199
 1176SOL     OW15160   1.132   1.885   3.496  0.2074 -0.0494 -0.2979
 1176SOL    HW115161   1.184   1.874   3.575 -0.7295  3.2929  0.7999
 1176SOL    HW215162   1.057   1.927   3.538 -0.5249 -0.1151 -1.5321
 1177SOL     OW15163   4.058   0.929   5.596  0.2288 -0.3564 -0.1044
 1177SOL    HW115164   4.128   0.864   5.590  1.3413  0.7351  1.1385
 1177SOL    HW215165   4.115   1.005   5.596 -0.1515 -0.0805 -4.2179
 1178SOL     OW15166   4.283   2.185   8.047  0.5821  0.1280 -0.4095
 1178SOL    HW115167   4.361   2.144   8.084  0.6627  0.6537  0.0176
 1178SOL    HW215168   4.259   2.252   8.111  2.8327  2.2194 -1.7529
 1179SOL     OW15169   1.067   2.190   5.446  0.9001  0.1232 -0.1787
 1179SOL    HW115170   1.067   2.231   5.532  0.4146  1.4421 -0.7995
 1179SOL    HW215171   1.028   2.260   5.394 -0.3947 -0.8810 -0.5670
 1180SOL     OW15172   3.873   3.924   4.978 -0.2780  0.0563  0.2175
 1180SOL    HW115173   3.834   3.983   4.915  0.3877  1.4026  1.0652
 1180SOL    HW215174   3.947   3.982   4.997 -0.7470  0.7283 -0.0206
 1181SOL     OW15175   2.047   4.720  14.312 -0.6949 -0.1379  0.1583
 1181SOL    HW115176   1.978   0.015  14.368 -0.1189 -0.8039  1.2528
 1181SOL    HW215177   2.010   4.648  14.260  0.4445 -1.0228  0.5578
 1182SOL     OW15178   0.568   3.124   3.894 -0.3527 -0.0648 -0.1518
 1182SOL    HW115179   0.585   3.063   3.822  1.9758 -0.2820  0.5903
 1182SOL    HW215180   0.557   3.067   3.970 -0.2921 -0.2986 -0.3179
 1183SOL     OW15181   2.611   0.167   3.166 -0.0952 -0.4797 -0.7091
 1183SOL    HW115182   2.655   0.216   3.097 -1.5950  1.1770 -0.4685
 1183SOL    HW215183   2.556   0.109   3.113  1.5049  0.1460 -3.0876
 1184SOL     OW15184   4.259   2.452   4.398 -0.0261 -0.3097  0.4890
 1184SOL    HW115185   4.343   2.484   4.431 -0.3579  1.5923 -0.4934
 1184SOL    HW215186   4.276   2.358   4.403  0.5414 -0.0802  2.9501
 1185SOL     OW15187   1.655   3.539   6.685  0.0994  0.1980 -0.3748
 1185SOL    HW115188   1.652   3.444   6.674  0.2755  0.0434  0.8612
 1185SOL    HW215189   1.726   3.538   6.749 -0.3405 -1.1600  0.1011
 1186SOL     OW15190   2.142   1.202   8.630  0.1862  0.2660 -0.2926
 1186SOL    HW115191   2.211   1.255   8.671 -1.5696  1.6709  0.8391
 1186SOL    HW215192   2.160   1.218   8.538 -2.5477 -1.2634 -1.1040
 1187SOL     OW15193   0.630   0.517  11.550 -0.1518  0.0495  0.3593
 1187SOL    HW115194   0.608   0.480  11.465 -2.5322 -0.0399  0.9988
 1187SOL    HW215195   0.685   0.592  11.527  0.6809 -0.3534  1.0285
 1188SOL     OW15196   1.726   2.864   5.952 -0.2678  0.1949 -0.3189
 1188SOL    HW115197   1.690   2.776   5.942  0.3304  0.0064 -0.7954
 1188SOL    HW215198   1.727   2.886   5.858  0.2909  1.1707 -0.0840
 1189SOL     OW15199   3.675   3.469   9.966 -0.4157 -0.7031  0.4466
 1189SOL    HW115200   3.691   3.506   9.879 -0.0939 -0.8169  0.4591
 1189SOL    HW215201   3.622   3.393   9.941 -1.3350  0.1599 -0.2503
 1190SOL     OW15202   3.812   1.632   2.974 -0.4375  0.6177  0.2644
 1190SOL    HW115203   3.906   1.615   2.967 -0.7418 -0.7395 -0.4512
 1190SOL    HW215204   3.777   1.558   3.023 -2.5295  1.5206  0.1136
 1191SOL     OW15205   4.700   3.830   3.806 -0.0681  0.2017  0.4429
 1191SOL    HW115206   0.022   3.896   3.772  1.2861 -1.4818 -0.4173
 1191SOL    HW215207   4.689   3.775   3.729  0.2487 -0.1821  0.6690
 1192SOL     OW15208   1.393   3.765  16.567  0.4977 -0.6697 -0.0408
 1192SOL    HW115209   1.300   3.788  16.574  0.4034 -0.8419 -0.6883
 1192SOL    HW215210   1.413   3.757  16.660  2.6726 -0.7248 -0.5044
 1193SOL     OW15211   0.554   2.508   2.904  0.0996 -0.2416 -0.2386
 1193SOL    HW115212   0.503   2.503   2.985  0.7961 -2.7869  0.0450
 1193SOL    HW215213   0.645   2.517   2.933 -0.4614 -0.8440  1.7349
 1194SOL     OW15214   2.152   1.216   4.355  0.4661  0.0687  0.1694
 1194SOL    HW115215   2.094   1.210   4.279 -0.1603  0.6509  0.6028
 1194SOL    HW215216   2.113   1.294   4.394  0.2776  0.0438  0.0324
 1195SOL     OW15217   3.789   0.996  10.996 -0.4647 -0.0587 -0.1019
 1195SOL    HW115218   3.697   0.985  11.020 -0.8085  1.4130 -0.7264
 1195SOL    HW215219   3.788   1.001  10.900 -0.3625  0.3115 -0.0820
 1196SOL     OW15220   3.912   4.045   9.347  0.5372  0.6894 -0.1543
 1196SOL    HW115221   3.918   3.960   9.303  1.4711  0.4117  0.5095
 1196SOL    HW215222   4.002   4.066   9.371 -0.2453  0.9513  2.5524
 1197SOL     OW15223   1.823   1.516   3.443  0.1407 -0.1492  0.0643
 1197SOL    HW115224   1.840   1.532   3.536  2.9605  0.6667 -0.5804
 1197SOL    HW215225   1.916   1.494   3.431 -0.2689 -2.4691  1.1434
 1198SOL     OW15226   1.482   3.117   4.869 -0.0369  0.9857 -0.1885
 1198SOL    HW115227   1.453   3.053   4.934 -1.5938  1.7437 -0.1507
 1198SOL    HW215228   1.458   3.066   4.792 -0.5431 -0.6337  1.0460
 1199SOL     OW15229   1.766   2.873   3.481 -0.0530 -0.0841 -0.4022
 1199SOL    HW115230   1.812   2.879   3.397  0.8982  1.0080  0.1907
 1199SOL    HW215231   1.809   2.798   3.521 -1.4610  0.1588  1.5700
 1200SOL     OW15232   0.015   0.487  17.693  0.2196 -0.2009  0.3687
 1200SOL    HW115233   0.062   0.416  17.734  1.5444  0.5318  0.1162
 1200SOL    HW215234   0.083   0.554  17.680 -2.2970  2.1209 -0.9011
 1201SOL     OW15235   1.252   3.052  15.748  0.0357 -0.4865  0.7237
 1201SOL    HW115236   1.332   3.027  15.794 -0.4056  1.2730  2.4389
 1201SOL    HW215237   1.260   3.144  15.724  2.7386 -1.4911 -2.2116
 1202SOL     OW15238   1.874   3.401   4.853  0.3088  0.0352 -0.0036
 1202SOL    HW115239   1.849   3.326   4.799 -2.5976  0.7831  0.3089
 1202SOL    HW215240   1.883   3.359   4.938 -3.6668 -1.4837 -0.2965
 1203SOL     OW15241   3.028   4.401  11.082 -0.6937  1.0371  0.4094
 1203SOL    HW115242   2.953   4.461  11.080 -0.6042  1.1339 -0.1203
 1203SOL    HW215243   3.056   4.427  10.994  1.4617 -0.8611  0.5411
 1204SOL     OW15244   1.740   0.596   9.218  0.0668 -0.2726 -0.6257
 1204SOL    HW115245   1.658   0.640   9.197  0.8820  3.1105  3.1346
 1204SOL    HW215246   1.805   0.652   9.175 -0.1647 -0.0678 -0.7037
 1205SOL     OW15247   3.514   4.731  11.481 -0.0713 -0.2839 -0.3862
 1205SOL    HW115248   3.605   0.020  11.495 -0.8050  0.5369  2.7951
 1205SOL    HW215249   3.507   4.662  11.548 -0.1790 -0.0790 -0.1878
 1206SOL     OW15250   0.905   2.278   2.853  0.2209 -0.2761  0.0583
 1206SOL    HW115251   0.937   2.363   2.823 -1.3924  0.4326  0.3384
 1206SOL    HW215252   0.989   2.236   2.874 -0.7134 -2.3264 -0.3416
 1207SOL     OW15253   2.524   2.296   6.079  0.0621  0.6643  0.2410
 1207SOL    HW115254   2.538   2.374   6.025  1.3489  0.5324  0.3976
 1207SOL    HW215255   2.437   2.320   6.111  0.7275  2.3528  0.7875
 1208SOL     OW15256   1.185   3.110   6.738  0.2405 -0.4458 -0.1027
 1208SOL    HW115257   1.177   3.032   6.684 -2.1107 -0.7414  0.6951
 1208SOL    HW215258   1.098   3.132   6.771  1.1124  1.0410  1.1993
 1209SOL     OW15259   3.589   3.141  13.484 -0.3506  0.2802  0.1410
 1209SOL    HW115260   3.652   3.081  13.524 -0.5441  2.5702  3.9069
 1209SOL    HW215261   3.606   3.228  13.523  0.4356  1.5919 -3.1804
 1210SOL     OW15262   2.898   3.130  16.537  0.0104 -0.2487 -0.5527
 1210SOL    HW115263   2.911   3.183  16.616  1.5468 -0.9792 -0.3154
 1210SOL    HW215264   2.843   3.181  16.478  0.2027 -0.4001 -0.8633
 1211SOL     OW15265   1.930   2.183   5.637 -0.5473 -0.2405 -0.3081
 1211SOL    HW115266   1.918   2.232   5.718  0.5190  1.8502 -1.4132
 1211SOL    HW215267   1.851   2.213   5.593 -0.2058  0.8151 -0.1918
 1212SOL     OW15268   3.877   0.498   7.083  0.2285  0.3424  0.1422
 1212SOL    HW115269   3.925   0.493   7.000  2.1894  1.4941  1.1801
 1212SOL    HW215270   3.842   0.409   7.079 -1.0202  0.7806  1.1089
 1213SOL     OW15271   2.147   2.476   4.128  0.1939  0.4038 -0.3340
 1213SOL    HW115272   2.140   2.386   4.161  1.2221 -0.7671 -3.3301
 1213SOL    HW215273   2.225   2.514   4.168 -1.9282  1.8407  2.4514
 1214SOL     OW15274   1.035   2.014   6.034  0.4105 -0.1856  0.1801
 1214SOL    HW115275   1.036   1.930   6.080  0.5740 -0.1337  0.2750
 1214SOL    HW215276   0.947   2.046   6.054  0.3451 -0.6543  0.6634
 1215SOL     OW15277   2.667   3.910   2.206 -0.0806 -1.0107 -0.6807
 1215SOL    HW115278   2.603   3.857   2.254 -0.5531 -0.2020 -0.4205
 1215SOL    HW215279   2.613   3.941   2.133  1.4234 -1.6037 -2.0541
 1216SOL     OW15280   2.232   0.718   2.813  0.1466  0.4044  0.1506
 1216SOL    HW115281   2.172   0.699   2.885  0.3994  1.9988  0.7920
 1216SOL    HW215282   2.311   0.685   2.855  0.1067 -0.2997 -0.3283
 1217SOL     OW15283   0.686   3.352   4.589 -0.1430  0.4227  0.7028
 1217SOL    HW115284   0.652   3.332   4.501  1.9391 -1.1660  0.2761
 1217SOL    HW215285   0.779   3.358   4.568 -0.0627 -0.4928  0.8035
 1218SOL     OW15286   4.385   4.673   8.849  0.2395 -0.2572  0.5220
 1218SOL    HW115287   4.415   4.684   8.939 -0.1348  0.1201  0.6045
 1218SOL    HW215288   4.289   4.673   8.859 -0.0499 -0.6289 -2.1755
 1219SOL     OW15289   3.944   0.582   7.900 -0.2968  0.3069  0.0414
 1219SOL    HW115290   4.004   0.533   7.957 -0.9148 -1.7164 -1.0497
 1219SOL    HW215291   3.991   0.665   7.911 -0.5532  0.3080  1.1199
 1220SOL     OW15292   2.953   3.916  16.133 -0.5884 -0.0323 -0.1498
 1220SOL    HW115293   2.957   4.009  16.110 -0.5603  0.0664  0.2535
 1220SOL    HW215294   2.874   3.893  16.083  0.1282 -0.6901 -0.9784
 1221SOL     OW15295   0.295   2.526   5.809  0.5549  0.2726  0.2228
 1221SOL    HW115296   0.280   2.572   5.726  0.1770  0.7555  0.5570
 1221SOL    HW215297   0.225   2.572   5.856 -0.4650  0.6712 -1.6849
 1222SOL     OW15298   1.592   2.144   2.678 -0.0012 -0.3001  0.2158
 1222SOL    HW115299   1.548   2.223   2.644 -1.9404 -1.1002  0.8911
 1222SOL    HW215300   1.680   2.175   2.658 -0.9093  1.2766 -1.4809
 1223SOL     OW15301   1.823   3.164   4.667  0.1278 -0.6102  0.3077
 1223SOL    HW115302   1.789   3.075   4.661  0.4164 -0.7167  0.2596
 1223SOL    HW215303   1.837   3.180   4.573 -0.3614 -0.8761  0.1874
 1224SOL     OW15304   0.549   1.009   7.172 -0.1462  0.5484 -0.3547
 1224SOL    HW115305   0.473   0.999   7.229 -1.1726 -0.3834 -1.8967
 1224SOL    HW215306   0.530   0.942   7.107 -0.2347 -1.0905  1.3555
 1225SOL     OW15307   3.085   3.490  15.420 -0.4283 -0.4324  0.2406
 1225SOL    HW115308   3.112   3.474  15.329  0.7898 -2.9025  1.0489
 1225SOL    HW215309   2.991   3.474  15.411 -0.9875  2.1073  1.5766
 1226SOL     OW15310   1.211   2.933   7.810 -0.5622 -0.6062 -0.1972
 1226SOL    HW115311   1.267   2.908   7.884  1.2112  3.3904 -0.1735
 1226SOL    HW215312   1.254   2.929   7.725  0.2718  1.1735  0.1396
 1227SOL     OW15313   0.339   0.753  16.491 -0.2023 -0.1460  0.5329
 1227SOL    HW115314   0.328   0.767  16.397  1.4087 -1.2542  0.1746
 1227SOL    HW215315   0.363   0.661  16.489  0.7634  0.0869  0.9633
 1228SOL     OW15316   4.358   3.399   3.888 -0.6764  0.3427 -0.2857
 1228SOL    HW115317   4.285   3.413   3.827 -1.0613 -2.8198 -0.5236
 1228SOL    HW215318   4.372   3.488   3.920 -0.1864  0.4647 -0.8519
 1229SOL     OW15319   1.562   2.257   4.532 -0.4644  0.4425 -0.5100
 1229SOL    HW115320   1.477   2.233   4.496  0.1830 -0.9199 -1.1107
 1229SOL    HW215321   1.614   2.249   4.452 -2.6577 -1.8188 -1.6989
 1230SOL     OW15322   1.844   1.934   0.989  0.8734 -0.2186 -0.2014
 1230SOL    HW115323   1.753   1.963   0.989  0.9008 -0.1737  1.9126
 1230SOL    HW215324   1.855   1.911   0.897 -1.0316 -0.2181 -0.4218
 1231SOL     OW15325   2.179   2.536   7.242 -0.2169  0.1922 -0.6081
 1231SOL    HW115326   2.167   2.598   7.313  2.6189  0.8861 -0.7191
 1231SOL    HW215327   2.118   2.562   7.173  0.7349  1.1113 -1.1104
 1232SOL     OW15328   0.969   3.769  11.782  0.1273  0.2089  0.3950
 1232SOL    HW115329   1.019   3.744  11.860  0.3248  2.1172  0.9056
 1232SOL    HW215330   0.953   3.685  11.740  0.0980  0.0998  0.6224
 1233SOL     OW15331   4.239   4.719  13.507  0.9590  1.3733  1.1692
 1233SOL    HW115332   4.293   4.665  13.565  0.6571  0.5636  0.6939
 1233SOL    HW215333   4.303   0.022  13.448  1.0958 -0.9163 -0.2791
 1234SOL     OW15334   3.470   1.202   6.736 -0.3195 -0.1794  0.2657
 1234SOL    HW115335   3.398   1.144   6.761 -2.9997  2.5639 -1.0646
 1234SOL    HW215336   3.492   1.171   6.648 -0.1158 -1.7315  0.8737
 1235SOL     OW15337   0.260   4.243   4.474  1.0056  0.4146  0.1039
 1235SOL    HW115338   0.192   4.189   4.516  1.9967 -1.4097 -0.6591
 1235SOL    HW215339   0.197   4.306   4.439 -1.4692 -0.7593  2.3085
 1236SOL     OW15340   0.034   3.616   8.257  0.0157 -0.2132 -0.2959
 1236SOL    HW115341   0.113   3.573   8.223  0.1584 -0.0457 -0.1790
 1236SOL    HW215342   0.018   3.593   8.348 -2.6757  1.8840 -0.2402
 1237SOL     OW15343   3.201   1.440   7.562  0.2937 -0.6916  0.1039
 1237SOL    HW115344   3.270   1.506   7.561  1.2447 -1.6951 -0.1176
 1237SOL    HW215345   3.225   1.366   7.618  0.1208 -0.6959  0.1751
 1238SOL     OW15346   0.812   0.580  15.283  0.2713  0.1623 -0.0387
 1238SOL    HW115347   0.879   0.511  15.275  0.9996  0.8202  0.3718
 1238SOL    HW215348   0.866   0.659  15.287 -0.1961  0.3702  1.9790
 1239SOL     OW15349   3.504   1.301   5.192 -0.6168  0.3953 -0.0954
 1239SOL    HW115350   3.535   1.383   5.153 -0.3735  0.2779 -0.1500
 1239SOL    HW215351   3.434   1.322   5.253 -1.0226  1.6914 -1.0063
 1240SOL     OW15352   2.799   4.594   1.884 -0.4189  0.0345  0.3401
 1240SOL    HW115353   2.858   4.663   1.914 -0.8683  0.3393  0.5097
 1240SOL    HW215354   2.857   4.517   1.891 -1.8581 -0.9146  1.9499
 1241SOL     OW15355   4.422   0.442   6.753  0.3701 -0.4295  0.9966
 1241SOL    HW115356   4.480   0.472   6.683  2.3021 -0.8821  2.3952
 1241SOL    HW215357   4.457   0.474   6.837  2.0759 -0.5812  0.3374
 1242SOL     OW15358   0.528   0.840  12.991 -0.2973 -0.0369 -0.2647
 1242SOL    HW115359   0.555   0.840  12.899 -0.5301 -0.1825 -0.3339
 1242SOL    HW215360   0.449   0.894  12.985  0.9629  1.7571 -0.6362
 1243SOL     OW15361   0.250   4.633  12.457  0.5171  0.9498  0.4934
 1243SOL    HW115362   0.180   4.677  12.408  0.6767  0.3774 -0.2566
 1243SOL    HW215363   0.328   4.675  12.421  0.7792 -0.0323 -0.0866
 1244SOL     OW15364   2.746   3.834  17.107 -0.1050  0.2182  0.0077
 1244SOL    HW115365   2.763   3.832  17.013  0.5929 -1.1808  0.1624
 1244SOL    HW215366   2.666   3.783  17.112 -0.4589  0.8679  0.9891
 1245SOL     OW15367   3.258   4.149   2.640  0.1087 -0.6166  0.3733
 1245SOL    HW115368   3.185   4.158   2.702  0.6483 -0.7176  1.0245
 1245SOL    HW215369   3.325   4.133   2.706 -0.0794  1.1614  1.0111
 1246SOL     OW15370   4.606   1.062  13.642  0.6607 -0.6279  0.1994
 1246SOL    HW115371   4.650   0.987  13.682  0.2815 -0.9712 -0.0152
 1246SOL    HW215372   4.655   1.074  13.561 -0.3584  0.1919 -0.2820
 1247SOL     OW15373   1.086   1.691  11.124  0.3570 -0.4536  0.2476
 1247SOL    HW115374   1.151   1.757  11.098  0.9524 -0.8774  0.6678
 1247SOL    HW215375   1.095   1.632  11.050 -0.6742  0.9503 -0.9902
 1248SOL     OW15376   1.528   1.060   7.206 -0.1236  0.2687 -0.1692
 1248SOL    HW115377   1.493   1.142   7.241 -2.2480 -0.5623 -0.3821
 1248SOL    HW215378   1.606   1.044   7.259 -0.1769 -0.3159 -0.2696
 1249SOL     OW15379   3.604   1.853   8.995  0.4655  0.2068  0.4333
 1249SOL    HW115380   3.602   1.926   8.934  2.0486  0.9439  1.2810
 1249SOL    HW215381   3.517   1.811   8.989  0.6056  0.0715 -0.6653
 1250SOL     OW15382   1.889   2.160  17.619  0.5137  0.4125  0.5814
 1250SOL    HW115383   1.875   2.084  17.562 -3.1870  0.9358  0.7550
 1250SOL    HW215384   1.960   2.211  17.581  0.7742  1.0988  1.9862
 1251SOL     OW15385   1.010   0.249   2.711 -0.3235 -0.0055  0.0276
 1251SOL    HW115386   1.063   0.171   2.693  0.6612  0.6663  0.0027
 1251SOL    HW215387   0.920   0.224   2.732  0.1426  0.1871  2.2018
 1252SOL     OW15388   2.540   4.458   2.912  0.7859  0.0578 -0.6568
 1252SOL    HW115389   2.633   4.437   2.904  0.7254 -0.0932 -0.9776
 1252SOL    HW215390   2.506   4.376   2.947  1.1003 -0.0659 -0.6388
 1253SOL     OW15391   2.210   0.366   5.170 -0.1780 -0.0542  0.3430
 1253SOL    HW115392   2.127   0.365   5.218 -1.8977  2.4132 -2.6133
 1253SOL    HW215393   2.265   0.319   5.233 -0.3180  2.2555  2.1803
 1254SOL     OW15394   0.703   2.329  17.315  0.2607 -0.0076  0.4216
 1254SOL    HW115395   0.758   2.403  17.339  1.1120 -0.0678 -1.3598
 1254SOL    HW215396   0.672   2.293  17.398 -3.2906 -2.3263 -1.8696
 1255SOL     OW15397   1.014   0.395   5.759 -0.8758  0.3932  0.2725
 1255SOL    HW115398   1.034   0.489   5.762 -0.2962  0.2800 -0.1720
 1255SOL    HW215399   1.076   0.359   5.823  0.6876 -1.4023 -2.2582
 1256SOL     OW15400   2.654   1.518  17.675 -0.4161  0.2089 -0.3112
 1256SOL    HW115401   2.634   1.426  17.690  1.9301  0.0014  1.6087
 1256SOL    HW215402   2.608   1.531  17.592  0.8104  0.8874 -0.8916
 1257SOL     OW15403   3.540   4.335  11.147  1.0337 -0.3673 -0.5930
 1257SOL    HW115404   3.587   4.254  11.168  3.2598  1.1606  0.3513
 1257SOL    HW215405   3.533   4.360  11.239  0.7777 -0.7904 -0.4928
 1258SOL     OW15406   1.828   3.058   8.182 -0.4660  0.1933  0.4790
 1258SOL    HW115407   1.803   3.140   8.138 -1.1413  0.2206  0.9259
 1258SOL    HW215408   1.835   3.097   8.269  0.4756  1.9735 -0.3946
 1259SOL     OW15409   4.694   2.143   5.752  0.6992 -0.1232  0.0342
 1259SOL    HW115410   4.659   2.152   5.841 -1.7629  1.4692 -1.0727
 1259SOL    HW215411   0.046   2.124   5.775  2.1664  3.6031 -2.7005
 1260SOL     OW15412   4.235   2.525  11.577  0.1295  0.3062  0.1024
 1260SOL    HW115413   4.233   2.472  11.657 -1.6506 -1.7314 -1.3018
 1260SOL    HW215414   4.142   2.547  11.566  0.2341 -0.8911 -3.0347
 1261SOL     OW15415   4.377   1.648   5.960 -0.0905 -0.0443  0.4048
 1261SOL    HW115416   4.306   1.682   6.013 -1.2616 -1.3103 -0.3480
 1261SOL    HW215417   4.377   1.553   5.969 -1.5313 -0.1821 -1.0443
 1262SOL     OW15418   1.858   1.970  14.098 -0.4791 -0.1838 -0.5574
 1262SOL    HW115419   1.915   2.036  14.137 -1.1838 -0.5386  1.0672
 1262SOL    HW215420   1.839   2.023  14.020  0.1097 -1.6382 -1.6920
 1263SOL     OW15421   3.234   0.050   6.455  0.3218  0.3714 -0.1340
 1263SOL    HW115422   3.242   0.101   6.536 -2.8646  0.0377  0.3897
 1263SOL    HW215423   3.294   0.090   6.391 -0.8115  1.7778 -0.3090
 1264SOL     OW15424   4.064   2.557   8.453 -0.2496  0.0043 -0.5878
 1264SOL    HW115425   4.094   2.648   8.452 -0.7766  0.1778  0.1033
 1264SOL    HW215426   4.021   2.548   8.368 -0.5343  0.9142 -0.5361
 1265SOL     OW15427   3.047   0.670   3.450 -0.0846 -0.4824 -0.1955
 1265SOL    HW115428   3.095   0.753   3.446  0.6795 -0.9876 -1.4898
 1265SOL    HW215429   2.996   0.694   3.372 -0.3223 -0.5147 -0.0483
 1266SOL     OW15430   1.035   1.122   6.839 -0.1330 -0.3137 -0.1550
 1266SOL    HW115431   0.971   1.079   6.896  0.6630 -2.3705 -0.7886
 1266SOL    HW215432   0.984   1.202   6.831 -0.7124 -0.6489  0.2189
 1267SOL     OW15433   1.151   1.411   0.495  0.2189 -0.1835 -0.2375
 1267SOL    HW115434   1.243   1.390   0.513  0.7306  0.9636 -1.5204
 1267SOL    HW215435   1.119   1.321   0.496  2.6988 -1.0659 -0.0043
 1268SOL     OW15436   2.754   1.217   6.358 -1.0271 -0.5805 -0.0765
 1268SOL    HW115437   2.670   1.257   6.335  0.5708  1.9741 -1.4469
 1268SOL    HW215438   2.750   1.245   6.450  1.0141  0.6985 -0.3694
 1269SOL     OW15439   0.483   4.587   9.537 -0.0627 -0.3301 -0.4747
 1269SOL    HW115440   0.458   4.663   9.485  2.9058 -0.3444 -1.9277
 1269SOL    HW215441   0.561   4.559   9.489  0.7098 -0.2299  0.7197
 1270SOL     OW15442   3.514   3.305   5.929  0.3742 -0.3445  0.6479
 1270SOL    HW115443   3.576   3.368   5.891 -1.1354  0.6804 -0.1142
 1270SOL    HW215444   3.567   3.284   6.005  0.7735 -1.5034  0.0552
 1271SOL     OW15445   1.960   4.738   8.361  0.2949  0.4745 -0.3313
 1271SOL    HW115446   1.888   0.011   8.422 -0.1057  0.8672 -0.8747
 1271SOL    HW215447   2.015   4.672   8.403  2.1241  2.1100 -0.1310
 1272SOL     OW15448   3.984   0.270   0.079  0.2329 -0.1400  0.4193
 1272SOL    HW115449   4.073   0.304   0.090 -1.2886  4.3275 -1.0363
 1272SOL    HW215450   3.943   0.316   0.152 -3.5534  0.2836 -1.9916
 1273SOL     OW15451   3.847   1.069   2.572 -0.7950  0.1467 -0.0840
 1273SOL    HW115452   3.813   1.087   2.484 -1.2289 -1.4406 -0.2465
 1273SOL    HW215453   3.926   1.015   2.564 -1.0390 -0.0104 -1.4273
 1274SOL     OW15454   3.270   2.067  12.251 -0.3793 -0.4862  0.1450
 1274SOL    HW115455   3.311   2.154  12.247  1.5981 -1.4324 -0.2789
 1274SOL    HW215456   3.329   2.018  12.308  1.5321 -0.7135 -2.0397
 1275SOL     OW15457   2.682   1.840  10.443  0.2756  0.4629 -0.0059
 1275SOL    HW115458   2.629   1.808  10.370  2.1697 -1.2186 -0.6374
 1275SOL    HW215459   2.716   1.760  10.483  2.3373  0.3379 -2.0312
 1276SOL     OW15460   4.429   4.038   6.122  0.3117 -0.3614 -0.3628
 1276SOL    HW115461   4.471   4.120   6.095 -2.3413  0.5108 -1.8967
 1276SOL    HW215462   4.472   3.978   6.062  1.0766  0.5143 -0.7027
 1277SOL     OW15463   3.605   3.333   0.693 -0.0672 -0.1844 -0.7243
 1277SOL    HW115464   3.650   3.363   0.614 -1.9745 -3.1060 -2.9444
 1277SOL    HW215465   3.644   3.247   0.707  0.9284  0.3470 -0.3247
 1278SOL     OW15466   4.227   0.677   2.796 -0.4040  0.7675 -0.7508
 1278SOL    HW115467   4.320   0.697   2.783  0.2137 -1.2273  0.6626
 1278SOL    HW215468   4.221   0.604   2.734  2.6571 -0.2355  0.1226
 1279SOL     OW15469   4.267   0.669   4.019 -0.6747  0.2249 -0.0855
 1279SOL    HW115470   4.210   0.725   4.071 -0.8072 -0.2884  0.3241
 1279SOL    HW215471   4.228   0.675   3.932  2.2622 -1.1796 -1.4924
 1280SOL     OW15472   3.465   0.714   6.685  0.2694  0.3730  0.8141
 1280SOL    HW115473   3.414   0.696   6.764  0.7075 -1.1875  0.7274
 1280SOL    HW215474   3.538   0.771   6.711  0.3212 -0.3139  2.1861
 1281SOL     OW15475   0.924   0.735   8.485  0.2298 -0.2304 -0.2988
 1281SOL    HW115476   0.831   0.714   8.498  0.4284 -1.6895 -1.1851
 1281SOL    HW215477   0.924   0.829   8.466  1.3641  0.5002  3.2044
 1282SOL     OW15478   2.565   2.387   2.589 -0.2170  0.1957 -0.6271
 1282SOL    HW115479   2.484   2.336   2.589  0.9323 -1.6483 -1.5623
 1282SOL    HW215480   2.551   2.446   2.663 -0.5921 -0.1666 -0.4062
 1283SOL     OW15481   2.765   1.830   2.231 -0.2528  0.3129 -0.0784
 1283SOL    HW115482   2.750   1.740   2.260 -1.4222  0.3590 -0.5437
 1283SOL    HW215483   2.858   1.826   2.208  0.2405  0.0080  1.9549
 1284SOL     OW15484   1.589   0.893   1.568  0.3995  0.3016 -0.0420
 1284SOL    HW115485   1.662   0.922   1.513  0.3811  0.9891  0.3033
 1284SOL    HW215486   1.541   0.972   1.591  0.3411  0.7265 -1.6192
 1285SOL     OW15487   3.616   3.773   7.994 -0.0767  0.1880 -0.5295
 1285SOL    HW115488   3.598   3.686   7.958  1.3040  0.1131 -1.0124
 1285SOL    HW215489   3.580   3.751   8.080  1.5251  1.4199  0.4583
 1286SOL     OW15490   1.924   1.577   5.169  0.0614  0.2099  0.0990
 1286SOL    HW115491   2.010   1.550   5.202 -0.2237 -1.2236 -0.3233
 1286SOL    HW215492   1.944   1.668   5.150 -2.3142  0.9128  0.9237
 1287SOL     OW15493   2.940   2.901   9.082  0.5910 -0.5922  0.3545
 1287SOL    HW115494   2.888   2.969   9.040 -2.1228 -1.6458  2.0313
 1287SOL    HW215495   2.914   2.833   9.020 -2.1838  0.1605  0.6633
 1288SOL     OW15496   1.336   3.556   6.012 -0.5921  0.2472  0.3168
 1288SOL    HW115497   1.380   3.559   5.927 -0.2313  0.8538  0.5279
 1288SOL    HW215498   1.419   3.571   6.056 -0.7099 -2.2885  1.4370
 1289SOL     OW15499   2.127   1.136   8.091 -0.1725  0.6370 -0.0524
 1289SOL    HW115500   2.201   1.185   8.055 -0.1782  0.5255 -0.2160
 1289SOL    HW215501   2.052   1.189   8.064 -1.6731 -2.7111 -2.4282
 1290SOL     OW15502   3.111   1.348   6.793  0.5084  0.2950  0.6615
 1290SOL    HW115503   3.047   1.384   6.855 -1.0301 -0.6215 -0.3957
 1290SOL    HW215504   3.181   1.336   6.857 -0.1856 -0.2322  1.3237
 1291SOL     OW15505   1.090   2.044  13.925 -0.1983  0.1994 -0.4584
 1291SOL    HW115506   1.136   2.114  13.970 -1.1026 -0.2528  1.1556
 1291SOL    HW215507   1.034   2.099  13.870  1.1111 -1.5526 -3.5532
 1292SOL     OW15508   4.398   3.019   8.437 -0.3980  0.1275 -0.0965
 1292SOL    HW115509   4.415   3.004   8.344 -1.4653  3.7771 -0.8873
 1292SOL    HW215510   4.312   3.059   8.425 -0.1897  0.2177 -1.3294
 1293SOL     OW15511   1.195   3.744   8.513 -0.1621 -0.4390  0.7593
 1293SOL    HW115512   1.206   3.726   8.606  0.4733 -0.4706  0.6798
 1293SOL    HW215513   1.118   3.690   8.492 -0.8603  1.2401 -0.9866
 1294SOL     OW15514   2.691   2.760   3.665 -0.1648 -0.6128 -0.2593
 1294SOL    HW115515   2.644   2.707   3.601 -0.7152  0.6897 -0.9328
 1294SOL    HW215516   2.651   2.846   3.656  0.3059 -0.2493  1.0845
 1295SOL     OW15517   0.569   2.237   6.268  0.1214 -0.0268 -0.0542
 1295SOL    HW115518   0.498   2.172   6.264  0.3164 -0.2097 -0.6639
 1295SOL    HW215519   0.541   2.297   6.199 -0.3574 -0.5724 -0.3341
 1296SOL     OW15520   0.670   4.477   7.557  0.3523 -0.1650  0.3826
 1296SOL    HW115521   0.620   4.558   7.553  1.6560  0.5523 -1.6044
 1296SOL    HW215522   0.675   4.469   7.653  0.9027 -1.7343  0.2296
 1297SOL     OW15523   2.254   0.015   2.685 -0.1173 -0.1568  0.8883
 1297SOL    HW115524   2.204   4.671   2.690 -1.9983  0.9221 -0.4876
 1297SOL    HW215525   2.228   0.060   2.766  0.0173  1.0582  0.2518
 1298SOL     OW15526   2.587   4.487   9.173  0.2006 -0.2670  0.4326
 1298SOL    HW115527   2.630   4.412   9.134 -0.3780  0.9666 -2.5696
 1298SOL    HW215528   2.630   4.497   9.258  0.5053  1.3618  0.0890
 1299SOL     OW15529   0.295   2.102  11.237  0.1166  0.4126  0.0503
 1299SOL    HW115530   0.358   2.170  11.262  0.3014  0.4647 -0.5694
 1299SOL    HW215531   0.356   2.057  11.179 -0.9692  0.8188 -1.4154
 1300SOL     OW15532   0.468   0.392  17.059 -0.3415 -0.1175  0.0789
 1300SOL    HW115533   0.512   0.460  17.007 -2.9669 -0.3856 -2.4638
 1300SOL    HW215534   0.523   0.391  17.138  2.1895 -0.5700 -1.7005
 1301SOL     OW15535   3.846   1.688  16.591  0.4727  0.1584  0.6019
 1301SOL    HW115536   3.783   1.628  16.551 -0.6234  1.2425  0.7094
 1301SOL    HW215537   3.916   1.625  16.603 -2.2924 -2.9090  0.5089
 1302SOL     OW15538   2.529   1.291   7.382  0.1851 -0.0267  0.3400
 1302SOL    HW115539   2.500   1.260   7.468  1.1398  0.8267  0.9634
 1302SOL    HW215540   2.489   1.378   7.382  0.5402  0.1343 -0.6483
 1303SOL     OW15541   4.120   1.197  15.402  0.3284  0.2242 -0.0625
 1303SOL    HW115542   4.123   1.281  15.356 -0.7814  0.6215  0.5658
 1303SOL    HW215543   4.036   1.161  15.375 -0.8260  0.5782  2.9866
 1304SOL     OW15544   2.806   1.853  13.904 -0.6175 -0.5116 -0.2383
 1304SOL    HW115545   2.831   1.813  13.821 -0.3276 -2.0854  0.5976
 1304SOL    HW215546   2.721   1.812  13.920 -0.6153 -0.5196 -0.2474
 1305SOL     OW15547   2.591   0.938   6.512  0.7257 -0.2745 -0.1834
 1305SOL    HW115548   2.654   0.955   6.442 -0.8175  0.7741 -1.3230
 1305SOL    HW215549   2.654   0.943   6.583 -0.1698 -1.8753  0.7195
 1306SOL     OW15550   3.937   3.983   1.423  0.5899  0.1590  0.2303
 1306SOL    HW115551   3.891   4.037   1.488  0.4825  0.0187  0.2722
 1306SOL    HW215552   4.016   4.035   1.415 -1.4040  3.3133  1.0773
 1307SOL     OW15553   1.532   0.483   4.014  0.3637  0.1014  0.0263
 1307SOL    HW115554   1.616   0.514   3.980  1.1601 -0.5229  1.4560
 1307SOL    HW215555   1.489   0.427   3.949  0.6015  0.8424 -0.7688
 1308SOL     OW15556   2.698   1.006   5.174 -0.0754  0.3253  0.1736
 1308SOL    HW115557   2.662   1.088   5.141  0.9307 -0.3916 -2.7021
 1308SOL    HW215558   2.654   0.956   5.106 -1.8338  1.1753  0.6967
 1309SOL     OW15559   2.093   0.384   3.892  0.6909 -0.0370 -0.1863
 1309SOL    HW115560   2.033   0.411   3.962 -1.6763 -3.4094 -0.9114
 1309SOL    HW215561   2.048   0.307   3.858 -1.0287  0.4617  0.9442
 1310SOL     OW15562   2.158   3.275  17.582 -0.2331  0.7474  0.2450
 1310SOL    HW115563   2.101   3.351  17.591 -1.1479 -0.0164  0.9410
 1310SOL    HW215564   2.243   3.318  17.586  1.0583 -2.2615  4.8566
 1311SOL     OW15565   0.811   3.261  16.154 -0.4798  0.0103  0.0305
 1311SOL    HW115566   0.844   3.213  16.078  1.6321  0.8923  0.3700
 1311SOL    HW215567   0.815   3.348  16.114  0.4056  0.5457  1.2883
 1312SOL     OW15568   1.038   2.518   7.411  0.5598 -0.2539  0.0512
 1312SOL    HW115569   1.081   2.474   7.337  1.8422 -0.0634  0.6853
 1312SOL    HW215570   1.117   2.539   7.461 -1.3053  1.8989  2.0302
 1313SOL     OW15571   1.161   2.549   8.474 -0.0495  0.3176  0.2207
 1313SOL    HW115572   1.255   2.536   8.463 -0.2768 -2.5074  1.8889
 1313SOL    HW215573   1.124   2.548   8.385  0.5506  2.7261 -0.0790
 1314SOL     OW15574   4.057   0.908   8.738 -0.3766 -0.0682  0.7300
 1314SOL    HW115575   4.015   0.993   8.752  0.1125  0.1389  0.9289
 1314SOL    HW215576   3.989   0.851   8.703  2.8722 -1.8504 -2.6670
 1315SOL     OW15577   2.080   4.616  14.652  0.5368  0.3809  0.1731
 1315SOL    HW115578   1.988   4.609  14.628  1.0168  1.3386 -1.9955
 1315SOL    HW215579   2.082   4.712  14.656 -0.9444  0.2973  2.4586
 1316SOL     OW15580   4.479   3.647   3.905 -0.2363 -0.4183 -0.1275
 1316SOL    HW115581   4.482   3.593   3.826 -0.9162  0.1330 -0.5371
 1316SOL    HW215582   4.530   3.723   3.875 -0.4607 -0.2237 -0.0171
 1317SOL     OW15583   1.091   0.741   7.406  0.2676  0.0838 -0.4236
 1317SOL    HW115584   0.996   0.745   7.393  0.3130  0.6515 -0.5787
 1317SOL    HW215585   1.086   0.668   7.467  1.5207  0.4685  0.1463
 1318SOL     OW15586   0.502   1.117   6.355  0.3639 -1.0456 -0.1028
 1318SOL    HW115587   0.512   1.146   6.265  1.5485 -1.3943 -0.0770
 1318SOL    HW215588   0.540   1.030   6.361 -0.9562 -1.5483  1.0594
 1319SOL     OW15589   0.644   2.051  14.106 -0.6244 -0.1805  0.6273
 1319SOL    HW115590   0.666   2.142  14.089  1.7268 -1.3857 -2.5911
 1319SOL    HW215591   0.730   2.009  14.109 -1.4261 -1.8711 -0.2893
 1320SOL     OW15592   0.981   3.020  11.346 -0.7334  0.5910 -0.4196
 1320SOL    HW115593   1.056   3.005  11.403 -0.5988  0.1387 -0.7151
 1320SOL    HW215594   1.017   3.069  11.272 -4.4426  2.9262 -0.6871
 1321SOL     OW15595   3.271   1.503  15.106 -0.0324  0.6578  0.0295
 1321SOL    HW115596   3.295   1.419  15.145  1.6156  0.0093 -2.3776
 1321SOL    HW215597   3.262   1.551  15.188  0.5823 -1.1682  1.1619
 1322SOL     OW15598   3.382   3.170   6.885 -0.0986  0.5031 -0.1614
 1322SOL    HW115599   3.347   3.256   6.863  0.0094  0.6368  0.1860
 1322SOL    HW215600   3.438   3.161   6.808  2.7639  0.2106  1.9599
 1323SOL     OW15601   3.889   2.918   5.288  0.4388 -0.1541 -0.3913
 1323SOL    HW115602   3.959   2.876   5.240  1.0643  0.7309 -0.2555
 1323SOL    HW215603   3.889   3.006   5.249  2.5125 -0.7409 -1.6608
 1324SOL     OW15604   1.275   0.596   6.013  0.2510 -0.0965  0.0263
 1324SOL    HW115605   1.336   0.670   6.024  0.3576 -0.0899 -0.5729
 1324SOL    HW215606   1.341   0.530   6.034 -0.4694 -0.7732  0.1525
 1325SOL     OW15607   2.490   2.265  14.973  0.4823 -0.2590  0.0802
 1325SOL    HW115608   2.411   2.247  15.024 -0.6343  1.5236 -1.0161
 1325SOL    HW215609   2.470   2.209  14.898  1.7220 -1.4336  0.6410
 1326SOL     OW15610   0.622   3.991   5.295 -0.3489 -0.3735  0.1462
 1326SOL    HW115611   0.627   4.020   5.204 -0.4071  0.8142  0.5191
 1326SOL    HW215612   0.637   4.070   5.346  1.1079  0.2288 -1.2418
 1327SOL     OW15613   4.521   2.095   2.388  0.1234 -0.2203 -0.0673
 1327SOL    HW115614   4.521   2.063   2.479  0.6658 -0.6443 -0.2164
 1327SOL    HW215615   4.579   2.169   2.403 -0.5295 -0.9313  6.0892
 1328SOL     OW15616   1.466   0.924   7.796 -0.2212 -0.3002  0.7091
 1328SOL    HW115617   1.383   0.899   7.837 -0.3963 -0.5865  0.1848
 1328SOL    HW215618   1.442   0.985   7.726  0.7725 -2.8080 -1.7964
 1329SOL     OW15619   1.549   3.094  14.208 -0.2646  0.2719  0.0502
 1329SOL    HW115620   1.636   3.055  14.222 -0.3521 -0.0278 -0.2410
 1329SOL    HW215621   1.559   3.118  14.116 -0.3072 -1.2238 -0.3572
 1330SOL     OW15622   3.339   1.556  16.245 -0.0614 -0.2084 -0.3248
 1330SOL    HW115623   3.262   1.560  16.302 -0.7905  0.6764 -1.3806
 1330SOL    HW215624   3.299   1.552  16.159  1.4867  0.2991 -1.0623
 1331SOL     OW15625   2.909   1.294  11.702 -0.5857 -0.3287 -0.1330
 1331SOL    HW115626   2.835   1.243  11.735 -0.6008 -0.0722  0.2327
 1331SOL    HW215627   2.980   1.264  11.760 -0.6719  1.0589  0.6943
 1332SOL     OW15628   3.669   0.113   8.713  0.1802 -0.0936  0.3313
 1332SOL    HW115629   3.635   0.202   8.717 -0.6725 -0.3263 -1.3010
 1332SOL    HW215630   3.592   0.068   8.749  1.3269  0.2754  3.1480
 1333SOL     OW15631   3.693   4.382   2.064 -0.2707  0.2252  0.4751
 1333SOL    HW115632   3.683   4.460   2.118 -1.2841 -0.7519  1.7098
 1333SOL    HW215633   3.604   4.367   2.031  0.6185  1.1655 -2.3265
 1334SOL     OW15634   1.896   2.086   9.725 -0.3215  0.2379  0.2693
 1334SOL    HW115635   1.919   2.168   9.682 -2.7605  1.7267  1.7691
 1334SOL    HW215636   1.901   2.033   9.646  1.0312  0.9931 -0.1455
 1335SOL     OW15637   3.105   4.194   7.800  0.1838 -0.6614  0.1927
 1335SOL    HW115638   3.110   4.241   7.716 -2.5353 -0.0422  0.3611
 1335SOL    HW215639   3.147   4.111   7.779 -2.9591 -2.2974  0.3930
 1336SOL     OW15640   2.688   1.397   2.090  0.7912 -0.1959  0.4646
 1336SOL    HW115641   2.600   1.363   2.108  0.0209  0.6717 -1.6524
 1336SOL    HW215642   2.725   1.318   2.050 -0.2655 -0.7751  0.6108
 1337SOL     OW15643   1.957   0.237   4.949  0.0058 -0.6305 -0.2784
 1337SOL    HW115644   1.979   0.219   5.041  1.7504  1.9734 -0.1790
 1337SOL    HW215645   2.043   0.274   4.931  0.3079 -1.6853 -0.9866
 1338SOL     OW15646   0.556   0.991  13.233  0.2517  0.1384  0.0328
 1338SOL    HW115647   0.602   0.910  13.252  0.1539 -0.5231 -2.5117
 1338SOL    HW215648   0.571   0.991  13.138 -0.3718  1.0889 -0.0744
 1339SOL     OW15649   1.173   1.523   1.651  0.0473  0.0126 -0.0788
 1339SOL    HW115650   1.183   1.615   1.674 -0.4705  0.1806 -0.5224
 1339SOL    HW215651   1.107   1.527   1.581  0.9392  0.6818 -0.8884
 1340SOL     OW15652   2.197   4.728   5.332  0.3524  0.4220  0.1502
 1340SOL    HW115653   2.174   0.017   5.421 -1.6066  0.4050 -0.3497
 1340SOL    HW215654   2.180   0.069   5.281  0.8338  1.7287  2.0156
 1341SOL     OW15655   2.754   2.385   3.853  0.0342  0.4007  0.4740
 1341SOL    HW115656   2.809   2.339   3.790  0.6871  0.3025  1.1120
 1341SOL    HW215657   2.667   2.362   3.821  0.9809  2.3863 -3.4233
 1342SOL     OW15658   4.418   1.072   3.048  0.3057 -0.4142 -0.0732
 1342SOL    HW115659   4.392   1.126   2.974  0.0412 -0.0477  0.2878
 1342SOL    HW215660   4.358   0.999   3.034  0.3850 -0.3697 -0.6455
 1343SOL     OW15661   0.002   4.041  13.122 -0.2397 -0.2951 -0.3515
 1343SOL    HW115662   0.003   4.118  13.064 -2.9634 -1.7640 -2.3689
 1343SOL    HW215663   0.089   4.002  13.125  0.5341  1.4666  0.1935
 1344SOL     OW15664   2.494   3.652   5.875 -0.1185 -0.2833  0.1361
 1344SOL    HW115665   2.569   3.673   5.930  0.1687  1.0315 -0.7405
 1344SOL    HW215666   2.467   3.563   5.898 -2.5800  0.0908 -1.2791
 1345SOL     OW15667   2.492   1.039   1.929 -0.4825 -0.3827 -0.0672
 1345SOL    HW115668   2.581   1.072   1.918 -0.8066  0.6412  0.3789
 1345SOL    HW215669   2.444   1.121   1.918  0.2932  0.1571  0.6299
 1346SOL     OW15670   0.087   2.101   6.999  0.1084 -0.3839  0.0140
 1346SOL    HW115671   0.026   2.167   7.031  2.4524  1.1403  1.2920
 1346SOL    HW215672   0.112   2.144   6.917 -0.6362 -0.8259 -0.4510
 1347SOL     OW15673   2.387   3.669   3.900 -0.1768  0.2631  0.4460
 1347SOL    HW115674   2.365   3.594   3.955  1.0233  0.6077  1.3939
 1347SOL    HW215675   2.398   3.738   3.966  1.2109  0.1477  0.3325
 1348SOL     OW15676   3.184   4.588   6.764  0.1658 -0.5785  0.0036
 1348SOL    HW115677   3.270   4.624   6.745 -0.8198  1.3613 -0.8054
 1348SOL    HW215678   3.208   4.531   6.836 -1.2334  1.7527  2.2967
 1349SOL     OW15679   0.414   1.548   7.764 -0.6524 -0.2489  0.4310
 1349SOL    HW115680   0.489   1.569   7.709  0.7907  0.1286  2.5477
 1349SOL    HW215681   0.353   1.602   7.714  0.7766  1.5488  0.6164
 1350SOL     OW15682   4.284   1.209  17.153  0.3905 -0.0926  0.2490
 1350SOL    HW115683   4.196   1.214  17.190  1.1009  1.6581  1.7210
 1350SOL    HW215684   4.330   1.144  17.206  0.9394  0.5821  0.6057
 1351SOL     OW15685   0.595   4.729   4.330  1.1846  0.1436  0.2369
 1351SOL    HW115686   0.598   0.069   4.275  1.3447  0.6331  0.9511
 1351SOL    HW215687   0.670   4.737   4.388  2.9673 -0.7190 -1.9365
 1352SOL     OW15688   0.838   2.602   3.313  0.6752  0.9128  0.0493
 1352SOL    HW115689   0.789   2.583   3.233 -0.8381 -0.7790  1.4044
 1352SOL    HW215690   0.927   2.576   3.289  0.0041 -1.8728  0.5281
 1353SOL     OW15691   3.121   3.656   4.742  0.3323 -0.3577 -0.6925
 1353SOL    HW115692   3.176   3.713   4.796 -0.3241 -2.1669  1.9359
 1353SOL    HW215693   3.038   3.704   4.741 -0.0343 -0.9844 -0.5427
 1354SOL     OW15694   0.288   3.105   4.115 -0.1576  0.3462 -0.2374
 1354SOL    HW115695   0.381   3.115   4.097 -0.0917  0.9183  0.3873
 1354SOL    HW215696   0.254   3.072   4.032  1.3404  2.3110 -1.6283
 1355SOL     OW15697   3.883   0.489   1.075 -0.0593 -0.1641 -0.2875
 1355SOL    HW115698   3.816   0.496   1.007 -1.8454 -1.1553  1.3880
 1355SOL    HW215699   3.839   0.521   1.153 -2.0081 -0.9401 -1.0661
 1356SOL     OW15700   0.816   0.570   2.078  0.6308  0.1249  0.5762
 1356SOL    HW115701   0.764   0.536   2.151  2.3810 -1.0495  1.2647
 1356SOL    HW215702   0.804   0.510   2.004  2.6476 -0.2443  0.5510
 1357SOL     OW15703   1.063   0.188   5.003  0.3296 -0.1662  1.3763
 1357SOL    HW115704   1.092   0.278   4.986  1.9325 -1.0687 -0.6847
 1357SOL    HW215705   1.090   0.142   4.923 -1.2236 -0.7401  1.1841
 1358SOL     OW15706   2.709   0.203   4.597 -0.0608 -0.1427  0.2027
 1358SOL    HW115707   2.705   0.278   4.537 -1.6680 -0.9173 -0.6544
 1358SOL    HW215708   2.622   0.165   4.585 -0.3649  0.9403 -1.0295
 1359SOL     OW15709   1.758   3.336   5.587  0.6392 -0.6527  0.4478
 1359SOL    HW115710   1.802   3.312   5.506  1.7119  0.6880  0.6274
 1359SOL    HW215711   1.728   3.424   5.565 -1.9049 -1.1152  2.0945
 1360SOL     OW15712   1.324   2.657   3.733 -0.1189  0.6707  0.0997
 1360SOL    HW115713   1.238   2.616   3.740  0.0968  0.3541  0.8625
 1360SOL    HW215714   1.381   2.580   3.742  0.6601  1.2346  0.0111
 1361SOL     OW15715   1.442   3.650   6.978  0.1766  0.0244  0.1271
 1361SOL    HW115716   1.381   3.683   7.044 -0.2304 -0.6808  0.1056
 1361SOL    HW215717   1.483   3.581   7.030  1.1896 -0.1217 -0.8715
 1362SOL     OW15718   2.375   2.830   4.184 -0.0135 -0.5544 -0.2812
 1362SOL    HW115719   2.309   2.897   4.204  0.8716  0.2696 -0.1381
 1362SOL    HW215720   2.340   2.795   4.102  0.6505  0.9069 -1.1864
 1363SOL     OW15721   1.062   1.322   5.100  0.0226  0.1004 -0.6451
 1363SOL    HW115722   1.068   1.415   5.079  0.9017 -0.1165 -1.3585
 1363SOL    HW215723   1.130   1.326   5.167  0.2599 -3.5044 -0.6409
 1364SOL     OW15724   1.250   4.531   3.548  0.1023 -0.6342  0.5123
 1364SOL    HW115725   1.289   4.472   3.612  0.8613  0.6714  1.2579
 1364SOL    HW215726   1.216   4.600   3.605  1.1084 -1.1262  1.6892
 1365SOL     OW15727   3.057   2.181  12.017 -0.5652 -0.0122 -0.2974
 1365SOL    HW115728   3.052   2.098  12.063  0.4272 -0.3077 -0.7338
 1365SOL    HW215729   3.129   2.164  11.957  0.8108 -0.7302  1.5656
 1366SOL     OW15730   1.435   2.848  14.213 -0.5984  0.0315  0.7323
 1366SOL    HW115731   1.491   2.790  14.264 -0.6115  0.7843  1.6011
 1366SOL    HW215732   1.456   2.940  14.225  0.0490 -0.2364  1.5946
 1367SOL     OW15733   3.137   4.039   9.401  1.0699  0.6706  0.2091
 1367SOL    HW115734   3.079   4.071   9.471  1.1684 -0.4868  0.8117
 1367SOL    HW215735   3.099   3.954   9.378 -1.8765  2.1182 -0.3798
 1368SOL     OW15736   4.603   4.556   2.952  0.2586  0.0173 -0.4901
 1368SOL    HW115737   4.597   4.631   2.892  0.0337  0.3269 -0.0782
 1368SOL    HW215738   4.512   4.548   2.982  1.5727  0.4399  3.6262
 1369SOL     OW15739   1.823   3.826  14.143  0.1050 -0.2449 -0.2408
 1369SOL    HW115740   1.730   3.807  14.132  0.3090 -1.1087 -0.4110
 1369SOL    HW215741   1.860   3.739  14.129  1.3387 -0.0961  2.0707
 1370SOL     OW15742   1.384   0.211   2.136  0.0576  0.0599 -0.9583
 1370SOL    HW115743   1.403   0.291   2.186  0.4587 -0.6570  0.0274
 1370SOL    HW215744   1.354   0.257   2.058 -0.2370  0.0882 -0.8282
 1371SOL     OW15745   1.701   4.636   7.422 -0.1590 -0.0357 -0.8132
 1371SOL    HW115746   1.606   4.638   7.425 -0.1247 -1.8268  1.7607
 1371SOL    HW215747   1.710   4.724   7.459  0.8576 -1.1953  1.7641
 1372SOL     OW15748   0.152   1.849   2.844  0.8121  0.4066  0.4091
 1372SOL    HW115749   0.140   1.801   2.762 -1.5525  0.5389  0.6726
 1372SOL    HW215750   0.236   1.892   2.824  1.2373 -0.4846  0.2768
 1373SOL     OW15751   3.540   2.578   1.385 -0.6392 -0.5261  0.1133
 1373SOL    HW115752   3.528   2.529   1.466 -2.3871 -0.3711 -0.0334
 1373SOL    HW215753   3.448   2.599   1.365 -0.3621  0.0996 -0.4808
 1374SOL     OW15754   1.481   1.343   8.441  0.3382  0.2960 -0.2117
 1374SOL    HW115755   1.576   1.339   8.429  0.1401  0.6228 -1.8993
 1374SOL    HW215756   1.463   1.249   8.438  0.3403  0.2225  2.4408
 1375SOL     OW15757   2.325   2.134   7.163 -0.0913  0.3477 -0.2730
 1375SOL    HW115758   2.345   2.218   7.204 -0.6233  0.0113  0.6879
 1375SOL    HW215759   2.362   2.074   7.227 -1.1958 -1.0798 -0.9791
 1376SOL     OW15760   1.319   2.484  11.374 -0.0647 -0.7345  0.1877
 1376SOL    HW115761   1.371   2.455  11.449  0.6139  2.4481  0.9424
 1376SOL    HW215762   1.391   2.522  11.323  0.9768 -0.3384  1.9661
 1377SOL     OW15763   0.605   4.365   3.406  0.1005 -0.2815  0.1148
 1377SOL    HW115764   0.670   4.368   3.477 -0.5938 -2.4995  0.8283
 1377SOL    HW215765   0.617   4.278   3.368 -1.0243  0.7474 -2.5256
 1378SOL     OW15766   2.829   1.656   4.930 -0.0678  0.1125 -0.3190
 1378SOL    HW115767   2.877   1.701   5.000 -1.1633  1.3795 -0.3992
 1378SOL    HW215768   2.842   1.565   4.958  1.8191  0.6450  0.5375
 1379SOL     OW15769   1.054   1.907  10.398 -0.3208  0.3052 -0.3940
 1379SOL    HW115770   0.967   1.875  10.374 -0.2820 -0.7776  0.8922
 1379SOL    HW215771   1.049   1.890  10.492  1.3055  0.6699 -0.2417
 1380SOL     OW15772   0.732   3.717   1.348  0.5081  0.2219 -0.1624
 1380SOL    HW115773   0.809   3.764   1.316  1.7851 -1.7057  0.0872
 1380SOL    HW215774   0.726   3.638   1.295  0.1060  0.6808 -0.7945
 1381SOL     OW15775   0.006   1.271  15.186  0.0861  0.1933  0.0915
 1381SOL    HW115776   4.709   1.330  15.119  0.2042  1.9213  1.5552
 1381SOL    HW215777   4.687   1.194  15.187 -1.8553  1.6125 -2.3861
 1382SOL     OW15778   2.696   2.255   6.524  0.4780 -0.0210 -0.0159
 1382SOL    HW115779   2.633   2.242   6.595  0.5835 -2.4558 -0.3564
 1382SOL    HW215780   2.677   2.173   6.478 -0.9896 -1.0847  2.5216
 1383SOL     OW15781   0.838   0.746   7.401 -0.6714  0.2240  0.3098
 1383SOL    HW115782   0.774   0.695   7.352  1.0047 -3.1050  1.6313
 1383SOL    HW215783   0.826   0.827   7.350 -0.0570 -0.1497 -0.4317
 1384SOL     OW15784   1.323   2.785   9.202  0.0367  0.9547  0.1521
 1384SOL    HW115785   1.300   2.841   9.127  1.7352  1.8585  0.3047
 1384SOL    HW215786   1.243   2.733   9.203 -0.4008  1.6017 -1.4772
 1385SOL     OW15787   4.216   2.082  12.967  0.2351 -0.3865 -0.2131
 1385SOL    HW115788   4.201   2.138  13.042 -0.8555 -1.2497  0.2076
 1385SOL    HW215789   4.142   2.024  12.983 -0.0103 -0.2844 -0.9530
 1386SOL     OW15790   3.740   3.055   3.829 -0.0583  0.1944 -0.0640
 1386SOL    HW115791   3.719   3.117   3.759  0.2551 -1.3676 -1.5536
 1386SOL    HW215792   3.761   2.979   3.774  1.3195 -0.2351  1.0728
 1387SOL     OW15793   0.606   0.074  17.644  0.3051  0.7582  0.1673
 1387SOL    HW115794   0.545   0.147  17.653 -0.2354  0.0297  2.7017
 1387SOL    HW215795   0.613   0.041  17.734  0.0189  0.2807  0.0117
 1388SOL     OW15796   3.698   4.315   4.595  0.4393 -0.1026  0.3399
 1388SOL    HW115797   3.699   4.326   4.690 -0.4840 -1.7777  0.5484
 1388SOL    HW215798   3.604   4.319   4.575  0.9235 -0.7278 -2.0880
 1389SOL     OW15799   2.108   2.715   7.947 -0.0960 -0.3258 -0.0929
 1389SOL    HW115800   2.165   2.651   7.903  0.7406 -0.5359  1.2952
 1389SOL    HW215801   2.147   2.723   8.034  0.7357 -0.4042 -0.4544
 1390SOL     OW15802   3.265   4.445   6.229  0.9387 -0.0607 -0.6468
 1390SOL    HW115803   3.305   4.506   6.291 -1.5374  1.0994 -0.2063
 1390SOL    HW215804   3.171   4.464   6.225  0.7476 -0.7763  0.5093
 1391SOL     OW15805   1.659   1.243   6.065 -0.1606  0.3487  0.0040
 1391SOL    HW115806   1.656   1.338   6.061  1.3091  0.3100 -1.7056
 1391SOL    HW215807   1.681   1.231   5.972 -3.7446 -1.1898 -0.6659
 1392SOL     OW15808   0.091   4.155  10.803 -0.2025  0.0357  0.0915
 1392SOL    HW115809   0.121   4.070  10.771 -1.7860 -0.6029  0.2918
 1392SOL    HW215810   4.734   4.140  10.810 -0.4768  2.1599  0.8648
 1393SOL     OW15811   2.846   1.398  12.225  0.0465 -0.1832  0.1208
 1393SOL    HW115812   2.799   1.334  12.172  0.3432  0.1848 -0.5956
 1393SOL    HW215813   2.930   1.353  12.217  0.5889  1.2904 -2.5043
 1394SOL     OW15814   3.083   0.719  14.905  0.1061  0.2765  0.5325
 1394SOL    HW115815   3.179   0.727  14.903  0.0794  0.1270 -1.0477
 1394SOL    HW215816   3.073   0.642  14.850  1.5667 -0.1874  0.9204
 1395SOL     OW15817   2.755   0.052   9.760  0.5055 -0.4776  0.6485
 1395SOL    HW115818   2.773   0.057   9.666 -0.9893  1.9986  0.4648
 1395SOL    HW215819   2.844   0.030   9.786  0.7789  0.9967  0.9835
 1396SOL     OW15820   0.377   0.882  16.731  0.1163 -0.0447  0.0531
 1396SOL    HW115821   0.405   0.972  16.719 -1.3228  0.5415  1.0652
 1396SOL    HW215822   0.356   0.858  16.640 -0.6854  0.8224  0.0172
 1397SOL     OW15823   0.182   4.261   2.382  0.0756  0.3562  0.7468
 1397SOL    HW115824   0.106   4.318   2.374  0.4640  0.7256 -0.3182
 1397SOL    HW215825   0.134   4.179   2.391 -0.1264  0.3844 -0.1207
 1398SOL     OW15826   0.175   4.659   7.974 -0.1438  0.2546 -0.4018
 1398SOL    HW115827   0.266   4.631   7.979 -0.5903 -0.6179  2.8684
 1398SOL    HW215828   0.128   4.594   8.028  0.6332 -1.2993 -1.5871
 1399SOL     OW15829   2.957   2.563  14.977 -0.0038  0.0030  0.0299
 1399SOL    HW115830   2.881   2.607  15.016  1.7662  0.5686  2.8308
 1399SOL    HW215831   2.919   2.475  14.968  0.1791 -0.2654  1.9519
 1400SOL     OW15832   0.314   0.528   4.249 -0.1831  0.4132  0.1684
 1400SOL    HW115833   0.276   0.495   4.331  0.7241  0.9076  0.7946
 1400SOL    HW215834   0.234   0.545   4.200  0.5868  0.1572 -1.1552
 1401SOL     OW15835   4.144   0.527  15.185  0.4397  0.6511 -0.2905
 1401SOL    HW115836   4.068   0.557  15.135  0.9986  1.6152 -0.5590
 1401SOL    HW215837   4.103   0.528  15.272  1.8121 -1.5974  0.4032
 1402SOL     OW15838   4.499   1.826   9.100 -0.7007 -0.5046  0.1317
 1402SOL    HW115839   4.403   1.829   9.099 -0.6524  1.7241  1.2384
 1402SOL    HW215840   4.512   1.837   9.006 -2.4396  1.5827  0.1348
 1403SOL     OW15841   4.667   2.378   4.774  0.4496  0.4113 -0.0514
 1403SOL    HW115842   0.016   2.352   4.805  1.0818  0.7870 -1.5274
 1403SOL    HW215843   4.640   2.287   4.771  1.1781  0.1090  2.5100
 1404SOL     OW15844   0.964   1.366   0.762  0.4038 -0.5636 -0.4298
 1404SOL    HW115845   0.883   1.394   0.804  2.9469  1.5210  3.0535
 1404SOL    HW215846   1.014   1.448   0.762 -0.9297  0.2390 -0.5276
 1405SOL     OW15847   0.706   2.532  15.713 -0.1459 -0.4412  0.0688
 1405SOL    HW115848   0.773   2.515  15.779  0.3265  2.8239  0.4039
 1405SOL    HW215849   0.625   2.527  15.763 -0.0404 -1.7785  0.1119
 1406SOL     OW15850   2.537   1.378   4.735 -0.2660 -0.2322  0.1183
 1406SOL    HW115851   2.518   1.388   4.641 -1.6165 -4.1271  0.0119
 1406SOL    HW215852   2.506   1.466   4.759  0.6265  0.2253 -0.4013
 1407SOL     OW15853   3.496   2.851   6.780  0.2381 -0.6755  0.6165
 1407SOL    HW115854   3.466   2.900   6.857  0.4787 -1.5945  1.3084
 1407SOL    HW215855   3.572   2.803   6.815  1.2769  0.3249 -0.2930
 1408SOL     OW15856   4.359   0.428  16.567 -0.3215  0.0135  0.4087
 1408SOL    HW115857   4.452   0.451  16.574 -0.3267 -0.0997  0.8190
 1408SOL    HW215858   4.328   0.425  16.657  0.4124 -0.7616  0.6308
 1409SOL     OW15859   1.101   0.243   3.530  0.6445 -0.3420 -0.1303
 1409SOL    HW115860   1.067   0.176   3.470  0.7571 -0.2663 -0.2785
 1409SOL    HW215861   1.060   0.320   3.489  4.4848  0.6060 -2.2433
 1410SOL     OW15862   0.873   0.854   4.713  0.7429  0.4464  0.2692
 1410SOL    HW115863   0.936   0.882   4.780 -0.5533  0.9004  1.2824
 1410SOL    HW215864   0.790   0.880   4.753  1.7239  0.5364  2.2708
 1411SOL     OW15865   4.627   3.187  16.146  0.0910 -0.2838 -0.3051
 1411SOL    HW115866   4.554   3.224  16.098  1.4248  0.9955 -1.3310
 1411SOL    HW215867   4.656   3.261  16.198 -0.1214 -0.1639 -0.3594
 1412SOL     OW15868   0.191   0.200   8.460  0.2558  0.1402  0.3784
 1412SOL    HW115869   0.163   0.171   8.546 -2.1888  0.4951 -0.2770
 1412SOL    HW215870   0.140   0.138   8.408  3.4496 -1.3179 -0.9715
 1413SOL     OW15871   4.363   0.675   7.951  0.7398 -0.0759 -0.0519
 1413SOL    HW115872   4.410   0.663   7.868  2.6648  0.5749  0.9533
 1413SOL    HW215873   4.398   0.609   8.010 -0.3791  0.4474  1.1742
 1414SOL     OW15874   2.933   2.375   8.667 -0.0173 -0.1884 -0.7508
 1414SOL    HW115875   2.872   2.400   8.598  0.7644 -0.1688 -1.4273
 1414SOL    HW215876   3.007   2.352   8.611 -2.6510 -0.3870 -4.1187
 1415SOL     OW15877   3.037   3.139  13.677 -0.4678 -0.1857 -0.4182
 1415SOL    HW115878   2.980   3.196  13.627 -0.0860  0.4148 -0.1719
 1415SOL    HW215879   3.115   3.148  13.622 -0.3348 -2.1383 -0.5396
 1416SOL     OW15880   2.542   4.033   2.866  0.2857  0.1536 -0.5508
 1416SOL    HW115881   2.521   4.105   2.926  2.6709  0.5148 -0.1473
 1416SOL    HW215882   2.481   3.965   2.895  0.4778  0.2526  0.0879
 1417SOL     OW15883   1.228   2.430   2.574 -0.1595 -0.1821  0.9147
 1417SOL    HW115884   1.323   2.415   2.574 -0.2746 -0.8877 -0.2252
 1417SOL    HW215885   1.216   2.426   2.669 -1.9559 -1.1216  0.6452
 1418SOL     OW15886   2.805   4.435   1.604 -0.2162 -0.5572 -0.7151
 1418SOL    HW115887   2.778   4.435   1.512 -0.1951  0.8413 -0.7144
 1418SOL    HW215888   2.773   4.354   1.645  0.5092 -1.0940 -1.1905
 1419SOL     OW15889   2.160   4.254   7.949  0.1568 -0.4146  0.0339
 1419SOL    HW115890   2.111   4.334   7.969 -0.9966 -1.3845  1.1808
 1419SOL    HW215891   2.240   4.296   7.920 -0.4931  0.1303 -0.9556
 1420SOL     OW15892   0.818   1.328   6.632 -0.3848  0.2274  0.2127
 1420SOL    HW115893   0.734   1.286   6.652  0.5781 -0.5715  2.5165
 1420SOL    HW215894   0.791   1.361   6.546 -2.1407  2.1593  1.4854
 1421SOL     OW15895   3.691   0.038  13.919 -0.2375 -0.6112  0.3309
 1421SOL    HW115896   3.675   4.684  13.899  1.0840 -0.4748 -1.3400
 1421SOL    HW215897   3.749   0.066  13.849 -2.7430 -0.6183 -1.7399
 1422SOL     OW15898   2.625   2.538  15.322  0.0985  0.4278 -0.2493
 1422SOL    HW115899   2.616   2.442  15.320  0.3640  0.3767  0.9916
 1422SOL    HW215900   2.540   2.566  15.357 -0.2985 -0.5832 -0.3869
 1423SOL     OW15901   4.194   1.681  17.448  0.2821  0.4495  0.5598
 1423SOL    HW115902   4.201   1.681  17.544  0.3043 -1.5482  0.5554
 1423SOL    HW215903   4.118   1.740  17.445  0.1739  0.2174 -1.3419
 1424SOL     OW15904   2.490   4.631   7.688 -0.3917  0.4548 -0.6967
 1424SOL    HW115905   2.432   4.663   7.619 -1.1084 -0.4179 -0.5090
 1424SOL    HW215906   2.522   4.713   7.725  0.5320  0.4556 -1.4869
 1425SOL     OW15907   1.767   0.439  15.049  0.2000 -1.1483  0.0100
 1425SOL    HW115908   1.766   0.525  15.007 -1.3793 -0.7903  0.7569
 1425SOL    HW215909   1.742   0.390  14.971  2.4109 -1.0548 -0.7665
 1426SOL     OW15910   3.051   1.859  17.296  0.4278 -0.0213 -0.4302
 1426SOL    HW115911   3.061   1.938  17.349  0.6014  0.6706 -1.5078
 1426SOL    HW215912   3.022   1.793  17.360 -2.3033 -2.3066 -3.9807
 1427SOL     OW15913   4.737   2.619   5.457  0.4723  0.6399  0.9091
 1427SOL    HW115914   0.004   2.665   5.373 -0.4682  0.5761  0.8053
 1427SOL    HW215915   4.680   2.544   5.439 -0.9546  2.0208 -0.4749
 1428SOL     OW15916   1.980   2.497   2.235 -0.8186  0.3001  0.2791
 1428SOL    HW115917   1.890   2.502   2.268 -0.7285 -0.4278  0.6468
 1428SOL    HW215918   2.033   2.516   2.312 -1.3084 -1.5928  1.0734
 1429SOL     OW15919   3.105   3.269   7.999  0.6639  0.0859 -0.6339
 1429SOL    HW115920   3.128   3.236   7.912 -0.1279  1.9436 -1.5440
 1429SOL    HW215921   3.187   3.280   8.047 -0.9838  0.8390  1.9619
 1430SOL     OW15922   3.428   1.503   2.390 -0.5670 -0.0534 -0.4707
 1430SOL    HW115923   3.515   1.481   2.422 -0.1006  0.3482 -1.4563
 1430SOL    HW215924   3.381   1.489   2.472  1.0103 -3.0617 -0.0975
 1431SOL     OW15925   0.105   3.607   2.469  0.1999 -0.1777 -0.0157
 1431SOL    HW115926   0.087   3.691   2.427  0.9964  0.4004  0.8002
 1431SOL    HW215927   0.023   3.562   2.449  2.3914 -3.1294 -2.3494
 1432SOL     OW15928   1.641   3.146  13.942  0.4013  0.3438 -0.0469
 1432SOL    HW115929   1.590   3.215  13.900  0.5304  0.4642 -0.0069
 1432SOL    HW215930   1.695   3.121  13.867  0.4677 -0.2133  0.1865
 1433SOL     OW15931   1.940   0.445   4.127 -0.0721  0.5053 -0.3038
 1433SOL    HW115932   1.887   0.516   4.163 -1.0866 -0.5430  0.3213
 1433SOL    HW215933   1.937   0.387   4.203 -1.4871  0.0837 -0.6752
 1434SOL     OW15934   3.707   3.816   4.539 -0.0910  0.3196  0.0284
 1434SOL    HW115935   3.761   3.741   4.561 -1.6007 -0.1978  2.0759
 1434SOL    HW215936   3.652   3.814   4.618  0.2383  0.0914  0.2481
 1435SOL     OW15937   1.372   1.558  10.791 -0.6306 -0.2837 -0.2442
 1435SOL    HW115938   1.409   1.591  10.873  0.6330 -0.2927 -0.7978
 1435SOL    HW215939   1.426   1.479  10.784 -0.6943 -0.3681  0.2580
 1436SOL     OW15940   1.919   0.953   8.154  0.2839 -0.2255  0.2640
 1436SOL    HW115941   1.862   0.983   8.225 -1.2931  0.4950 -1.2942
 1436SOL    HW215942   1.988   1.019   8.147  1.9656 -2.2521 -2.0515
 1437SOL     OW15943   1.571   1.003   3.909 -0.6489 -0.4870 -0.0437
 1437SOL    HW115944   1.660   0.974   3.885 -0.9007  0.0225 -1.6138
 1437SOL    HW215945   1.559   1.074   3.846  0.6354 -1.2311 -1.1590
 1438SOL     OW15946   3.298   0.311   5.195 -0.0080 -0.1042  0.5948
 1438SOL    HW115947   3.210   0.277   5.211 -0.5981  0.6862 -0.9314
 1438SOL    HW215948   3.316   0.397   5.234 -1.4925  0.1922  0.6431
 1439SOL     OW15949   2.467   2.569  15.547 -0.5564  0.2717 -0.3829
 1439SOL    HW115950   2.404   2.584  15.618 -2.1440  2.5904 -2.3006
 1439SOL    HW215951   2.550   2.585  15.593 -0.7395  1.9303 -0.6337
 1440SOL     OW15952   0.184   3.732   5.181 -0.6296  0.1767  0.2388
 1440SOL    HW115953   0.266   3.772   5.211 -1.3808  1.6244  0.3208
 1440SOL    HW215954   0.144   3.718   5.267 -0.3409 -0.6090  0.2543
 1441SOL     OW15955   0.606   3.314   8.642 -0.2443 -0.0857 -0.0078
 1441SOL    HW115956   0.512   3.298   8.647 -0.1295 -0.1816  1.6846
 1441SOL    HW215957   0.627   3.235   8.593  0.8402  0.4517 -0.4033
 1442SOL     OW15958   4.285   2.901   2.427 -0.4439  0.6336 -0.1968
 1442SOL    HW115959   4.201   2.885   2.384  0.4215 -1.7886 -1.0084
 1442SOL    HW215960   4.349   2.877   2.359  0.1710  2.9317 -0.4058
 1443SOL     OW15961   3.256   0.076  11.086  0.3812 -0.2228 -0.1003
 1443SOL    HW115962   3.266   0.010  11.154  0.5791  2.9817  2.9939
 1443SOL    HW215963   3.169   0.052  11.053  1.0513 -3.6359  0.6200
 1444SOL     OW15964   3.084   3.626   5.419  0.6906 -0.6117 -0.2314
 1444SOL    HW115965   3.090   3.721   5.416 -2.1900 -0.3510  2.3765
 1444SOL    HW215966   3.159   3.604   5.475 -0.2534 -0.1603  1.2057
 1445SOL     OW15967   0.810   2.755   6.245 -0.1065 -0.2170  0.0795
 1445SOL    HW115968   0.789   2.784   6.156 -0.5741 -0.4338  0.1204
 1445SOL    HW215969   0.796   2.661   6.231  0.4657 -0.4172  0.8299
 1446SOL     OW15970   0.733   2.378   4.439 -0.1121  0.3231  0.2832
 1446SOL    HW115971   0.769   2.464   4.419  1.9813 -0.8264 -0.9954
 1446SOL    HW215972   0.710   2.339   4.355  0.8317  0.2606  0.0504
 1447SOL     OW15973   1.906   0.013   3.085 -0.0536 -0.2310 -0.1717
 1447SOL    HW115974   1.934   0.069   3.158 -1.0834  0.3925 -0.2507
 1447SOL    HW215975   1.821   4.716   3.114  0.0243  0.6719  1.1743
 1448SOL     OW15976   4.390   4.219   4.274  0.7918  0.4175  0.2864
 1448SOL    HW115977   4.377   4.130   4.242 -0.1713  1.5278 -2.4818
 1448SOL    HW215978   4.363   4.267   4.195  1.2453 -0.1861 -0.2353
 1449SOL     OW15979   0.847   2.300   0.680 -0.4447  0.1415 -0.1480
 1449SOL    HW115980   0.856   2.384   0.726 -0.5813  0.1212 -0.0824
 1449SOL    HW215981   0.762   2.268   0.711  0.6351 -0.7404  1.8536
 1450SOL     OW15982   1.747   4.467   3.317  0.0117 -0.1185 -0.6608
 1450SOL    HW115983   1.712   4.389   3.274  1.1958  0.1024 -2.0265
 1450SOL    HW215984   1.715   4.537   3.261  1.3465  1.7230  0.9039
 1451SOL     OW15985   4.544   1.290   6.881  0.1375 -0.5824  0.1809
 1451SOL    HW115986   4.568   1.314   6.970  1.6835  2.2070 -0.9807
 1451SOL    HW215987   4.618   1.232   6.868 -2.1578 -3.3156 -0.7523
 1452SOL     OW15988   4.026   2.608   5.886  0.3309  0.0688  0.4456
 1452SOL    HW115989   4.067   2.563   5.959  0.4564 -1.5378 -0.6120
 1452SOL    HW215990   4.074   2.570   5.812 -1.3508 -0.0135 -0.6275
 1453SOL     OW15991   3.982   3.961   8.831 -0.0514  0.1867  1.1217
 1453SOL    HW115992   4.048   3.932   8.769  0.5659  1.5104  1.1572
 1453SOL    HW215993   3.925   3.884   8.829 -2.1763  1.7755 -0.2938
 1454SOL     OW15994   3.006   0.073   2.306  0.2923 -0.0836 -0.0667
 1454SOL    HW115995   3.014   0.148   2.364 -1.8801  1.5116 -1.8336
 1454SOL    HW215996   3.098   0.053   2.289 -0.0399  0.3664 -2.4085
 1455SOL     OW15997   0.740   2.480  12.039  0.1009  0.1169  0.3526
 1455SOL    HW115998   0.691   2.491  12.121  1.8913  1.9207  1.1746
 1455SOL    HW215999   0.796   2.417  12.085 -1.1206  0.3129  2.1294
 1456SOL     OW16000   0.256   4.497   9.210 -0.0637 -0.0371 -0.0771
 1456SOL    HW116001   0.347   4.521   9.191 -0.2825  0.3304 -0.6415
 1456SOL    HW216002   0.275   4.408   9.240  1.6278 -0.3608 -2.1076
 1457SOL     OW16003   2.660   0.319   3.833 -0.0912 -0.5177  0.1694
 1457SOL    HW116004   2.645   0.233   3.873  1.2812 -1.0158 -0.3862
 1457SOL    HW216005   2.704   0.295   3.751  0.1513  0.1810  0.0997
 1458SOL     OW16006   0.095   2.802   3.441 -0.2056 -0.0453 -0.2447
 1458SOL    HW116007   0.119   2.716   3.476  0.1261  0.1297 -0.0441
 1458SOL    HW216008   0.175   2.848   3.464  0.2373 -1.0350  0.1706
 1459SOL     OW16009   0.246   2.706   9.087 -0.5083  0.0566  0.0386
 1459SOL    HW116010   0.178   2.743   9.030  0.7778  1.0162 -0.8670
 1459SOL    HW216011   0.222   2.741   9.172  3.5574 -2.9257  2.4207
 1460SOL     OW16012   0.385   1.854   3.351  0.5097 -0.7623  0.0416
 1460SOL    HW116013   0.465   1.901   3.328  0.8103 -1.4847 -0.3886
 1460SOL    HW216014   0.412   1.763   3.364 -0.2672 -1.2653 -1.9754
 1461SOL     OW16015   1.936   0.216  13.794 -0.1961  0.0650 -0.4581
 1461SOL    HW116016   1.841   0.210  13.783 -0.2532 -0.5526  0.3429
 1461SOL    HW216017   1.957   0.123  13.782  0.0103 -0.0887  1.0854
 1462SOL     OW16018   1.489   2.794   7.330 -0.2441  0.0002 -0.4214
 1462SOL    HW116019   1.426   2.829   7.393 -0.1454 -0.9843  0.2272
 1462SOL    HW216020   1.561   2.856   7.337 -1.4842  1.2709  1.3450
 1463SOL     OW16021   3.536   3.981   9.003  0.1311  0.8097 -0.0414
 1463SOL    HW116022   3.545   3.940   8.917 -2.2506  0.9974 -0.3746
 1463SOL    HW216023   3.500   4.066   8.978 -0.9659  0.6055  0.8364
 1464SOL     OW16024   3.361   0.026  11.969  0.1475  0.1323  0.6897
 1464SOL    HW116025   3.319   0.060  11.889  1.5426  1.0291  0.3380
 1464SOL    HW216026   3.329   4.675  11.958  0.4835 -0.0960  1.6291
 1465SOL     OW16027   3.511   4.572   9.325  0.4953  0.1512  0.3507
 1465SOL    HW116028   3.461   4.507   9.275  2.1043 -0.7968 -0.0149
 1465SOL    HW216029   3.449   4.644   9.339 -1.4758 -1.3036 -0.9294
 1466SOL     OW16030   3.536   1.864   1.468 -0.0943  0.0503  0.5616
 1466SOL    HW116031   3.592   1.790   1.445  0.0341  0.7055 -1.2799
 1466SOL    HW216032   3.539   1.870   1.563  1.9102  0.8760  0.4368
 1467SOL     OW16033   1.488   1.282   4.959 -0.3118  0.0074 -0.3707
 1467SOL    HW116034   1.545   1.351   4.995  0.2277 -0.7480  0.2223
 1467SOL    HW216035   1.402   1.323   4.970  1.0063  2.1929  1.7565
 1468SOL     OW16036   2.976   2.812  14.812  0.1842  0.1311  0.5159
 1468SOL    HW116037   3.024   2.733  14.835  0.3444  0.3588  0.9707
 1468SOL    HW216038   2.888   2.777  14.826  0.4404 -0.5265  0.4615
 1469SOL     OW16039   0.777   0.825   3.353 -0.4740  0.2823  0.1213
 1469SOL    HW116040   0.736   0.910   3.369  1.2623  1.1187  0.0855
 1469SOL    HW216041   0.835   0.847   3.281 -1.2617 -0.5396 -0.7657
 1470SOL     OW16042   2.787   4.157   5.807  0.1347  0.3424 -0.1420
 1470SOL    HW116043   2.735   4.183   5.731 -1.6160  0.0691  0.9737
 1470SOL    HW216044   2.765   4.066   5.822  0.3852  0.3326  0.1722
 1471SOL     OW16045   3.929   0.831   6.737 -0.2186  0.5453  0.3722
 1471SOL    HW116046   4.000   0.824   6.674  3.8167  1.5619  4.7304
 1471SOL    HW216047   3.944   0.754   6.792 -2.8688  0.1635  0.5711
 1472SOL     OW16048   3.749   3.339   9.104 -0.5770  0.1012  0.0102
 1472SOL    HW116049   3.664   3.372   9.076 -0.9486  0.4598  1.5341
 1472SOL    HW216050   3.781   3.418   9.147 -0.1481 -0.6726  1.1536
 1473SOL     OW16051   0.937   4.327  14.001  0.3282 -0.4853 -0.2413
 1473SOL    HW116052   1.004   4.390  13.972  2.1204 -2.5986 -0.7195
 1473SOL    HW216053   0.979   4.302  14.083  0.4828  1.3586  0.2460
 1474SOL     OW16054   2.594   1.792   3.534  0.1345 -0.0521  0.1410
 1474SOL    HW116055   2.628   1.704   3.548 -0.1308 -0.0331  0.9056
 1474SOL    HW216056   2.500   1.777   3.543  0.1230  0.4821  0.8949
 1475SOL     OW16057   0.878   0.100   8.968 -0.2495  0.6218 -0.1772
 1475SOL    HW116058   0.849   0.183   9.004  1.3268  1.0626  0.0778
 1475SOL    HW216059   0.799   0.047   8.958  1.3557 -2.1131  1.6177
 1476SOL     OW16060   3.474   3.210   9.182  0.5769  0.5996 -0.4187
 1476SOL    HW116061   3.493   3.291   9.136 -0.0869  0.1850 -1.4272
 1476SOL    HW216062   3.433   3.241   9.262  0.6976 -1.8982  0.6111
 1477SOL     OW16063   4.087   1.406   1.271 -0.4453  0.1077  0.0921
 1477SOL    HW116064   4.131   1.321   1.278  1.7365  1.3364  1.3378
 1477SOL    HW216065   3.998   1.388   1.301 -0.2129  0.1391  0.8066
 1478SOL     OW16066   3.408   3.223  16.917  0.6693 -0.0581 -0.4070
 1478SOL    HW116067   3.319   3.243  16.946 -0.0032 -1.4905 -1.5142
 1478SOL    HW216068   3.455   3.234  17.000 -1.9263 -0.3606  1.0979
 1479SOL     OW16069   1.564   4.587   7.857  0.4354  0.4825  0.2395
 1479SOL    HW116070   1.623   4.512   7.866  0.4704  0.2639 -1.7319
 1479SOL    HW216071   1.478   4.549   7.838  0.4881  1.3236 -1.6711
 1480SOL     OW16072   3.936   0.322   7.763  0.0377  0.3936  0.7314
 1480SOL    HW116073   3.844   0.323   7.788 -0.5931  0.1631 -1.6302
 1480SOL    HW216074   3.958   0.408   7.800 -1.7623  1.5071 -0.8342
 1481SOL     OW16075   2.490   1.817   4.692  0.5639 -0.1152 -0.3842
 1481SOL    HW116076   2.398   1.793   4.688  0.2124  1.0161  0.9268
 1481SOL    HW216077   2.524   1.822   4.782  1.3353  1.4766 -0.7685
 1482SOL     OW16078   2.594   2.672   6.215 -0.1322  1.0102 -0.7642
 1482SOL    HW116079   2.566   2.721   6.292  0.9849  1.3960 -0.5958
 1482SOL    HW216080   2.651   2.603   6.250 -1.4195 -0.4006 -1.4494
 1483SOL     OW16081   2.555   2.978   7.971 -0.1640 -0.2611 -0.7204
 1483SOL    HW116082   2.584   2.947   8.057  1.5134  1.3529 -0.7324
 1483SOL    HW216083   2.465   2.945   7.967  0.6129 -2.2485 -2.4004
 1484SOL     OW16084   2.285   2.374   2.040 -0.3078 -0.4823 -0.2846
 1484SOL    HW116085   2.309   2.385   1.948  1.6555  0.4161  0.3403
 1484SOL    HW216086   2.213   2.437   2.039 -1.0987 -1.3858 -1.0010
 1485SOL     OW16087   3.732   3.096  15.991 -0.0005 -0.3105 -0.0563
 1485SOL    HW116088   3.786   3.175  16.000  1.5713 -1.4771  0.6144
 1485SOL    HW216089   3.653   3.137  15.955 -0.1819  0.9009  1.7166
 1486SOL     OW16090   2.643   2.546   4.274  0.0142 -0.6985  0.1347
 1486SOL    HW116091   2.639   2.452   4.256 -2.2471 -0.4723 -0.5995
 1486SOL    HW216092   2.726   2.574   4.235 -0.3399 -0.8001 -0.6924
 1487SOL     OW16093   4.205   4.041   1.787  0.4436 -0.7465 -0.4595
 1487SOL    HW116094   4.226   4.074   1.875  1.7699 -0.0282 -1.0350
 1487SOL    HW216095   4.125   3.992   1.799 -1.6994  2.6729 -0.7085
 1488SOL     OW16096   3.842   2.579   4.123 -0.0807 -0.3245 -0.7062
 1488SOL    HW116097   3.926   2.539   4.146 -0.1399 -0.5406 -0.8658
 1488SOL    HW216098   3.862   2.668   4.151  2.0186 -0.6495 -1.1587
 1489SOL     OW16099   3.887   0.946   8.313  0.4697 -0.4243 -0.4585
 1489SOL    HW116100   3.949   0.957   8.385  0.7689  1.0015 -0.9405
 1489SOL    HW216101   3.827   1.013   8.344 -0.7861 -0.7082 -2.2377
 1490SOL     OW16102   1.394   3.888   6.073 -0.7712 -0.1127 -0.2256
 1490SOL    HW116103   1.372   3.862   5.984  0.4757  0.4484 -0.7018
 1490SOL    HW216104   1.322   3.949   6.089  0.8691  1.3174  1.6537
 1491SOL     OW16105   4.456   4.320   1.211 -0.0676 -0.2610 -0.3460
 1491SOL    HW116106   4.504   4.275   1.281  1.9952  0.7456 -1.1191
 1491SOL    HW216107   4.369   4.282   1.223  0.3534 -0.8015  1.0079
 1492SOL     OW16108   4.015   3.599   2.406 -0.5789  0.1599 -0.0754
 1492SOL    HW116109   4.037   3.660   2.476 -0.1394  0.2293 -0.2707
 1492SOL    HW216110   4.017   3.650   2.325 -0.9415 -0.4277 -0.4533
 1493SOL     OW16111   1.952   3.286   5.772 -0.0763  0.3153 -0.3147
 1493SOL    HW116112   1.876   3.316   5.721 -1.1534 -1.9743 -0.0564
 1493SOL    HW216113   1.975   3.201   5.733 -1.4422  0.4764 -1.4828
 1494SOL     OW16114   1.608   0.084  16.617 -0.0998  0.2381  0.2467
 1494SOL    HW116115   1.526   0.102  16.571  0.7452  1.9559 -0.5739
 1494SOL    HW216116   1.671   0.100  16.547 -0.7485  1.9721  0.0560
 1495SOL     OW16117   1.725   2.075   3.948  0.1815  0.5889  0.0280
 1495SOL    HW116118   1.749   2.110   3.863  3.9252 -0.4241  0.6689
 1495SOL    HW216119   1.810   2.065   3.992  0.9170  2.4184 -1.0239
 1496SOL     OW16120   1.239   1.148   0.433  0.4387 -0.1675 -0.6630
 1496SOL    HW116121   1.178   1.152   0.507  1.4704 -1.6831  0.2708
 1496SOL    HW216122   1.308   1.207   0.464 -0.4614  1.5022 -1.8728
 1497SOL     OW16123   4.684   3.319   5.114  0.1289 -0.1456 -0.7992
 1497SOL    HW116124   0.029   3.298   5.072  1.8424  2.3500  1.3725
 1497SOL    HW216125   4.633   3.367   5.048 -0.9356 -2.1177 -1.4231
 1498SOL     OW16126   3.792   0.803  15.335  0.9386 -0.0905  0.0914
 1498SOL    HW116127   3.719   0.828  15.279 -0.4439  1.3237  2.5355
 1498SOL    HW216128   3.757   0.822  15.422 -0.7485  0.4648 -0.7088
 1499SOL     OW16129   3.255   0.712   1.708  0.0715  0.3421  0.3233
 1499SOL    HW116130   3.170   0.683   1.741 -0.2018 -0.1235 -0.7997
 1499SOL    HW216131   3.237   0.795   1.664  0.3443  0.0515 -0.3480
 1500SOL     OW16132   0.949   3.596  12.440 -0.7350  0.0213 -0.0315
 1500SOL    HW116133   0.859   3.623  12.456 -0.1361  1.1824  1.3278
 1500SOL    HW216134   0.972   3.616  12.530  1.4808 -0.3594 -0.5021
 1501SOL     OW16135   1.988   0.301   9.577  0.1381  0.5538  0.3877
 1501SOL    HW116136   1.962   0.247   9.502 -0.9595 -1.8861  2.5009
 1501SOL    HW216137   2.057   0.346   9.529  0.0616 -2.0891 -2.2044
 1502SOL     OW16138   3.680   3.341   7.184  0.4641 -0.2901 -0.0481
 1502SOL    HW116139   3.595   3.384   7.172  1.9472  2.6445  0.1068
 1502SOL    HW216140   3.653   3.249   7.186 -1.4798  0.2983  2.1517
 1503SOL     OW16141   3.986   3.154  10.109 -0.3024  0.3255 -0.5541
 1503SOL    HW116142   4.040   3.086  10.070  1.0850  1.1512 -0.0534
 1503SOL    HW216143   4.056   3.195  10.160  0.8616  0.6965 -2.4363
 1504SOL     OW16144   3.988   3.502   6.581  0.0884 -0.3926 -0.6462
 1504SOL    HW116145   4.069   3.455   6.600  0.6878  0.8806 -0.0475
 1504SOL    HW216146   3.917   3.439   6.576  2.1637 -2.9240  2.1735
 1505SOL     OW16147   1.122   4.413   8.719  0.7378  0.1722 -0.1997
 1505SOL    HW116148   1.208   4.371   8.716  0.3703 -0.4440 -1.8684
 1505SOL    HW216149   1.130   4.433   8.812 -0.1594  2.6927 -0.6735
 1506SOL     OW16150   1.770   3.897   6.524  0.3817 -0.2245 -0.2361
 1506SOL    HW116151   1.765   3.961   6.595 -0.8368 -0.9935  0.3696
 1506SOL    HW216152   1.747   3.950   6.448 -0.0035 -1.1068 -0.7388
 1507SOL     OW16153   4.543   4.058   6.862  0.2050 -0.5041  0.1829
 1507SOL    HW116154   4.597   3.989   6.900  0.3730  0.0614  0.9667
 1507SOL    HW216155   4.558   4.134   6.918 -0.3328  0.6591 -1.2582
 1508SOL     OW16156   2.361   4.261   0.163  0.3200  0.0451  0.5286
 1508SOL    HW116157   2.285   4.204   0.173  0.1150  0.8437  3.5516
 1508SOL    HW216158   2.411   4.225   0.090 -2.2278 -0.4587 -0.9982
 1509SOL     OW16159   1.443   1.467   4.571 -0.3179 -0.3847 -0.3900
 1509SOL    HW116160   1.433   1.412   4.648 -0.1981  0.3827  0.1750
 1509SOL    HW216161   1.520   1.425   4.531  0.6063 -0.2318  1.2489
 1510SOL     OW16162   2.423   0.132   4.579  0.1952 -0.4098 -0.0011
 1510SOL    HW116163   2.419   0.160   4.488 -0.0813  0.3969  0.2567
 1510SOL    HW216164   2.333   0.120   4.610  0.1274  0.2156  0.0372
 1511SOL     OW16165   4.581   1.316   3.672 -0.1181 -0.0868  0.3871
 1511SOL    HW116166   4.615   1.329   3.584  0.8034 -0.0819  0.7481
 1511SOL    HW216167   4.638   1.246   3.704 -0.5660 -0.5569  0.1584
 1512SOL     OW16168   0.329   1.674  10.132  0.5820  0.1976  0.1327
 1512SOL    HW116169   0.317   1.621  10.210  0.1061  1.9217  1.2388
 1512SOL    HW216170   0.246   1.721  10.129  0.7272  0.3985 -0.8866
 1513SOL     OW16171   4.378   1.969   5.429 -0.8142  0.0769  0.3140
 1513SOL    HW116172   4.323   1.893   5.446  0.9819 -1.1386  0.6739
 1513SOL    HW216173   4.350   2.030   5.497  1.4163 -0.4744  1.7172
 1514SOL     OW16174   0.823   2.926   5.922 -0.0587  0.2639  0.6579
 1514SOL    HW116175   0.814   3.015   5.887 -2.0552 -0.7198 -1.3824
 1514SOL    HW216176   0.730   2.911   5.941 -0.1312  0.9994  0.8733
 1515SOL     OW16177   0.661   3.912   5.753  0.0713  0.1582  0.0882
 1515SOL    HW116178   0.698   3.900   5.665 -2.1387 -1.1171 -0.6670
 1515SOL    HW216179   0.668   3.826   5.794 -3.0080  0.7732  1.8871
 1516SOL     OW16180   2.318   0.317   1.739 -0.1178 -0.0555 -0.6525
 1516SOL    HW116181   2.360   0.231   1.732  1.7958  0.7830  0.6451
 1516SOL    HW216182   2.350   0.342   1.826 -0.6784 -0.9152 -0.2034
 1517SOL     OW16183   1.793   1.272   1.571  0.2902 -0.1764 -0.0858
 1517SOL    HW116184   1.822   1.228   1.491  2.0324 -1.2211  1.1021
 1517SOL    HW216185   1.712   1.226   1.591  1.8266 -3.0250 -0.3453
 1518SOL     OW16186   1.560   3.479   3.542 -0.6843 -0.1250 -0.2479
 1518SOL    HW116187   1.483   3.529   3.517  0.0039  1.3326  0.5075
 1518SOL    HW216188   1.624   3.534   3.496  1.5769 -1.1813  1.6357
 1519SOL     OW16189   4.187   3.323  10.232  0.3659  0.2480  0.4438
 1519SOL    HW116190   4.198   3.288  10.320  2.3227  0.9178  0.4618
 1519SOL    HW216191   4.197   3.418  10.242 -1.1389  0.1830  2.5809
 1520SOL     OW16192   0.390   0.568   3.662 -0.3183 -0.1370  0.8567
 1520SOL    HW116193   0.398   0.646   3.717 -2.3306 -0.6174  1.8560
 1520SOL    HW216194   0.445   0.596   3.590 -2.2132  0.7331 -0.2678
 1521SOL     OW16195   0.496   0.905   6.150  0.4939 -0.2187 -0.4026
 1521SOL    HW116196   0.446   0.824   6.159 -1.6348  1.2156  0.5914
 1521SOL    HW216197   0.463   0.930   6.063 -0.5533  1.9747  0.6557
 1522SOL     OW16198   1.981   0.095   6.063  0.1354 -0.2481 -0.3328
 1522SOL    HW116199   1.997   0.042   6.141 -3.7931  0.6258  1.0938
 1522SOL    HW216200   1.969   0.021   6.002 -1.7914 -0.7022  0.5747
 1523SOL     OW16201   1.210   4.166   1.921 -0.0562 -0.7385 -0.4782
 1523SOL    HW116202   1.132   4.123   1.886 -0.1822 -0.2471 -0.8019
 1523SOL    HW216203   1.239   4.096   1.979  1.5791 -0.4611 -0.9703
 1524SOL     OW16204   3.374   0.808  13.276 -0.1288 -0.4577 -0.0829
 1524SOL    HW116205   3.344   0.746  13.210 -2.1954  2.4665 -1.8590
 1524SOL    HW216206   3.386   0.881  13.216 -0.5065 -0.4579 -0.1560
 1525SOL     OW16207   3.819   3.331   1.078  0.2684 -0.1679  0.2805
 1525SOL    HW116208   3.795   3.420   1.102 -0.7658 -0.6677  1.1354
 1525SOL    HW216209   3.745   3.313   1.019 -0.5079  1.1045  0.8797
 1526SOL     OW16210   0.719   3.036   9.472 -0.0918  0.1426  0.2529
 1526SOL    HW116211   0.679   2.952   9.494  2.3656 -0.8229  1.0837
 1526SOL    HW216212   0.799   3.020   9.523  0.2436  0.3666 -0.2008
 1527SOL     OW16213   0.970   3.009   5.579 -0.1886 -0.1878  0.3099
 1527SOL    HW116214   0.999   2.937   5.634 -1.6462 -0.3021  0.9324
 1527SOL    HW216215   0.980   3.086   5.635  1.2145 -0.2865  0.1963
 1528SOL     OW16216   3.871   4.092   9.678  0.1002  0.2818  0.0990
 1528SOL    HW116217   3.792   4.039   9.685  0.4876 -0.3528 -0.3715
 1528SOL    HW216218   3.879   4.128   9.589  1.5539  2.1585  0.9793
 1529SOL     OW16219   1.237   3.426  12.539 -0.5262  0.0809  0.3882
 1529SOL    HW116220   1.252   3.519  12.558 -0.5688 -0.4090  2.8439
 1529SOL    HW216221   1.234   3.380  12.623  1.8452  1.6639  1.3323
 1530SOL     OW16222   3.864   4.252   2.748  0.2027  0.0071 -0.1179
 1530SOL    HW116223   3.863   4.213   2.836  1.4125 -1.8412 -0.9529
 1530SOL    HW216224   3.785   4.212   2.711 -0.3567 -0.6000  1.6803
 1531SOL     OW16225   0.091   1.827  15.795 -0.1431  0.2147 -0.2955
 1531SOL    HW116226   0.049   1.792  15.716  1.1117 -0.6329 -0.5783
 1531SOL    HW216227   0.018   1.832  15.857  0.1563 -1.0336  0.1523
 1532SOL     OW16228   1.774   3.110   3.716 -0.0892 -0.0235 -0.4146
 1532SOL    HW116229   1.720   3.036   3.688  1.2489 -0.5498 -1.6318
 1532SOL    HW216230   1.710   3.155   3.772  3.4356  0.5975  3.1382
 1533SOL     OW16231   0.753   4.169   8.892 -0.0242 -0.3251 -0.0988
 1533SOL    HW116232   0.761   4.259   8.861  3.7669 -0.1433  1.4490
 1533SOL    HW216233   0.833   4.127   8.860 -1.4191 -3.2543  0.1762
 1534SOL     OW16234   2.311   4.248   3.769  1.0084  0.3331 -0.4075
 1534SOL    HW116235   2.301   4.328   3.717 -2.3103 -0.1566 -0.5152
 1534SOL    HW216236   2.376   4.269   3.836  0.4026 -1.8548  0.8795
 1535SOL     OW16237   2.649   4.310  12.186  0.1466  0.7217  0.3957
 1535SOL    HW116238   2.586   4.345  12.249 -0.9562  0.4702 -0.5867
 1535SOL    HW216239   2.683   4.239  12.240  1.3592 -0.3628 -1.8034
 1536SOL     OW16240   0.996   2.668   7.039 -0.0329  0.1030  0.6021
 1536SOL    HW116241   0.984   2.573   7.046 -1.7181  0.3918  1.6732
 1536SOL    HW216242   1.067   2.678   6.975  0.1174 -0.3075  0.7088
 1537SOL     OW16243   0.943   0.059   7.473 -0.1059 -0.0487 -0.2642
 1537SOL    HW116244   0.937   4.712   7.431 -1.0169  0.0712 -0.3692
 1537SOL    HW216245   1.032   0.090   7.454  0.3435 -0.4034  1.2883
 1538SOL     OW16246   0.835   0.294  16.989 -0.9191 -0.5301 -0.4466
 1538SOL    HW116247   0.809   0.386  16.990 -0.5173 -0.4254  1.7194
 1538SOL    HW216248   0.788   0.257  16.914 -1.9109 -0.7540  0.2839
 1539SOL     OW16249   0.592   3.375   3.709  0.6326 -0.0388  0.2505
 1539SOL    HW116250   0.544   3.313   3.763 -1.8474  1.8124  0.1782
 1539SOL    HW216251   0.665   3.317   3.687  0.3943  0.3385 -1.5560
 1540SOL     OW16252   0.158   0.083   8.714 -0.0301 -0.6630  0.3685
 1540SOL    HW116253   0.132   0.161   8.764 -1.1559  0.0691 -1.3911
 1540SOL    HW216254   0.147   0.016   8.782  1.8963  0.1305  1.4816
 1541SOL     OW16255   2.115   1.039  13.744  0.5569 -0.5165 -0.2232
 1541SOL    HW116256   2.171   0.962  13.738 -0.2332 -1.1969  0.9309
 1541SOL    HW216257   2.177   1.097  13.788 -0.4443  1.6419 -1.6817
 1542SOL     OW16258   0.534   3.467   0.683  0.1158  0.0645  0.2748
 1542SOL    HW116259   0.572   3.398   0.739 -2.1867 -0.9305  0.6352
 1542SOL    HW216260   0.441   3.471   0.707  0.5805  0.4383  2.0442
 1543SOL     OW16261   1.602   3.198   0.295  0.3986 -0.1592 -0.3232
 1543SOL    HW116262   1.590   3.290   0.270  0.7680  0.0358  0.2271
 1543SOL    HW216263   1.643   3.206   0.381 -0.4967  2.1412 -0.0959
 1544SOL     OW16264   3.733   1.354   2.233  0.0739  0.2744 -0.1706
 1544SOL    HW116265   3.717   1.360   2.327  0.2903  0.5859 -0.1533
 1544SOL    HW216266   3.730   1.446   2.209  0.6421  0.2020 -0.5160
 1545SOL     OW16267   1.364   1.141   2.851  0.3677  0.2556 -0.1770
 1545SOL    HW116268   1.297   1.164   2.787 -0.7824 -0.5505  0.7522
 1545SOL    HW216269   1.416   1.220   2.863  0.0901  0.1736  1.5054
 1546SOL     OW16270   2.680   4.268   6.212 -0.0214 -0.3760  0.4376
 1546SOL    HW116271   2.614   4.265   6.281  0.2645 -1.2581  0.6830
 1546SOL    HW216272   2.644   4.199   6.155  2.7299 -0.4554 -1.1975
 1547SOL     OW16273   2.939   3.255   3.442  0.1306  0.8553  0.3782
 1547SOL    HW116274   2.850   3.293   3.444 -1.0597 -1.8236 -1.9160
 1547SOL    HW216275   2.927   3.168   3.405  0.6112  0.3412  1.4413
 1548SOL     OW16276   0.299   1.304   7.755 -0.0269 -0.3091  0.0092
 1548SOL    HW116277   0.349   1.384   7.739 -1.3961  0.1400 -2.1277
 1548SOL    HW216278   0.304   1.307   7.850  0.6976  1.5011 -0.0830
 1549SOL     OW16279   2.726   3.220  15.418 -0.1383  0.4911  0.2812
 1549SOL    HW116280   2.796   3.157  15.399  2.3556  3.0948  0.9099
 1549SOL    HW216281   2.776   3.292  15.456  2.5650 -1.0989 -0.2533
 1550SOL     OW16282   1.506   0.599   8.673 -0.0279 -0.0686  0.2887
 1550SOL    HW116283   1.422   0.614   8.716  1.5495  1.1420  2.8877
 1550SOL    HW216284   1.542   0.525   8.721  0.7643  0.3217  0.3000
 1551SOL     OW16285   1.110   0.960   9.815  0.0910 -0.0729 -0.6048
 1551SOL    HW116286   1.105   0.953   9.910  1.8108  2.2683 -0.3417
 1551SOL    HW216287   1.194   0.917   9.801  0.7916  0.5899  1.4820
 1552SOL     OW16288   3.541   0.164   3.700  0.2522  0.1471  0.1504
 1552SOL    HW116289   3.558   0.152   3.794  1.0022  1.6297  0.1969
 1552SOL    HW216290   3.554   0.257   3.685  1.9937 -0.3875 -1.7662
 1553SOL     OW16291   3.076   4.163   3.654 -0.1807 -0.7846 -0.3852
 1553SOL    HW116292   3.143   4.106   3.616 -1.5091 -1.2569 -2.0272
 1553SOL    HW216293   2.998   4.154   3.599  0.4318 -1.3922 -1.1397
 1554SOL     OW16294   0.493   3.202   9.450  0.0704 -0.2158  0.0675
 1554SOL    HW116295   0.527   3.281   9.410 -0.1556 -0.1675 -0.0293
 1554SOL    HW216296   0.579   3.160   9.449  0.5388  0.8017 -1.2729
 1555SOL     OW16297   1.956   0.052  10.229 -0.4110  0.4020  0.0414
 1555SOL    HW116298   1.890   4.733  10.190 -0.4993 -0.6634  1.7267
 1555SOL    HW216299   2.033   0.042  10.173 -0.3472 -0.2503  0.2439
 1556SOL     OW16300   1.150   3.689   4.947  0.4601 -0.0803  1.0068
 1556SOL    HW116301   1.225   3.749   4.946 -1.3188  2.0958 -0.4847
 1556SOL    HW216302   1.127   3.681   4.855  2.1189 -5.2622  1.0086
 1557SOL     OW16303   1.689   1.999   7.112  0.2330 -0.2590  0.2389
 1557SOL    HW116304   1.698   2.094   7.115  1.4523 -0.2750 -2.9384
 1557SOL    HW216305   1.773   1.970   7.077  0.6038 -1.0111  1.7887
 1558SOL     OW16306   3.646   4.468   3.035 -0.7097 -0.6498 -0.2169
 1558SOL    HW116307   3.664   4.484   2.942 -0.6426  1.4859  0.1677
 1558SOL    HW216308   3.574   4.406   3.031 -1.6974  0.6446 -2.3912
 1559SOL     OW16309   0.185   2.474   8.053 -0.1195  0.0678  0.4741
 1559SOL    HW116310   0.191   2.383   8.022 -0.5391 -0.5771  2.2884
 1559SOL    HW216311   0.229   2.519   7.981 -2.2381  1.0060 -0.2227
 1560SOL     OW16312   2.055   2.350   8.075  0.5775  0.3101 -0.0317
 1560SOL    HW116313   2.010   2.282   8.124  2.2452 -0.4468  0.4338
 1560SOL    HW216314   2.054   2.318   7.985  2.5622 -1.6130  0.6290
 1561SOL     OW16315   4.141   4.445   4.912  0.2524  0.0638  0.2501
 1561SOL    HW116316   4.209   4.513   4.911 -1.1801  1.4955 -0.0552
 1561SOL    HW216317   4.064   4.501   4.922  1.3684  1.4240  1.2365
 1562SOL     OW16318   2.756   1.686   5.274 -0.5548  0.2016 -0.5454
 1562SOL    HW116319   2.803   1.738   5.209 -0.7052  0.5010 -0.4183
 1562SOL    HW216320   2.759   1.744   5.351 -0.9520 -2.3288  1.3689
 1563SOL     OW16321   2.658   4.660   5.173 -0.3523 -0.0022 -0.6898
 1563SOL    HW116322   2.590   4.637   5.235  0.0156  0.4292 -0.1251
 1563SOL    HW216323   2.626   0.008   5.146 -2.9642 -0.2746  1.6369
 1564SOL     OW16324   0.838   1.684  11.507  0.1628  0.2522 -0.2386
 1564SOL    HW116325   0.760   1.655  11.554  1.1130 -1.5284  0.2235
 1564SOL    HW216326   0.852   1.606  11.454  0.3185  1.0625 -1.3801
 1565SOL     OW16327   1.535   2.644  16.748  0.2296  0.0442 -0.8304
 1565SOL    HW116328   1.578   2.623  16.665 -0.3492  1.4742 -1.4948
 1565SOL    HW216329   1.558   2.736  16.757  0.9096 -0.0253 -1.8929
 1566SOL     OW16330   0.382   4.076   4.870  0.3536  0.5557 -0.0985
 1566SOL    HW116331   0.422   3.992   4.850  1.2637  1.1310 -0.6855
 1566SOL    HW216332   0.423   4.100   4.953  2.8758  0.1593 -1.2440
 1567SOL     OW16333   0.910   3.217   2.337  0.6527  0.2394  0.8019
 1567SOL    HW116334   0.884   3.177   2.254 -1.9742 -0.8062  2.1008
 1567SOL    HW216335   0.842   3.282   2.357  0.3741  0.4421 -0.7934
 1568SOL     OW16336   0.731   0.134  13.561 -0.1531 -0.0609 -0.0385
 1568SOL    HW116337   0.816   0.106  13.528 -0.8999 -1.3825 -0.8551
 1568SOL    HW216338   0.675   0.059  13.541 -0.2100  0.2233 -0.9557
 1569SOL     OW16339   3.223   3.194   2.326  0.3662  0.0289 -0.2397
 1569SOL    HW116340   3.137   3.228   2.353 -0.2596 -0.8794 -1.1172
 1569SOL    HW216341   3.245   3.241   2.246 -1.2770 -0.2788 -0.8733
 1570SOL     OW16342   2.309   1.088  16.853 -0.0562 -0.1827  0.2067
 1570SOL    HW116343   2.306   1.009  16.799  0.2771 -1.7552  2.4427
 1570SOL    HW216344   2.292   1.159  16.791 -0.8271 -0.1778  0.4206
 1571SOL     OW16345   3.408   1.305   6.100 -0.3082 -0.2207  0.0012
 1571SOL    HW116346   3.335   1.364   6.080 -0.8038  0.2040  3.0010
 1571SOL    HW216347   3.384   1.264   6.183 -0.9774  0.7724  0.3006
 1572SOL     OW16348   0.985   0.102   5.707 -0.5624 -0.4018 -0.4007
 1572SOL    HW116349   0.984   0.195   5.731 -1.5646 -0.3968 -0.4593
 1572SOL    HW216350   1.051   0.097   5.638 -1.2999 -0.6377 -1.0906
 1573SOL     OW16351   0.807   1.304   9.125  0.1062 -0.0710 -0.0822
 1573SOL    HW116352   0.835   1.387   9.164 -3.0971  0.3732  1.3052
 1573SOL    HW216353   0.858   1.240   9.176 -1.3604 -0.9307  0.3032
 1574SOL     OW16354   3.392   3.205   7.927  0.4311  0.0048 -0.4508
 1574SOL    HW116355   3.332   3.153   7.874  0.6635 -1.0239  0.3062
 1574SOL    HW216356   3.365   3.297   7.922 -1.7258 -0.5991  0.2687
 1575SOL     OW16357   1.634   2.737  11.980 -0.4611 -0.1089  0.8385
 1575SOL    HW116358   1.590   2.672  11.925 -0.0355 -0.9995  1.5639
 1575SOL    HW216359   1.701   2.689  12.028 -0.3619  0.0514  0.8601
 1576SOL     OW16360   1.116   2.454   3.829 -0.7774  0.1147 -0.0966
 1576SOL    HW116361   1.175   2.498   3.890  1.2442 -1.9476 -0.5712
 1576SOL    HW216362   1.095   2.373   3.876  0.1456 -0.3536 -0.4849
 1577SOL     OW16363   4.093   0.952   1.870  0.2338 -0.0297  0.2440
 1577SOL    HW116364   4.069   0.912   1.954 -1.1923  2.0424  0.8357
 1577SOL    HW216365   4.134   1.033   1.902  1.7944 -1.2345  1.2638
 1578SOL     OW16366   3.096   1.191   3.267 -0.3641 -0.3914 -0.6018
 1578SOL    HW116367   3.185   1.215   3.242 -0.8240  2.6954  0.5727
 1578SOL    HW216368   3.087   1.102   3.235 -0.5202 -0.1858 -1.1257
 1579SOL     OW16369   4.298   0.131   3.480 -0.6323 -0.0019  0.2607
 1579SOL    HW116370   4.261   0.052   3.518  0.1923 -0.5562 -0.0893
 1579SOL    HW216371   4.355   0.165   3.550 -0.0011 -0.3060 -0.1018
 1580SOL     OW16372   2.545   0.153   7.755 -0.3554  0.3442  0.3182
 1580SOL    HW116373   2.605   0.165   7.829 -0.3705  1.8650  0.0818
 1580SOL    HW216374   2.463   0.182   7.797  0.2976  1.5765  0.7402
 1581SOL     OW16375   2.191   0.351   4.889  0.5734 -0.0658 -0.5176
 1581SOL    HW116376   2.283   0.349   4.864 -0.2805  1.1749 -3.8104
 1581SOL    HW216377   2.193   0.374   4.982  1.2890 -1.3188 -0.2285
 1582SOL     OW16378   2.407   2.070   8.181 -0.5781 -0.5060  0.3662
 1582SOL    HW116379   2.486   2.020   8.203 -1.7119 -2.4391  0.0071
 1582SOL    HW216380   2.403   2.120   8.263  0.0633  2.4612 -1.4457
 1583SOL     OW16381   3.777   3.809   2.710 -0.0615 -0.5934 -0.2151
 1583SOL    HW116382   3.693   3.854   2.701 -0.3141 -0.8617  0.8553
 1583SOL    HW216383   3.808   3.787   2.622 -1.6335 -0.0552 -0.9079
 1584SOL     OW16384   3.808   1.107   9.092  0.4583 -0.0819  0.0604
 1584SOL    HW116385   3.832   1.167   9.021  0.3700 -1.6842 -1.3020
 1584SOL    HW216386   3.770   1.174   9.149  0.8171 -0.6579  0.9899
 1585SOL     OW16387   2.387   0.435   7.504 -0.1276  0.3773  0.1159
 1585SOL    HW116388   2.351   0.456   7.591 -0.5019  2.1070 -0.4560
 1585SOL    HW216389   2.407   0.341   7.503 -0.6878  0.2697 -0.9828
 1586SOL     OW16390   1.465   3.329  13.817  0.2939  0.0781 -0.0987
 1586SOL    HW116391   1.388   3.343  13.872 -0.8641  0.7702 -1.8992
 1586SOL    HW216392   1.481   3.421  13.798 -0.9902  0.2807 -0.1880
 1587SOL     OW16393   2.876   1.917   7.211  0.7911 -0.0876 -0.1488
 1587SOL    HW116394   2.833   1.962   7.284  0.1173 -1.8400  0.5441
 1587SOL    HW216395   2.796   1.870   7.189  1.5635 -2.0336  1.1904
 1588SOL     OW16396   0.308   3.602   7.685 -0.0576  0.0009  0.2916
 1588SOL    HW116397   0.353   3.527   7.722  0.3388 -0.5568 -1.3169
 1588SOL    HW216398   0.304   3.667   7.755  1.4340  0.6290 -0.2146
 1589SOL     OW16399   3.189   1.890   5.757  0.4113  0.1867  0.0122
 1589SOL    HW116400   3.124   1.853   5.698 -0.1491 -2.4837  2.3142
 1589SOL    HW216401   3.232   1.958   5.705  0.1014  0.6308  0.3421
 1590SOL     OW16402   0.725   2.593  10.924 -0.8659 -0.1000  0.4274
 1590SOL    HW116403   0.763   2.552  11.001  0.5386  0.8352  0.2230
 1590SOL    HW216404   0.768   2.678  10.934 -0.2825 -0.2545 -0.7729
 1591SOL     OW16405   2.173   3.635   9.275  1.0205 -0.2996 -0.2044
 1591SOL    HW116406   2.245   3.693   9.297  0.2870  0.2817  0.6637
 1591SOL    HW216407   2.173   3.629   9.179  1.7241 -0.0398 -0.2216
 1592SOL     OW16408   0.597   3.367  10.622  0.3005 -0.2494  0.2440
 1592SOL    HW116409   0.631   3.452  10.595 -1.8483  0.2996 -0.7664
 1592SOL    HW216410   0.643   3.368  10.706  0.7624  0.0468 -0.0154
 1593SOL     OW16411   1.499   3.710   7.892  0.4481  0.0610 -0.2525
 1593SOL    HW116412   1.468   3.622   7.911 -2.3385  0.9093 -0.8574
 1593SOL    HW216413   1.587   3.707   7.929  1.2547 -0.5095 -2.2478
 1594SOL     OW16414   4.493   0.178   4.923 -0.3777 -0.3393 -1.0083
 1594SOL    HW116415   4.583   0.200   4.945 -1.0536  1.9200 -0.4869
 1594SOL    HW216416   4.465   0.142   5.007  1.4865 -1.3105 -0.8097
 1595SOL     OW16417   0.172   2.752   9.348  0.0164 -0.2124 -0.1111
 1595SOL    HW116418   0.264   2.737   9.367  0.0373  1.6018  1.2126
 1595SOL    HW216419   0.128   2.721   9.427 -1.1027 -0.4080 -0.8060
 1596SOL     OW16420   3.256   1.434   0.317 -0.4698 -0.0250  0.3137
 1596SOL    HW116421   3.232   1.503   0.256 -0.8312 -0.0082  0.4747
 1596SOL    HW216422   3.279   1.361   0.258  1.0236 -0.5080  1.4883
 1597SOL     OW16423   1.167   0.208  14.212  0.0612 -0.1940  0.0261
 1597SOL    HW116424   1.193   0.299  14.196 -1.5002  0.1567 -0.4992
 1597SOL    HW216425   1.087   0.209  14.264  0.2916 -2.7336  0.4069
 1598SOL     OW16426   3.091   2.321  14.307  0.1948  0.1499 -0.0669
 1598SOL    HW116427   3.033   2.397  14.312  0.9626  0.5605  2.3516
 1598SOL    HW216428   3.067   2.276  14.387  1.6464 -0.0937  0.2162
 1599SOL     OW16429   3.096   0.070  10.655  0.0800 -0.3057 -0.3127
 1599SOL    HW116430   3.122   0.149  10.702 -0.3298  0.0775 -0.7380
 1599SOL    HW216431   3.166   0.011  10.684  0.0423  0.1669  0.7156
 1600SOL     OW16432   4.021   0.015   0.013  0.0889 -0.1489 -0.7692
 1600SOL    HW116433   4.101   0.033  17.715  0.5677 -2.0407 -0.6851
 1600SOL    HW216434   4.007   0.107   0.035 -0.7268 -0.0575 -1.6791
 1601SOL     OW16435   1.754   2.223  10.485 -0.4327  0.7265 -0.4598
 1601SOL    HW116436   1.675   2.271  10.509  0.1430  1.2421  0.4296
 1601SOL    HW216437   1.808   2.299  10.464 -0.7178 -0.1292 -4.3716
 1602SOL     OW16438   3.317   1.010   8.596 -0.6148 -0.0481  0.1967
 1602SOL    HW116439   3.303   1.081   8.533 -1.9111  0.1501  0.7049
 1602SOL    HW216440   3.400   0.975   8.564 -0.5392 -0.0525  0.3973
 1603SOL     OW16441   0.423   3.258   6.417 -0.1598 -0.3277  0.2618
 1603SOL    HW116442   0.392   3.250   6.326  3.3157 -1.2319 -0.8613
 1603SOL    HW216443   0.346   3.214   6.452  0.3574 -1.7713 -0.4280
 1604SOL     OW16444   1.272   1.866   4.993 -0.0257  0.7283 -0.7418
 1604SOL    HW116445   1.294   1.821   4.911 -1.1096 -0.9628 -0.1161
 1604SOL    HW216446   1.335   1.821   5.048 -1.3204  0.4604  0.5066
 1605SOL     OW16447   2.416   1.869   7.424 -0.5730 -0.1194 -0.2451
 1605SOL    HW116448   2.370   1.932   7.479  0.1477  0.6477 -0.5177
 1605SOL    HW216449   2.351   1.802   7.402 -3.1656  1.9250  1.1884
 1606SOL     OW16450   1.797   0.486   6.974 -0.0535  0.5314  0.2406
 1606SOL    HW116451   1.808   0.575   6.942  0.1189  0.0092 -1.1279
 1606SOL    HW216452   1.868   0.492   7.039 -0.6178 -2.9456  1.1890
 1607SOL     OW16453   2.646   2.779   2.641 -0.4890  0.2781  0.0039
 1607SOL    HW116454   2.705   2.761   2.567  0.5127  3.3821  0.0462
 1607SOL    HW216455   2.570   2.824   2.604 -0.6213 -1.6730 -2.0858
 1608SOL     OW16456   1.323   3.021   7.141  0.6346 -0.5516  0.3631
 1608SOL    HW116457   1.405   3.050   7.180 -0.0062 -0.1381  1.4228
 1608SOL    HW216458   1.259   3.027   7.211  1.1423 -2.3993  0.9892
 1609SOL     OW16459   2.878   2.605   7.605 -0.2333  0.3619  0.3828
 1609SOL    HW116460   2.964   2.571   7.583 -0.0891  0.8744  0.1563
 1609SOL    HW216461   2.856   2.553   7.682  2.0233 -0.7104  0.3038
 1610SOL     OW16462   0.590   3.283  14.959  0.4049 -0.0616  0.4267
 1610SOL    HW116463   0.532   3.356  14.938 -1.0708 -1.1526  0.6589
 1610SOL    HW216464   0.524   3.223  14.992 -1.5923  2.3558  0.8144
 1611SOL     OW16465   1.908   3.346   2.225 -0.5174  0.8642  0.1320
 1611SOL    HW116466   1.873   3.259   2.206  0.6853  0.6125 -0.8939
 1611SOL    HW216467   1.947   3.379   2.145 -0.4185  2.8219  0.9984
 1612SOL     OW16468   3.892   0.575   3.685  0.1559  0.1132  0.2130
 1612SOL    HW116469   3.850   0.556   3.768  1.8220 -1.9215  0.5887
 1612SOL    HW216470   3.826   0.555   3.619  0.2608  2.2426 -0.5564
 1613SOL     OW16471   3.761   0.454   0.040  0.1358  0.5534 -0.5071
 1613SOL    HW116472   3.843   0.405   0.034 -0.1074 -0.2072  2.4665
 1613SOL    HW216473   3.752   0.500  17.707  1.3438 -0.1653 -1.0342
 1614SOL     OW16474   0.483   4.587   5.220  0.0662  0.3294 -0.5423
 1614SOL    HW116475   0.437   4.518   5.268 -3.0537  3.0894  0.4371
 1614SOL    HW216476   0.570   4.586   5.259  0.1175  0.4648 -0.6527
 1615SOL     OW16477   3.503   2.307  10.252 -0.0107 -0.2628  0.3851
 1615SOL    HW116478   3.584   2.286  10.299 -0.0029 -1.0252  0.0405
 1615SOL    HW216479   3.530   2.276  10.165 -1.6410 -1.7690  0.4267
 1616SOL     OW16480   1.453   4.080  10.501  0.3786  0.4360  0.0610
 1616SOL    HW116481   1.453   4.176  10.500  1.6927  0.4461  0.7710
 1616SOL    HW216482   1.515   4.066  10.573  0.3058  1.1037  0.2591
 1617SOL     OW16483   3.332   0.278  15.686 -0.0226 -0.1305 -0.2581
 1617SOL    HW116484   3.239   0.260  15.699 -0.1603 -0.6681 -1.9482
 1617SOL    HW216485   3.338   0.218  15.612 -1.4843  0.8345 -1.1595
 1618SOL     OW16486   0.384   1.453   3.518  0.1557  0.0410  0.6955
 1618SOL    HW116487   0.409   1.396   3.590 -2.6224 -1.5407  0.4151
 1618SOL    HW216488   0.466   1.451   3.470 -0.4890 -1.1517 -0.3770
 1619SOL     OW16489   4.018   1.823  17.604 -0.2242 -0.5608  0.6530
 1619SOL    HW116490   4.050   1.910  17.628 -0.0531 -0.3230 -0.4287
 1619SOL    HW216491   4.042   1.778  17.684  2.1634 -0.7501 -0.1912
 1620SOL     OW16492   0.054   1.513   7.834 -0.0795  0.0929 -0.3304
 1620SOL    HW116493   0.131   1.463   7.810  1.3728  0.8341  2.7790
 1620SOL    HW216494   4.736   1.447   7.875  0.0595  0.3150  0.2161
 1621SOL     OW16495   0.850   3.856   6.570 -0.4840  0.2234  0.1534
 1621SOL    HW116496   0.890   3.773   6.595 -0.9139  0.4243  1.5111
 1621SOL    HW216497   0.822   3.884   6.657  1.3204  0.3265  0.7124
 1622SOL     OW16498   2.264   4.168  10.196 -0.4126  0.0968 -0.3010
 1622SOL    HW116499   2.315   4.224  10.254  0.7973 -0.7283 -0.5899
 1622SOL    HW216500   2.274   4.233  10.126  0.4370  1.1601  0.8108
 1623SOL     OW16501   2.349   3.811   6.077 -0.2358  0.0394 -0.3798
 1623SOL    HW116502   2.398   3.843   6.002 -2.0665 -0.8570 -1.9462
 1623SOL    HW216503   2.406   3.820   6.154  0.4636  0.8182 -0.9969
 1624SOL     OW16504   3.540   4.417   6.604 -0.3690 -0.1266 -0.4037
 1624SOL    HW116505   3.572   4.456   6.685 -0.0376 -1.1523 -0.0478
 1624SOL    HW216506   3.604   4.453   6.543 -1.1090  0.4772 -0.8246
 1625SOL     OW16507   2.636   3.792  11.804 -0.0036  0.0655 -0.6533
 1625SOL    HW116508   2.689   3.769  11.881  0.5199  1.9182 -0.4540
 1625SOL    HW216509   2.708   3.835  11.757 -0.2183  1.6639  0.4527
 1626SOL     OW16510   0.649   1.484   3.411 -0.1674  0.3185  0.6072
 1626SOL    HW116511   0.716   1.451   3.351 -3.5748 -0.4331 -2.8019
 1626SOL    HW216512   0.666   1.437   3.493  0.3100 -0.5679  0.0001
 1627SOL     OW16513   1.203   1.937  12.392 -0.1676  0.4480 -0.3087
 1627SOL    HW116514   1.203   1.894  12.306  1.6261 -0.3195  0.0803
 1627SOL    HW216515   1.162   2.020  12.368  0.4010  0.9531  0.5097
 1628SOL     OW16516   0.618   3.266   0.859 -0.2555  0.5997  0.4540
 1628SOL    HW116517   0.706   3.303   0.867 -0.4683  0.6269  2.8687
 1628SOL    HW216518   0.626   3.189   0.804 -1.3587  1.8077 -1.3971
 1629SOL     OW16519   3.283   0.581  10.100 -0.0468 -0.7155 -0.5430
 1629SOL    HW116520   3.332   0.502  10.077 -1.5754 -1.4596 -1.2249
 1629SOL    HW216521   3.239   0.593  10.015  1.2985  1.2836 -0.9376
 1630SOL     OW16522   0.381   1.589  16.687 -0.5254  0.9358 -0.4929
 1630SOL    HW116523   0.418   1.600  16.775 -2.2727  1.8150  0.1397
 1630SOL    HW216524   0.441   1.634  16.628 -0.6221 -1.8139 -2.6633
 1631SOL     OW16525   1.439   4.425  10.863  0.7281  0.1740 -0.3040
 1631SOL    HW116526   1.358   4.450  10.817  1.7225  0.7576 -1.7611
 1631SOL    HW216527   1.439   4.464  10.950  1.7625 -1.2566  0.3394
 1632SOL     OW16528   0.876   2.660   3.844  0.4891  0.1072  0.1237
 1632SOL    HW116529   0.930   2.739   3.837  1.2589 -0.1752  2.8436
 1632SOL    HW216530   0.903   2.603   3.773  0.0594 -0.2998  0.2903
 1633SOL     OW16531   4.253   3.567  10.302  0.5134  0.2786  0.4756
 1633SOL    HW116532   4.202   3.602  10.374  0.5517  1.3494 -0.0258
 1633SOL    HW216533   4.341   3.596  10.325 -0.0358  1.1812  1.4507
 1634SOL     OW16534   0.468   0.677   4.559 -0.4476  0.2704  0.2948
 1634SOL    HW116535   0.441   0.756   4.606 -0.7610 -0.5384  1.4799
 1634SOL    HW216536   0.452   0.697   4.467  0.7846 -1.2606 -0.2529
 1635SOL     OW16537   3.969   2.871   4.303 -0.8180 -0.0561 -0.3742
 1635SOL    HW116538   4.005   2.955   4.329  0.3892 -0.2861 -1.3252
 1635SOL    HW216539   3.946   2.885   4.212  1.0523  1.0702 -0.6639
 1636SOL     OW16540   4.620   0.197   3.000  0.3109  0.3763 -0.3759
 1636SOL    HW116541   4.623   0.121   2.941 -0.4781  0.4714 -0.5428
 1636SOL    HW216542   4.600   0.158   3.085 -1.5159  1.5558 -0.2654
 1637SOL     OW16543   1.576   3.421  16.991  0.2666  0.3969  0.4163
 1637SOL    HW116544   1.534   3.378  16.916 -1.1554  1.6719  0.5086
 1637SOL    HW216545   1.669   3.403  16.972 -0.1913  0.7460 -2.1779
 1638SOL     OW16546   0.465   1.091  12.616 -0.5375  0.6823 -0.5381
 1638SOL    HW116547   0.538   1.081  12.555 -0.7468 -0.1830 -0.6420
 1638SOL    HW216548   0.507   1.134  12.691 -1.5821  0.3426  0.2512
 1639SOL     OW16549   3.141   1.728   0.330 -0.6682 -0.2390  0.3744
 1639SOL    HW116550   3.120   1.817   0.361 -0.5594 -0.2103  0.3676
 1639SOL    HW216551   3.073   1.711   0.265 -0.5874  2.4081 -0.3990
 1640SOL     OW16552   2.383   1.736   8.524  0.4552 -0.4667 -0.2346
 1640SOL    HW116553   2.438   1.787   8.584 -2.9938  3.9951 -0.8744
 1640SOL    HW216554   2.317   1.684   8.570  1.0600 -2.1312 -1.2435
 1641SOL     OW16555   4.300   4.162   2.898  0.5933  0.2190  0.7244
 1641SOL    HW116556   4.263   4.202   2.820  1.7716  0.2049  0.1560
 1641SOL    HW216557   4.394   4.178   2.885  0.5281  0.3253  0.3898
 1642SOL     OW16558   1.157   3.065   7.346 -0.5386  0.2490  0.2512
 1642SOL    HW116559   1.088   3.002   7.324 -0.5569 -0.8387  3.3749
 1642SOL    HW216560   1.114   3.147   7.322  0.1491  0.1390 -1.3698
 1643SOL     OW16561   2.796   4.292  12.715 -0.4137  0.4315 -0.0107
 1643SOL    HW116562   2.817   4.200  12.732  3.7813  1.7740  2.0420
 1643SOL    HW216563   2.837   4.327  12.795  0.0447 -3.3635  1.3891
 1644SOL     OW16564   3.436   4.134   8.211  0.0051  0.0984 -0.1177
 1644SOL    HW116565   3.509   4.110   8.154  2.1495  2.2528  1.6976
 1644SOL    HW216566   3.404   4.221   8.189 -4.5521 -1.5621  0.0764
 1645SOL     OW16567   1.467   0.783   6.071  0.3108  0.4585  0.0424
 1645SOL    HW116568   1.553   0.747   6.092  0.2294  0.5426  0.5118
 1645SOL    HW216569   1.484   0.825   5.986  0.1605 -0.7149 -0.5649
 1646SOL     OW16570   3.630   1.769   9.997 -0.1589  0.2884  0.5018
 1646SOL    HW116571   3.657   1.859   9.980 -1.5644  0.7245  0.6361
 1646SOL    HW216572   3.543   1.765   9.958 -0.7758  0.8040  1.8645
 1647SOL     OW16573   0.150   4.622   8.924  0.4613 -0.4706 -0.2648
 1647SOL    HW116574   0.115   4.557   8.985 -0.2597 -0.0270 -0.1999
 1647SOL    HW216575   0.121   4.703   8.965  2.0767 -0.3322  0.5582
 1648SOL     OW16576   3.066   3.596   6.291  0.3102  0.2119  0.2296
 1648SOL    HW116577   3.081   3.621   6.200 -3.0211  1.2095 -0.0658
 1648SOL    HW216578   2.997   3.657   6.317 -0.8176  0.0909 -2.4470
 1649SOL     OW16579   3.495   0.958   7.376  0.1609 -0.5674 -1.1486
 1649SOL    HW116580   3.578   0.955   7.423  0.7365  0.6748 -2.1029
 1649SOL    HW216581   3.515   1.031   7.317 -0.3182  0.8019  0.3918
 1650SOL     OW16582   0.587   4.174   9.312  0.7222 -0.4119  0.7245
 1650SOL    HW116583   0.576   4.197   9.405  0.6247 -0.0872  0.6341
 1650SOL    HW216584   0.679   4.196   9.300 -0.1433  2.3472 -0.8283
 1651SOL     OW16585   1.184   4.626   0.287  0.1712  0.5799  0.2901
 1651SOL    HW116586   1.214   4.713   0.259  1.3279  0.8362  2.2645
 1651SOL    HW216587   1.260   4.571   0.268 -0.8252  0.1170 -2.3860
 1652SOL     OW16588   4.176   2.222  13.238  0.4318  0.2704 -0.1062
 1652SOL    HW116589   4.191   2.220  13.333 -0.0726  0.6452 -0.0175
 1652SOL    HW216590   4.240   2.289  13.215  0.7653 -0.6960 -1.9884
 1653SOL     OW16591   4.355   1.855  10.409 -0.3992 -0.3009  0.2430
 1653SOL    HW116592   4.449   1.838  10.401  0.1058  1.4337  2.4468
 1653SOL    HW216593   4.350   1.932  10.467 -0.3290  1.0241 -1.5287
 1654SOL     OW16594   3.987   1.180  12.658 -0.1411  0.4915 -0.0098
 1654SOL    HW116595   4.060   1.222  12.612  0.1695 -0.6638 -0.5768
 1654SOL    HW216596   3.983   1.104  12.600 -0.4481  0.8223 -0.4204
 1655SOL     OW16597   3.053   2.465  15.892 -0.0306  0.0828  0.1419
 1655SOL    HW116598   3.093   2.529  15.834 -0.1281 -0.5195 -0.5952
 1655SOL    HW216599   2.967   2.505  15.901 -0.7064 -1.1220 -0.9907
 1656SOL     OW16600   1.231   2.030   9.162  0.4963  0.5309 -0.2093
 1656SOL    HW116601   1.167   2.044   9.092 -1.7463 -1.4334  1.4297
 1656SOL    HW216602   1.227   1.935   9.166  2.6564  0.4533 -0.0549
 1657SOL     OW16603   4.241   1.452   8.991  0.3329  0.5474  0.3193
 1657SOL    HW116604   4.184   1.478   9.063 -1.9243 -1.9678 -0.5424
 1657SOL    HW216605   4.209   1.365   8.966 -1.1427  0.3787  2.8592
 1658SOL     OW16606   1.865   1.655  17.726 -0.1057 -0.1053 -0.2723
 1658SOL    HW116607   1.899   1.643  17.637  0.2151 -0.2520 -0.1307
 1658SOL    HW216608   1.860   1.748  17.748  1.9294 -0.0878  0.1506
 1659SOL     OW16609   3.386   4.508  12.085  0.0069 -0.3329  0.1264
 1659SOL    HW116610   3.450   4.495  12.156  0.8687 -0.8163 -0.7372
 1659SOL    HW216611   3.302   4.491  12.127  1.3212 -0.4073  2.7496
 1660SOL     OW16612   0.456   0.654   8.284  0.6441 -0.2383  0.3844
 1660SOL    HW116613   0.414   0.727   8.238  1.5164  0.0183 -0.0208
 1660SOL    HW216614   0.408   0.575   8.260 -1.4023  0.9675  0.4685
 1661SOL     OW16615   3.959   1.170   6.455  0.3381  0.1455  0.0225
 1661SOL    HW116616   4.038   1.115   6.461 -0.1273 -0.5259  0.0506
 1661SOL    HW216617   3.894   1.109   6.419 -1.7909  1.8007  1.1268
 1662SOL     OW16618   0.722   2.267   3.731 -0.2540 -0.7207 -0.2467
 1662SOL    HW116619   0.800   2.252   3.678 -0.5265  0.1885 -0.9054
 1662SOL    HW216620   0.751   2.337   3.790  0.5210 -2.4991  1.4585
 1663SOL     OW16621   2.217   0.534   8.151 -0.0654  0.0136  0.5202
 1663SOL    HW116622   2.133   0.578   8.164  0.5134  0.8012  1.5506
 1663SOL    HW216623   2.227   0.548   8.057 -0.8264  4.5369  1.1363
 1664SOL     OW16624   4.417   0.888   9.150  0.0021 -0.1124  0.2783
 1664SOL    HW116625   4.436   0.821   9.084 -0.6734 -0.2240  0.1988
 1664SOL    HW216626   4.375   0.953   9.094 -0.4969 -0.2006  0.5522
 1665SOL     OW16627   0.720   3.823   7.071 -0.0107  0.6164  0.0885
 1665SOL    HW116628   0.651   3.890   7.076  0.9811  1.6032  0.6993
 1665SOL    HW216629   0.744   3.839   7.163  1.7110  3.0665 -0.7796
 1666SOL     OW16630   0.084   1.779   9.382  0.2851  0.4828 -0.5014
 1666SOL    HW116631   0.037   1.744   9.306 -0.7213  0.6757  0.0446
 1666SOL    HW216632   0.148   1.713   9.407  0.1651  0.7574  0.5033
 1667SOL     OW16633   4.505   3.359   8.469 -0.0910  0.9354  0.1612
 1667SOL    HW116634   4.511   3.368   8.374  0.6211 -1.8806 -0.0477
 1667SOL    HW216635   4.425   3.409   8.488 -0.6349  0.5585 -1.1234
 1668SOL     OW16636   1.433   0.463   1.313  0.2193 -0.3145  0.1731
 1668SOL    HW116637   1.423   0.418   1.397  0.5452 -0.1838  0.2776
 1668SOL    HW216638   1.522   0.496   1.321 -0.9223  2.5088  1.2648
 1669SOL     OW16639   0.872   2.612   5.388 -0.0208  0.1703  0.2627
 1669SOL    HW116640   0.883   2.559   5.467  0.8804 -1.4119 -0.9106
 1669SOL    HW216641   0.779   2.635   5.383  0.2548  1.2734  0.1671
 1670SOL     OW16642   1.990   1.880   1.950 -0.0573  0.3145  0.0720
 1670SOL    HW116643   1.938   1.953   1.918  1.5410  1.7440  0.7171
 1670SOL    HW216644   2.039   1.859   1.870  0.4525 -0.8214  0.6737
 1671SOL     OW16645   0.514   0.549   8.607 -0.1366 -0.2874 -0.2212
 1671SOL    HW116646   0.561   0.632   8.617  1.7064 -1.5781  1.8109
 1671SOL    HW216647   0.465   0.565   8.526 -0.3635 -0.7357 -0.1761
 1672SOL     OW16648   0.947   4.725   4.754 -0.6664 -0.0048 -0.5180
 1672SOL    HW116649   0.887   4.687   4.819  0.1810  1.0125  0.8521
 1672SOL    HW216650   0.982   4.642   4.722 -3.3730 -0.6849 -1.8002
 1673SOL     OW16651   4.302   1.798   0.860 -0.2832  0.2280 -0.1467
 1673SOL    HW116652   4.341   1.885   0.874 -0.4022  0.1914  0.3965
 1673SOL    HW216653   4.387   1.759   0.838  0.4762  2.1871 -0.7548
 1674SOL     OW16654   1.198   2.924   1.877 -0.2809  0.3777  0.2365
 1674SOL    HW116655   1.173   2.989   1.943 -0.7165  1.8842 -1.4077
 1674SOL    HW216656   1.212   2.978   1.799  1.2013  1.2187  1.0869
 1675SOL     OW16657   1.022   2.370  15.323  0.4998  0.0941 -0.4854
 1675SOL    HW116658   0.966   2.317  15.380  1.1828  0.9361  0.9517
 1675SOL    HW216659   0.987   2.457  15.339 -0.8207 -0.6591  0.7370
 1676SOL     OW16660   1.944   1.998   0.494 -0.2139  0.2590 -0.3322
 1676SOL    HW116661   1.929   2.078   0.445 -4.0374  0.5206  1.2019
 1676SOL    HW216662   2.039   1.992   0.485 -0.0261  0.2816  1.4754
 1677SOL     OW16663   2.593   1.271   3.470  0.1986 -0.1924  0.1979
 1677SOL    HW116664   2.605   1.243   3.379 -1.3989 -0.8107  0.1857
 1677SOL    HW216665   2.607   1.191   3.520 -1.0179 -0.5480 -0.0276
 1678SOL     OW16666   1.418   1.830  14.335  0.0969 -0.5148 -0.1257
 1678SOL    HW116667   1.426   1.735  14.342  0.2618 -0.6095 -1.6306
 1678SOL    HW216668   1.451   1.866  14.418 -1.8608 -0.9268  0.8556
 1679SOL     OW16669   1.842   1.150   1.831 -0.2407 -0.6742 -0.4580
 1679SOL    HW116670   1.916   1.211   1.833 -0.5337 -0.3136 -0.6065
 1679SOL    HW216671   1.816   1.135   1.740  0.1763 -1.3800 -0.4608
 1680SOL     OW16672   1.106   0.924   1.760 -0.0972  0.4261 -0.3108
 1680SOL    HW116673   1.059   0.969   1.691 -1.8216  0.2697  0.7565
 1680SOL    HW216674   1.096   0.981   1.836  1.2609 -0.4420  0.5346
 1681SOL     OW16675   3.993   2.100   8.047 -0.0486  0.0355  0.2384
 1681SOL    HW116676   4.080   2.115   8.010 -0.4563  0.7335 -0.4274
 1681SOL    HW216677   4.009   2.018   8.095  0.2766 -0.1377 -0.1624
 1682SOL     OW16678   1.553   3.630   4.730  0.0310 -0.1617 -0.1933
 1682SOL    HW116679   1.590   3.542   4.718  0.2629  0.0764 -1.1858
 1682SOL    HW216680   1.547   3.632   4.826  1.3849  0.5056 -0.1158
 1683SOL     OW16681   2.021   1.792   3.202 -0.2154 -0.1630  0.4407
 1683SOL    HW116682   2.018   1.710   3.252  1.7914 -1.2527 -1.2253
 1683SOL    HW216683   1.931   1.800   3.171  0.8545 -2.4664 -3.1763
 1684SOL     OW16684   0.681   4.648  13.246 -0.6490 -0.1053  0.0090
 1684SOL    HW116685   0.752   4.591  13.273 -1.3193 -1.6195 -1.3711
 1684SOL    HW216686   0.642   4.668  13.331  0.1491 -1.1024  0.6149
 1685SOL     OW16687   1.591   2.624   5.643 -0.1587 -0.2476  0.3388
 1685SOL    HW116688   1.564   2.543   5.598 -1.3047 -0.2821  1.0813
 1685SOL    HW216689   1.617   2.692   5.581 -2.2248  1.9026  1.8271
 1686SOL     OW16690   3.336   1.419  15.786 -0.3167 -1.0687 -0.3751
 1686SOL    HW116691   3.428   1.447  15.790 -1.1275  1.2996  1.7182
 1686SOL    HW216692   3.293   1.496  15.823 -1.5573 -1.1753 -1.5942
 1687SOL     OW16693   0.631   4.087   4.353 -0.1824  0.7589 -0.0489
 1687SOL    HW116694   0.542   4.055   4.370 -0.6275  0.8235 -2.2616
 1687SOL    HW216695   0.654   4.079   4.446 -1.8801 -2.8001  0.1055
 1688SOL     OW16696   0.412   1.478   5.777 -0.6339 -0.6739 -0.1756
 1688SOL    HW116697   0.405   1.568   5.808  0.5607 -0.7721  0.3846
 1688SOL    HW216698   0.328   1.434   5.787 -0.8318 -1.0455 -3.3579
 1689SOL     OW16699   3.658   0.526   9.887 -0.0468 -0.7538 -0.4325
 1689SOL    HW116700   3.714   0.539   9.811  2.4122 -1.1027  1.3248
 1689SOL    HW216701   3.571   0.522   9.846 -0.8641 -0.7315  1.2936
 1690SOL     OW16702   2.465   3.274  15.499 -0.0530  0.2988  0.1046
 1690SOL    HW116703   2.549   3.254  15.459  0.1774  1.2614  0.1182
 1690SOL    HW216704   2.428   3.298  15.414  0.4976 -0.9196 -0.4906
 1691SOL     OW16705   2.208   2.265  15.706 -0.1640  0.0877  0.2288
 1691SOL    HW116706   2.248   2.249  15.792 -0.3764  0.1282  0.3337
 1691SOL    HW216707   2.118   2.239  15.725 -0.8027  0.4421 -2.2541
 1692SOL     OW16708   1.015   2.251   2.163 -0.7925 -0.5209 -0.4239
 1692SOL    HW116709   1.034   2.278   2.074  1.4342 -1.0118 -0.0895
 1692SOL    HW216710   1.045   2.160   2.169 -1.8828 -0.8973 -0.6704
 1693SOL     OW16711   0.002   2.251   2.364 -0.6387  0.0546 -0.1820
 1693SOL    HW116712   0.055   2.271   2.442 -0.8188 -2.6282  0.6314
 1693SOL    HW216713   4.715   2.342   2.350  1.9399  0.6564 -1.0276
 1694SOL     OW16714   0.470   3.321   7.422  0.3103  0.2277 -0.0597
 1694SOL    HW116715   0.442   3.230   7.417 -0.7255  0.5260  0.3175
 1694SOL    HW216716   0.505   3.314   7.511  1.4902 -2.0161 -0.6928
 1695SOL     OW16717   1.962   3.928  10.618 -0.6510  0.0086  0.3565
 1695SOL    HW116718   1.891   3.868  10.643 -1.2569  0.5750 -0.0150
 1695SOL    HW216719   2.032   3.865  10.639  0.3702  0.5332 -1.5434
 1696SOL     OW16720   3.853   3.110   6.311  0.6058 -0.0170  0.1863
 1696SOL    HW116721   3.891   3.027   6.283  0.1679  0.1597 -0.9238
 1696SOL    HW216722   3.807   3.085   6.391 -0.6076  0.6438 -0.3046
 1697SOL     OW16723   3.913   3.217   5.257  0.0273 -0.6992 -0.1146
 1697SOL    HW116724   3.882   3.308   5.256 -1.6351 -1.2614  1.0910
 1697SOL    HW216725   3.995   3.227   5.305  0.0309 -0.0016 -0.2555
 1698SOL     OW16726   4.094   2.827   9.039  0.6043  0.7482  0.4378
 1698SOL    HW116727   4.019   2.874   9.075  0.5765  0.4376  0.7954
 1698SOL    HW216728   4.110   2.775   9.118  1.8000  0.6855  0.1600
 1699SOL     OW16729   0.830   1.660   6.439 -0.5489  0.0403 -0.1674
 1699SOL    HW116730   0.761   1.724   6.420  0.7890  2.1904  2.2301
 1699SOL    HW216731   0.776   1.582   6.451  0.4880 -0.8982 -1.5179
 1700SOL     OW16732   2.633   3.974   8.922  0.1802 -0.0926 -0.1891
 1700SOL    HW116733   2.712   3.945   8.968  0.4024  1.9129  0.7163
 1700SOL    HW216734   2.659   3.956   8.831  2.6109 -2.1309  0.9071
 1701SOL     OW16735   4.117   3.579   9.190  0.6530 -0.0811  0.2414
 1701SOL    HW116736   4.085   3.490   9.201 -3.9124  1.3859 -1.1398
 1701SOL    HW216737   4.195   3.557   9.140  0.5083 -1.2457  0.5324
 1702SOL     OW16738   0.044   2.314   5.102  0.2134 -1.0663 -0.0519
 1702SOL    HW116739   0.078   2.297   5.015 -0.6082 -1.6040 -0.2627
 1702SOL    HW216740   0.119   2.293   5.157 -0.7992 -0.3517  1.6156
 1703SOL     OW16741   1.419   0.341   3.820  0.0339 -0.6612 -0.0814
 1703SOL    HW116742   1.481   0.268   3.814  1.3428  0.4508 -0.1531
 1703SOL    HW216743   1.333   0.300   3.808 -0.6219  0.3667  1.0265
 1704SOL     OW16744   2.916   1.733   0.173 -0.1470  0.7604 -0.7267
 1704SOL    HW116745   2.926   1.641   0.148 -0.7089  0.2005  1.1244
 1704SOL    HW216746   2.838   1.757   0.124 -0.3804  0.6643 -0.4006
 1705SOL     OW16747   4.561   3.393   8.212  0.6730  0.1864  0.2080
 1705SOL    HW116748   4.476   3.399   8.169  0.2665 -3.2261  0.5103
 1705SOL    HW216749   4.601   3.464   8.162 -0.4035  0.6256 -0.0304
 1706SOL     OW16750   4.514   0.673   2.816 -0.0028 -0.3930 -0.4018
 1706SOL    HW116751   4.547   0.651   2.728  0.1195  0.3607 -0.5393
 1706SOL    HW216752   4.503   0.584   2.850 -1.1084 -0.5549 -1.1762
 1707SOL     OW16753   2.498   0.319  11.298 -0.2912 -0.9738  0.0621
 1707SOL    HW116754   2.566   0.354  11.240  0.4132  0.8545  2.0360
 1707SOL    HW216755   2.428   0.325  11.232 -0.5188  2.8553  0.6848
 1708SOL     OW16756   3.267   1.107   5.298  0.1653 -0.0086  0.1506
 1708SOL    HW116757   3.291   1.075   5.385  0.1506  3.5112  1.4241
 1708SOL    HW216758   3.197   1.045   5.276  0.1898 -0.3954  1.1407
 1709SOL     OW16759   2.167   2.862   2.860 -0.0955  0.9085 -0.4471
 1709SOL    HW116760   2.164   2.956   2.843  0.7103  0.9702 -0.2451
 1709SOL    HW216761   2.089   2.850   2.915 -0.5318  0.4310 -1.1773
 1710SOL     OW16762   4.522   1.746   6.791 -0.1674  0.3960  0.1886
 1710SOL    HW116763   4.583   1.672   6.789 -0.0240  0.4949  0.9212
 1710SOL    HW216764   4.510   1.755   6.886  1.2064 -2.7243  0.6354
 1711SOL     OW16765   2.503   0.293   1.285  0.0378 -0.7384  0.7471
 1711SOL    HW116766   2.533   0.221   1.229 -0.5160 -1.0181  0.8049
 1711SOL    HW216767   2.587   0.313   1.325  0.3664  0.1812 -0.4064
 1712SOL     OW16768   2.979   4.195  15.012  0.2901  0.5615 -0.1227
 1712SOL    HW116769   2.893   4.170  15.046 -0.9135  1.6446 -2.3069
 1712SOL    HW216770   2.990   4.133  14.940  0.4656 -1.5744  1.7627
 1713SOL     OW16771   2.490   0.679   6.061 -0.3906 -0.2970 -0.2111
 1713SOL    HW116772   2.571   0.719   6.093 -0.0064 -1.3001  0.0567
 1713SOL    HW216773   2.506   0.591   6.095  1.7279  0.6014  1.1043
 1714SOL     OW16774   1.341   2.208   5.428 -0.0201 -0.6805  0.2094
 1714SOL    HW116775   1.246   2.219   5.431 -0.2411 -2.7973  1.1853
 1714SOL    HW216776   1.368   2.282   5.484  3.9121 -2.6788  0.9225
 1715SOL     OW16777   0.908   1.898   3.699 -0.4739 -0.0329  0.0659
 1715SOL    HW116778   0.814   1.881   3.698  0.0183 -2.8183  0.5651
 1715SOL    HW216779   0.906   1.977   3.645  1.5849  0.4262  0.6681
 1716SOL     OW16780   4.708   4.214   6.248 -0.4188 -0.0787 -0.2075
 1716SOL    HW116781   4.654   4.165   6.310 -0.3252  0.3578  0.2164
 1716SOL    HW216782   4.703   4.300   6.288 -1.0128 -0.3736  0.3493
 1717SOL     OW16783   4.417   4.395  12.401 -0.4929 -0.0432 -0.4151
 1717SOL    HW116784   4.416   4.299  12.408  3.2629 -0.1421 -1.4403
 1717SOL    HW216785   4.379   4.424  12.318  2.0248  0.1549 -1.5012
 1718SOL     OW16786   3.226   2.958  10.805  0.7035  0.1478 -0.4604
 1718SOL    HW116787   3.246   2.865  10.794  0.4309  0.0000  0.2847
 1718SOL    HW216788   3.307   3.004  10.822 -1.7031  3.7151  1.2532
 1719SOL     OW16789   0.970   1.714   3.890  0.2425  0.8741  0.5124
 1719SOL    HW116790   1.013   1.636   3.856  0.1519  0.8920  0.3578
 1719SOL    HW216791   0.965   1.769   3.811 -2.5380 -0.2963 -0.1117
 1720SOL     OW16792   2.231   4.445   8.687 -0.2947 -0.2105 -0.5326
 1720SOL    HW116793   2.325   4.462   8.693 -0.0114 -2.1360  0.5435
 1720SOL    HW216794   2.212   4.538   8.701  0.7126  0.2013 -1.9561
 1721SOL     OW16795   0.660   1.789   7.815 -0.2471  0.1590 -0.1941
 1721SOL    HW116796   0.688   1.837   7.893  0.8567 -1.8197  0.6273
 1721SOL    HW216797   0.647   1.866   7.760 -1.9798  0.8944  1.2386
 1722SOL     OW16798   0.737   0.866   3.925  0.0582  0.5010  0.2490
 1722SOL    HW116799   0.820   0.906   3.951  0.6816 -1.0442  0.6845
 1722SOL    HW216800   0.721   0.802   3.995  0.8510  0.0382  0.0112
 1723SOL     OW16801   4.708   2.070   4.758  0.2376  0.4202  0.2312
 1723SOL    HW116802   4.658   2.017   4.820 -0.8294  1.0539 -0.0816
 1723SOL    HW216803   0.050   2.090   4.806 -0.8618  3.4851  0.7715
 1724SOL     OW16804   0.390   2.130   5.005  0.6591 -0.1603  0.5568
 1724SOL    HW116805   0.425   2.111   4.919 -1.1787 -2.3309  0.2886
 1724SOL    HW216806   0.452   2.103   5.073  2.2536  0.4177 -0.6884
 1725SOL     OW16807   1.252   2.750   1.584 -0.2685  0.6159 -0.1533
 1725SOL    HW116808   1.194   2.757   1.509 -0.6208 -0.0395  0.0645
 1725SOL    HW216809   1.322   2.813   1.563 -0.9428  1.8554  1.2244
 1726SOL     OW16810   1.979   3.711   9.439  0.1508  0.2068  0.1012
 1726SOL    HW116811   2.057   3.677   9.394  0.6048  0.1126  0.9375
 1726SOL    HW216812   1.906   3.654   9.417  0.4279 -0.6212  1.2978
 1727SOL     OW16813   3.501   4.127  12.107  0.3699  0.5265 -0.2999
 1727SOL    HW116814   3.561   4.201  12.121 -0.1661  0.5022  2.2347
 1727SOL    HW216815   3.517   4.084  12.191  2.0565 -0.0278 -0.9014
 1728SOL     OW16816   3.002   3.029   8.059 -0.1452 -0.0289 -0.1825
 1728SOL    HW116817   3.033   3.120   8.055 -0.8129  0.1165 -2.1945
 1728SOL    HW216818   3.086   2.991   8.083 -0.3903 -0.1812  0.4209
 1729SOL     OW16819   1.853   1.658   5.446 -0.3968 -0.1058  0.1300
 1729SOL    HW116820   1.840   1.644   5.352 -1.6992  2.0707 -0.0316
 1729SOL    HW216821   1.882   1.573   5.479 -0.7623 -0.4990 -0.5597
 1730SOL     OW16822   3.323   0.914   7.585 -0.2440  0.0377 -0.1592
 1730SOL    HW116823   3.375   0.929   7.506  5.1075  0.7922  3.4711
 1730SOL    HW216824   3.283   0.832   7.556  0.1395  0.1800 -1.0789
 1731SOL     OW16825   1.978   1.192   3.152 -0.6462 -0.0504 -0.7047
 1731SOL    HW116826   1.893   1.218   3.116 -2.4361 -2.2333  1.9147
 1731SOL    HW216827   2.009   1.128   3.087 -2.8330  1.2814 -3.0314
 1732SOL     OW16828   1.793   2.972  14.289  0.3774 -0.3096 -0.4669
 1732SOL    HW116829   1.762   2.905  14.350  1.0838  0.0192  0.2449
 1732SOL    HW216830   1.817   3.046  14.344  1.8506  0.2162 -1.8256
 1733SOL     OW16831   3.156   2.968   6.547  0.1847 -0.1211 -0.0076
 1733SOL    HW116832   3.195   3.005   6.626  1.8251 -2.0827  0.1037
 1733SOL    HW216833   3.221   2.905   6.516  1.1134  0.8981 -0.0991
 1734SOL     OW16834   4.573   2.125   6.067  0.3417 -0.3097 -0.0235
 1734SOL    HW116835   4.493   2.172   6.043 -1.0031 -1.3932  2.4149
 1734SOL    HW216836   4.539   2.035   6.068  0.3025 -0.3198 -2.0660
 1735SOL     OW16837   2.722   2.705   5.522  0.2683 -0.2704  0.3891
 1735SOL    HW116838   2.627   2.712   5.525  0.3210  1.6474 -1.9880
 1735SOL    HW216839   2.741   2.762   5.448 -1.4262 -1.3691 -0.9014
 1736SOL     OW16840   2.051   2.127  14.248  0.1663  0.4720  0.7107
 1736SOL    HW116841   2.066   2.198  14.186 -0.6833 -0.8116 -0.9722
 1736SOL    HW216842   2.114   2.150  14.315  0.8244  1.6765 -0.3161
 1737SOL     OW16843   1.073   2.974   6.052 -0.1376 -0.6573  0.3959
 1737SOL    HW116844   1.047   3.032   6.124  0.6095 -2.0243  1.7721
 1737SOL    HW216845   0.998   2.966   5.995 -1.7230 -1.5918  2.6002
 1738SOL     OW16846   2.573   3.486   7.947  0.0084  0.0188  0.2089
 1738SOL    HW116847   2.648   3.459   7.895  1.4549  0.6300  1.9857
 1738SOL    HW216848   2.525   3.514   7.868 -0.2523 -1.2007 -0.0605
 1739SOL     OW16849   0.150   1.592   6.271 -0.1953  0.0352 -0.1564
 1739SOL    HW116850   0.077   1.651   6.292  1.5874  2.5431 -1.0035
 1739SOL    HW216851   0.130   1.547   6.189 -0.6478 -1.0464  0.5421
 1740SOL     OW16852   1.881   0.352   7.565 -0.2976  0.3708  0.4188
 1740SOL    HW116853   1.821   0.406   7.617  0.1409  2.1767 -0.9472
 1740SOL    HW216854   1.880   0.399   7.482  3.6902 -0.1068  0.1064
 1741SOL     OW16855   1.731   4.322   5.464  0.0784 -0.0911 -0.2017
 1741SOL    HW116856   1.651   4.348   5.509  0.5313  2.2080 -0.7279
 1741SOL    HW216857   1.732   4.376   5.385  0.9976 -1.2558 -0.9722
 1742SOL     OW16858   3.957   4.342   7.797  1.0924 -0.0578 -0.0166
 1742SOL    HW116859   3.928   4.258   7.832 -0.9536  0.6194 -0.0860
 1742SOL    HW216860   3.969   4.332   7.703 -0.9115 -0.0718 -0.2691
 1743SOL     OW16861   4.134   0.790   7.008  0.0888 -0.1962 -0.0098
 1743SOL    HW116862   4.169   0.702   7.019  2.3006  0.8251  1.2391
 1743SOL    HW216863   4.210   0.833   6.969  0.7029  1.0536  2.5298
 1744SOL     OW16864   1.569   2.494   1.660 -0.1007  0.0256  0.1710
 1744SOL    HW116865   1.587   2.581   1.695  2.9043 -0.8723  0.8571
 1744SOL    HW216866   1.659   2.467   1.642 -0.3724 -0.9128  0.1969
 1745SOL     OW16867   1.287   3.394   7.519  0.2440  0.5236 -0.1092
 1745SOL    HW116868   1.197   3.362   7.522  0.7677 -0.6448  3.1738
 1745SOL    HW216869   1.279   3.454   7.445  3.2827  0.6259 -0.3671
 1746SOL     OW16870   3.109   0.890   4.917  0.7674 -0.1877  0.0466
 1746SOL    HW116871   3.095   0.821   4.982 -0.9645  0.3158  0.1936
 1746SOL    HW216872   3.202   0.881   4.897  0.5816  1.7185 -1.6769
 1747SOL     OW16873   1.334   4.280  16.136 -0.6091  0.1862  0.2324
 1747SOL    HW116874   1.274   4.245  16.071  0.1705 -1.2816  0.3158
 1747SOL    HW216875   1.419   4.266  16.094 -1.7551 -1.2642 -1.5566
 1748SOL     OW16876   3.732   4.053   7.439  0.2256  0.6804  0.0616
 1748SOL    HW116877   3.724   4.116   7.511 -1.6885 -0.8666  1.1976
 1748SOL    HW216878   3.827   4.042   7.436 -0.2464 -3.7568  1.9481
 1749SOL     OW16879   3.729   4.327   6.138  0.3230  0.2437  0.9173
 1749SOL    HW116880   3.639   4.301   6.159 -0.1671  2.2025  1.2603
 1749SOL    HW216881   3.778   4.245   6.140  0.4733  0.4352  4.7840
 1750SOL     OW16882   2.163   1.484   5.222  0.2511 -0.1902 -0.1918
 1750SOL    HW116883   2.203   1.530   5.295  0.9784 -0.1473 -0.6164
 1750SOL    HW216884   2.205   1.398   5.232  0.2108 -0.4572 -2.2458
 1751SOL     OW16885   4.137   3.318   5.885  0.2971 -0.3612  0.2299
 1751SOL    HW116886   4.129   3.295   5.792  2.9926 -1.0200  0.1356
 1751SOL    HW216887   4.068   3.276   5.936  0.2104  1.5330  1.6303
 1752SOL     OW16888   1.668   0.530   8.008  0.3878  0.2134  0.4928
 1752SOL    HW116889   1.721   0.555   8.084 -0.9860 -1.5499  2.0406
 1752SOL    HW216890   1.589   0.583   8.018 -0.8670 -1.4110 -0.9086
 1753SOL     OW16891   3.582   0.634   8.756 -0.1066  0.1516 -0.1782
 1753SOL    HW116892   3.523   0.704   8.783 -0.6888 -0.3772 -0.0575
 1753SOL    HW216893   3.662   0.682   8.736  1.3425 -2.0628  0.3445
 1754SOL     OW16894   1.504   1.684   0.961  0.2234  0.9851 -0.1129
 1754SOL    HW116895   1.509   1.684   1.056 -1.0323  1.0429 -0.0499
 1754SOL    HW216896   1.590   1.648   0.942 -0.2523 -0.6536  0.9179
 1755SOL     OW16897   2.292   0.313   9.636  0.5541 -0.2537  0.3826
 1755SOL    HW116898   2.269   0.406   9.638  0.8894 -0.1717  0.4265
 1755SOL    HW216899   2.295   0.301   9.541 -1.8485 -1.2270  0.4220
 1756SOL     OW16900   0.341   0.313   5.307  0.1612  0.0366  0.1895
 1756SOL    HW116901   0.371   0.313   5.216 -1.1225  1.2709 -0.2260
 1756SOL    HW216902   0.389   0.235   5.335 -0.9773 -0.2867  1.2185
 1757SOL     OW16903   0.082   0.087   3.860  0.5576  0.0556  0.8535
 1757SOL    HW116904   0.060   0.001   3.824  2.1323 -0.0538  0.1509
 1757SOL    HW216905   0.044   0.082   3.948 -2.7218 -0.3977 -0.6079
 1758SOL     OW16906   1.191   2.197  15.265 -0.0311  0.4692  0.1940
 1758SOL    HW116907   1.127   2.265  15.288  0.4116  1.7869 -2.5484
 1758SOL    HW216908   1.143   2.119  15.294 -2.5641  1.2362 -2.0248
 1759SOL     OW16909   2.551   2.547   5.977 -0.3879 -0.5605 -1.1200
 1759SOL    HW116910   2.573   2.592   6.059 -2.1284 -0.8711 -0.4671
 1759SOL    HW216911   2.536   2.616   5.911  0.6558  0.1624 -0.5887
 1760SOL     OW16912   3.232   2.171   2.004  0.1802  0.3887  0.1811
 1760SOL    HW116913   3.253   2.130   2.087 -0.3298  2.2575  1.2221
 1760SOL    HW216914   3.139   2.188   2.020 -0.3596 -2.0089 -0.4089
 1761SOL     OW16915   1.930   0.590  14.765 -0.8609 -0.0953 -0.5710
 1761SOL    HW116916   1.852   0.597  14.821 -0.2908  0.3554  0.1636
 1761SOL    HW216917   1.989   0.642  14.820 -0.1427  0.1707 -1.6043
 1762SOL     OW16918   0.640   0.908   6.575  0.2620  0.1068  0.3825
 1762SOL    HW116919   0.638   0.936   6.667 -0.8013 -1.3517  0.7993
 1762SOL    HW216920   0.730   0.937   6.562  0.5560 -0.3240  1.4226
 1763SOL     OW16921   4.427   3.120  13.518  0.1531  0.6433 -0.1768
 1763SOL    HW116922   4.488   3.190  13.495 -0.4646  0.5039 -2.2660
 1763SOL    HW216923   4.477   3.045  13.547  1.0118  0.8378 -1.1607
 1764SOL     OW16924   3.138   0.643   6.700 -0.2882 -0.1215 -0.1441
 1764SOL    HW116925   3.142   0.673   6.791  0.4862 -1.0197  0.1146
 1764SOL    HW216926   3.109   0.553   6.704  0.4836 -0.3459  0.3756
 1765SOL     OW16927   3.829   0.231   3.137  0.9561  0.5681  0.5725
 1765SOL    HW116928   3.744   0.225   3.181  1.8215 -0.1828  2.1416
 1765SOL    HW216929   3.895   0.208   3.202  0.3421 -1.6021  0.4234
 1766SOL     OW16930   1.695   3.401   8.852 -0.5217  0.1351  0.2167
 1766SOL    HW116931   1.674   3.495   8.851 -0.0440  0.2212 -1.0575
 1766SOL    HW216932   1.788   3.393   8.831 -0.1958 -0.9576  2.0487
 1767SOL     OW16933   3.176   1.631  15.329  0.6090  0.2818 -0.3738
 1767SOL    HW116934   3.169   1.564  15.397  1.0190  0.2308 -0.3774
 1767SOL    HW216935   3.175   1.708  15.386 -2.2285 -0.0733  0.0552
 1768SOL     OW16936   2.150   2.449  12.526  0.2951 -0.5695  0.1347
 1768SOL    HW116937   2.062   2.414  12.512 -0.0153  0.3682 -0.2156
 1768SOL    HW216938   2.186   2.381  12.583 -0.9686 -0.6441  0.8320
 1769SOL     OW16939   2.928   2.792   8.259 -0.2618 -0.3860  0.2546
 1769SOL    HW116940   2.957   2.738   8.185 -0.0953  0.9321 -0.6424
 1769SOL    HW216941   2.884   2.864   8.213  0.5590  0.1827  0.3740
 1770SOL     OW16942   3.855   0.772   4.792  0.0759  0.3198 -0.3467
 1770SOL    HW116943   3.830   0.814   4.874 -3.0275 -0.3748 -0.9334
 1770SOL    HW216944   3.807   0.689   4.792  1.0600 -0.2443 -0.3492
 1771SOL     OW16945   1.940   2.208  15.772 -0.5591  1.0961 -0.2574
 1771SOL    HW116946   1.863   2.179  15.723 -2.1355  1.5686  1.9749
 1771SOL    HW216947   1.939   2.150  15.848 -1.4505  1.0510 -0.3019
 1772SOL     OW16948   0.783   0.908   8.966  0.2860 -0.3637  0.7181
 1772SOL    HW116949   0.715   0.932   9.029  2.5523 -2.7165  4.0707
 1772SOL    HW216950   0.852   0.971   8.983  1.3988 -1.9365  1.9645
 1773SOL     OW16951   4.273   3.218  10.493 -0.3265 -0.4220 -0.5894
 1773SOL    HW116952   4.357   3.264  10.488 -0.2729 -0.5838 -1.1179
 1773SOL    HW216953   4.242   3.254  10.576  0.3220 -3.6378  1.0423
 1774SOL     OW16954   3.319   3.165   7.548 -0.7491  0.7995  0.0480
 1774SOL    HW116955   3.289   3.165   7.638  2.2038 -0.4093  1.0295
 1774SOL    HW216956   3.383   3.236   7.538  1.4003 -1.4943 -2.7200
 1775SOL     OW16957   4.244   0.103  17.631  0.2398 -0.2556  0.6856
 1775SOL    HW116958   4.211   0.171  17.573 -2.0582 -0.3164  1.9468
 1775SOL    HW216959   4.329   0.140  17.656 -0.0994  0.4671  0.7778
 1776SOL     OW16960   1.902   4.304   3.494 -0.1268  0.2620 -0.1772
 1776SOL    HW116961   1.926   4.369   3.561  1.8083 -0.1678 -0.4696
 1776SOL    HW216962   1.859   4.359   3.428 -1.6737 -1.6954 -0.8037
 1777SOL     OW16963   1.038   0.504   8.885 -0.0921  0.0426  0.6615
 1777SOL    HW116964   0.959   0.512   8.939 -0.0400  1.4934  0.5079
 1777SOL    HW216965   1.022   0.587   8.841 -0.0058  0.7080  1.8856
 1778SOL     OW16966   2.182   2.235  17.232  0.3123  0.0196  0.0733
 1778SOL    HW116967   2.097   2.194  17.215  0.7690 -0.8231 -0.1979
 1778SOL    HW216968   2.236   2.164  17.198  0.1333 -0.1668  0.1821
 1779SOL     OW16969   0.945   1.053   3.972 -0.5869 -1.0129  0.2528
 1779SOL    HW116970   0.978   1.012   4.051  1.9507 -1.7625 -1.2095
 1779SOL    HW216971   0.901   1.131   4.005  0.8786 -0.6435  1.3262
 1780SOL     OW16972   4.071   3.506   3.087 -0.3519  0.0246 -0.4596
 1780SOL    HW116973   4.063   3.483   2.994  2.6833  1.5220 -1.0853
 1780SOL    HW216974   4.043   3.425   3.128  1.3835 -1.4622 -2.2420
 1781SOL     OW16975   1.946   2.687   5.212 -0.1650 -0.1100  0.2709
 1781SOL    HW116976   1.882   2.659   5.278  0.5555  0.7099  1.3040
 1781SOL    HW216977   1.963   2.603   5.169 -0.5826 -1.1279  2.0910
 1782SOL     OW16978   1.046   1.553   9.968  0.6540  1.0866 -0.2375
 1782SOL    HW116979   1.003   1.600  10.039 -0.4906 -1.5290  0.8002
 1782SOL    HW216980   1.132   1.594   9.970  1.7497 -1.0553 -2.1590
 1783SOL     OW16981   0.388   1.168   7.454 -0.1971  0.4399 -0.1590
 1783SOL    HW116982   0.477   1.200   7.466 -0.0654  1.0431 -2.6981
 1783SOL    HW216983   0.353   1.207   7.373  1.7249  0.9897 -0.7222
 1784SOL     OW16984   1.130   1.139   1.995  0.0424 -0.0165 -0.9082
 1784SOL    HW116985   1.077   1.201   2.045  0.3401  0.4925 -1.2305
 1784SOL    HW216986   1.168   1.101   2.075 -1.4483  1.1357  0.3423
 1785SOL     OW16987   3.179   1.357   2.897  0.1188 -0.0898  0.2520
 1785SOL    HW116988   3.226   1.318   2.971 -1.0864  0.7464  1.4587
 1785SOL    HW216989   3.176   1.286   2.833 -2.6567 -0.8257  1.1903
 1786SOL     OW16990   3.915   2.901  15.967  0.0812 -0.0821  0.5702
 1786SOL    HW116991   3.917   2.887  15.872 -0.9354 -1.5769  0.7770
 1786SOL    HW216992   3.845   2.966  15.970  0.4425  0.3691 -0.6941
 1787SOL     OW16993   4.106   1.386   0.308  0.0107 -0.0221 -0.0865
 1787SOL    HW116994   4.034   1.325   0.323 -0.6289  1.0124  0.9954
 1787SOL    HW216995   4.056   1.463   0.283 -1.2604 -1.6901 -2.7365
 1788SOL     OW16996   1.021   1.693   4.658 -0.7241 -0.3476 -0.4536
 1788SOL    HW116997   0.977   1.739   4.586  0.7003  1.8200  0.0601
 1788SOL    HW216998   0.984   1.605   4.652  0.2723 -0.7864 -0.0926
 1789SOL     OW16999   3.112   1.854   6.239 -0.1825 -0.2037  0.1685
 1789SOL    HW117000   3.119   1.948   6.224  1.5395 -0.2889  0.4598
 1789SOL    HW217001   3.135   1.819   6.153  0.3718 -1.2492  0.7367
 1790SOL     OW17002   3.509   0.106  10.656 -0.2889 -0.2821 -0.0622
 1790SOL    HW117003   3.470   0.100  10.743 -1.6245  0.4395 -0.5975
 1790SOL    HW217004   3.571   0.177  10.675  0.1672 -0.9113  0.7575
 1791SOL     OW17005   3.923   4.183   8.197 -0.9641 -0.1439  0.1906
 1791SOL    HW117006   3.834   4.147   8.194 -0.4926 -1.4452  2.2108
 1791SOL    HW217007   3.906   4.253   8.260 -1.0449  1.8902 -2.0822
 1792SOL     OW17008   1.941   2.068  12.268 -0.6377  0.1153 -0.6580
 1792SOL    HW117009   1.904   2.030  12.347 -0.9102  0.2538 -0.7191
 1792SOL    HW217010   2.036   2.058  12.277 -0.9906 -2.5067 -0.1167
 1793SOL     OW17011   3.226   1.848   5.219 -0.2746  0.7545 -0.1739
 1793SOL    HW117012   3.225   1.868   5.312 -0.4885  0.7835 -0.1821
 1793SOL    HW217013   3.245   1.933   5.178  1.4448 -0.2205 -1.4070
 1794SOL     OW17014   2.587   0.154   5.372  0.3064 -0.2754  0.7061
 1794SOL    HW117015   2.681   0.149   5.392  0.4081 -1.7451 -0.1721
 1794SOL    HW217016   2.559   0.222   5.434  0.5236 -1.0500  1.6556
 1795SOL     OW17017   0.390   3.659   2.988  0.2714 -0.6007  0.2249
 1795SOL    HW117018   0.480   3.693   2.985  1.0228 -2.4467  1.6168
 1795SOL    HW217019   0.378   3.646   2.894  0.6159  1.3473 -0.0936
 1796SOL     OW17020   3.436   3.596  11.037  0.6492 -0.5735  0.4225
 1796SOL    HW117021   3.379   3.540  10.983  2.0852 -0.6873 -0.9805
 1796SOL    HW217022   3.374   3.659  11.073  0.0584 -1.0612  0.2640
 1797SOL     OW17023   3.916   0.694   5.514  0.0202 -0.4780  0.2978
 1797SOL    HW117024   3.981   0.748   5.560  1.1240  0.6686 -2.6278
 1797SOL    HW217025   3.839   0.720   5.564  0.6733  0.1356  0.9922
 1798SOL     OW17026   3.605   2.072   8.817  0.2031 -0.0413  0.0246
 1798SOL    HW117027   3.700   2.077   8.826  0.1423  0.4482  0.3632
 1798SOL    HW217028   3.583   2.141   8.754  0.5473 -0.5801 -0.6828
 1799SOL     OW17029   3.332   2.442   4.680  0.1302  0.2285  0.4562
 1799SOL    HW117030   3.370   2.385   4.613  1.4682  1.0172  0.5464
 1799SOL    HW217031   3.356   2.525   4.640 -1.6125  1.4578  1.9690
 1800SOL     OW17032   3.259   0.746   2.211 -0.3705  0.6897 -0.3840
 1800SOL    HW117033   3.299   0.738   2.124  1.9049  1.4028  0.6172
 1800SOL    HW217034   3.172   0.724   2.178 -0.6734 -0.3910  1.1348
 1801SOL     OW17035   2.160   2.229   9.028  0.0578  0.1646 -0.0694
 1801SOL    HW117036   2.255   2.241   9.016 -0.2198  1.8936 -0.5249
 1801SOL    HW217037   2.145   2.219   9.122  3.0710  1.6969  0.5757
 1802SOL     OW17038   1.360   1.628   4.178  0.1737  0.2436 -0.3319
 1802SOL    HW117039   1.373   1.601   4.269 -0.1117  0.7563 -0.1384
 1802SOL    HW217040   1.389   1.719   4.192  0.3302  0.3385 -1.3246
 1803SOL     OW17041   0.663   3.349  13.214 -0.2794 -0.0216  0.6750
 1803SOL    HW117042   0.669   3.347  13.309 -0.1335  2.5156  0.7293
 1803SOL    HW217043   0.749   3.311  13.198  0.1423  1.8693 -1.6236
 1804SOL     OW17044   3.957   0.446   5.450 -0.1034  0.3122 -0.1172
 1804SOL    HW117045   3.955   0.539   5.472  0.4553 -0.2008  2.0817
 1804SOL    HW217046   3.878   0.415   5.494 -0.5741 -1.3273 -2.0802
 1805SOL     OW17047   0.794   4.231   6.809  0.3314  0.6708  0.2225
 1805SOL    HW117048   0.775   4.139   6.826 -1.5295  0.2960 -4.0920
 1805SOL    HW217049   0.733   4.270   6.872  0.0384  0.5083  0.0354
 1806SOL     OW17050   0.013   3.501   3.762  0.0666  0.6986 -0.0033
 1806SOL    HW117051   4.697   3.550   3.699  1.1341 -0.3975 -1.7542
 1806SOL    HW217052   0.093   3.538   3.726  0.4131  3.4585  3.5872
 1807SOL     OW17053   3.671   4.017   8.116  0.1819 -0.1470 -0.5173
 1807SOL    HW117054   3.650   3.937   8.069 -0.5057  1.5094 -3.0294
 1807SOL    HW217055   3.674   3.990   8.208 -1.3115 -0.2963 -0.5016
 1808SOL     OW17056   0.013   0.953  15.962  0.2458  0.3270  0.0859
 1808SOL    HW117057   4.696   0.907  16.026  0.7917  0.4462  0.6386
 1808SOL    HW217058   0.054   1.030  16.002  1.3338  0.8844 -2.1294
 1809SOL     OW17059   3.020   4.508   4.692 -0.0061  0.2715 -0.9262
 1809SOL    HW117060   3.028   4.595   4.653 -2.7289  1.7662  1.8636
 1809SOL    HW217061   3.009   4.514   4.787  0.4879 -5.2618 -0.5216
 1810SOL     OW17062   0.563   0.799   9.536  0.6538  0.2762 -0.5372
 1810SOL    HW117063   0.535   0.867   9.597  1.2309 -1.5936  1.8331
 1810SOL    HW217064   0.576   0.727   9.598 -0.9974 -0.4155 -0.9775
 1811SOL     OW17065   3.359   1.045   0.372  0.7815 -0.3888  0.1027
 1811SOL    HW117066   3.312   1.025   0.291  1.3644 -2.0344  0.1714
 1811SOL    HW217067   3.371   0.958   0.411  3.6261  1.0386  2.4575
 1812SOL     OW17068   1.623   0.903   5.604  0.4176 -0.2710  0.2759
 1812SOL    HW117069   1.691   0.968   5.620  0.8545 -0.9305  1.0849
 1812SOL    HW217070   1.674   0.828   5.574  0.2537  0.3975 -1.6820
 1813SOL     OW17071   3.134   2.832   0.169  0.1555  0.4911 -0.1476
 1813SOL    HW117072   3.183   2.809   0.247  0.4509  0.1887 -0.4186
 1813SOL    HW217073   3.162   2.919   0.140 -1.8098  1.1785  0.0707
 1814SOL     OW17074   0.739   4.596  10.652 -0.7634 -0.2932  0.0316
 1814SOL    HW117075   0.715   4.687  10.638 -0.4319  0.2634  3.0656
 1814SOL    HW217076   0.665   4.560  10.702  0.8050 -2.6290  0.6730
 1815SOL     OW17077   4.406   3.063   0.348 -0.0191  0.3130 -0.3485
 1815SOL    HW117078   4.445   3.043   0.263  1.9691  0.5184  0.5104
 1815SOL    HW217079   4.371   2.977   0.372  1.9509 -1.0258 -2.2833
 1816SOL     OW17080   2.951   3.250   2.033 -0.0441 -0.4569 -0.1185
 1816SOL    HW117081   3.009   3.178   2.009 -0.5350  0.0062 -2.6235
 1816SOL    HW217082   2.969   3.266   2.126 -0.3674  0.9177 -0.2956
 1817SOL     OW17083   2.341   4.666   6.149 -0.2098  0.2530 -0.5828
 1817SOL    HW117084   2.428   4.633   6.127  0.1351  1.1243 -0.5001
 1817SOL    HW217085   2.322   4.623   6.233 -2.1621 -0.2834 -1.2943
 1818SOL     OW17086   2.471   4.430   5.112  0.4048  0.1806 -0.1538
 1818SOL    HW117087   2.517   4.512   5.090  1.7143  0.0631  2.1945
 1818SOL    HW217088   2.457   4.400   5.022  1.1550  0.0471 -0.2282
 1819SOL     OW17089   2.552   2.803   6.462 -0.1198  0.2411  0.1915
 1819SOL    HW117090   2.551   2.898   6.471  1.8111  0.4508 -1.7456
 1819SOL    HW217091   2.469   2.773   6.426 -0.5462  1.5492  0.1002
 1820SOL     OW17092   3.254   4.387  12.509 -0.2064  0.3775  0.1960
 1820SOL    HW117093   3.179   4.444  12.525 -1.8540 -2.1043  1.2626
 1820SOL    HW217094   3.208   4.308  12.535  1.7491 -0.7569  0.1729
 1821SOL     OW17095   2.455   0.674   8.218 -0.0045  0.3983 -0.0411
 1821SOL    HW117096   2.371   0.636   8.192 -1.0161  3.3764 -1.1430
 1821SOL    HW217097   2.454   0.765   8.191  0.0987  0.1574 -0.8505
 1822SOL     OW17098   3.050   0.520   4.210  0.5843 -0.1704 -0.4448
 1822SOL    HW117099   2.992   0.469   4.153 -0.9915  0.0044  1.0349
 1822SOL    HW217100   2.999   0.527   4.290  0.9850 -1.1357 -0.1077
 1823SOL     OW17101   0.942   0.245   2.158 -0.6356 -0.1349  0.2794
 1823SOL    HW117102   0.857   0.222   2.194 -1.0245 -2.9110 -2.4273
 1823SOL    HW217103   0.937   0.197   2.075  0.0990  1.0754 -0.4624
 1824SOL     OW17104   3.787   0.675   1.707  0.4224 -0.4769  0.0559
 1824SOL    HW117105   3.729   0.739   1.750  2.9762  2.7742 -1.3845
 1824SOL    HW217106   3.729   0.623   1.651 -0.9973 -0.0856  1.1541
 1825SOL     OW17107   1.281   0.355   2.535 -0.1155 -0.0905 -0.4096
 1825SOL    HW117108   1.293   0.306   2.617 -0.9553  1.4649  0.6326
 1825SOL    HW217109   1.186   0.345   2.543  0.3399 -1.7995  2.8431
 1826SOL     OW17110   0.429   4.005   5.854 -0.0599 -0.0341  0.3320
 1826SOL    HW117111   0.442   4.073   5.919  0.0656  0.1020  0.1629
 1826SOL    HW217112   0.514   3.977   5.821  1.4005  2.6856  1.8712
 1827SOL     OW17113   0.414   3.963   6.229 -0.6543 -0.0943 -0.5387
 1827SOL    HW117114   0.450   4.039   6.183 -0.9424  1.3484  1.6239
 1827SOL    HW217115   0.323   3.976   6.202 -0.7717  1.1445  0.4754
 1828SOL     OW17116   4.570   2.598   6.539 -0.3767  0.3873  0.2522
 1828SOL    HW117117   4.531   2.532   6.597  3.6929  0.3949  2.9997
 1828SOL    HW217118   4.512   2.591   6.463 -2.0385 -0.8679  1.6358
 1829SOL     OW17119   4.325   3.335   5.387  0.2087  0.0215 -0.2094
 1829SOL    HW117120   4.391   3.317   5.455 -1.5574  2.2172  2.0983
 1829SOL    HW217121   4.377   3.393   5.330 -1.6301  1.1600 -0.7272
 1830SOL     OW17122   3.822   1.545  14.502 -0.5739  0.2090 -0.2237
 1830SOL    HW117123   3.815   1.450  14.487 -0.5668  0.1608  0.0683
 1830SOL    HW217124   3.859   1.535  14.590 -0.2379  1.1025 -0.2632
 1831SOL     OW17125   3.515   3.993  10.107  0.3253  0.5959 -0.0892
 1831SOL    HW117126   3.575   3.987  10.181  1.0088 -0.9012 -0.7638
 1831SOL    HW217127   3.438   3.942  10.132  3.0216 -2.3038  2.3247
 1832SOL     OW17128   1.154   3.227   4.004 -0.0641 -0.0206 -0.5457
 1832SOL    HW117129   1.085   3.222   3.939  2.5891  0.6258 -3.3995
 1832SOL    HW217130   1.227   3.247   3.946  0.6336 -1.9968 -0.3550
 1833SOL     OW17131   2.402   1.683   7.733 -0.6104  0.2841  0.4003
 1833SOL    HW117132   2.342   1.609   7.723 -0.4528  0.3135 -0.7059
 1833SOL    HW217133   2.382   1.742   7.660 -0.2887 -0.5931 -0.3844
 1834SOL     OW17134   0.648   3.502   2.734 -0.4256 -0.3568  0.0482
 1834SOL    HW117135   0.623   3.579   2.684 -1.6215 -1.1543 -0.5916
 1834SOL    HW217136   0.648   3.436   2.664  0.1183  0.3324 -0.5981
 1835SOL     OW17137   3.244   3.929   4.009  0.7807  0.5936 -0.2858
 1835SOL    HW117138   3.298   3.935   4.087  1.5614  0.9257 -0.8496
 1835SOL    HW217139   3.308   3.891   3.949  0.6031 -0.2196  0.0449
 1836SOL     OW17140   1.761   0.906   2.893  0.4144 -0.3110 -0.4219
 1836SOL    HW117141   1.729   0.818   2.870  0.8832 -0.5247 -0.2559
 1836SOL    HW217142   1.736   0.955   2.815 -0.4277  0.7521  0.5162
 1837SOL     OW17143   3.340   3.147   4.884  0.0292 -0.2224  0.2621
 1837SOL    HW117144   3.247   3.168   4.870 -0.5370 -3.4962 -1.1175
 1837SOL    HW217145   3.371   3.237   4.888  1.5322 -0.9235  4.0023
 1838SOL     OW17146   0.119   3.167   8.646  0.0346 -1.1235 -0.3455
 1838SOL    HW117147   0.202   3.214   8.647 -0.8686  0.5231 -1.5227
 1838SOL    HW217148   0.088   3.184   8.557 -2.2274  0.9800  0.8419
 1839SOL     OW17149   2.887   2.686   2.512  0.3724 -0.2568  0.1541
 1839SOL    HW117150   2.854   2.600   2.538 -1.8978  0.5630  0.0423
 1839SOL    HW217151   2.848   2.705   2.427 -2.1693 -0.0468  1.3361
 1840SOL     OW17152   3.176   3.222   9.276  0.1708 -0.2286  0.3431
 1840SOL    HW117153   3.161   3.156   9.208 -0.7507  2.4540 -2.0431
 1840SOL    HW217154   3.197   3.171   9.354  2.0106 -1.7759 -1.1618
 1841SOL     OW17155   2.827   1.826   5.712 -0.4334 -0.0625 -0.5375
 1841SOL    HW117156   2.732   1.826   5.719 -0.2646  1.1242  1.8453
 1841SOL    HW217157   2.843   1.827   5.618  2.7489  0.1408  0.0150
 1842SOL     OW17158   1.540   3.404   5.112  0.1891  0.0755  0.5065
 1842SOL    HW117159   1.495   3.481   5.077 -2.0130 -1.9202 -1.0640
 1842SOL    HW217160   1.504   3.340   5.051  1.4554  0.4285 -0.6177
 1843SOL     OW17161   2.336   3.684   6.885 -0.2716 -0.4005 -0.0847
 1843SOL    HW117162   2.388   3.611   6.851 -2.2558 -0.5418 -2.8647
 1843SOL    HW217163   2.264   3.638   6.930  2.2281 -0.5665  3.7331
 1844SOL     OW17164   3.429   0.546   7.762 -0.1390 -0.3188 -0.4261
 1844SOL    HW117165   3.493   0.611   7.731 -1.0462 -0.0964 -1.8117
 1844SOL    HW217166   3.347   0.589   7.738  0.8549  1.1588 -1.1804
 1845SOL     OW17167   2.550   2.383   1.509  0.3614  0.2162  0.7274
 1845SOL    HW117168   2.601   2.387   1.591  2.4219 -4.6742 -0.3354
 1845SOL    HW217169   2.544   2.288   1.506  2.2290  0.1635 -1.2621
 1846SOL     OW17170   1.263   3.833   5.801  0.8411 -0.2387 -0.2364
 1846SOL    HW117171   1.200   3.875   5.743  0.2091 -0.7209  0.1002
 1846SOL    HW217172   1.306   3.773   5.741  1.1733 -1.4320  1.1924
 1847SOL     OW17173   3.843   3.586   3.728 -0.2298 -0.1533 -0.3659
 1847SOL    HW117174   3.754   3.551   3.731 -0.1889 -0.1696  0.5713
 1847SOL    HW217175   3.903   3.516   3.700 -0.4040 -0.9313  1.2063
 1848SOL     OW17176   2.624   2.637   1.386 -0.2185 -0.5067  0.3844
 1848SOL    HW117177   2.611   2.562   1.445 -0.4551 -1.9127 -1.4645
 1848SOL    HW217178   2.669   2.605   1.308  1.6708 -0.4823  1.4739
 1849SOL     OW17179   3.447   0.520   1.706  0.1440  0.3848 -0.0251
 1849SOL    HW117180   3.402   0.604   1.708 -0.4186  0.1132 -1.0310
 1849SOL    HW217181   3.371   0.461   1.707 -0.8939  1.7261  0.8551
 1850SOL     OW17182   4.145   3.287   1.205  0.4368  0.6702 -0.0759
 1850SOL    HW117183   4.088   3.323   1.137 -1.1401  0.6366  1.2305
 1850SOL    HW217184   4.140   3.194   1.184 -0.9151  0.2351  2.1314
 1851SOL     OW17185   2.005   0.379   3.552 -0.5348  0.8796  0.8499
 1851SOL    HW117186   2.093   0.387   3.590  0.5868 -1.3676 -1.2414
 1851SOL    HW217187   2.007   0.292   3.512  1.4656  0.8695  0.9736
 1852SOL     OW17188   4.576   0.946   3.793  0.3121 -0.2128  0.3839
 1852SOL    HW117189   4.599   0.970   3.884  1.2211  2.0750 -0.4334
 1852SOL    HW217190   4.613   1.016   3.739  1.5518 -0.6403  0.6642
 1853SOL     OW17191   1.663   0.252   6.943  0.9082  0.6735 -0.7268
 1853SOL    HW117192   1.692   0.341   6.963  2.4245 -0.3123  1.4605
 1853SOL    HW217193   1.608   0.225   7.017  0.8346  0.5525 -0.8263
 1854SOL     OW17194   3.568   4.564   5.770 -0.5219  0.4268 -0.0141
 1854SOL    HW117195   3.522   4.529   5.846  0.6654  2.6866  1.7122
 1854SOL    HW217196   3.579   4.651   5.807  1.6588 -0.0866  0.5144
 1855SOL     OW17197   3.637   3.742   6.685 -0.1363  0.0495 -0.4297
 1855SOL    HW117198   3.589   3.752   6.603  0.3663  0.0386 -0.7291
 1855SOL    HW217199   3.718   3.794   6.679 -0.7526  1.0424 -0.0952
 1856SOL     OW17200   1.544   1.879  17.576 -0.7237  0.1874  0.2244
 1856SOL    HW117201   1.556   1.956  17.631  1.8002  2.5778 -3.6300
 1856SOL    HW217202   1.480   1.908  17.512 -3.2172  2.6658  3.8659
 1857SOL     OW17203   3.356   0.289  10.438 -0.0755 -0.1356  0.0911
 1857SOL    HW117204   3.414   0.333  10.500  0.7023 -0.6352 -0.2725
 1857SOL    HW217205   3.383   0.200  10.460  0.2201  0.0705  0.5635
 1858SOL     OW17206   2.332   4.592   6.502 -0.3927  0.2303  0.3672
 1858SOL    HW117207   2.254   4.543   6.528 -0.3561  0.1012  0.2280
 1858SOL    HW217208   2.311   4.667   6.558 -1.1056  1.7129 -1.8839
 1859SOL     OW17209   2.433   4.059  16.702  0.1805  0.4624  0.3092
 1859SOL    HW117210   2.461   3.980  16.656  0.6159 -0.6757  2.5619
 1859SOL    HW217211   2.514   4.082  16.747  0.4915 -2.6546  1.3099
 1860SOL     OW17212   1.430   1.424   7.572  0.0939  0.0786 -0.2454
 1860SOL    HW117213   1.489   1.387   7.639 -1.8153 -0.8297  0.9349
 1860SOL    HW217214   1.429   1.519   7.581  0.0136  0.0840 -0.3152
 1861SOL     OW17215   2.219   2.189   5.558  0.2081 -0.5061 -0.0173
 1861SOL    HW117216   2.236   2.204   5.651 -0.3591  0.4567 -0.0663
 1861SOL    HW217217   2.124   2.195   5.560  0.1433 -0.1258 -3.7561
 1862SOL     OW17218   0.356   4.001  12.214  0.0089  0.2795  0.2878
 1862SOL    HW117219   0.351   4.072  12.150  0.4598  2.0634  2.2215
 1862SOL    HW217220   0.294   4.023  12.283  0.7464 -0.3163  1.1321
 1863SOL     OW17221   0.007   0.549   1.493  0.2216 -0.5434 -0.0718
 1863SOL    HW117222   0.045   0.487   1.555 -1.4218 -1.2594  0.2305
 1863SOL    HW217223   4.672   0.501   1.453  0.9567 -0.3766 -1.6282
 1864SOL     OW17224   0.215   0.854   4.640  0.3360 -0.5399 -0.2943
 1864SOL    HW117225   0.180   0.771   4.606  0.5148 -0.4319 -0.7452
 1864SOL    HW217226   0.136   0.899   4.670  0.6785 -0.5386  0.5873
 1865SOL     OW17227   3.379   0.999  13.085 -0.1164  0.2279 -0.3288
 1865SOL    HW117228   3.442   1.064  13.053  0.1852 -0.6607 -1.5865
 1865SOL    HW217229   3.297   1.023  13.043 -0.4190 -0.3135 -0.0442
 1866SOL     OW17230   1.378   2.881   3.113  0.3169 -0.0653  0.0852
 1866SOL    HW117231   1.459   2.913   3.152  0.1719 -1.4955  1.5436
 1866SOL    HW217232   1.402   2.867   3.021 -0.7758  3.3484 -0.7398
 1867SOL     OW17233   2.627   0.687   7.928  0.2351 -0.0991 -0.3656
 1867SOL    HW117234   2.703   0.744   7.928  0.9988 -1.1405 -3.7873
 1867SOL    HW217235   2.582   0.708   8.010 -3.8681 -2.2174 -2.0339
 1868SOL     OW17236   3.042   2.866   4.686  0.0940  0.1984  0.4462
 1868SOL    HW117237   3.030   2.818   4.604 -1.2768 -0.2214  0.8892
 1868SOL    HW217238   3.046   2.787   4.741  0.9498  0.1594  0.3310
 1869SOL     OW17239   3.518   0.936   5.751 -0.1775  0.6666  0.3614
 1869SOL    HW117240   3.447   0.985   5.709  0.1891  2.2406  1.5580
 1869SOL    HW217241   3.539   0.994   5.825 -1.3552  0.6242  0.7258
 1870SOL     OW17242   2.821   0.905   8.987  0.0830  0.0246 -0.2306
 1870SOL    HW117243   2.759   0.912   9.060  0.3047  1.3731 -0.1728
 1870SOL    HW217244   2.785   0.824   8.952  1.7522 -0.3772 -0.9805
 1871SOL     OW17245   3.298   0.081  11.705  0.3605 -0.1397 -0.7124
 1871SOL    HW117246   3.290   0.151  11.640 -0.1748  0.8303  0.3902
 1871SOL    HW217247   3.239   0.011  11.679  0.2852  0.3203 -1.7714
 1872SOL     OW17248   0.656   2.230   4.210 -0.1253 -0.2138 -0.0270
 1872SOL    HW117249   0.654   2.155   4.269 -2.3836 -1.1444 -1.2712
 1872SOL    HW217250   0.669   2.185   4.126  1.1947  0.5420 -0.2223
 1873SOL     OW17251   4.086   1.470   4.683 -0.0851 -0.0976 -0.0652
 1873SOL    HW117252   4.168   1.420   4.686  0.4675  0.8114  0.2366
 1873SOL    HW217253   4.029   1.410   4.635 -0.1400  1.4251 -1.9210
 1874SOL     OW17254   1.572   0.486   7.510 -0.1507  0.0444 -0.3898
 1874SOL    HW117255   1.618   0.481   7.594  0.5228  2.2581 -0.6228
 1874SOL    HW217256   1.486   0.520   7.536  0.2016  0.3817  0.3479
 1875SOL     OW17257   0.848   0.868   7.645 -0.7357  0.2414  0.3792
 1875SOL    HW117258   0.836   0.813   7.568  0.4233 -0.5889  0.7920
 1875SOL    HW217259   0.754   0.885   7.653 -0.7035  1.5341 -1.8087
 1876SOL     OW17260   3.972   2.159  13.755  0.1571  0.5932  0.3450
 1876SOL    HW117261   3.977   2.221  13.828 -1.8837  2.2763 -0.9342
 1876SOL    HW217262   4.054   2.112  13.770  0.3298  0.6391 -0.4628
 1877SOL     OW17263   2.592   3.717   4.373 -0.2816 -0.0671  0.0027
 1877SOL    HW117264   2.598   3.707   4.468  0.8301  2.4948  0.2298
 1877SOL    HW217265   2.638   3.642   4.334  1.4219  0.1635  1.5728
 1878SOL     OW17266   0.946   0.842   7.910  0.1684  0.1737  0.3029
 1878SOL    HW117267   0.918   0.765   7.960 -0.8718  0.4613  0.1788
 1878SOL    HW217268   0.913   0.823   7.822  1.2580 -0.2775 -0.0116
 1879SOL     OW17269   0.587   2.600   4.078 -0.3026 -0.1870  0.4014
 1879SOL    HW117270   0.551   2.555   4.154 -1.2920  3.1913  1.9488
 1879SOL    HW217271   0.612   2.686   4.111  2.7926 -0.7720 -0.3818
 1880SOL     OW17272   1.147   2.172   7.926  0.3358  0.2320 -0.1230
 1880SOL    HW117273   1.199   2.251   7.945 -1.3002  1.4612 -0.7473
 1880SOL    HW217274   1.080   2.187   7.993 -0.4569 -0.7446 -0.6906
 1881SOL     OW17275   4.653   1.310   4.981 -0.3130 -0.0644  0.5982
 1881SOL    HW117276   4.557   1.313   4.983 -0.3370  0.4491 -1.4444
 1881SOL    HW217277   4.663   1.394   4.936 -1.0406  1.3615  3.1125
 1882SOL     OW17278   4.227   3.975  14.937  0.7342 -0.0349  0.7746
 1882SOL    HW117279   4.320   3.960  14.957  1.3101  1.7280 -0.5602
 1882SOL    HW217280   4.232   4.058  14.889  2.2632  0.2216  1.3660
 1883SOL     OW17281   2.933   2.771   3.764 -0.5356 -0.3370 -0.0422
 1883SOL    HW117282   2.849   2.770   3.717 -1.0225  1.7223  0.7955
 1883SOL    HW217283   2.921   2.758   3.858  0.4107  1.2144  0.2726
 1884SOL     OW17284   4.089   0.548   8.840  0.4479  0.1684 -0.2802
 1884SOL    HW117285   4.147   0.536   8.765  1.6280 -0.6076  0.7546
 1884SOL    HW217286   4.157   0.578   8.900  1.8779  1.6167 -2.5993
 1885SOL     OW17287   0.616   0.882  17.608 -0.1776  0.5185  0.9763
 1885SOL    HW117288   0.694   0.935  17.627  0.2892 -0.0471  0.6331
 1885SOL    HW217289   0.646   0.797  17.640 -0.8860 -0.8612 -2.0546
 1886SOL     OW17290   2.751   4.626  11.843 -0.1892  0.0072 -0.3276
 1886SOL    HW117291   2.678   4.576  11.879  0.7878 -1.1138  0.1060
 1886SOL    HW217292   2.781   4.555  11.786  0.8501  0.1465  0.0516
 1887SOL     OW17293   1.189   4.002  13.489  0.2747 -0.5711  0.1119
 1887SOL    HW117294   1.124   4.064  13.455  1.2353  1.3116  1.7362
 1887SOL    HW217295   1.250   4.066  13.525 -0.2519  0.6909 -1.2365
 1888SOL     OW17296   1.900   2.182   3.290  0.2814  0.2064  0.4122
 1888SOL    HW117297   1.841   2.202   3.363 -0.4389 -0.5049  0.0188
 1888SOL    HW217298   1.976   2.232   3.318  0.4592 -0.2559  0.7627
 1889SOL     OW17299   3.997   4.065   4.548 -0.0803  0.0530 -0.9290
 1889SOL    HW117300   3.912   4.023   4.536  0.9493 -2.2328 -0.2628
 1889SOL    HW217301   4.054   3.988   4.558  1.5204  1.3015 -0.4976
 1890SOL     OW17302   1.234   4.405  10.605 -0.4698  0.0974 -0.6374
 1890SOL    HW117303   1.184   4.330  10.571  0.2822  0.9303 -3.5540
 1890SOL    HW217304   1.320   4.392  10.565 -1.6273 -0.0050 -3.0538
 1891SOL     OW17305   0.380   2.177   9.484 -0.7461 -0.1281  0.5477
 1891SOL    HW117306   0.349   2.100   9.435 -1.3523  0.9625 -0.7720
 1891SOL    HW217307   0.475   2.163   9.483 -0.8395 -0.7457 -0.5503
 1892SOL     OW17308   3.739   1.377  17.175  0.5492  0.0921 -0.6770
 1892SOL    HW117309   3.672   1.435  17.213  0.8149 -0.9541  1.3977
 1892SOL    HW217310   3.764   1.422  17.095  0.9652  0.1428 -0.5155
 1893SOL     OW17311   0.349   3.526  12.809  0.7604  0.3933  0.3438
 1893SOL    HW117312   0.398   3.565  12.737 -2.5863  1.1811 -1.5213
 1893SOL    HW217313   0.318   3.443  12.773 -1.9528  1.4009  0.3886
 1894SOL     OW17314   0.653   0.437   7.116 -0.5451 -0.3803 -0.4913
 1894SOL    HW117315   0.590   0.495   7.158 -0.8154 -0.1065 -1.2743
 1894SOL    HW217316   0.720   0.423   7.182 -1.7213 -0.3941  0.7044
 1895SOL     OW17317   3.956   3.103  13.437 -0.6873 -0.1753  0.3627
 1895SOL    HW117318   3.971   3.009  13.433  1.2940  0.1749 -0.1263
 1895SOL    HW217319   3.897   3.099  13.513  0.0646  0.6509  0.9954
 1896SOL     OW17320   1.434   4.311   4.235  0.6439  0.0379  0.3346
 1896SOL    HW117321   1.434   4.215   4.238 -0.0541  0.0979  2.1935
 1896SOL    HW217322   1.502   4.328   4.300  0.0061  2.6370  0.3017
 1897SOL     OW17323   4.603   3.736   2.970 -0.5250  0.1853 -0.0715
 1897SOL    HW117324   4.597   3.692   3.055 -2.4595  0.5890  0.0137
 1897SOL    HW217325   4.663   3.680   2.921  0.8633  1.1553  0.5226
 1898SOL     OW17326   2.852   4.458  13.628 -0.6938 -0.1647 -0.3483
 1898SOL    HW117327   2.875   4.534  13.574  0.1699  0.9856  1.6545
 1898SOL    HW217328   2.802   4.398  13.572  1.5726 -1.5515 -0.8915
 1899SOL     OW17329   2.442   4.345   5.918  0.0364 -0.2815  0.3573
 1899SOL    HW117330   2.464   4.257   5.948  0.9654 -0.2569 -0.2711
 1899SOL    HW217331   2.377   4.322   5.852  1.0597 -0.5575 -0.5393
 1900SOL     OW17332   2.934   3.487  13.710  0.2551  0.0234 -0.1599
 1900SOL    HW117333   3.003   3.551  13.696 -0.3986  0.1397 -2.8959
 1900SOL    HW217334   2.950   3.482  13.804  0.2292 -4.6622 -0.4079
 1901SOL     OW17335   1.879   3.169   6.444 -0.0577  0.3769 -0.2937
 1901SOL    HW117336   1.785   3.154   6.442 -0.0457  0.4218 -1.1560
 1901SOL    HW217337   1.889   3.118   6.363  0.8017  0.9558 -0.5591
 1902SOL     OW17338   2.241   3.406  16.292 -0.2273  0.1061 -0.8363
 1902SOL    HW117339   2.161   3.432  16.337 -0.6131  1.0670 -2.0888
 1902SOL    HW217340   2.204   3.377  16.208  0.1048  1.0393 -1.2994
 1903SOL     OW17341   3.845   2.201   7.080 -0.6291  0.4319  0.2169
 1903SOL    HW117342   3.858   2.272   7.143  3.3837 -0.5669  0.4982
 1903SOL    HW217343   3.899   2.127   7.106  0.6188  0.5284 -2.1342
 1904SOL     OW17344   4.059   2.450   4.199 -0.0706 -0.0091  0.4813
 1904SOL    HW117345   4.123   2.449   4.271 -0.2377  1.0806  0.6389
 1904SOL    HW217346   4.111   2.423   4.123  2.5605  2.0411  1.5340
 1905SOL     OW17347   4.199   3.778  13.166 -0.4636 -0.0333  0.6047
 1905SOL    HW117348   4.253   3.826  13.104 -0.3984 -1.6790 -0.5904
 1905SOL    HW217349   4.122   3.833  13.155  0.0198  0.1609 -1.7290
 1906SOL     OW17350   0.612   4.676   8.229  0.2513  0.1087 -0.2907
 1906SOL    HW117351   0.548   4.726   8.279 -1.7556 -2.8871  0.1276
 1906SOL    HW217352   0.624   4.603   8.290  0.9452 -0.6150 -1.2879
 1907SOL     OW17353   0.830   2.210  15.427 -0.1635  0.0261 -0.2145
 1907SOL    HW117354   0.825   2.212  15.522 -0.4771  0.6110 -0.2463
 1907SOL    HW217355   0.869   2.125  15.408  0.1403  0.1411 -0.1108
 1908SOL     OW17356   0.226   2.227   8.820  0.3857  0.9467 -0.1650
 1908SOL    HW117357   0.155   2.260   8.875 -1.0688 -1.8515 -0.3850
 1908SOL    HW217358   0.261   2.151   8.867  0.4221  1.6996  1.0223
 1909SOL     OW17359   0.208   4.211   2.982  0.3545 -0.1394  0.0931
 1909SOL    HW117360   0.162   4.257   3.051  1.8949 -1.4480  1.9944
 1909SOL    HW217361   0.295   4.248   2.999  0.9864 -0.1136 -3.1402
 1910SOL     OW17362   1.264   2.400   3.438  0.6613  0.0129 -0.1648
 1910SOL    HW117363   1.271   2.308   3.462  0.0709  0.2662  1.0005
 1910SOL    HW217364   1.186   2.397   3.381  1.9818  0.6276 -1.9971
 1911SOL     OW17365   2.840   4.273   7.145  0.3289 -0.2579  0.0110
 1911SOL    HW117366   2.772   4.329   7.107  1.0746  1.5984  1.4142
 1911SOL    HW217367   2.781   4.231   7.208  0.0137  3.5307  2.2445
 1912SOL     OW17368   1.852   3.956   9.362 -0.3933 -0.1003 -0.0308
 1912SOL    HW117369   1.941   3.986   9.344 -1.2925  1.8939 -1.0713
 1912SOL    HW217370   1.878   3.869   9.394  0.3318  0.0158 -0.3023
 1913SOL     OW17371   0.556   1.267   8.773  0.2298 -0.1492 -0.4971
 1913SOL    HW117372   0.522   1.334   8.714  0.7976 -0.4357 -1.1415
 1913SOL    HW217373   0.519   1.188   8.734 -0.2745  0.9880 -2.3008
 1914SOL     OW17374   1.298   0.977  15.320 -0.6335 -0.6385  0.2582
 1914SOL    HW117375   1.317   0.967  15.227 -1.0547 -1.9098  0.2993
 1914SOL    HW217376   1.248   1.058  15.316  0.6583  0.1298 -0.1933
 1915SOL     OW17377   0.387   0.908   1.756 -0.9302 -0.5735  0.4117
 1915SOL    HW117378   0.438   0.848   1.812  1.1598  0.0173 -0.8641
 1915SOL    HW217379   0.355   0.855   1.683  1.0482 -3.0692  1.3270
 1916SOL     OW17380   2.669   1.976   6.377 -0.2112  0.0924  0.0347
 1916SOL    HW117381   2.740   1.916   6.355 -0.0072  0.6564 -0.8537
 1916SOL    HW217382   2.602   1.910   6.393 -0.0907  0.0605  0.3981
 1917SOL     OW17383   1.444   2.990   5.404 -0.0112 -0.5118  0.2725
 1917SOL    HW117384   1.369   2.963   5.457  1.2047 -0.4121  2.0402
 1917SOL    HW217385   1.482   3.063   5.452 -2.9401  0.4704  1.1024
 1918SOL     OW17386   1.766   1.354   8.430  0.3593 -0.6035 -0.3637
 1918SOL    HW117387   1.849   1.392   8.458  0.4366 -1.0725  0.0469
 1918SOL    HW217388   1.788   1.267   8.398  0.4206 -1.2196  1.3240
 1919SOL     OW17389   4.551   4.485  10.014  0.0273 -0.4301 -0.1455
 1919SOL    HW117390   4.625   4.543  10.033 -1.3575  1.7244 -1.4177
 1919SOL    HW217391   4.597   4.437   9.945 -0.1788  1.4066 -1.5594
 1920SOL     OW17392   1.221   0.309  17.256 -0.9419  0.8762  0.2139
 1920SOL    HW117393   1.154   0.241  17.262  0.7800 -0.8573 -0.0525
 1920SOL    HW217394   1.263   0.279  17.175 -0.7969 -0.7846  0.8944
 1921SOL     OW17395   1.816   0.751   4.684 -0.7003  0.6646 -0.6420
 1921SOL    HW117396   1.749   0.685   4.703 -2.1047  1.6054 -2.3630
 1921SOL    HW217397   1.836   0.736   4.591 -0.9244 -0.4641 -0.5092
 1922SOL     OW17398   3.196   3.502   7.422  0.0413 -0.7138  0.4724
 1922SOL    HW117399   3.181   3.574   7.360  0.6509 -2.3765 -1.6237
 1922SOL    HW217400   3.286   3.519   7.448  0.4953  0.2516 -1.6933
 1923SOL     OW17401   2.000   1.945   5.731 -0.2715 -0.0615  0.2212
 1923SOL    HW117402   1.926   1.897   5.694 -0.6795  2.1374 -1.8163
 1923SOL    HW217403   1.984   2.024   5.679  1.6321 -0.0509 -0.3585
 1924SOL     OW17404   3.068   4.671   4.280  0.0934 -0.1602  0.5221
 1924SOL    HW117405   3.014   4.720   4.342 -0.1367 -0.1639  0.3207
 1924SOL    HW217406   3.160   4.694   4.298  0.8589 -2.1065 -0.9036
 1925SOL     OW17407   2.633   4.055  10.410 -0.1200 -0.4719 -0.2547
 1925SOL    HW117408   2.573   4.030  10.340  0.9835 -2.2182 -0.5948
 1925SOL    HW217409   2.711   4.084  10.363 -1.6445  1.0561 -1.8281
 1926SOL     OW17410   4.590   2.889   5.578  0.2499  0.0016  0.4926
 1926SOL    HW117411   4.619   2.942   5.504 -3.2880  1.7903  0.4110
 1926SOL    HW217412   4.653   2.915   5.646 -1.6469  1.4865  1.6668
 1927SOL     OW17413   3.075   3.456   0.855  0.1434 -0.2062  0.2866
 1927SOL    HW117414   2.990   3.443   0.897 -0.2908  0.4206 -0.4085
 1927SOL    HW217415   3.132   3.468   0.932  1.3664  1.2038 -0.8375
 1928SOL     OW17416   2.376   0.791   1.961 -0.4911 -0.0849 -0.2762
 1928SOL    HW117417   2.403   0.883   1.955 -1.3183  0.3216  1.9780
 1928SOL    HW217418   2.283   0.794   1.939 -1.3340  1.5569  3.3526
 1929SOL     OW17419   1.707   3.299   7.681 -0.5095 -0.1243 -0.0330
 1929SOL    HW117420   1.737   3.375   7.731  1.9294 -0.5702 -0.8179
 1929SOL    HW217421   1.646   3.250   7.736  0.8940 -0.1521  1.4927
 1930SOL     OW17422   1.772   0.025   5.400 -0.2784  0.8853 -0.2725
 1930SOL    HW117423   1.782   0.120   5.412  2.5664  0.4348  0.9317
 1930SOL    HW217424   1.812   0.014   5.314  1.9354 -0.2807  0.8994
 1931SOL     OW17425   3.285   3.727   6.935  0.2572 -0.2439  0.3297
 1931SOL    HW117426   3.280   3.810   6.981 -2.2341  0.4453 -1.1345
 1931SOL    HW217427   3.242   3.757   6.855  1.2074 -0.0899 -0.1158
 1932SOL     OW17428   0.859   3.041   3.651  0.4104 -0.3021 -0.1223
 1932SOL    HW117429   0.809   2.980   3.596  0.0695  0.3210 -0.5053
 1932SOL    HW217430   0.905   2.976   3.705 -2.9036 -0.9322  1.9198
 1933SOL     OW17431   4.701   3.073   0.798 -0.1669  0.5201  0.9497
 1933SOL    HW117432   4.661   3.112   0.876  0.0959  1.2498  0.7240
 1933SOL    HW217433   4.679   3.130   0.724  0.8230 -0.2313  0.0940
 1934SOL     OW17434   0.171   2.882  13.985  0.6770 -0.4170 -0.3591
 1934SOL    HW117435   0.108   2.923  14.044  0.2401 -2.1223  0.3807
 1934SOL    HW217436   0.231   2.955  13.975  0.4670 -0.1807  0.0941
 1935SOL     OW17437   4.424   3.190   4.748 -0.2535 -0.9812 -0.0329
 1935SOL    HW117438   4.336   3.179   4.784  0.3049 -1.0611  1.3312
 1935SOL    HW217439   4.456   3.249   4.816  1.6769  0.3696 -2.1077
 1936SOL     OW17440   1.262   3.375   3.689  0.0928  0.5423 -0.1526
 1936SOL    HW117441   1.200   3.312   3.652  0.0467  0.1500  0.5972
 1936SOL    HW217442   1.336   3.367   3.629  0.4677  1.9042  0.1185
 1937SOL     OW17443   4.491   4.436   6.762 -0.1275  0.6747 -0.7361
 1937SOL    HW117444   4.522   4.386   6.838 -0.5663 -2.1308 -2.4187
 1937SOL    HW217445   4.464   4.512   6.814 -0.0825 -0.7818  1.4060
 1938SOL     OW17446   1.814   1.341   1.113  0.2506 -0.8080 -0.0686
 1938SOL    HW117447   1.871   1.351   1.037 -0.8296  1.6904 -0.5518
 1938SOL    HW217448   1.872   1.370   1.184  0.3329 -0.7143 -0.1733
 1939SOL     OW17449   4.647   1.166   2.660 -0.6784  0.1047  0.6396
 1939SOL    HW117450   4.653   1.079   2.698  1.4379  0.9597  2.2278
 1939SOL    HW217451   4.732   1.209   2.651  0.2128 -2.3556 -2.5129
 1940SOL     OW17452   3.243   1.564   5.684 -0.1332  0.3484  0.3429
 1940SOL    HW117453   3.187   1.602   5.617  1.2422  0.9378 -0.4543
 1940SOL    HW217454   3.307   1.631   5.709 -1.9790  1.8132  1.1263
 1941SOL     OW17455   3.824   3.276   7.831  0.4608 -0.1222  0.2403
 1941SOL    HW117456   3.762   3.231   7.774 -0.4029  0.4924  0.6680
 1941SOL    HW217457   3.851   3.207   7.891 -1.4727 -2.3420 -1.4707
 1942SOL     OW17458   3.463   3.345   4.047  0.2398 -0.5503  0.1086
 1942SOL    HW117459   3.513   3.303   4.117  0.8312 -1.8810 -1.1209
 1942SOL    HW217460   3.407   3.403   4.099  0.2726  1.6275 -2.2939
 1943SOL     OW17461   3.668   0.224   8.123  0.2244  0.0694  0.8375
 1943SOL    HW117462   3.579   0.217   8.088  1.8706 -1.6069 -3.0033
 1943SOL    HW217463   3.727   0.208   8.049 -0.9300 -0.6578  0.0621
 1944SOL     OW17464   3.771   3.636   7.430 -0.2154  0.0164 -0.7522
 1944SOL    HW117465   3.771   3.728   7.404  0.7053  0.1303 -0.3634
 1944SOL    HW217466   3.838   3.625   7.498 -0.1464 -1.9968 -1.1370
 1945SOL     OW17467   3.429   2.340  13.148 -0.1496 -0.2686  0.6307
 1945SOL    HW117468   3.360   2.341  13.214 -0.6837  1.2077  0.0527
 1945SOL    HW217469   3.479   2.260  13.163 -0.1435  0.1129  2.5643
 1946SOL     OW17470   0.993   0.149  17.298 -0.5671 -0.2680 -0.3345
 1946SOL    HW117471   0.907   0.155  17.256  0.1652  0.6517 -1.7034
 1946SOL    HW217472   0.981   0.135  17.392 -0.7550  1.9370 -0.0210
 1947SOL     OW17473   0.734   3.347   5.938 -0.6075  0.1597  0.2885
 1947SOL    HW117474   0.794   3.417   5.914  1.2653 -1.5827 -0.1399
 1947SOL    HW217475   0.706   3.316   5.852 -2.4299 -0.0404  0.9663
 1948SOL     OW17476   3.203   2.701   6.807  0.3546  0.2949  0.0505
 1948SOL    HW117477   3.269   2.746   6.755  0.5231  1.2616  1.1003
 1948SOL    HW217478   3.153   2.777   6.839 -0.5298  0.4449 -1.6636
 1949SOL     OW17479   1.820   2.119  13.897  0.3419  0.1097 -0.4837
 1949SOL    HW117480   1.891   2.145  13.839  0.9028 -0.8123 -0.2173
 1949SOL    HW217481   1.753   2.177  13.862 -0.5950 -0.6139  0.1102
 1950SOL     OW17482   4.611   4.230   2.147 -0.1198  0.0199 -0.1522
 1950SOL    HW117483   4.584   4.239   2.239  1.6681  0.2966  0.3450
 1950SOL    HW217484   4.704   4.249   2.153  0.2335 -1.7265 -0.0643
 1951SOL     OW17485   3.087   4.291   5.330 -0.3801 -0.0348  0.2576
 1951SOL    HW117486   3.053   4.310   5.417  2.0538  0.5061  1.0906
 1951SOL    HW217487   3.148   4.364   5.317 -1.3718  0.5894 -0.8909
 1952SOL     OW17488   1.001   1.123   9.265  0.0206  0.0654 -0.4072
 1952SOL    HW117489   1.009   1.031   9.288 -0.3250  0.3200  0.7122
 1952SOL    HW217490   1.004   1.105   9.171 -1.2762  0.3797 -0.5168
 1953SOL     OW17491   4.624   3.866   8.997 -0.2869 -0.2033 -0.0687
 1953SOL    HW117492   4.699   3.914   9.032  0.2283 -0.5982 -0.6443
 1953SOL    HW217493   4.549   3.925   9.002  0.3910  0.8573 -2.1859
 1954SOL     OW17494   3.872   1.585   8.830  0.0895  0.3293  0.6767
 1954SOL    HW117495   3.867   1.653   8.896 -0.5092  0.6899  0.2573
 1954SOL    HW217496   3.950   1.605   8.778 -1.4058  0.5630 -1.4674
 1955SOL     OW17497   1.573   0.232  12.068 -0.1989  0.1910  0.4098
 1955SOL    HW117498   1.548   0.291  12.139 -0.2166 -1.4775  1.7932
 1955SOL    HW217499   1.583   0.294  11.996 -2.5850 -0.7719 -0.7692
 1956SOL     OW17500   3.307   4.689   2.611 -0.3069 -0.2360  0.3686
 1956SOL    HW117501   3.306   4.691   2.707 -0.6956  1.6703  0.3210
 1956SOL    HW217502   3.321   0.043   2.593  1.8480 -0.9492 -1.6815
 1957SOL     OW17503   3.311   2.659   2.205  0.3643 -0.3020 -0.2220
 1957SOL    HW117504   3.316   2.688   2.295 -1.4802 -1.5448  0.2838
 1957SOL    HW217505   3.220   2.645   2.178  1.3720 -2.6323 -2.5098
 1958SOL     OW17506   3.103   0.602   8.406  0.5008 -0.1716  0.5757
 1958SOL    HW117507   3.151   0.520   8.398  0.8564  0.2714 -1.6073
 1958SOL    HW217508   3.101   0.635   8.316 -2.2095  0.7484  0.9585
 1959SOL     OW17509   1.362   3.594   3.376 -0.0162  0.4849  0.0102
 1959SOL    HW117510   1.267   3.584   3.383 -0.1250  1.7484  0.2900
 1959SOL    HW217511   1.374   3.579   3.282 -1.3049  0.5010 -0.1625
 1960SOL     OW17512   0.416   4.445   0.973 -0.3216  0.2102 -0.0864
 1960SOL    HW117513   0.425   4.500   0.895  0.7589  1.8764  1.2213
 1960SOL    HW217514   0.326   4.472   0.987  0.6243  1.4039  3.5395
 1961SOL     OW17515   4.160   2.707   2.786 -0.1970  0.6008 -0.0531
 1961SOL    HW117516   4.116   2.661   2.715 -0.1629 -1.0857  0.9973
 1961SOL    HW217517   4.239   2.737   2.742  0.6902 -1.9307 -0.2137
 1962SOL     OW17518   3.551   3.894  17.229  0.0577  0.6153 -0.1657
 1962SOL    HW117519   3.515   3.915  17.144  1.3857  0.1578 -0.8511
 1962SOL    HW217520   3.552   3.979  17.273 -0.0958 -0.5006  2.0249
 1963SOL     OW17521   0.846   4.448   5.255 -0.3969  0.8664  0.3319
 1963SOL    HW117522   0.931   4.406   5.273 -1.0194 -0.9361 -0.9416
 1963SOL    HW217523   0.807   4.427   5.340 -1.7687  1.3048 -0.1953
 1964SOL     OW17524   0.283   4.612   7.268 -0.5016 -0.2088 -0.0838
 1964SOL    HW117525   0.314   4.547   7.332  0.7588  0.0431 -0.4399
 1964SOL    HW217526   0.202   4.628   7.315  0.4438  3.6919  0.2091
 1965SOL     OW17527   1.586   0.404   3.054  0.5963 -0.0947  0.6345
 1965SOL    HW117528   1.511   0.458   3.028  1.2057  0.8211  0.7675
 1965SOL    HW217529   1.603   0.338   2.987 -1.5167  2.5460 -2.5016
 1966SOL     OW17530   2.804   0.619   8.251 -0.6508  0.1642 -0.1800
 1966SOL    HW117531   2.797   0.715   8.247 -0.1015  0.2852  1.6367
 1966SOL    HW217532   2.744   0.601   8.324 -1.3126 -0.0951 -0.7927
 1967SOL     OW17533   1.488   4.004   5.456  0.1066  0.6711  0.7416
 1967SOL    HW117534   1.522   4.072   5.514  0.3381  2.2433 -1.2264
 1967SOL    HW217535   1.403   4.044   5.434 -0.5880 -1.7411 -0.9997
 1968SOL     OW17536   2.088   0.199  15.670 -0.1726 -0.3397  0.5703
 1968SOL    HW117537   2.039   0.154  15.601  2.0971 -0.6169 -0.9003
 1968SOL    HW217538   2.145   0.253  15.615 -2.2829  2.0181  0.7466
 1969SOL     OW17539   4.711   3.668   9.269  0.0423 -0.0658  0.3146
 1969SOL    HW117540   4.649   3.733   9.303 -0.8997 -0.5472 -0.4923
 1969SOL    HW217541   4.701   3.676   9.174  3.1792  1.3332  0.1193
 1970SOL     OW17542   4.115   4.384  16.756  0.3149  0.2525 -0.0970
 1970SOL    HW117543   4.093   4.429  16.675 -2.1559 -0.1112  0.3676
 1970SOL    HW217544   4.100   4.294  16.729 -1.6126  1.8116 -4.2275
 1971SOL     OW17545   2.523   0.237   7.258 -0.3658  0.4197  0.4536
 1971SOL    HW117546   2.466   0.227   7.335 -0.5724  0.0802  0.2556
 1971SOL    HW217547   2.475   0.171   7.208 -2.8995  1.0985  1.9838
 1972SOL     OW17548   2.623   3.948   8.312 -0.3170 -0.8277 -0.7739
 1972SOL    HW117549   2.608   3.871   8.258 -1.7702 -0.4601 -0.8690
 1972SOL    HW217550   2.548   4.007   8.301 -0.7655 -0.9874  1.4349
 1973SOL     OW17551   0.967   1.639   1.485  0.0930  0.1072 -0.0073
 1973SOL    HW117552   0.885   1.623   1.532 -0.2600  0.6470 -0.4458
 1973SOL    HW217553   0.930   1.665   1.401  0.7079 -1.8020 -0.8701
 1974SOL     OW17554   3.027   0.790   9.699  1.0681 -0.5295 -0.4689
 1974SOL    HW117555   2.965   0.722   9.671 -0.5497  1.4612 -1.7412
 1974SOL    HW217556   2.978   0.871   9.686 -0.1027 -1.4115 -1.5745
 1975SOL     OW17557   0.189   3.127   6.470 -0.0175  0.1884  0.2740
 1975SOL    HW117558   0.159   3.074   6.544  0.3964  2.6579  2.2053
 1975SOL    HW217559   0.210   3.060   6.405  1.6179  0.5912  0.3865
 1976SOL     OW17560   3.239   2.593   2.842 -0.3764  0.2375  0.0378
 1976SOL    HW117561   3.214   2.576   2.932 -2.6604  2.1801 -0.2297
 1976SOL    HW217562   3.159   2.621   2.797 -1.2688  0.6160  1.8835
 1977SOL     OW17563   2.659   1.485  10.311  0.0595  0.2616 -0.1558
 1977SOL    HW117564   2.626   1.400  10.340 -0.6301  0.6904  0.3106
 1977SOL    HW217565   2.615   1.552  10.363  1.1105  1.7118 -1.1186
 1978SOL     OW17566   3.513   3.281   8.691  0.0244 -0.1043  0.0414
 1978SOL    HW117567   3.558   3.226   8.755  0.0610  0.0640  0.1612
 1978SOL    HW217568   3.420   3.267   8.705 -0.3950  1.5103 -1.1092
 1979SOL     OW17569   1.974   3.938   5.996 -0.4006  0.3960 -0.8039
 1979SOL    HW117570   1.979   3.896   6.081 -1.3294  0.9683 -0.4629
 1979SOL    HW217571   1.941   3.871   5.936 -0.5639  0.0351 -0.3023
 1980SOL     OW17572   0.225   2.701   2.765  0.3376  0.3328  0.6398
 1980SOL    HW117573   0.272   2.757   2.827 -2.1576  1.5745  1.4368
 1980SOL    HW217574   0.220   2.617   2.812 -0.0353 -0.4101 -0.7288
 1981SOL     OW17575   1.037   3.595   9.139 -0.1400  0.6384 -0.4252
 1981SOL    HW117576   1.073   3.673   9.182  0.3236 -0.8395  1.8340
 1981SOL    HW217577   0.945   3.614   9.121  0.5222  2.2073 -2.1557
 1982SOL     OW17578   3.987   1.142   3.587  0.3131 -0.0474 -0.0328
 1982SOL    HW117579   4.027   1.183   3.510 -1.4411 -2.5908 -2.3111
 1982SOL    HW217580   3.974   1.214   3.649 -0.6726 -0.3909  0.1486
 1983SOL     OW17581   3.235   4.660   3.195 -0.5138  0.3883 -0.0899
 1983SOL    HW117582   3.227   0.016   3.183 -0.0989  0.3379 -0.7548
 1983SOL    HW217583   3.259   4.656   3.288 -1.2171  1.0759  0.1211
 1984SOL     OW17584   1.307   0.231   7.068 -0.1197 -0.1061  0.6701
 1984SOL    HW117585   1.317   0.229   6.973  0.1334 -0.5937  0.7044
 1984SOL    HW217586   1.294   0.323   7.088  1.2407  0.4238 -0.8839
 1985SOL     OW17587   2.286   2.673   5.409 -0.4882 -0.1744 -0.5313
 1985SOL    HW117588   2.205   2.715   5.437  0.0530 -0.1549  1.0111
 1985SOL    HW217589   2.341   2.706   5.480  0.6954  0.9722 -1.9894
 1986SOL     OW17590   2.943   4.218   3.939 -0.5451 -0.4477 -0.1945
 1986SOL    HW117591   2.948   4.154   4.011 -0.3111  1.0035  1.0683
 1986SOL    HW217592   2.953   4.167   3.859  0.3713 -2.0767  0.9446
 1987SOL     OW17593   2.049   4.616   6.263 -0.0421  0.4421  0.1129
 1987SOL    HW117594   2.008   4.536   6.230  0.5532  0.3211 -0.3393
 1987SOL    HW217595   2.038   4.601   6.357  0.9236 -4.6971 -0.6216
 1988SOL     OW17596   1.492   2.473  15.085 -0.1131  0.2273 -0.3831
 1988SOL    HW117597   1.532   2.399  15.129 -0.2603 -0.0862 -0.7687
 1988SOL    HW217598   1.400   2.446  15.080  0.8183 -2.7632 -1.9405
 1989SOL     OW17599   0.075   3.697   0.064  0.1550 -0.2033 -0.0455
 1989SOL    HW117600   4.722   3.714   0.087  0.4651  0.4052  0.7733
 1989SOL    HW217601   0.105   3.736   0.147 -0.6168  0.1547  0.0642
 1990SOL     OW17602   2.329   0.481   1.211 -0.0200 -0.1374 -0.3420
 1990SOL    HW117603   2.355   0.436   1.131  1.6537  0.3276 -0.0614
 1990SOL    HW217604   2.347   0.411   1.274  0.2211  0.3238  0.0978
 1991SOL     OW17605   0.474   3.006   5.709  0.6011 -0.4617 -0.6677
 1991SOL    HW117606   0.547   2.969   5.659 -0.5565 -0.8713 -2.0589
 1991SOL    HW217607   0.467   2.938   5.775  0.1054  2.2401  2.0602
 1992SOL     OW17608   2.936   3.202  17.059 -0.5628 -0.3322  0.0860
 1992SOL    HW117609   2.968   3.291  17.076  0.1494 -0.5799 -0.0066
 1992SOL    HW217610   2.936   3.208  16.963  2.0052 -1.8455  0.0148
 1993SOL     OW17611   1.511   3.543   9.230 -0.0144  0.1738  0.4597
 1993SOL    HW117612   1.488   3.635   9.241  1.3270  0.3822  1.5953
 1993SOL    HW217613   1.452   3.519   9.158  1.0228 -0.1814 -0.2752
 1994SOL     OW17614   0.824   2.466  13.085  0.0176 -0.0795 -0.2234
 1994SOL    HW117615   0.894   2.499  13.029 -0.7388  3.1717  0.7576
 1994SOL    HW217616   0.793   2.540  13.137  0.4870 -0.0581  0.0279
 1995SOL     OW17617   3.734   1.600  13.994  0.0384 -0.0082 -1.2012
 1995SOL    HW117618   3.808   1.602  14.054 -0.7713  0.3721 -0.2194
 1995SOL    HW217619   3.718   1.506  14.008 -1.8317  0.5820  0.5259
 1996SOL     OW17620   4.561   0.447   1.336  0.7264 -0.6254 -0.4420
 1996SOL    HW117621   4.504   0.510   1.293  0.6750 -1.0085 -0.9363
 1996SOL    HW217622   4.495   0.384   1.367  0.8309 -0.6166 -0.1994
 1997SOL     OW17623   2.783   0.680  10.850  0.6715  0.2747  0.2716
 1997SOL    HW117624   2.698   0.653  10.886  1.3493 -0.2156  1.4875
 1997SOL    HW217625   2.783   0.649  10.759 -0.5772  1.0943 -0.0057
 1998SOL     OW17626   3.674   3.291   3.627  0.2936  0.4240  0.2869
 1998SOL    HW117627   3.749   3.237   3.603 -1.7471 -0.1585 -4.7038
 1998SOL    HW217628   3.640   3.305   3.539 -1.3632 -1.9482  0.5440
 1999SOL     OW17629   3.023   1.473   1.744 -0.2625 -0.0548 -0.3116
 1999SOL    HW117630   2.985   1.432   1.822  1.3631 -1.2621 -0.1496
 1999SOL    HW217631   3.108   1.429   1.741  0.3015  0.9649  0.6659
 2000SOL     OW17632   2.686   1.788   1.340  0.1217 -0.0566  0.0151
 2000SOL    HW117633   2.731   1.852   1.286  0.8362 -0.0643  0.6066
 2000SOL    HW217634   2.753   1.745   1.393 -0.0027  0.7657  0.8350
 2001SOL     OW17635   4.629   3.661   7.857 -0.8011  0.1517  0.0614
 2001SOL    HW117636   4.616   3.566   7.857 -0.0502  0.0373  1.8223
 2001SOL    HW217637   4.689   3.665   7.932 -0.3244  0.2791 -0.3317
 2002SOL     OW17638   1.712   0.483   7.729 -0.0267 -0.2303 -0.4643
 2002SOL    HW117639   1.714   0.579   7.736 -0.0631 -0.0965 -2.2745
 2002SOL    HW217640   1.687   0.467   7.820 -1.8055  2.0041 -0.5359
 2003SOL     OW17641   0.472   4.398   6.735  0.7224 -0.2060  0.8115
 2003SOL    HW117642   0.450   4.378   6.645  1.1001 -0.7569  0.8402
 2003SOL    HW217643   0.409   4.345   6.784 -1.8204 -0.0511 -2.3399
 2004SOL     OW17644   2.289   0.663   4.113  0.0263  0.1834 -0.0318
 2004SOL    HW117645   2.251   0.623   4.035 -1.2195 -1.4914  1.4389
 2004SOL    HW217646   2.226   0.733   4.131  0.3559  0.6482 -0.6813
 2005SOL     OW17647   0.129   2.205   7.439  0.1096 -0.1416  0.3109
 2005SOL    HW117648   0.100   2.279   7.386 -2.2172 -2.2328 -1.3506
 2005SOL    HW217649   0.221   2.231   7.440 -0.8205  3.0121  1.6269
 2006SOL     OW17650   4.576   3.525   2.401 -0.0460  0.0470  0.3782
 2006SOL    HW117651   4.571   3.433   2.427 -0.7995  0.0588  0.2767
 2006SOL    HW217652   4.532   3.520   2.317  1.2844  0.2053 -0.3170
 2007SOL     OW17653   3.691   0.935   3.011  0.3538 -0.2608  0.3546
 2007SOL    HW117654   3.682   0.879   2.934  2.0348 -0.5935  0.3942
 2007SOL    HW217655   3.704   0.869   3.079  2.8574  0.5855  0.6940
 2008SOL     OW17656   2.118   3.979   6.624  0.3410  0.4093 -0.9174
 2008SOL    HW117657   2.204   3.950   6.655  0.6802  0.4864 -1.7963
 2008SOL    HW217658   2.071   3.901   6.654  0.1201  1.2376  0.8973
 2009SOL     OW17659   0.123   4.590   2.858 -0.2628  0.3250  0.1477
 2009SOL    HW117660   0.124   4.505   2.813 -1.9669  1.0893 -1.3365
 2009SOL    HW217661   0.030   4.580   2.877 -0.2147 -1.9094 -0.7279
 2010SOL     OW17662   3.752   2.205   4.804 -0.5504  0.0049  0.0072
 2010SOL    HW117663   3.803   2.163   4.873 -0.3629  1.6467  0.8720
 2010SOL    HW217664   3.666   2.165   4.821 -1.5880  2.4582  0.5113
 2011SOL     OW17665   3.614   3.694   9.022  0.4311 -0.0187  0.0167
 2011SOL    HW117666   3.700   3.718   8.988  1.0564  0.4779  1.9346
 2011SOL    HW217667   3.578   3.782   9.033  2.1970  0.6253  0.5679
 2012SOL     OW17668   1.030   2.802   7.275 -0.0439 -0.0465 -0.3149
 2012SOL    HW117669   1.026   2.761   7.189  2.0394 -2.3972  0.6789
 2012SOL    HW217670   1.037   2.721   7.326 -0.7450  1.8206  2.7825
 2013SOL     OW17671   0.897   4.618   2.043  0.3369 -0.2918 -0.1308
 2013SOL    HW117672   0.981   4.658   2.066 -0.2708 -0.3335  2.0767
 2013SOL    HW217673   0.854   4.687   1.991 -2.6480 -0.4469  2.1566
 2014SOL     OW17674   2.176   0.827   4.997 -0.3748 -0.5454 -0.7053
 2014SOL    HW117675   2.139   0.775   4.925 -0.1724 -1.0859 -0.4232
 2014SOL    HW217676   2.230   0.759   5.036  0.6947  0.9348  0.3597
 2015SOL     OW17677   3.658   2.228   7.668  0.8201 -0.2288  0.7105
 2015SOL    HW117678   3.609   2.160   7.622  0.6837  0.1232  0.3374
 2015SOL    HW217679   3.731   2.173   7.698  1.6292  0.0154 -0.7901
 2016SOL     OW17680   2.609   0.705   6.850  0.1054 -0.0842 -0.9891
 2016SOL    HW117681   2.554   0.763   6.903  4.3360 -1.3214  4.8079
 2016SOL    HW217682   2.668   0.773   6.819 -0.1075  0.6176  0.1220
 2017SOL     OW17683   1.061   0.522   3.445 -0.2856  0.0399 -0.4155
 2017SOL    HW117684   1.125   0.591   3.428  0.9954 -0.9991  0.2241
 2017SOL    HW217685   0.992   0.572   3.489  0.9364 -0.1226  1.7057
 2018SOL     OW17686   2.350   1.575   2.821 -0.1035  0.2741 -0.1397
 2018SOL    HW117687   2.352   1.664   2.858  1.9612  0.1913 -0.0275
 2018SOL    HW217688   2.418   1.589   2.755  2.6098 -0.8531  2.4302
 2019SOL     OW17689   1.673   1.616   2.566  0.6525  0.7344 -0.1304
 2019SOL    HW117690   1.723   1.637   2.487  1.8666 -1.6950  0.0101
 2019SOL    HW217691   1.591   1.601   2.519  0.1161  1.2725  0.6547
 2020SOL     OW17692   2.386   0.639   5.071  0.1892 -0.0870  0.7183
 2020SOL    HW117693   2.412   0.546   5.069  0.2648 -0.0680  0.8096
 2020SOL    HW217694   2.389   0.648   5.167 -2.0510 -0.3330  0.8002
 2021SOL     OW17695   1.407   1.348   0.494 -0.4474  0.1428  0.2111
 2021SOL    HW117696   1.476   1.405   0.529 -2.1288  2.1519  0.2401
 2021SOL    HW217697   1.450   1.321   0.413 -0.6216  2.1590 -0.5631
 2022SOL     OW17698   0.339   4.287   7.284 -0.7395 -0.0468  0.3121
 2022SOL    HW117699   0.421   4.335   7.270 -2.6610  2.9001 -0.8203
 2022SOL    HW217700   0.308   4.278   7.194  1.5550  1.3257 -0.6470
 2023SOL     OW17701   1.750   1.838   5.652  0.4994 -0.0616  0.1216
 2023SOL    HW117702   1.687   1.770   5.678 -0.5635  0.3957 -1.2364
 2023SOL    HW217703   1.783   1.809   5.568  1.8305 -2.2525  1.3998
 2024SOL     OW17704   3.708   0.480   9.579 -0.4757  0.4535 -0.2306
 2024SOL    HW117705   3.623   0.489   9.621 -0.0455  0.9275  0.5623
 2024SOL    HW217706   3.706   0.384   9.581  2.6638  0.3583 -0.5034
 2025SOL     OW17707   2.322   1.275  11.866  0.3227 -0.3727 -0.0115
 2025SOL    HW117708   2.345   1.182  11.878 -3.9814 -1.6889 -2.1384
 2025SOL    HW217709   2.227   1.272  11.855  0.0468  1.5943  1.7916
 2026SOL     OW17710   3.189   4.477   5.617 -0.1043  0.2359  0.0073
 2026SOL    HW117711   3.167   4.563   5.654 -0.0783  1.7842 -3.5346
 2026SOL    HW217712   3.102   4.439   5.626  0.6710 -1.5942 -0.1369
 2027SOL     OW17713   4.217   3.480  16.997  0.3545 -0.4631  0.2292
 2027SOL    HW117714   4.155   3.429  16.946 -1.8838  0.8463  1.6153
 2027SOL    HW217715   4.298   3.452  16.954 -0.9588 -1.1994 -1.7430
 2028SOL     OW17716   2.235   3.497   3.491  0.1502  0.0602  0.3527
 2028SOL    HW117717   2.245   3.425   3.554 -1.3068  0.8048  1.4575
 2028SOL    HW217718   2.257   3.573   3.545  1.6269 -0.0626 -0.0859
 2029SOL     OW17719   0.507   1.654  11.787 -0.0340 -0.4178 -0.3315
 2029SOL    HW117720   0.539   1.703  11.863  0.5226  0.8193 -1.3563
 2029SOL    HW217721   0.450   1.591  11.831 -0.3106  1.6315  2.3314
 2030SOL     OW17722   3.481   2.800  10.784 -0.5448 -0.1168  0.2180
 2030SOL    HW117723   3.451   2.747  10.858  0.9358  0.8272  1.5347
 2030SOL    HW217724   3.570   2.823  10.814  0.4898 -2.4232 -1.1330
 2031SOL     OW17725   2.610   1.421   4.466  0.6203 -0.2385 -0.0796
 2031SOL    HW117726   2.671   1.493   4.448 -1.0578  0.4713 -2.7748
 2031SOL    HW217727   2.533   1.477   4.472  0.5246 -0.5758  1.9952
 2032SOL     OW17728   1.325   0.190   6.742  0.0039 -0.0658 -0.2304
 2032SOL    HW117729   1.421   0.184   6.743 -0.0110 -0.2511  2.0360
 2032SOL    HW217730   1.318   0.242   6.663 -1.1361  1.6960  1.0315
 2033SOL     OW17731   3.696   3.930   5.514  0.0304 -0.2624  0.8600
 2033SOL    HW117732   3.789   3.949   5.519 -0.1383  0.4581  1.3040
 2033SOL    HW217733   3.661   3.978   5.589 -0.2406  0.3631  0.3358
 2034SOL     OW17734   2.015   1.769   1.364  0.4180  0.2294 -0.5929
 2034SOL    HW117735   1.992   1.738   1.276  1.4359  2.2602 -1.5719
 2034SOL    HW217736   2.106   1.739   1.366  0.1778 -0.3582  2.1011
 2035SOL     OW17737   1.902   0.137  14.089  0.4829 -0.1597  0.1821
 2035SOL    HW117738   1.918   0.158  13.997  0.8773 -0.6566  0.1387
 2035SOL    HW217739   1.947   0.207  14.136  0.8918 -0.4681  0.2490
 2036SOL     OW17740   3.569   3.409  15.140 -0.3438  0.1582 -0.4516
 2036SOL    HW117741   3.585   3.480  15.077 -0.6469 -0.3954 -1.1513
 2036SOL    HW217742   3.631   3.430  15.210  1.1713 -0.9018 -1.4482
 2037SOL     OW17743   3.211   2.536   5.923  0.0362 -0.5449  0.8540
 2037SOL    HW117744   3.260   2.454   5.930 -0.3631 -0.9799 -1.5320
 2037SOL    HW217745   3.194   2.537   5.829  0.3350 -2.4979  0.7785
 2038SOL     OW17746   0.696   1.738   2.132 -0.4386  0.0723 -0.5525
 2038SOL    HW117747   0.771   1.708   2.184 -2.0790 -1.2649  1.0238
 2038SOL    HW217748   0.725   1.809   2.075  1.4406 -0.5670 -0.3931
 2039SOL     OW17749   0.833   0.930  13.166 -0.2486  1.0236 -0.2932
 2039SOL    HW117750   0.778   0.870  13.216  0.8104 -0.2437 -0.6515
 2039SOL    HW217751   0.890   0.971  13.231 -0.0198 -0.2730  0.3214
 2040SOL     OW17752   1.584   3.096   9.635  0.2690  0.0593 -0.6458
 2040SOL    HW117753   1.534   3.017   9.613  0.7989 -0.0476 -1.4519
 2040SOL    HW217754   1.537   3.167   9.591  0.0060 -0.0996 -0.6215
 2041SOL     OW17755   4.075   1.572   2.929 -0.2971  0.6940  0.0500
 2041SOL    HW117756   4.124   1.647   2.896 -0.2227  0.8913  0.6118
 2041SOL    HW217757   4.135   1.508   2.891  1.0088  1.0386  1.5670
 2042SOL     OW17758   3.277   3.645  10.213  0.2936  0.8673 -0.3197
 2042SOL    HW117759   3.196   3.621  10.259  0.0694 -1.3359 -1.8803
 2042SOL    HW217760   3.335   3.577  10.248  0.6710  0.3497 -1.9538
 2043SOL     OW17761   2.804   2.393   3.261 -0.6052 -0.3887 -0.1621
 2043SOL    HW117762   2.881   2.355   3.217 -0.4225 -2.6281  2.1080
 2043SOL    HW217763   2.748   2.425   3.190  0.1993  1.5821  0.0760
 2044SOL     OW17764   0.886   2.318   8.381 -0.0662  0.6223 -0.1443
 2044SOL    HW117765   0.954   2.340   8.317  0.1950  1.5687  0.4544
 2044SOL    HW217766   0.823   2.296   8.313 -0.4377 -0.6760  0.6166
 2045SOL     OW17767   1.909   2.944   3.272  0.8368  0.1916  1.0349
 2045SOL    HW117768   1.911   2.998   3.193  0.0997  0.4633  1.1969
 2045SOL    HW217769   1.981   2.980   3.324  1.6109 -1.5562  1.1619
 2046SOL     OW17770   0.040   4.524   9.501 -0.5107 -0.3473  0.1583
 2046SOL    HW117771   0.005   4.436   9.515  0.8089 -0.8615  0.2350
 2046SOL    HW217772   0.106   4.519   9.571 -1.4961  2.9039  1.3205
 2047SOL     OW17773   3.863   4.604   6.077 -0.3034 -0.7911 -0.2537
 2047SOL    HW117774   3.788   4.569   6.125 -0.6329 -1.7682 -1.4527
 2047SOL    HW217775   3.871   4.526   6.021  2.4515 -1.4134  1.0211
 2048SOL     OW17776   1.646   3.865  16.101 -0.1492  0.0829  0.1364
 2048SOL    HW117777   1.716   3.911  16.146  0.2541 -0.4892  0.0993
 2048SOL    HW217778   1.580   3.874  16.169  2.8469  3.9784  2.5155
 2049SOL     OW17779   3.105   0.784   5.935  0.5772 -0.2139  0.2973
 2049SOL    HW117780   3.135   0.837   6.009  2.2907  0.7820 -1.1314
 2049SOL    HW217781   3.089   0.701   5.980 -0.2342 -1.8363 -3.0380
 2050SOL     OW17782   3.002   0.680   5.130 -0.3944  0.2293  0.0330
 2050SOL    HW117783   2.932   0.696   5.067 -1.1141  0.4284  0.8751
 2050SOL    HW217784   3.048   0.618   5.074  0.0096  1.2906 -0.8219
 2051SOL     OW17785   0.253   1.660   6.953 -0.1162 -0.3841  0.6982
 2051SOL    HW117786   0.176   1.711   6.979 -1.0100 -2.1498  1.4483
 2051SOL    HW217787   0.324   1.697   7.005 -0.2898  1.5335 -0.4181
 2052SOL     OW17788   0.760   1.272  11.801 -0.3541  0.3355  0.6742
 2052SOL    HW117789   0.757   1.340  11.868 -1.8333 -1.2441  2.1995
 2052SOL    HW217790   0.736   1.194  11.852  0.8319  0.5002  1.4918
 2053SOL     OW17791   0.086   4.047   9.262  0.3525  0.7400 -0.3594
 2053SOL    HW117792   0.117   3.970   9.310  0.1672  0.9312  0.0652
 2053SOL    HW217793   0.148   4.113   9.292 -1.5303  2.3110  0.1169
 2054SOL     OW17794   3.814   2.726   4.456  0.1205  0.3541 -0.3640
 2054SOL    HW117795   3.726   2.743   4.422 -0.1049  0.1724  0.1276
 2054SOL    HW217796   3.864   2.788   4.403  0.0623  0.2523 -0.5417
 2055SOL     OW17797   3.015   3.633  10.370  0.0440  0.6632  0.7908
 2055SOL    HW117798   2.989   3.616  10.460  0.2029 -0.4264  0.6239
 2055SOL    HW217799   2.933   3.630  10.321  2.0481  0.9942 -2.6315
 2056SOL     OW17800   2.265   2.305   6.214  0.5826 -0.1949 -0.3185
 2056SOL    HW117801   2.276   2.211   6.202 -2.2946 -0.7301  1.3406
 2056SOL    HW217802   2.227   2.306   6.302  1.5707 -0.1667  0.1170
 2057SOL     OW17803   1.175   0.402   4.901  0.4365 -0.2730  0.3992
 2057SOL    HW117804   1.121   0.475   4.871  0.9197  1.1770  3.0780
 2057SOL    HW217805   1.228   0.370   4.828 -0.2264 -0.7812  0.1321
 2058SOL     OW17806   1.695   4.509   9.395  0.4830  0.1039  0.4947
 2058SOL    HW117807   1.628   4.556   9.444  1.0379 -0.0393  1.3896
 2058SOL    HW217808   1.718   4.435   9.452  0.9800  0.8051  1.1961
 2059SOL     OW17809   1.421   0.379  16.614 -0.2307 -0.3157 -0.4846
 2059SOL    HW117810   1.327   0.396  16.607 -0.1453 -0.3530 -1.7211
 2059SOL    HW217811   1.436   0.315  16.545 -0.5579  1.0789 -1.8606
 2060SOL     OW17812   3.333   4.341   0.229  0.4601  0.0293 -0.0968
 2060SOL    HW117813   3.417   4.346   0.275 -0.2502 -1.7375  1.3468
 2060SOL    HW217814   3.342   4.248   0.208 -1.2545  0.1527 -1.3069
 2061SOL     OW17815   1.702   3.161   1.894 -0.3000 -0.6562  0.6518
 2061SOL    HW117816   1.771   3.107   1.933 -0.1543 -2.1943 -1.7664
 2061SOL    HW217817   1.739   3.247   1.913  1.4248 -0.9256 -1.4999
 2062SOL     OW17818   2.682   0.612  15.872  0.5281  0.3230 -0.1675
 2062SOL    HW117819   2.711   0.660  15.795  4.5482 -1.1959  0.4251
 2062SOL    HW217820   2.653   0.530  15.832 -0.4589  1.0328 -0.9110
 2063SOL     OW17821   1.735   4.584   4.357 -0.7781 -0.2667 -0.5408
 2063SOL    HW117822   1.763   4.571   4.266 -1.2388 -0.7301 -0.6137
 2063SOL    HW217823   1.706   4.496   4.381 -1.0763 -0.4593 -1.6087
 2064SOL     OW17824   1.212   1.205   8.881 -0.8230  0.3470 -0.7011
 2064SOL    HW117825   1.203   1.259   8.803 -2.0593  1.6180  0.3146
 2064SOL    HW217826   1.248   1.128   8.838  0.3005  0.7942 -0.5712
 2065SOL     OW17827   4.692   1.001   1.566 -0.4539 -0.0373 -0.3720
 2065SOL    HW117828   4.728   0.953   1.491  1.2121 -0.4047  0.6714
 2065SOL    HW217829   4.602   0.968   1.571 -0.5803  0.0082 -2.3865
 2066SOL     OW17830   4.385   1.640   3.183 -0.0436 -0.0403  0.1759
 2066SOL    HW117831   4.388   1.651   3.278  0.7324  2.9836 -0.2133
 2066SOL    HW217832   4.422   1.551   3.183 -1.6310 -0.6983 -1.1859
 2067SOL     OW17833   0.672   3.974   2.653 -0.5057  0.2863 -0.7119
 2067SOL    HW117834   0.601   3.950   2.714 -0.3825  1.6229 -0.0463
 2067SOL    HW217835   0.655   4.067   2.642  1.9731  1.2010  3.2836
 2068SOL     OW17836   1.436   1.621   8.181  0.2534  0.2238  0.8734
 2068SOL    HW117837   1.363   1.638   8.123  2.1380  1.9330 -0.9819
 2068SOL    HW217838   1.385   1.603   8.260 -0.3636 -1.1431  0.1723
 2069SOL     OW17839   3.658   0.322   7.773  0.1979 -0.7136 -0.5986
 2069SOL    HW117840   3.591   0.340   7.839 -1.4485  1.2930 -2.7995
 2069SOL    HW217841   3.639   0.401   7.723  0.9348  0.2410  0.6238
 2070SOL     OW17842   1.619   4.209   0.226  0.8062  0.9623 -0.7040
 2070SOL    HW117843   1.525   4.224   0.239  1.0576  1.1725  0.8308
 2070SOL    HW217844   1.657   4.276   0.283  1.6459  1.1478 -1.4879
 2071SOL     OW17845   4.273   0.610   5.831 -0.1772  0.5778  0.2634
 2071SOL    HW117846   4.243   0.522   5.856  1.0076  0.1952  0.3192
 2071SOL    HW217847   4.278   0.665   5.909 -0.3040  0.5452  0.2940
 2072SOL     OW17848   0.095   1.382   7.027  0.2653 -0.5066 -0.0398
 2072SOL    HW117849   0.085   1.345   7.115  0.8540  3.4727  1.7061
 2072SOL    HW217850   0.135   1.466   7.050  1.1533 -0.6024 -1.2806
 2073SOL     OW17851   4.589   3.812  10.557  0.3577  0.2501 -0.0835
 2073SOL    HW117852   4.652   3.882  10.539 -0.0544  0.0773 -2.2195
 2073SOL    HW217853   4.622   3.782  10.642  1.5019 -0.8804 -0.9233
 2074SOL     OW17854   0.466   0.013  10.694 -0.1933 -0.0197 -0.9760
 2074SOL    HW117855   0.487   0.072  10.622  2.5569 -0.9692 -0.9438
 2074SOL    HW217856   0.372   0.029  10.690 -0.5061 -1.6262 -0.1889
 2075SOL     OW17857   3.910   0.604   8.239  0.4306 -0.1134  0.0474
 2075SOL    HW117858   3.855   0.658   8.181  0.4239  1.0179  1.1048
 2075SOL    HW217859   3.994   0.648   8.224 -0.0152  0.3409 -1.1519
 2076SOL     OW17860   4.279   0.019   4.067  0.0761  0.2435  0.3605
 2076SOL    HW117861   4.243   4.716   4.146 -0.8101 -1.7495 -1.0590
 2076SOL    HW217862   4.322   0.092   4.111 -0.2725  1.2219 -0.9100
 2077SOL     OW17863   4.158   4.664   3.278  0.3039  0.1732 -0.2205
 2077SOL    HW117864   4.146   4.702   3.365 -0.7723 -0.1494 -0.2270
 2077SOL    HW217865   4.123   4.723   3.210  1.2589  0.7963 -0.1659
 2078SOL     OW17866   3.065   2.253   2.667  0.5788 -0.2122  0.0449
 2078SOL    HW117867   3.138   2.214   2.620  1.2096  0.2756  0.6112
 2078SOL    HW217868   3.030   2.178   2.717 -0.1776  1.0010  1.3269
 2079SOL     OW17869   1.796   4.388   7.838 -0.1488  0.5579  0.2202
 2079SOL    HW117870   1.774   4.295   7.836  0.2389  0.4228  1.9312
 2079SOL    HW217871   1.838   4.402   7.923 -1.7856  1.1237  0.9450
 2080SOL     OW17872   3.756   2.243   1.867 -0.0717 -1.1310  0.4161
 2080SOL    HW117873   3.665   2.251   1.896 -0.1081  2.3810 -0.6986
 2080SOL    HW217874   3.746   2.310   1.800  0.2797 -2.2658 -0.7652
 2081SOL     OW17875   3.750   2.925  12.627  0.0309  0.5559  0.2891
 2081SOL    HW117876   3.701   2.909  12.708  1.6861  0.5154  1.2851
 2081SOL    HW217877   3.817   2.859  12.647  0.3887  0.5399 -0.9531
 2082SOL     OW17878   1.073   0.663   5.848  0.4399  0.1218  0.1123
 2082SOL    HW117879   1.146   0.632   5.902  0.8231  1.9279  0.6193
 2082SOL    HW217880   1.119   0.737   5.807 -1.3454  1.2853  0.2211
 2083SOL     OW17881   0.895   2.576   6.751  0.4551 -0.1097  0.5832
 2083SOL    HW117882   0.978   2.540   6.719 -0.3653 -0.0253 -1.6779
 2083SOL    HW217883   0.914   2.574   6.845  2.1513 -0.6684  0.2151
 2084SOL     OW17884   4.368   1.421   6.697  0.1229 -0.5308 -0.0476
 2084SOL    HW117885   4.431   1.429   6.625 -1.4128 -0.9868 -1.4273
 2084SOL    HW217886   4.421   1.386   6.769  0.9864  0.6434 -0.1094
 2085SOL     OW17887   0.173   4.346   2.745  0.3799  0.0990 -0.0275
 2085SOL    HW117888   0.249   4.338   2.688 -1.2059 -2.5729 -1.7999
 2085SOL    HW217889   0.200   4.284   2.813 -0.6312  0.0149  0.3053
 2086SOL     OW17890   1.998   3.756   7.504  0.8613  0.4326 -0.3694
 2086SOL    HW117891   1.959   3.731   7.420  3.0473  1.0778 -1.5926
 2086SOL    HW217892   2.066   3.816   7.473  0.1347  1.0861 -0.6961
 2087SOL     OW17893   3.819   1.711  12.983  0.3800 -0.2300  0.1486
 2087SOL    HW117894   3.851   1.641  12.927 -3.4385 -1.8384  0.0017
 2087SOL    HW217895   3.770   1.657  13.044 -0.5790  0.2911 -0.1603
 2088SOL     OW17896   1.287   3.911  12.405 -0.1761  0.2959  0.1194
 2088SOL    HW117897   1.230   3.887  12.332  0.2924  0.4643 -0.3055
 2088SOL    HW217898   1.317   3.822  12.426 -1.3595  0.0661  0.8046
 2089SOL     OW17899   3.049   4.202   8.444 -0.4657  0.5224 -0.2942
 2089SOL    HW117900   3.083   4.287   8.418  0.6370 -0.1107 -0.9343
 2089SOL    HW217901   3.061   4.151   8.363 -1.5890 -2.3802  1.3887
 2090SOL     OW17902   0.837   4.037   5.052 -0.3387  0.7554 -0.3226
 2090SOL    HW117903   0.797   4.093   4.985  1.4290  1.2590 -0.9443
 2090SOL    HW217904   0.855   3.955   5.006  1.6229  2.1451 -2.0509
 2091SOL     OW17905   1.105   2.375   9.513  0.3079  0.0015  0.1195
 2091SOL    HW117906   1.157   2.306   9.555 -2.6104 -1.5500  1.2162
 2091SOL    HW217907   1.173   2.425   9.468 -0.1848  0.1169 -0.4904
 2092SOL     OW17908   3.680   0.713   7.777 -0.1733  0.3835 -0.8530
 2092SOL    HW117909   3.705   0.709   7.685 -1.6779 -0.1950 -1.2373
 2092SOL    HW217910   3.765   0.711   7.820  0.0095  0.2894 -1.2226
 2093SOL     OW17911   0.433   3.140   2.133 -0.1642  0.1510 -0.4644
 2093SOL    HW117912   0.372   3.212   2.114 -0.3648 -0.5897 -2.6109
 2093SOL    HW217913   0.405   3.112   2.220  0.2959  2.3101  0.3953
 2094SOL     OW17914   3.900   1.672   3.693 -0.2434 -0.3540 -0.1325
 2094SOL    HW117915   3.889   1.762   3.723  1.1851 -0.8999  2.0775
 2094SOL    HW217916   3.944   1.690   3.610  1.6272  0.5992  1.0692
 2095SOL     OW17917   4.562   2.599  15.694 -1.1222 -0.4444 -0.8712
 2095SOL    HW117918   4.536   2.513  15.727 -1.0435 -0.9181 -2.0596
 2095SOL    HW217919   4.637   2.621  15.750  0.4124 -2.0498 -2.3005
 2096SOL     OW17920   2.618   4.663  10.096 -0.6749 -0.5315 -1.2326
 2096SOL    HW117921   2.653   4.574  10.096  0.0586 -0.2458  0.5802
 2096SOL    HW217922   2.540   4.633  10.143 -1.0895  1.3240 -0.7425
 2097SOL     OW17923   0.690   1.831   4.641 -0.0749  0.0800 -0.0395
 2097SOL    HW117924   0.623   1.768   4.665 -0.8087  2.0292  3.0135
 2097SOL    HW217925   0.744   1.839   4.720 -0.1113 -0.5123  0.0388
 2098SOL     OW17926   0.317   2.670   6.787  0.0022 -1.2315  0.4393
 2098SOL    HW117927   0.395   2.721   6.806 -1.3652  0.9196  0.2299
 2098SOL    HW217928   0.280   2.709   6.707  1.3716  1.0363  0.9405
 2099SOL     OW17929   2.220   4.008  17.591 -0.0475  0.1942 -0.1729
 2099SOL    HW117930   2.199   3.920  17.561 -0.6978  0.5141 -0.6770
 2099SOL    HW217931   2.165   4.025  17.667  1.5291 -0.2124  1.0410
 2100SOL     OW17932   4.143   3.734  13.461 -1.0363 -0.1341  0.2003
 2100SOL    HW117933   4.150   3.685  13.379  0.4842 -0.4419  0.5131
 2100SOL    HW217934   4.225   3.783  13.457  0.2564 -2.4569 -1.3819
 2101SOL     OW17935   2.902   3.274   6.916 -0.2261 -0.0660  0.0112
 2101SOL    HW117936   2.926   3.317   6.834  0.1675  1.4864  0.9582
 2101SOL    HW217937   2.949   3.191   6.905 -0.5001 -0.4125  1.3796
 2102SOL     OW17938   2.035   2.773   2.415  0.1256  0.4926  0.5995
 2102SOL    HW117939   2.009   2.784   2.507 -0.3142 -0.8845  0.6381
 2102SOL    HW217940   2.099   2.707   2.444 -1.1684  0.1223  2.6364
 2103SOL     OW17941   4.464   2.005  14.102  0.2646  0.2008 -0.4360
 2103SOL    HW117942   4.477   1.913  14.126  2.2283  0.2388 -1.3136
 2103SOL    HW217943   4.475   2.050  14.186  1.1165  0.9561 -0.9394
 2104SOL     OW17944   1.261   0.196  16.021 -0.1156  0.1987  0.0135
 2104SOL    HW117945   1.288   0.149  16.099  2.1190 -0.3293 -1.0870
 2104SOL    HW217946   1.215   0.264  16.072 -0.0382 -2.1029  3.1288
 2105SOL     OW17947   3.088   0.366   7.800  0.0295  0.1299 -0.2222
 2105SOL    HW117948   3.014   0.357   7.740  0.6501 -0.0849 -0.9421
 2105SOL    HW217949   3.125   0.450   7.773 -3.1985  2.8206  3.5308
 2106SOL     OW17950   0.446   0.447  15.919 -0.2549 -0.8648 -0.8259
 2106SOL    HW117951   0.501   0.418  15.992  0.1018 -1.7464 -1.4441
 2106SOL    HW217952   0.381   0.496  15.970 -0.4096 -1.2157 -0.6875
 2107SOL     OW17953   3.244   1.007   6.078 -0.0937  0.2728 -0.1291
 2107SOL    HW117954   3.231   1.022   6.171  1.1838  0.6868 -0.0195
 2107SOL    HW217955   3.183   1.077   6.056  0.0663  0.1665 -0.9128
 2108SOL     OW17956   3.977   1.489  17.375 -0.7185  0.0874 -0.0605
 2108SOL    HW117957   3.900   1.539  17.401 -0.5316  0.8884 -1.0795
 2108SOL    HW217958   4.053   1.532  17.416  0.0550 -1.3346 -0.0021
 2109SOL     OW17959   3.443   2.809  10.314  0.1408 -0.2161 -0.2567
 2109SOL    HW117960   3.469   2.717  10.311  0.8227 -0.0475  0.7129
 2109SOL    HW217961   3.384   2.823  10.240 -0.7337  1.4465  0.7671
 2110SOL     OW17962   0.601   2.596   9.371 -0.5122 -0.6023 -0.3237
 2110SOL    HW117963   0.655   2.591   9.292 -1.4097  0.1897 -0.9764
 2110SOL    HW217964   0.666   2.585   9.441 -1.8852 -0.1769  1.0118
 2111SOL     OW17965   1.185   3.064   2.972 -0.5941 -0.7210 -0.6178
 2111SOL    HW117966   1.096   3.040   3.001 -0.0559 -0.6711  1.1051
 2111SOL    HW217967   1.242   3.012   3.028  0.8514  0.3729 -1.0631
 2112SOL     OW17968   0.254   2.020  14.576  0.4377 -0.7516  0.1023
 2112SOL    HW117969   0.276   2.077  14.650 -0.8212  0.9187 -0.8009
 2112SOL    HW217970   0.321   2.051  14.516  0.2378 -1.2614 -0.3806
 2113SOL     OW17971   3.895   1.425  11.764  0.1422  0.2864  0.4390
 2113SOL    HW117972   3.890   1.517  11.739 -0.1077  0.2669  0.4231
 2113SOL    HW217973   3.822   1.378  11.725  1.8382 -0.4011 -1.9073
 2114SOL     OW17974   2.992   4.101   0.348 -0.1922 -0.1608  0.8304
 2114SOL    HW117975   3.042   4.023   0.370  0.3454  0.4870  1.8950
 2114SOL    HW217976   2.921   4.090   0.411 -1.2548  0.7639 -0.1954
 2115SOL     OW17977   0.993   0.627   3.860 -0.0467 -0.7753  0.3619
 2115SOL    HW117978   0.952   0.540   3.855 -3.7084  0.9392  1.1725
 2115SOL    HW217979   0.957   0.666   3.780 -2.0906  1.7349  2.5460
 2116SOL     OW17980   3.182   3.689   8.168  0.4141  0.3258  0.1996
 2116SOL    HW117981   3.090   3.691   8.141  0.4044 -0.7641  0.1713
 2116SOL    HW217982   3.164   3.683   8.262 -1.3295  2.5359  0.0032
 2117SOL     OW17983   3.271   1.474   7.108 -0.5846  1.1140  0.4099
 2117SOL    HW117984   3.331   1.473   7.033 -0.8640 -2.1950  0.2233
 2117SOL    HW217985   3.195   1.520   7.072 -0.3196  0.4141 -1.0421
 2118SOL     OW17986   4.500   3.537   5.309  0.1108  0.1082 -0.3883
 2118SOL    HW117987   4.505   3.606   5.244 -1.5222  0.6606  0.0591
 2118SOL    HW217988   4.591   3.517   5.330  0.8166  2.8383 -0.8902
 2119SOL     OW17989   0.152   0.108  16.362  0.6948  0.8173  0.2373
 2119SOL    HW117990   0.164   0.127  16.455 -2.3377 -0.8102  0.9605
 2119SOL    HW217991   0.113   0.188  16.327  1.2819  1.1100  0.2506
 2120SOL     OW17992   2.373   1.690   6.746 -0.2006 -0.0750  0.0444
 2120SOL    HW117993   2.329   1.748   6.807  1.8883 -0.2350  1.6972
 2120SOL    HW217994   2.369   1.608   6.796 -0.9423  0.7291  1.3017
 2121SOL     OW17995   0.998   2.011   1.475 -0.3772 -0.8066 -0.0663
 2121SOL    HW117996   0.937   2.085   1.476  0.2581 -0.2953  2.0373
 2121SOL    HW217997   1.035   2.007   1.387  1.6976 -2.7772  0.9038
 2122SOL     OW17998   3.569   3.039   7.331 -0.1692 -0.4340  0.7240
 2122SOL    HW117999   3.524   3.109   7.284  0.4017 -0.2683  0.4280
 2122SOL    HW218000   3.491   2.995   7.365 -0.7299  1.3355  1.6875
 2123SOL     OW18001   4.016   1.938   3.465  0.3377 -0.2820  0.2824
 2123SOL    HW118002   3.980   1.948   3.553 -2.2003 -0.4885 -0.7486
 2123SOL    HW218003   4.003   1.846   3.445  1.5461 -0.0930 -1.4725
 2124SOL     OW18004   1.531   0.271   5.062 -0.3916  0.7677 -0.5978
 2124SOL    HW118005   1.599   0.253   4.997  1.2182 -0.3711  1.4199
 2124SOL    HW218006   1.524   0.185   5.102 -0.3954  1.3084  0.5564
 2125SOL     OW18007   3.712   3.856   7.172 -0.4417  0.4781  0.2322
 2125SOL    HW118008   3.735   3.949   7.168  1.3758 -0.0023 -0.1998
 2125SOL    HW218009   3.669   3.844   7.087 -2.0281 -0.0785  1.1088
 2126SOL     OW18010   1.340   1.260   9.139  0.3360  0.3425  0.4698
 2126SOL    HW118011   1.297   1.268   9.054 -0.3168 -1.2320  0.6552
 2126SOL    HW218012   1.412   1.198   9.130  1.3363  1.5628  0.0145
 2127SOL     OW18013   1.475   3.558   2.109 -0.3690  0.1561  0.5032
 2127SOL    HW118014   1.505   3.472   2.082 -1.2964  0.5402 -1.7555
 2127SOL    HW218015   1.453   3.599   2.026  0.9749  0.1805  0.1614
 2128SOL     OW18016   3.788   0.131  10.303  0.0011 -0.4140  0.5205
 2128SOL    HW118017   3.810   0.083  10.384 -0.0465  0.2588  0.9290
 2128SOL    HW218018   3.849   0.099  10.236 -0.8694 -2.2913  0.6245
 2129SOL     OW18019   2.280   2.602  13.496 -0.6514 -0.4105  0.3018
 2129SOL    HW118020   2.247   2.553  13.420 -1.9471  2.6534 -1.1043
 2129SOL    HW218021   2.287   2.692  13.464  0.1399 -0.3216  0.7096
 2130SOL     OW18022   1.667   4.249   7.254 -0.7911  0.1393  0.3051
 2130SOL    HW118023   1.592   4.295   7.217 -1.0947 -0.0600  0.6822
 2130SOL    HW218024   1.722   4.325   7.275  0.6885 -0.1724 -2.4096
 2131SOL     OW18025   2.678   4.395  17.531  0.3524 -0.0558 -0.3992
 2131SOL    HW118026   2.619   4.469  17.548  2.1531  1.6998 -1.7964
 2131SOL    HW218027   2.652   4.338  17.603  1.0152  0.2402  0.0768
 2132SOL     OW18028   0.565   2.067   5.186  0.1211 -0.1807 -0.1741
 2132SOL    HW118029   0.654   2.099   5.171  0.9787 -2.1661  0.6855
 2132SOL    HW218030   0.583   1.995   5.247 -0.9498  1.5753  2.2180
 2133SOL     OW18031   3.029   3.820   5.153  0.0204  0.2798 -0.0044
 2133SOL    HW118032   3.063   3.884   5.216 -1.0349 -0.4222  1.2628
 2133SOL    HW218033   2.999   3.883   5.088 -1.6737 -1.7609 -1.1679
 2134SOL     OW18034   2.309   4.529  15.933 -0.5547  0.3423  0.7156
 2134SOL    HW118035   2.248   4.601  15.915  1.6923  2.2382  0.7985
 2134SOL    HW218036   2.246   4.459  15.949  0.0786 -0.5614 -0.8371
 2135SOL     OW18037   4.696   0.745   7.752  0.1399  0.3194 -0.3194
 2135SOL    HW118038   4.615   0.694   7.750 -0.0758  0.6747 -0.9193
 2135SOL    HW218039   4.736   0.699   7.826  1.0195  0.8480 -0.4721
 2136SOL     OW18040   4.606   0.138   7.599 -0.1023 -0.5956  0.3100
 2136SOL    HW118041   4.534   0.096   7.647  1.4286 -1.3506  1.9257
 2136SOL    HW218042   4.676   0.086   7.639 -1.0882 -0.5581  2.0933
 2137SOL     OW18043   1.111   1.636  10.364 -0.0853  0.0321 -0.1115
 2137SOL    HW118044   1.060   1.600  10.292 -1.1891 -1.0964  1.2255
 2137SOL    HW218045   1.124   1.725  10.333 -2.0148 -1.2234 -4.3876
 2138SOL     OW18046   3.815   2.993   9.536  0.2233 -0.1926 -0.0681
 2138SOL    HW118047   3.768   2.926   9.487 -0.6524  0.6932 -0.4492
 2138SOL    HW218048   3.808   3.075   9.486 -0.8910 -0.0104  0.3962
 2139SOL     OW18049   0.567   2.302   7.536 -0.3010 -0.2977  0.3151
 2139SOL    HW118050   0.531   2.306   7.447  1.3606  0.2577 -0.3331
 2139SOL    HW218051   0.656   2.334   7.519 -0.8379  2.3309  2.5687
 2140SOL     OW18052   1.641   0.593   9.770  0.6624 -0.0461 -0.2319
 2140SOL    HW118053   1.734   0.575   9.753  0.5016 -0.3646 -0.7729
 2140SOL    HW218054   1.629   0.576   9.864  0.5718  0.9726 -0.0646
 2141SOL     OW18055   2.227   3.833  12.967  0.6660  0.3067  0.2368
 2141SOL    HW118056   2.215   3.927  12.956 -1.5916  0.1829  1.8370
 2141SOL    HW218057   2.203   3.829  13.059  2.1876 -0.0632  0.6253
 2142SOL     OW18058   4.047   3.983  15.435 -0.1141 -0.2085  0.0521
 2142SOL    HW118059   3.962   3.974  15.478 -0.0959  0.5169  0.2301
 2142SOL    HW218060   4.031   3.924  15.361  0.3899  1.5322 -1.4370
 2143SOL     OW18061   3.605   3.157   7.693 -0.2574 -0.0188 -0.0981
 2143SOL    HW118062   3.538   3.183   7.757  2.4705  0.3124  2.6325
 2143SOL    HW218063   3.584   3.063   7.686 -0.9997  0.3323 -2.4572
 2144SOL     OW18064   1.756   3.943   4.542  0.7085 -0.4079  0.1000
 2144SOL    HW118065   1.844   3.909   4.527  1.5548  1.7806  0.1348
 2144SOL    HW218066   1.742   3.910   4.630  0.7061 -1.4763 -0.2997
 2145SOL     OW18067   3.771   3.124   8.437  0.1026  0.0345  0.6060
 2145SOL    HW118068   3.831   3.141   8.510  2.4126 -1.3125 -0.9630
 2145SOL    HW218069   3.722   3.206   8.432 -0.5568 -0.3854  0.1724
 2146SOL     OW18070   1.383   2.473   6.340 -0.3332  0.0345 -0.2958
 2146SOL    HW118071   1.361   2.478   6.247  1.1673  0.8234 -0.6007
 2146SOL    HW218072   1.445   2.401   6.327 -0.0919 -0.2460  2.2946
 2147SOL     OW18073   0.579   4.672  13.531  0.0005  0.0978  0.1738
 2147SOL    HW118074   0.548   4.582  13.521  2.6791 -0.6552 -1.3113
 2147SOL    HW218075   0.508   4.706  13.585 -0.9533 -0.5109 -0.7000
 2148SOL     OW18076   1.153   1.782   5.775  0.1905  0.3818 -0.4718
 2148SOL    HW118077   1.071   1.745   5.742  0.1842  0.1491 -0.1935
 2148SOL    HW218078   1.138   1.877   5.771 -0.0698  0.4395  2.3008
 2149SOL     OW18079   0.199   4.214   0.826 -0.1464  0.5460 -0.2026
 2149SOL    HW118080   0.201   4.299   0.781 -0.7338  1.1048  0.8281
 2149SOL    HW218081   0.118   4.227   0.875  0.3268 -0.8650  0.9446
 2150SOL     OW18082   1.779   3.953   5.537 -0.2513  0.3007  0.2600
 2150SOL    HW118083   1.824   3.992   5.611  1.5572  1.4512 -1.4474
 2150SOL    HW218084   1.687   3.973   5.556  0.8449  3.6218  1.9558
 2151SOL     OW18085   4.705   4.199  17.423  0.2091  0.0488  0.4602
 2151SOL    HW118086   0.000   4.161  17.504  1.0350 -3.2101 -1.4388
 2151SOL    HW218087   4.662   4.281  17.448  0.8252  0.4224  0.3020
 2152SOL     OW18088   3.284   1.049  15.461 -0.0025 -0.2063  0.1994
 2152SOL    HW118089   3.329   1.124  15.499 -2.2413  0.7550  0.9932
 2152SOL    HW218090   3.270   0.997  15.541 -2.7221 -0.5148 -0.4507
 2153SOL     OW18091   1.350   4.169   3.605  0.4517 -0.2854  0.0116
 2153SOL    HW118092   1.435   4.127   3.611  0.8574  0.9202  2.6295
 2153SOL    HW218093   1.296   4.090   3.619 -0.1753  0.7944  3.7240
 2154SOL     OW18094   0.539   1.191   5.938  0.3101 -0.1174 -0.1120
 2154SOL    HW118095   0.575   1.107   5.911 -0.3286 -0.9630  1.6306
 2154SOL    HW218096   0.449   1.185   5.907 -0.6165 -2.0546  2.9486
 2155SOL     OW18097   0.174   4.584  16.516  0.0627  0.2754 -0.3199
 2155SOL    HW118098   0.188   4.629  16.599 -1.3291  0.3078 -0.1198
 2155SOL    HW218099   0.207   4.649  16.454  1.9640 -1.1349 -0.7927
 2156SOL     OW18100   3.844   0.694  11.071 -0.7920  0.1031  0.3956
 2156SOL    HW118101   3.820   0.787  11.065  0.1115  0.2544 -0.8366
 2156SOL    HW218102   3.779   0.661  11.009  0.7748  0.1230 -1.2624
 2157SOL     OW18103   3.059   0.429   1.629 -0.3084  0.1058 -0.0137
 2157SOL    HW118104   3.012   0.506   1.661 -0.7352  0.0257 -0.4498
 2157SOL    HW218105   3.018   0.360   1.681  1.1976 -0.9565 -0.2244
 2158SOL     OW18106   3.639   2.998   3.561 -0.5397  0.0904  0.3106
 2158SOL    HW118107   3.606   2.917   3.521  0.6410  0.7085 -1.9551
 2158SOL    HW218108   3.551   3.035   3.565 -1.2028 -1.4413  0.0464
 2159SOL     OW18109   2.708   1.255   8.978  0.0839 -0.5173  0.7741
 2159SOL    HW118110   2.793   1.225   8.946  0.4935 -0.0195  1.4106
 2159SOL    HW218111   2.687   1.319   8.910  0.0210 -1.4408 -0.0710
 2160SOL     OW18112   4.208   0.203  17.246 -0.1874 -0.5526 -0.2787
 2160SOL    HW118113   4.232   0.178  17.156 -1.0691  1.7810 -1.1540
 2160SOL    HW218114   4.154   0.125  17.260 -0.1061 -0.2363  1.7833
 2161SOL     OW18115   3.751   3.461  15.347  0.4919  0.8633 -0.1197
 2161SOL    HW118116   3.798   3.533  15.389 -0.1415  0.4316  1.3410
 2161SOL    HW218117   3.730   3.419  15.430 -0.6371 -0.4343 -1.0695
 2162SOL     OW18118   2.114   1.030  14.315  0.7233  0.2905 -0.7546
 2162SOL    HW118119   2.096   1.120  14.286  0.1716  1.3251  2.7497
 2162SOL    HW218120   2.181   1.010  14.250  0.4531  1.6644 -1.4661
 2163SOL     OW18121   1.983   3.606   0.968 -0.1095  0.3711 -0.5344
 2163SOL    HW118122   2.039   3.683   0.980 -0.8542  0.9494 -0.8285
 2163SOL    HW218123   1.899   3.626   1.010 -1.5454 -3.0820 -1.8391
 2164SOL     OW18124   3.554   4.706   9.736  0.5784  0.0131  0.0738
 2164SOL    HW118125   3.576   0.056   9.767  1.0008  0.3145 -1.0754
 2164SOL    HW218126   3.572   4.654   9.814  0.9014  0.6823  0.4568
 2165SOL     OW18127   0.697   0.757  13.318  0.2640  0.1172 -0.4401
 2165SOL    HW118128   0.781   0.742  13.361  0.5522  1.2803 -0.5896
 2165SOL    HW218129   0.637   0.746  13.392  0.1135 -0.0864 -0.5923
 2166SOL     OW18130   3.152   2.528   4.430  0.8676 -0.1371 -0.1917
 2166SOL    HW118131   3.213   2.576   4.486  1.5190  0.4767 -1.4308
 2166SOL    HW218132   3.200   2.539   4.347  0.4919  3.1231  0.0432
 2167SOL     OW18133   4.305   1.264   7.937  0.1640 -0.4132 -0.2571
 2167SOL    HW118134   4.342   1.195   7.883  0.8691  1.5732 -2.3335
 2167SOL    HW218135   4.248   1.206   7.987 -1.9696  0.4264 -1.7075
 2168SOL     OW18136   0.104   4.288   2.008 -0.1090 -0.0150 -0.2952
 2168SOL    HW118137   0.071   4.353   1.945 -1.3245  0.3056  0.6823
 2168SOL    HW218138   0.186   4.327   2.037  0.6882 -1.4358 -0.6120
 2169SOL     OW18139   4.727   1.085   6.264 -0.0629  0.0667 -0.4694
 2169SOL    HW118140   0.060   1.054   6.321  0.4724 -0.5385 -1.4642
 2169SOL    HW218141   0.025   1.061   6.178  1.5742 -1.6142  0.6664
 2170SOL     OW18142   0.832   1.852   3.264 -0.0405 -0.1173  0.0917
 2170SOL    HW118143   0.925   1.858   3.283  0.0790 -0.3900 -0.4112
 2170SOL    HW218144   0.819   1.936   3.219 -0.3142  0.5750  1.4279
 2171SOL     OW18145   0.939   2.975   4.103  0.2457  0.2173 -0.0386
 2171SOL    HW118146   0.879   3.030   4.152 -0.6166  1.5847 -2.6721
 2171SOL    HW218147   0.960   2.912   4.173 -1.9172  0.7165  1.0395
 2172SOL     OW18148   2.076   1.082   2.085  0.0633  0.5014  0.0242
 2172SOL    HW118149   2.126   1.091   2.167  0.2072  1.4500 -0.1671
 2172SOL    HW218150   2.052   0.989   2.092 -0.3591  0.6842  0.9463
 2173SOL     OW18151   3.604   1.731   3.474  0.5076 -0.7866 -0.2656
 2173SOL    HW118152   3.612   1.826   3.465 -0.4897 -0.9705 -3.0265
 2173SOL    HW218153   3.677   1.698   3.422 -1.1650 -1.7234 -1.9997
 2174SOL     OW18154   0.106   3.413   8.845  0.6257  0.0731  0.4875
 2174SOL    HW118155   0.179   3.471   8.867  2.4848 -1.8304 -0.6778
 2174SOL    HW218156   0.124   3.331   8.891 -1.3614 -0.7464 -0.2406
 2175SOL     OW18157   1.035   1.401  14.895  0.4856  0.1544 -0.3608
 2175SOL    HW118158   0.996   1.488  14.889  2.1702  0.9805  0.5028
 2175SOL    HW218159   1.010   1.370  14.982 -1.2745 -0.1524 -0.9802
 2176SOL     OW18160   1.563   4.503   6.972 -0.3188  0.3418 -0.9951
 2176SOL    HW118161   1.480   4.456   6.979 -1.2151  2.1363  0.6892
 2176SOL    HW218162   1.554   4.528   6.880  1.7384  1.4686 -0.8845
 2177SOL     OW18163   1.248   1.305   3.695 -0.3546  0.0501  0.3958
 2177SOL    HW118164   1.234   1.291   3.601  1.1304  2.7503 -0.2170
 2177SOL    HW218165   1.341   1.285   3.700 -0.1332  0.7271 -0.8132
 2178SOL     OW18166   2.301   0.150   9.090 -0.5838  0.2794 -0.5348
 2178SOL    HW118167   2.247   0.076   9.119  0.0543 -0.6434 -1.7303
 2178SOL    HW218168   2.377   0.094   9.074 -1.3501 -0.9959  0.2793
 2179SOL     OW18169   1.534   0.053   5.205  0.0936 -0.1072  0.2257
 2179SOL    HW118170   1.626   0.029   5.197  0.5378  1.7067 -0.0569
 2179SOL    HW218171   1.497   4.705   5.227  0.8504 -0.4791  0.0444
 2180SOL     OW18172   4.387   3.579  13.234  0.1963  0.3083 -0.2253
 2180SOL    HW118173   4.306   3.538  13.263  0.1383 -0.2638 -1.1806
 2180SOL    HW218174   4.355   3.662  13.200 -0.3143  0.6686  1.1553
 2181SOL     OW18175   3.723   2.153  12.232  0.1481  0.2642  0.5556
 2181SOL    HW118176   3.798   2.196  12.190 -1.2729  1.8100 -0.3881
 2181SOL    HW218177   3.715   2.211  12.308  0.0128  2.8563 -1.4427
 2182SOL     OW18178   1.124   4.258  15.534 -0.4123 -0.3251  0.0012
 2182SOL    HW118179   1.060   4.198  15.573 -0.2213 -1.4322 -1.3957
 2182SOL    HW218180   1.115   4.228  15.443  2.4563  3.1732 -1.4656
 2183SOL     OW18181   0.940   4.018   9.121  0.2144 -0.2042 -0.2185
 2183SOL    HW118182   1.020   3.979   9.157 -0.3398 -1.4539 -0.3546
 2183SOL    HW218183   0.959   4.014   9.027 -1.2575  0.3819 -0.5369
 2184SOL     OW18184   0.378   1.823   4.201 -0.3347  0.1433  0.3867
 2184SOL    HW118185   0.436   1.781   4.265 -0.7504 -0.5266  0.3251
 2184SOL    HW218186   0.292   1.839   4.241 -1.0854 -0.3482 -1.0563
 2185SOL     OW18187   0.887   2.111  13.761 -0.0573  0.1179  0.2260
 2185SOL    HW118188   0.828   2.127  13.687  0.4871 -0.1580 -0.2626
 2185SOL    HW218189   0.842   2.043  13.810 -0.7418  0.4653  0.0866
 2186SOL     OW18190   1.547   2.053   6.516  0.1322  0.1009 -0.2554
 2186SOL    HW118191   1.482   2.020   6.578 -2.0204  2.4303 -1.2799
 2186SOL    HW218192   1.589   1.971   6.488  1.4746  0.8938 -0.6124
 2187SOL     OW18193   3.888   4.505  15.836  0.0329 -0.0492 -0.7516
 2187SOL    HW118194   3.963   4.500  15.895 -0.5027  0.0479 -0.0619
 2187SOL    HW218195   3.920   4.562  15.767 -1.4454 -1.0424 -2.2516
 2188SOL     OW18196   2.660   1.859   0.035 -0.0806  0.6327  0.5558
 2188SOL    HW118197   2.707   1.906  17.717  0.0345  0.2600  0.3786
 2188SOL    HW218198   2.585   1.918   0.044 -1.1340 -0.4123 -1.2611
 2189SOL     OW18199   3.454   3.742  12.897 -0.6354  0.0713  0.0525
 2189SOL    HW118200   3.437   3.724  12.989  0.2673 -0.0291  0.1983
 2189SOL    HW218201   3.384   3.696  12.851  0.0141 -1.7403  0.8949
 2190SOL     OW18202   4.341   1.925   2.008 -0.1949 -0.1027 -0.0747
 2190SOL    HW118203   4.310   1.839   1.980 -1.2117 -0.2078  1.3375
 2190SOL    HW218204   4.353   1.894   2.098 -1.7172 -2.4380 -0.6671
 2191SOL     OW18205   0.700   0.639   0.611  0.6441  0.4947  0.0113
 2191SOL    HW118206   0.741   0.629   0.697 -1.5054 -0.1243  0.9670
 2191SOL    HW218207   0.743   0.571   0.559  2.5047  0.2579  1.8213
 2192SOL     OW18208   2.138   0.442   9.420 -0.0061 -0.4402 -0.0910
 2192SOL    HW118209   2.201   0.375   9.396 -0.1328 -0.7103  0.3427
 2192SOL    HW218210   2.109   0.478   9.336  0.3095  1.1931  0.4890
 2193SOL     OW18211   3.086   1.136   2.299 -0.2270  0.0916  0.3320
 2193SOL    HW118212   3.157   1.110   2.358  0.1965  0.0562 -0.1920
 2193SOL    HW218213   3.136   1.173   2.226  0.1338  0.9056  1.0014
 2194SOL     OW18214   2.482   1.896   3.194 -0.7960  0.0667  0.2562
 2194SOL    HW118215   2.545   1.939   3.252  1.8526 -0.3884 -2.3196
 2194SOL    HW218216   2.519   1.808   3.191  0.8658  0.8554 -1.9935
 2195SOL     OW18217   2.624   3.824  11.455  0.4929 -0.5197  0.3422
 2195SOL    HW118218   2.576   3.897  11.416 -1.5060 -1.2867  1.4032
 2195SOL    HW218219   2.698   3.873  11.491  0.7925 -0.9963  0.3802
 2196SOL     OW18220   3.737   1.315  15.907  0.1513 -0.0053 -0.1169
 2196SOL    HW118221   3.773   1.382  15.965  1.1187 -0.2659 -0.4133
 2196SOL    HW218222   3.672   1.366  15.858 -0.8411 -1.5762 -0.4393
 2197SOL     OW18223   4.559   0.984   5.903  0.3164 -0.0401  0.2342
 2197SOL    HW118224   4.647   1.009   5.876  0.0136  2.5409  1.6588
 2197SOL    HW218225   4.511   1.057   5.863  0.6797 -0.0803 -0.2838
 2198SOL     OW18226   4.449   3.081   3.058  0.0660  0.1931 -0.3605
 2198SOL    HW118227   4.479   2.996   3.090 -0.9773  0.9854  2.7022
 2198SOL    HW218228   4.382   3.054   2.995 -0.6095  1.7891 -0.3315
 2199SOL     OW18229   3.802   4.228   1.274  0.5861  0.8762 -0.5044
 2199SOL    HW118230   3.760   4.153   1.315  3.1727  0.2029  0.8926
 2199SOL    HW218231   3.738   4.246   1.205 -0.4410 -1.2824 -0.1084
 2200SOL     OW18232   3.525   0.200   7.301 -0.2148  0.0499 -0.3596
 2200SOL    HW118233   3.442   0.181   7.345  0.9402  0.1615  1.8876
 2200SOL    HW218234   3.592   0.159   7.356  0.5009  1.3561 -0.2597
 2201SOL     OW18235   3.181   4.398  12.242 -0.5608  0.6451 -0.0379
 2201SOL    HW118236   3.210   4.389  12.333 -1.1016  2.2421  0.2935
 2201SOL    HW218237   3.086   4.409  12.248 -0.7115 -0.3618 -0.5538
 2202SOL     OW18238   2.977   4.090  10.434 -0.4668  0.3521  0.2723
 2202SOL    HW118239   3.015   4.059  10.516 -1.3531  0.1080  0.5859
 2202SOL    HW218240   3.035   4.039  10.377  0.1764  2.1093 -0.6642
 2203SOL     OW18241   0.313   3.807   6.851  0.3603  0.2897  0.0789
 2203SOL    HW118242   0.246   3.870   6.878  1.1342  1.5434 -0.9145
 2203SOL    HW218243   0.335   3.837   6.763 -0.4587  2.3525  0.5888
 2204SOL     OW18244   4.733   4.285   4.906  0.3059 -0.6169  0.3487
 2204SOL    HW118245   0.064   4.239   4.859  0.8431 -0.2327  0.7721
 2204SOL    HW218246   0.049   4.327   4.972  0.3697  0.1286 -0.1747
 2205SOL     OW18247   3.830   2.747   7.987 -0.2127 -0.3803  0.5427
 2205SOL    HW118248   3.778   2.755   8.067  0.2710  0.1287  0.8173
 2205SOL    HW218249   3.849   2.654   7.975 -2.8569 -0.5156 -2.5026
 2206SOL     OW18250   2.900   1.901   8.475  0.3499 -0.0393  1.4710
 2206SOL    HW118251   2.909   1.864   8.387 -0.1302  1.4821  0.7717
 2206SOL    HW218252   2.881   1.819   8.520  1.5513  0.8397  3.5820
 2207SOL     OW18253   1.213   1.273   2.647 -0.0673  0.1147 -0.5810
 2207SOL    HW118254   1.188   1.359   2.683  0.5276 -0.0772  0.2862
 2207SOL    HW218255   1.290   1.294   2.594 -0.6751  0.2417 -1.4050
 2208SOL     OW18256   2.043   2.674   5.915 -0.1659 -0.7263 -0.0599
 2208SOL    HW118257   1.966   2.630   5.953  0.6087 -1.0163  1.1725
 2208SOL    HW218258   2.027   2.762   5.950  2.0678 -0.4328  0.2106
 2209SOL     OW18259   1.935   3.143   9.010 -0.2681  0.3511 -0.4770
 2209SOL    HW118260   1.976   3.230   9.008  0.2735  0.0884 -1.1726
 2209SOL    HW218261   1.844   3.171   9.005 -0.7625 -1.1319  0.5769
 2210SOL     OW18262   2.020   1.446   8.283 -0.3558 -0.3862 -0.2551
 2210SOL    HW118263   2.115   1.448   8.284 -0.2909 -3.2269 -0.6275
 2210SOL    HW218264   1.999   1.376   8.221 -0.7473  1.0644 -1.7580
 2211SOL     OW18265   1.573   3.454   6.102  0.0711  0.4209  0.2485
 2211SOL    HW118266   1.585   3.426   6.193 -2.6206 -2.7248 -0.3741
 2211SOL    HW218267   1.530   3.379   6.060 -0.4219  0.8769 -0.0535
 2212SOL     OW18268   2.042   0.713   2.593  0.2147 -0.0147  0.2391
 2212SOL    HW118269   1.987   0.643   2.630  0.0156  0.8493  1.5725
 2212SOL    HW218270   2.121   0.709   2.648  0.3308 -0.3493  0.0466
 2213SOL     OW18271   1.405   4.301   8.796  0.1988 -0.4218  0.6129
 2213SOL    HW118272   1.472   4.260   8.742  1.1596  0.7688  0.9053
 2213SOL    HW218273   1.447   4.315   8.880  1.6833 -1.4902  0.0532
 2214SOL     OW18274   4.171   4.670  15.814 -0.3419 -1.1964 -0.3484
 2214SOL    HW118275   4.254   4.705  15.847 -1.3771  0.4026  0.5801
 2214SOL    HW218276   4.141   4.621  15.891  0.7125  0.1348  0.9090
 2215SOL     OW18277   2.896   1.796   8.241 -0.7076  0.3614  0.2805
 2215SOL    HW118278   2.907   1.818   8.149  0.6890  0.1183  0.3906
 2215SOL    HW218279   2.948   1.716   8.247  2.2677  2.1404 -1.9010
 2216SOL     OW18280   0.760   4.727   2.421  0.5528  0.0340 -0.1416
 2216SOL    HW118281   0.778   0.066   2.475  1.9504  0.4677 -1.2341
 2216SOL    HW218282   0.851   4.714   2.393  0.1766 -0.8755 -0.9414
 2217SOL     OW18283   1.995   0.494  16.786 -0.0694  0.7451  0.4342
 2217SOL    HW118284   1.937   0.423  16.815  1.0474 -0.2120  0.2957
 2217SOL    HW218285   2.016   0.460  16.699 -0.8361 -0.4533  0.7094
 2218SOL     OW18286   3.323   3.999  16.059 -0.1089  0.0877  0.1177
 2218SOL    HW118287   3.312   4.074  16.117  0.4138  1.3477 -1.4008
 2218SOL    HW218288   3.378   4.034  15.989  1.3651  0.0311  1.2484
 2219SOL     OW18289   3.996   4.320  16.204 -0.0459  0.0947  0.1564
 2219SOL    HW118290   4.015   4.242  16.151  0.2493 -1.1068  2.0345
 2219SOL    HW218291   4.057   4.311  16.277  2.3893 -0.1987 -1.8984
 2220SOL     OW18292   2.815   1.274   7.467  0.1181 -0.2894 -0.1078
 2220SOL    HW118293   2.719   1.275   7.459 -0.0170  0.1466  1.5452
 2220SOL    HW218294   2.822   1.349   7.526 -0.8922 -0.9040  0.8007
 2221SOL     OW18295   4.467   0.592   4.641  0.3577 -0.2317 -0.0424
 2221SOL    HW118296   4.382   0.550   4.657 -0.3627  0.7971 -1.2371
 2221SOL    HW218297   4.515   0.513   4.616 -2.8000 -2.5113  1.0619
 2222SOL     OW18298   4.318   3.382   6.104  0.0092 -0.3217  0.2942
 2222SOL    HW118299   4.251   3.423   6.158  0.6765  2.1386 -0.7273
 2222SOL    HW218300   4.271   3.333   6.037  1.7870 -0.1606 -1.0818
 2223SOL     OW18301   4.714   2.995  10.619 -0.1600 -0.4116 -0.4616
 2223SOL    HW118302   4.691   2.938  10.692  0.2547  0.1113  0.0816
 2223SOL    HW218303   4.697   3.080  10.660 -2.1085 -1.1231  0.1849
 2224SOL     OW18304   2.309   3.352  10.572 -0.0353 -0.3148  0.1830
 2224SOL    HW118305   2.369   3.284  10.539 -2.1573 -1.6508 -0.9145
 2224SOL    HW218306   2.376   3.419  10.586 -1.6539  1.2422  0.3079
 2225SOL     OW18307   4.026   3.260   2.618 -0.5584  0.5653 -0.4613
 2225SOL    HW118308   4.121   3.257   2.612 -0.5433  1.6465 -0.7081
 2225SOL    HW218309   4.012   3.174   2.657 -0.9184  0.5993 -0.5157
 2226SOL     OW18310   1.003   0.932  10.977 -0.6600  0.0867  0.2116
 2226SOL    HW118311   0.977   1.021  11.000 -2.0169  0.2805 -2.0828
 2226SOL    HW218312   0.924   0.881  10.996 -1.3078  0.8109 -0.5493
 2227SOL     OW18313   2.994   1.568   7.769 -0.3612 -0.0449  0.1355
 2227SOL    HW118314   3.064   1.567   7.704  1.4210  0.6451  2.0422
 2227SOL    HW218315   3.036   1.510   7.833 -0.2815 -1.4534 -1.1930
 2228SOL     OW18316   1.076   2.914  15.580 -0.0396 -0.3464  0.3715
 2228SOL    HW118317   1.004   2.917  15.643 -0.3592 -1.0722  0.0328
 2228SOL    HW218318   1.142   2.963  15.630  0.1916  1.1802 -1.4501
 2229SOL     OW18319   2.435   0.156   8.391  0.2525  0.0222  0.4350
 2229SOL    HW118320   2.481   0.073   8.398 -0.4146 -0.2711  1.4505
 2229SOL    HW218321   2.507   0.217   8.376 -0.0823  0.1979 -0.4636
 2230SOL     OW18322   4.207   4.725   9.852  0.0637 -0.3017 -0.0712
 2230SOL    HW118323   4.246   4.641   9.877  0.3307 -0.4218 -0.8749
 2230SOL    HW218324   4.121   4.723   9.894  1.1033  0.1902  2.0666
 2231SOL     OW18325   3.790   1.765   3.207 -0.6702 -0.3387 -0.6871
 2231SOL    HW118326   3.784   1.860   3.196 -0.3624 -0.2529 -0.1235
 2231SOL    HW218327   3.785   1.722   3.122 -2.4957 -1.6091  0.0551
 2232SOL     OW18328   3.175   4.509   2.426  0.0184 -0.2086 -0.4867
 2232SOL    HW118329   3.190   4.418   2.450  0.1965  0.0926  0.5288
 2232SOL    HW218330   3.193   4.555   2.508 -0.1025 -1.1881  0.0775
 2233SOL     OW18331   0.857   3.141   9.260 -0.1163  0.3952 -0.2364
 2233SOL    HW118332   0.802   3.085   9.316 -0.7837  0.3124 -0.9768
 2233SOL    HW218333   0.932   3.088   9.237 -0.9193 -0.5953 -0.5655
 2234SOL     OW18334   3.635   4.195   9.967 -0.3267  0.7666  0.5324
 2234SOL    HW118335   3.595   4.113   9.995 -2.3844  1.4431 -0.4142
 2234SOL    HW218336   3.561   4.252   9.945  1.0395  2.4214  0.1473
 2235SOL     OW18337   1.987   2.109   4.038 -0.6733  0.1421 -0.6221
 2235SOL    HW118338   2.059   2.145   4.089  0.3238  0.5873 -2.3148
 2235SOL    HW218339   2.025   2.022   4.026 -2.2337 -0.6459  0.1494
 2236SOL     OW18340   0.259   0.215   2.040 -0.4345  0.4314 -0.4032
 2236SOL    HW118341   0.176   0.246   2.003  0.1761 -0.0011 -2.1037
 2236SOL    HW218342   0.280   0.288   2.099 -3.1641  1.5673 -0.8114
 2237SOL     OW18343   1.270   3.776  11.692 -0.5860  0.3406  0.2790
 2237SOL    HW118344   1.225   3.847  11.645  0.2020  1.6267  1.4598
 2237SOL    HW218345   1.210   3.749  11.761  0.6060 -2.5867  0.1792
 2238SOL     OW18346   0.177   2.699  10.612 -0.0752  0.4767 -0.2679
 2238SOL    HW118347   0.164   2.631  10.546  0.1501 -2.6262  2.9323
 2238SOL    HW218348   0.095   2.693  10.662 -1.1206 -1.9862 -2.2798
 2239SOL     OW18349   1.010   1.845   0.744 -0.0789 -0.7719  0.1584
 2239SOL    HW118350   1.044   1.756   0.737 -0.1914 -0.5349 -3.0876
 2239SOL    HW218351   0.993   1.868   0.653 -0.6386 -0.7554  0.2688
 2240SOL     OW18352   0.769   4.375   4.632  0.1723  0.2622 -0.2240
 2240SOL    HW118353   0.791   4.465   4.607 -0.2980  0.4097 -0.1029
 2240SOL    HW218354   0.690   4.361   4.581 -0.0040 -0.1329  0.1608
 2241SOL     OW18355   0.046   1.774   7.869  0.0434 -0.5301 -0.2660
 2241SOL    HW118356   0.046   1.678   7.864 -2.1365 -0.3944 -2.5110
 2241SOL    HW218357   0.051   1.794   7.776 -1.8933  1.7743  0.1092
 2242SOL     OW18358   1.648   3.216   9.059  0.3444 -0.6056 -0.6243
 2242SOL    HW118359   1.649   3.295   9.005  0.2440  0.7326  1.2932
 2242SOL    HW218360   1.643   3.246   9.150  3.0753 -0.9422 -0.3574
 2243SOL     OW18361   0.524   2.115   5.865 -0.3667  0.4578  0.7523
 2243SOL    HW118362   0.466   2.189   5.883 -2.4933 -0.7223 -1.3641
 2243SOL    HW218363   0.607   2.149   5.899 -1.2043  1.4974  1.7754
 2244SOL     OW18364   3.910   2.966   9.199 -0.3338 -0.4435 -0.6877
 2244SOL    HW118365   3.960   3.014   9.265 -2.1411  0.1263  0.2476
 2244SOL    HW218366   3.820   2.985   9.225 -0.1959  0.5416 -0.9436
 2245SOL     OW18367   3.475   3.605   7.363  0.7517 -0.1417  0.0378
 2245SOL    HW118368   3.556   3.566   7.395  1.3045  2.5831  2.0149
 2245SOL    HW218369   3.472   3.573   7.273 -1.7210  0.8506 -0.2172
 2246SOL     OW18370   3.985   0.494   1.415  0.5285  0.5581 -0.7946
 2246SOL    HW118371   3.959   0.404   1.437 -0.5555  1.2842  0.9248
 2246SOL    HW218372   3.992   0.534   1.501  0.0993  2.8937 -1.8648
 2247SOL     OW18373   0.175   2.990  11.517 -0.2792  0.2362  0.2928
 2247SOL    HW118374   0.083   3.013  11.525 -0.5358 -0.3897 -0.9980
 2247SOL    HW218375   0.202   3.064  11.462 -1.2416 -0.1804 -0.7372
 2248SOL     OW18376   2.582   4.253  15.074 -0.4948 -0.3757 -0.3430
 2248SOL    HW118377   2.596   4.316  15.003  0.2963 -0.2801 -0.1006
 2248SOL    HW218378   2.623   4.175  15.037 -1.0000 -0.6323 -0.3630
 2249SOL     OW18379   0.382   4.608   2.446 -0.4513  0.0045 -0.1170
 2249SOL    HW118380   0.308   4.629   2.388 -0.2225 -0.5617 -0.6158
 2249SOL    HW218381   0.455   4.597   2.386  0.5590  1.0341  0.9387
 2250SOL     OW18382   1.470   0.609   9.104  0.1363 -0.3734 -0.1306
 2250SOL    HW118383   1.418   0.533   9.081 -1.7803  1.3797 -1.5618
 2250SOL    HW218384   1.414   0.684   9.124  0.2094 -0.8683  1.9437
 2251SOL     OW18385   1.118   2.258   6.150 -0.5747  0.1787 -0.1978
 2251SOL    HW118386   1.058   2.318   6.107 -1.0832 -0.9863 -1.1264
 2251SOL    HW218387   1.090   2.171   6.122  1.8637 -0.4568 -0.7016
 2252SOL     OW18388   0.325   1.059   4.518  0.1855  0.2383 -0.1011
 2252SOL    HW118389   0.415   1.030   4.504  0.4728  0.4665  1.3030
 2252SOL    HW218390   0.291   0.980   4.561  1.4150  1.9248  3.9381
 2253SOL     OW18391   0.128   4.688   1.778 -0.1763 -0.7145 -0.4037
 2253SOL    HW118392   0.101   4.621   1.716 -3.4237 -0.1020  0.3529
 2253SOL    HW218393   0.038   4.719   1.789 -0.7888 -2.5786 -0.2584
 2254SOL     OW18394   2.845   2.403  10.962 -0.4937 -0.2210  0.4520
 2254SOL    HW118395   2.774   2.468  10.962 -0.8912 -0.6616 -0.8597
 2254SOL    HW218396   2.804   2.331  10.915 -3.1761  0.3635  1.8725
 2255SOL     OW18397   4.547   0.339  11.351 -0.3720  0.3762  0.1856
 2255SOL    HW118398   4.555   0.418  11.298 -0.5662  0.7254  0.6812
 2255SOL    HW218399   4.471   0.301  11.306  0.9294 -0.7118 -1.0897
 2256SOL     OW18400   2.233   0.331   3.323 -0.3960  0.2598  0.1233
 2256SOL    HW118401   2.238   0.256   3.382 -0.1364  0.5791  0.5126
 2256SOL    HW218402   2.289   0.399   3.362  0.6979 -0.2067 -0.6449
 2257SOL     OW18403   4.009   4.417   5.502  0.9318  0.0790  0.1532
 2257SOL    HW118404   3.932   4.439   5.555 -0.9083 -2.0588 -1.6029
 2257SOL    HW218405   3.976   4.331   5.478  4.9187 -1.0146 -1.3931
 2258SOL     OW18406   1.398   0.854   2.718 -0.0873 -0.3675 -0.6369
 2258SOL    HW118407   1.438   0.929   2.761 -0.0226  0.8010 -2.7475
 2258SOL    HW218408   1.452   0.847   2.639  0.0810 -3.3031 -0.2660
 2259SOL     OW18409   3.309   0.636   6.096 -0.0259  0.1000  0.2964
 2259SOL    HW118410   3.332   0.640   6.004 -1.7826 -1.4342 -0.1955
 2259SOL    HW218411   3.385   0.685   6.128 -1.7840  3.5784 -0.7813
 2260SOL     OW18412   0.187   2.733  17.690 -0.4558 -0.2932 -0.3499
 2260SOL    HW118413   0.243   2.796  17.645  0.3725 -0.7539  0.0346
 2260SOL    HW218414   0.237   2.720   0.020  1.8561  0.3290 -1.6888
 2261SOL     OW18415   3.919   3.058   7.983  0.2413  0.5161  0.4664
 2261SOL    HW118416   3.873   3.040   8.065  0.3286 -0.5615  0.2898
 2261SOL    HW218417   3.985   2.990   8.001  1.8107  2.2791  1.3684
 2262SOL     OW18418   1.309   4.168   9.362 -0.2466 -0.0632  0.2117
 2262SOL    HW118419   1.290   4.160   9.455 -1.8542 -4.5874 -0.5259
 2262SOL    HW218420   1.334   4.260   9.366 -2.6589  0.6281 -0.5891
 2263SOL     OW18421   2.726   0.080  14.988 -0.2512  0.0392 -0.0020
 2263SOL    HW118422   2.655   0.018  14.973 -0.7220  0.9740 -1.5571
 2263SOL    HW218423   2.714   0.130  14.908  0.5923  1.5330  0.8041
 2264SOL     OW18424   3.755   0.104  16.166  0.5946 -0.1910 -0.0014
 2264SOL    HW118425   3.751   0.027  16.108 -0.8590  0.3373 -0.6097
 2264SOL    HW218426   3.683   0.076  16.223  1.6104 -1.1742  0.7831
 2265SOL     OW18427   3.701   1.657   5.551  0.1254  0.2198 -0.0641
 2265SOL    HW118428   3.788   1.683   5.520  0.4901  0.9496  1.5937
 2265SOL    HW218429   3.700   1.569   5.514  1.4999 -0.2295  0.9856
 2266SOL     OW18430   4.407   1.853  16.559 -0.1967  0.4100  0.1695
 2266SOL    HW118431   4.388   1.773  16.510  1.9883  0.6938 -1.1212
 2266SOL    HW218432   4.472   1.816  16.618 -1.7242  1.4235  2.4721
 2267SOL     OW18433   4.460   2.975   6.922  0.0568  0.1822 -0.3514
 2267SOL    HW118434   4.505   3.058   6.906 -1.7261  0.8352 -2.0474
 2267SOL    HW218435   4.528   2.914   6.894 -0.0838 -0.3599  0.4745
 2268SOL     OW18436   0.038   2.846   8.974 -0.1080 -0.2127 -0.3324
 2268SOL    HW118437   0.003   2.927   8.935  0.0821  0.4954  0.9750
 2268SOL    HW218438   0.012   2.860   9.065  1.6579 -2.9867  0.5646
 2269SOL     OW18439   2.973   4.331  12.523  0.2791 -0.0817  0.3483
 2269SOL    HW118440   2.906   4.324  12.591  0.6995 -0.5650  0.7086
 2269SOL    HW218441   2.943   4.257  12.469  0.1514  1.6088 -1.8810
 2270SOL     OW18442   1.585   2.153   0.652  0.1505 -0.4657  0.5797
 2270SOL    HW118443   1.497   2.128   0.621  0.4857 -0.5772 -0.2923
 2270SOL    HW218444   1.636   2.165   0.572 -1.1732  0.1147 -0.1746
 2271SOL     OW18445   2.116   2.794  11.144  0.0840  0.1586 -0.0057
 2271SOL    HW118446   2.036   2.799  11.092 -0.2730  2.5031  0.7905
 2271SOL    HW218447   2.082   2.814  11.231 -1.3989 -1.6361 -0.1730
 2272SOL     OW18448   1.534   1.928  10.877 -0.6134  0.3105  0.0997
 2272SOL    HW118449   1.542   2.007  10.931 -1.1914  2.0855 -2.4296
 2272SOL    HW218450   1.514   1.964  10.791 -1.7751 -3.5443 -1.1933
 2273SOL     OW18451   1.484   4.464   5.553  0.5463  0.0915 -0.3649
 2273SOL    HW118452   1.521   4.541   5.597 -0.8782 -1.0544  2.8598
 2273SOL    HW218453   1.440   4.509   5.481 -2.4890 -2.2070  0.0682
 2274SOL     OW18454   2.373   1.902  15.746  0.1792 -0.0813 -0.5354
 2274SOL    HW118455   2.459   1.862  15.735  0.9710  1.7249 -0.8331
 2274SOL    HW218456   2.389   1.979  15.800  1.2011 -2.6734  2.7953
 2275SOL     OW18457   1.881   0.678   5.133  0.1493 -0.3471 -0.1732
 2275SOL    HW118458   1.924   0.752   5.091 -1.6353 -0.0167 -1.4413
 2275SOL    HW218459   1.789   0.700   5.118  0.5394  1.3955 -0.0606
 2276SOL     OW18460   2.957   2.093  16.193 -0.3563  0.4986 -0.3376
 2276SOL    HW118461   2.891   2.069  16.128  1.5217  0.7210 -2.3415
 2276SOL    HW218462   2.923   2.182  16.204 -0.6691  0.5071 -1.3397
 2277SOL     OW18463   0.376   1.225   4.726 -0.2054 -0.2697  0.1782
 2277SOL    HW118464   0.359   1.161   4.658  1.1635  0.2891 -0.6834
 2277SOL    HW218465   0.382   1.160   4.796 -2.3052 -1.4910 -0.7948
 2278SOL     OW18466   1.744   4.718   4.865  0.2986  0.0427  0.1776
 2278SOL    HW118467   1.797   4.650   4.825 -3.7883 -2.4440 -0.9709
 2278SOL    HW218468   1.802   0.056   4.864  1.1487 -0.6397 -1.0895
 2279SOL     OW18469   2.980   3.999   9.043 -0.5781  0.1597  0.5221
 2279SOL    HW118470   2.938   4.057   8.979  2.1248  2.8409  1.1649
 2279SOL    HW218471   2.937   3.916   9.026  0.1348 -0.4439  1.6518
 2280SOL     OW18472   2.247   1.543   2.343  0.2025  0.2603 -0.7563
 2280SOL    HW118473   2.190   1.599   2.290 -1.5104  0.0594  0.8508
 2280SOL    HW218474   2.191   1.545   2.421  0.8620 -2.4941 -0.1829
 2281SOL     OW18475   1.756   2.856   7.928 -0.7367  0.5485 -0.1307
 2281SOL    HW118476   1.713   2.941   7.939  0.5258  0.9462  1.5445
 2281SOL    HW218477   1.827   2.886   7.871  1.4985 -1.4532  1.6460
 2282SOL     OW18478   2.861   4.170   3.495 -0.5610  0.2223 -0.4818
 2282SOL    HW118479   2.883   4.206   3.409 -2.2841  0.2892 -0.8976
 2282SOL    HW218480   2.773   4.201   3.513 -0.5287  0.7961 -1.3070
 2283SOL     OW18481   1.223   4.236   3.928  0.4957 -0.6299  0.5156
 2283SOL    HW118482   1.179   4.162   3.969  0.4688  0.1037  1.8094
 2283SOL    HW218483   1.217   4.301   3.998  0.1123 -0.9457  0.7669
 2284SOL     OW18484   3.823   3.299  13.311 -0.4423 -0.1843  0.3117
 2284SOL    HW118485   3.858   3.366  13.369 -0.4678  1.0697 -1.1170
 2284SOL    HW218486   3.866   3.224  13.350 -2.4668 -1.8951 -0.7345
 2285SOL     OW18487   1.075   3.772  11.327 -0.4219  0.2725 -0.6035
 2285SOL    HW118488   1.061   3.687  11.368 -2.8696  0.4464 -1.0698
 2285SOL    HW218489   1.070   3.832  11.401  1.0285  1.1451 -1.2057
 2286SOL     OW18490   4.514   3.904   7.937  0.1190 -0.1851  0.2859
 2286SOL    HW118491   4.558   3.840   7.880 -1.4239  0.0181 -1.1135
 2286SOL    HW218492   4.593   3.956   7.953 -0.2648  1.1866 -2.3008
 2287SOL     OW18493   2.136   3.955   4.056 -0.0795 -0.2395  0.0429
 2287SOL    HW118494   2.092   4.000   3.984 -3.7041 -1.0255  1.7671
 2287SOL    HW218495   2.214   4.010   4.066 -0.4075  0.6215 -2.0226
 2288SOL     OW18496   2.086   0.363   5.843 -0.4732 -0.0635 -0.1135
 2288SOL    HW118497   2.144   0.288   5.858 -0.9692 -0.5211 -0.5043
 2288SOL    HW218498   2.054   0.367   5.933 -0.6872 -1.5982 -0.1174
 2289SOL     OW18499   1.294   2.401   2.865  0.6415 -0.2510  0.5428
 2289SOL    HW118500   1.379   2.429   2.899 -0.7398  0.9318  3.0513
 2289SOL    HW218501   1.297   2.311   2.900  1.0579 -0.7394 -0.7648
 2290SOL     OW18502   3.363   1.571   2.106 -0.4772 -0.1603 -0.6428
 2290SOL    HW118503   3.458   1.577   2.094 -0.5518 -0.5190 -1.4255
 2290SOL    HW218504   3.359   1.560   2.201 -1.6380  0.4743 -0.6235
 2291SOL     OW18505   1.363   1.700   7.491 -0.3460  0.6328  0.5600
 2291SOL    HW118506   1.356   1.788   7.528 -0.1917  0.7151  0.3932
 2291SOL    HW218507   1.437   1.719   7.434 -0.7263 -0.2507 -0.2310
 2292SOL     OW18508   0.268   2.490   4.603  0.6065 -0.3063 -0.2124
 2292SOL    HW118509   0.205   2.429   4.565  0.9490  0.5831 -2.2182
 2292SOL    HW218510   0.330   2.431   4.648  0.3477 -2.2675 -2.4257
 2293SOL     OW18511   1.377   3.555   3.083 -0.6531  0.1744 -0.1104
 2293SOL    HW118512   1.288   3.527   3.062 -1.3944  1.4196  1.3971
 2293SOL    HW218513   1.420   3.477   3.049 -0.2476 -0.3573  1.6317
 2294SOL     OW18514   2.799   2.134   8.601  0.0935 -0.3645 -0.1202
 2294SOL    HW118515   2.850   2.055   8.586 -1.2304 -1.2739  0.1639
 2294SOL    HW218516   2.858   2.199   8.638 -1.2564  0.2532  0.9477
 2295SOL     OW18517   2.515   2.610  14.967  0.2421  0.1710 -0.2207
 2295SOL    HW118518   2.484   2.523  14.991  0.6886 -0.2244 -1.0711
 2295SOL    HW218519   2.556   2.583  14.885 -0.5763  0.8672 -0.8549
 2296SOL     OW18520   0.126   0.316   3.084 -0.3591  0.0430 -0.6253
 2296SOL    HW118521   0.188   0.251   3.051  0.4941 -0.0941  1.2780
 2296SOL    HW218522   0.042   0.270   3.080 -0.1995 -0.0935 -2.2118
 2297SOL     OW18523   4.248   3.403   5.053  0.0541 -0.2039 -0.8581
 2297SOL    HW118524   4.339   3.375   5.045  0.1751 -0.1224  0.2744
 2297SOL    HW218525   4.202   3.329   5.091  1.5320 -0.7831 -0.2016
 2298SOL     OW18526   1.371   0.684  11.554  0.8196 -0.3018 -0.9573
 2298SOL    HW118527   1.434   0.646  11.492 -0.9081 -3.1022 -1.0162
 2298SOL    HW218528   1.412   0.765  11.583 -3.0166  1.6693 -1.0005
 2299SOL     OW18529   1.773   0.658   5.501 -0.8045  0.1884 -0.1081
 2299SOL    HW118530   1.731   0.607   5.570  0.5915 -0.1934  0.4644
 2299SOL    HW218531   1.866   0.641   5.519 -1.2462 -0.5360  1.5186
 2300SOL     OW18532   4.609   2.527  13.231  0.1827  0.1417  0.9386
 2300SOL    HW118533   4.570   2.584  13.297  1.4435  0.9250  1.0138
 2300SOL    HW218534   4.700   2.517  13.261  0.3596  0.2930  0.4556
 2301SOL     OW18535   3.101   0.272  10.337 -0.0273 -0.4630 -0.4388
 2301SOL    HW118536   3.086   0.365  10.350  1.2337  0.0109 -2.3302
 2301SOL    HW218537   3.188   0.265  10.376 -0.3246 -2.8746 -0.2128
 2302SOL     OW18538   0.936   2.139   9.449  0.0680  0.3484  0.0214
 2302SOL    HW118539   1.004   2.095   9.500 -1.2168 -0.4005  1.0657
 2302SOL    HW218540   0.979   2.224   9.435 -1.9283  1.2589 -0.5726
 2303SOL     OW18541   1.137   4.449   8.995 -0.0403  0.3166  0.3544
 2303SOL    HW118542   1.180   4.392   9.058 -1.5247 -0.1143  0.9853
 2303SOL    HW218543   1.188   4.529   9.010  1.5471 -0.4853 -0.7567
 2304SOL     OW18544   3.460   2.093   5.763  0.2161  0.0681 -0.0402
 2304SOL    HW118545   3.553   2.103   5.746 -0.0607 -0.8833 -2.1293
 2304SOL    HW218546   3.457   2.006   5.803  1.5811  0.9150  1.8612
 2305SOL     OW18547   4.202   4.348   8.823 -0.0773  0.0248  0.5642
 2305SOL    HW118548   4.170   4.287   8.889  0.2254  0.7089  1.3411
 2305SOL    HW218549   4.267   4.377   8.887  0.8023  0.5518 -0.5653
 2306SOL     OW18550   3.604   4.469   7.637 -0.4130 -0.9272  0.6689
 2306SOL    HW118551   3.610   4.374   7.651 -0.3541 -1.1681 -0.9744
 2306SOL    HW218552   3.588   4.508   7.722 -1.6571  0.9486 -0.4365
 2307SOL     OW18553   1.851   0.469   0.396  0.1508 -0.1862  0.2760
 2307SOL    HW118554   1.883   0.523   0.469  0.7597 -0.4006  0.1663
 2307SOL    HW218555   1.934   0.431   0.368  0.0937  0.1754 -0.3872
 2308SOL     OW18556   0.341   3.059  10.274  0.2453  0.1161 -0.0990
 2308SOL    HW118557   0.418   3.090  10.322  0.6742 -0.7913 -0.2130
 2308SOL    HW218558   0.295   3.011  10.342  1.7637  0.6960  1.3338
 2309SOL     OW18559   4.115   3.926   4.117 -0.0390 -0.0614 -0.5981
 2309SOL    HW118560   4.067   3.849   4.086  0.9375 -0.5645 -0.8545
 2309SOL    HW218561   4.128   3.976   4.036 -2.2376 -0.3518 -1.1390
 2310SOL     OW18562   0.932   2.580   4.665 -0.3028  0.6780 -0.5107
 2310SOL    HW118563   0.997   2.651   4.668  1.5321 -1.2122  4.2389
 2310SOL    HW218564   0.846   2.619   4.680 -0.4186  0.2634 -0.0857
 2311SOL     OW18565   0.833   4.345  13.276 -0.1394  0.3224  0.7281
 2311SOL    HW118566   0.926   4.367  13.289 -0.2937  1.7216 -0.4404
 2311SOL    HW218567   0.802   4.343  13.366  0.1860  0.3786  0.8440
 2312SOL     OW18568   4.347   1.435   8.593 -0.5866 -0.5235 -0.1320
 2312SOL    HW118569   4.311   1.498   8.655  0.9705 -0.2133  0.4670
 2312SOL    HW218570   4.289   1.363   8.618  1.7326 -2.5746 -0.6002
 2313SOL     OW18571   4.081   1.894   5.117  0.5186  0.3052  0.1671
 2313SOL    HW118572   4.148   1.830   5.142 -0.0743 -0.1211  0.6455
 2313SOL    HW218573   4.020   1.890   5.190  0.5875 -0.0619  0.2036
 2314SOL     OW18574   1.205   3.944   3.674 -0.6031 -0.2400 -0.3930
 2314SOL    HW118575   1.161   3.860   3.683 -1.1874  0.0790 -0.2602
 2314SOL    HW218576   1.263   3.933   3.750  1.5775 -2.0268 -2.3010
 2315SOL     OW18577   0.994   3.689  14.446 -0.3588 -0.0132 -0.3589
 2315SOL    HW118578   1.006   3.618  14.383 -0.2686  0.4681 -0.8839
 2315SOL    HW218579   1.031   3.647  14.523 -3.6654  0.8568  1.7155
 2316SOL     OW18580   4.702   2.935   8.467 -0.2973 -0.6471 -0.0406
 2316SOL    HW118581   4.725   3.010   8.412 -1.2253 -0.6516 -0.4419
 2316SOL    HW218582   4.607   2.946   8.477 -0.1261 -1.2034  2.1963
 2317SOL     OW18583   3.343   3.429   1.842  0.0508  0.2201 -0.0751
 2317SOL    HW118584   3.305   3.356   1.793  0.3416 -0.3145  0.4824
 2317SOL    HW218585   3.432   3.395   1.853 -0.4713 -1.2863 -0.4583
 2318SOL     OW18586   2.618   3.397   5.693 -0.2758  0.6000  0.4814
 2318SOL    HW118587   2.692   3.354   5.736 -2.0884 -1.4902  1.4913
 2318SOL    HW218588   2.650   3.486   5.708 -0.6542  0.7641  0.3029
 2319SOL     OW18589   4.553   1.010   9.573 -0.1316  0.2097 -0.0380
 2319SOL    HW118590   4.552   0.915   9.557  0.1445 -0.2230  2.3787
 2319SOL    HW218591   4.551   1.048   9.486  0.9265 -2.6595 -1.3251
 2320SOL     OW18592   3.949   3.603   2.827  0.8144  0.5267  0.1921
 2320SOL    HW118593   4.037   3.635   2.808  0.8492  0.3458  0.0519
 2320SOL    HW218594   3.895   3.669   2.783 -0.7140 -0.7238  0.1524
 2321SOL     OW18595   0.003   2.384  10.168  0.0968  0.1965 -0.2015
 2321SOL    HW118596   4.655   2.343  10.166  0.1975  0.0295 -1.1549
 2321SOL    HW218597   4.737   2.454  10.103  0.8603  0.5810  0.1527
 2322SOL     OW18598   1.429   1.728   5.745  0.0080 -0.0992  0.0295
 2322SOL    HW118599   1.432   1.640   5.709 -1.4583  0.1619 -0.7249
 2322SOL    HW218600   1.334   1.737   5.751  0.2280  1.0048  1.8350
 2323SOL     OW18601   3.297   3.791  11.976  0.1274 -0.0425 -0.5071
 2323SOL    HW118602   3.372   3.763  12.029 -0.5152  0.3809  0.6293
 2323SOL    HW218603   3.269   3.861  12.035 -1.8707  1.8559 -3.7091
 2324SOL     OW18604   4.314   1.027   3.909 -0.1746  0.4292 -0.4657
 2324SOL    HW118605   4.231   0.979   3.911 -0.4694  0.9761  0.1932
 2324SOL    HW218606   4.373   0.959   3.878 -0.6514 -0.5004  0.6447
 2325SOL     OW18607   1.506   3.649  10.811  0.0972  0.2779  0.7423
 2325SOL    HW118608   1.583   3.695  10.780  1.0053 -2.3202 -0.8510
 2325SOL    HW218609   1.480   3.698  10.889 -0.4117  2.4299 -0.7910
 2326SOL     OW18610   3.162   1.421   7.928  0.1974 -0.0423 -0.1910
 2326SOL    HW118611   3.128   1.333   7.946  1.3524 -0.4857 -0.1307
 2326SOL    HW218612   3.234   1.396   7.870 -0.2683 -0.5474 -0.5481
 2327SOL     OW18613   0.298   2.360  17.676  0.8616  0.2450  0.4646
 2327SOL    HW118614   0.365   2.357  17.608  0.8646  3.4586  0.3043
 2327SOL    HW218615   0.228   2.418  17.646  1.2342 -0.4001 -1.6341
 2328SOL     OW18616   4.213   2.029  13.754  0.5307 -0.1597  0.1966
 2328SOL    HW118617   4.165   1.949  13.733  1.4260 -0.0180 -2.3921
 2328SOL    HW218618   4.304   2.001  13.739 -0.0634 -0.6854 -2.4197
 2329SOL     OW18619   1.737   2.684   0.175  0.3082 -0.5034  0.2964
 2329SOL    HW118620   1.744   2.655   0.084 -2.8141 -3.7295  1.0859
 2329SOL    HW218621   1.696   2.769   0.162  1.4959  0.4414  2.6391
 2330SOL     OW18622   2.798   0.002  13.554 -0.4221 -0.0811 -0.2008
 2330SOL    HW118623   2.865   0.029  13.617 -0.6771  1.1279 -0.4464
 2330SOL    HW218624   2.731   4.713  13.616  1.4715 -0.2724  1.7815
 2331SOL     OW18625   2.759   3.986   9.920  0.3237 -0.2104 -0.6476
 2331SOL    HW118626   2.854   3.989   9.932  0.0669 -1.0512  1.6969
 2331SOL    HW218627   2.751   3.920   9.852 -1.9140 -1.2165  0.5813
 2332SOL     OW18628   3.894   3.096   3.494 -0.1714 -0.0203  0.3521
 2332SOL    HW118629   3.943   3.015   3.508 -2.6535 -1.4905  0.5476
 2332SOL    HW218630   3.816   3.067   3.541 -1.3398  1.6812 -0.5483
 2333SOL     OW18631   0.747   1.278   7.786  0.3115  0.1067  0.2871
 2333SOL    HW118632   0.834   1.274   7.826  0.8383 -0.6634 -0.9371
 2333SOL    HW218633   0.740   1.372   7.770  1.6926  0.1196 -0.2506
 2334SOL     OW18634   0.847   0.875   2.896  0.1247 -0.0879  0.5340
 2334SOL    HW118635   0.861   0.797   2.842  2.2636  1.7041 -1.5002
 2334SOL    HW218636   0.855   0.941   2.827  1.7358 -0.4701  0.3619
 2335SOL     OW18637   3.218   0.942   6.753  0.1785 -0.1755  0.5684
 2335SOL    HW118638   3.205   0.903   6.839 -2.1472  0.9946  0.7541
 2335SOL    HW218639   3.201   0.867   6.696  2.1020 -0.8987  0.9436
 2336SOL     OW18640   0.368   0.120   4.032  0.1746 -0.1663 -0.2919
 2336SOL    HW118641   0.452   0.151   4.065 -0.5916 -0.2608  1.7541
 2336SOL    HW218642   0.367   0.173   3.952 -0.7787 -0.0285 -0.1839
 2337SOL     OW18643   0.647   3.367   7.200 -0.4543  0.4680  0.0567
 2337SOL    HW118644   0.707   3.387   7.272  0.0528 -0.2026 -0.1767
 2337SOL    HW218645   0.569   3.344   7.250  1.8487 -0.7840  3.0590
 2338SOL     OW18646   0.182   2.238   4.876 -0.4430 -0.1241  0.2635
 2338SOL    HW118647   0.240   2.182   4.928  1.1863  0.4299 -0.9688
 2338SOL    HW218648   0.246   2.294   4.832 -0.7242 -1.4605 -1.8406
 2339SOL     OW18649   4.011   0.930   9.443 -0.3348 -0.2744 -0.1958
 2339SOL    HW118650   4.007   0.886   9.359  2.5942 -0.6021 -0.1482
 2339SOL    HW218651   3.945   0.884   9.495  0.1524 -0.6040  0.1221
 2340SOL     OW18652   3.969   0.116   5.947  0.4583 -0.4294 -0.2035
 2340SOL    HW118653   3.882   0.088   5.974 -0.4853  1.3064 -1.4160
 2340SOL    HW218654   3.981   0.053   5.876 -1.9400  0.3256 -1.2684
 2341SOL     OW18655   1.915   1.306   8.024 -0.3232  0.2721 -0.2151
 2341SOL    HW118656   1.853   1.234   8.012  1.0205 -0.7563 -0.8818
 2341SOL    HW218657   1.872   1.381   7.983 -1.1944  0.3812  0.8980
 2342SOL     OW18658   2.993   3.556   6.706  0.1768  0.4649 -0.0850
 2342SOL    HW118659   2.943   3.493   6.654  0.8383  1.0324 -1.4137
 2342SOL    HW218660   2.938   3.633   6.696 -1.3840 -0.6237  0.0896
 2343SOL     OW18661   4.657   3.597   4.691 -0.5403  0.9099 -0.1674
 2343SOL    HW118662   4.666   3.658   4.619 -0.1560  1.0440 -0.0046
 2343SOL    HW218663   4.564   3.593   4.716 -0.2493 -1.3622  0.5918
 2344SOL     OW18664   0.321   1.474   9.946 -0.1699  0.2930  0.3766
 2344SOL    HW118665   0.409   1.507   9.929 -0.6598  1.6740  0.5530
 2344SOL    HW218666   0.275   1.526  10.011 -0.2387 -0.0781  0.6284
 2345SOL     OW18667   3.667   1.726  15.955 -0.1031  0.3831  0.6446
 2345SOL    HW118668   3.583   1.751  15.917 -0.0529 -0.6305 -0.1493
 2345SOL    HW218669   3.644   1.733  16.048  0.9130 -1.3651  1.0257
 2346SOL     OW18670   3.138   3.282   9.944  0.1728  0.1822  0.5849
 2346SOL    HW118671   3.064   3.306  10.000  2.3662 -1.8799  4.3407
 2346SOL    HW218672   3.175   3.221  10.008 -1.4264 -0.9941  0.4215
 2347SOL     OW18673   4.595   1.652  12.646  0.6224  0.3752  0.1427
 2347SOL    HW118674   4.537   1.624  12.576  0.7758 -0.8329  0.4941
 2347SOL    HW218675   4.593   1.748  12.645 -0.8073  0.3196 -1.8688
 2348SOL     OW18676   2.853   4.316   9.542  0.1498 -0.1421 -0.3475
 2348SOL    HW118677   2.846   4.371   9.620 -0.0284 -0.2002 -0.3222
 2348SOL    HW218678   2.934   4.354   9.507  0.1129 -2.2978 -2.7723
 2349SOL     OW18679   2.668   3.813   6.135  0.0095 -0.6565  0.3462
 2349SOL    HW118680   2.717   3.756   6.076 -0.0466 -0.0900 -0.2519
 2349SOL    HW218681   2.697   3.778   6.219 -1.9976  1.7304  2.0743
 2350SOL     OW18682   0.986   3.708  10.109 -0.4403  0.0308 -0.0430
 2350SOL    HW118683   1.034   3.733  10.188  0.4338 -0.6244 -0.3577
 2350SOL    HW218684   1.054   3.717  10.041  0.4490 -1.5622  0.6541
 2351SOL     OW18685   0.718   0.383   8.257 -0.2740  0.7071  0.3339
 2351SOL    HW118686   0.761   0.348   8.335 -0.7487  0.9576  0.7076
 2351SOL    HW218687   0.734   0.477   8.268  0.2985  0.3721  2.5068
 2352SOL     OW18688   2.944   2.716   8.719  0.3415 -0.5082  0.4191
 2352SOL    HW118689   2.869   2.691   8.773 -0.1632 -2.2691 -1.0945
 2352SOL    HW218690   2.901   2.763   8.648  1.3301  0.0435  0.1719
 2353SOL     OW18691   3.591   1.091   4.218 -0.2595  0.0521  0.1094
 2353SOL    HW118692   3.560   1.038   4.145 -0.4966  0.2937  0.0356
 2353SOL    HW218693   3.519   1.151   4.238  0.4635  0.4897  1.4115
 2354SOL     OW18694   0.922   2.171   8.096 -0.2267 -0.0919 -0.7949
 2354SOL    HW118695   0.833   2.151   8.125  1.0801 -2.4439  1.6646
 2354SOL    HW218696   0.896   2.240   8.035 -1.4313 -0.0347 -0.2199
 2355SOL     OW18697   1.113   2.744   0.546 -0.7432  0.5753  0.3688
 2355SOL    HW118698   1.203   2.713   0.534 -1.3125 -1.2806  1.0358
 2355SOL    HW218699   1.063   2.700   0.478  1.3081 -0.5378 -0.4217
 2356SOL     OW18700   2.723   2.272   2.073  0.2461 -0.2547  0.6560
 2356SOL    HW118701   2.713   2.297   2.165 -1.1343  2.9104 -0.3525
 2356SOL    HW218702   2.647   2.215   2.057 -0.9425  1.0286  1.7612
 2357SOL     OW18703   3.419   2.093  14.978 -0.5025  0.7447  0.1055
 2357SOL    HW118704   3.326   2.108  15.000  0.3203  1.5582  3.1499
 2357SOL    HW218705   3.404   2.023  14.915  0.8775  0.8259 -0.2963
 2358SOL     OW18706   3.444   3.533   7.060  0.0689 -0.0201  0.2012
 2358SOL    HW118707   3.390   3.602   7.022 -0.7592 -1.0535 -0.5015
 2358SOL    HW218708   3.433   3.463   6.996 -0.5658  0.6531 -0.4172
 2359SOL     OW18709   2.965   3.785   6.980  0.2130  0.1696  0.2098
 2359SOL    HW118710   2.903   3.850   7.015 -0.1368  0.9530 -1.9153
 2359SOL    HW218711   2.906   3.711   6.968  0.5570 -0.6200  3.2440
 2360SOL     OW18712   2.982   3.686   9.943  0.6439  0.0165  0.2243
 2360SOL    HW118713   2.985   3.644  10.030 -2.6047 -0.0936  0.2949
 2360SOL    HW218714   2.889   3.674   9.923  1.1934 -3.0025 -0.4886
 2361SOL     OW18715   4.673   2.384   5.637 -0.1864  0.1261  0.1203
 2361SOL    HW118716   4.690   2.298   5.675 -1.1975 -0.0767  0.1145
 2361SOL    HW218717   4.732   2.381   5.562 -0.9475 -0.7369 -0.4484
 2362SOL     OW18718   4.342   2.189   4.748 -0.4156 -0.1469  0.2729
 2362SOL    HW118719   4.261   2.227   4.716  0.6273  1.6796 -0.2127
 2362SOL    HW218720   4.400   2.202   4.673  0.2870 -0.2813  0.7814
 2363SOL     OW18721   0.349   2.632   1.238 -0.4749 -0.7986 -0.3083
 2363SOL    HW118722   0.299   2.580   1.301  0.3162  0.0253  1.0101
 2363SOL    HW218723   0.374   2.714   1.280 -1.6508 -0.5209 -0.1598
 2364SOL     OW18724   3.178   4.209  12.044 -0.1608  0.3284 -0.4217
 2364SOL    HW118725   3.162   4.265  12.120 -0.8850 -1.2798  0.6276
 2364SOL    HW218726   3.273   4.220  12.037 -0.4608  2.1394 -1.7024
 2365SOL     OW18727   0.557   0.853   7.685 -0.6434 -0.1263  0.0515
 2365SOL    HW118728   0.499   0.927   7.667 -0.6680 -0.2567 -0.4176
 2365SOL    HW218729   0.490   0.788   7.703 -0.6613 -0.3835 -0.9183
 2366SOL     OW18730   0.579   1.994   3.202 -0.2807 -0.0277 -0.1710
 2366SOL    HW118731   0.511   1.977   3.136  0.5824 -1.8409 -0.5905
 2366SOL    HW218732   0.647   1.929   3.186 -0.0392 -0.4986  2.7686
 2367SOL     OW18733   0.325   2.183   4.315  0.1762  0.6047 -0.1965
 2367SOL    HW118734   0.330   2.092   4.285 -2.4421  0.4711 -0.2092
 2367SOL    HW218735   0.385   2.185   4.390  0.4168 -0.5961 -0.3502
 2368SOL     OW18736   1.656   0.791   8.759  0.4054 -0.5485  0.1879
 2368SOL    HW118737   1.595   0.735   8.711  0.6329 -1.6957  1.2627
 2368SOL    HW218738   1.689   0.728   8.822  0.7678 -0.3332  0.2132
 2369SOL     OW18739   3.765   2.008   2.498  0.0816 -0.1681 -0.0926
 2369SOL    HW118740   3.674   2.007   2.526  0.4066  3.0953  1.0506
 2369SOL    HW218741   3.758   1.954   2.419  0.1522 -2.2345  1.3222
 2370SOL     OW18742   4.288   1.204   6.259  0.1398  0.8607  0.0067
 2370SOL    HW118743   4.265   1.157   6.339 -4.8099  1.3907 -1.1169
 2370SOL    HW218744   4.378   1.219   6.287  0.5779 -2.8589  0.4987
 2371SOL     OW18745   2.466   1.095   6.994  0.2200 -0.8273 -0.2401
 2371SOL    HW118746   2.525   1.159   7.033 -0.9545  0.1189 -0.0057
 2371SOL    HW218747   2.502   1.008   7.011  0.4885  0.2611  4.7176
 2372SOL     OW18748   4.056   1.530   2.597  0.7406 -0.3755 -0.5334
 2372SOL    HW118749   4.127   1.570   2.546 -0.2348  0.9049 -0.8554
 2372SOL    HW218750   3.979   1.584   2.584 -0.0856 -1.3579  0.3547
 2373SOL     OW18751   2.135   4.275   9.253 -0.4215  0.0878 -0.3846
 2373SOL    HW118752   2.116   4.189   9.290  2.9574 -1.1900 -1.6262
 2373SOL    HW218753   2.220   4.300   9.289  0.2437 -1.7014 -0.7245
 2374SOL     OW18754   4.373   0.235  11.164 -0.9928 -0.1697  0.3459
 2374SOL    HW118755   4.296   0.233  11.221 -1.6366 -0.3965 -0.5414
 2374SOL    HW218756   4.339   0.190  11.087  0.1010 -1.8261  0.8394
 2375SOL     OW18757   4.621   2.172   2.995 -0.2986 -0.1674 -0.6316
 2375SOL    HW118758   4.624   2.094   3.051 -0.3961  1.1320  1.1821
 2375SOL    HW218759   4.710   2.181   2.961 -0.0743 -1.1429 -0.3073
 2376SOL     OW18760   2.067   2.070   3.637  0.3694  1.0311  0.0388
 2376SOL    HW118761   2.131   2.064   3.707 -0.0033  0.2972  0.3123
 2376SOL    HW218762   2.091   2.157   3.603  1.5878  0.1969 -1.2367
 2377SOL     OW18763   0.701   0.819  14.815 -0.2612 -0.1901 -0.3099
 2377SOL    HW118764   0.777   0.876  14.825 -0.1201 -0.6243  1.1136
 2377SOL    HW218765   0.720   0.744  14.870  2.3173  2.5041  2.4926
 2378SOL     OW18766   4.081   4.528   9.335 -0.2562 -0.0086  0.6269
 2378SOL    HW118767   4.027   4.478   9.396  0.7374 -1.4370  0.3188
 2378SOL    HW218768   4.061   4.490   9.249  0.8070  0.5392  0.1322
 2379SOL     OW18769   0.790   3.111   8.488  0.8070  0.2574  0.1814
 2379SOL    HW118770   0.759   3.025   8.517 -1.5255  1.4262  1.1848
 2379SOL    HW218771   0.877   3.081   8.460  0.4593 -0.7211  0.1416
 2380SOL     OW18772   0.952   1.006   8.436 -0.4412  0.4127  0.2286
 2380SOL    HW118773   0.880   1.064   8.412 -1.9498 -1.8187 -0.5884
 2380SOL    HW218774   1.018   1.035   8.373  0.0347 -2.1781 -0.4654
 2381SOL     OW18775   1.611   3.041   1.658  0.1496 -0.1260 -0.2388
 2381SOL    HW118776   1.653   3.104   1.717  0.8629 -1.2850  0.4999
 2381SOL    HW218777   1.558   3.091   1.596 -0.8029  1.0926  1.5923
 2382SOL     OW18778   0.858   0.887   9.727 -0.5488  0.0116 -0.3085
 2382SOL    HW118779   0.937   0.891   9.780 -0.1043  1.8775 -1.1124
 2382SOL    HW218780   0.851   0.976   9.693 -0.7054 -1.4730 -4.0827
 2383SOL     OW18781   1.340   3.252  12.343  0.1671 -0.0091 -0.3332
 2383SOL    HW118782   1.308   3.292  12.424  1.5572  1.5894 -0.5801
 2383SOL    HW218783   1.351   3.329  12.288 -0.4415  1.2102  1.2268
 2384SOL     OW18784   3.340   1.734  14.784 -0.2160  0.1834 -0.3703
 2384SOL    HW118785   3.307   1.679  14.713 -1.0224  2.1176 -1.4948
 2384SOL    HW218786   3.433   1.713  14.778  0.4664  2.5111  1.9936
 2385SOL     OW18787   0.187   3.495   6.216 -0.3121 -0.5561 -0.0601
 2385SOL    HW118788   0.117   3.511   6.154 -0.9172  0.8044  0.9619
 2385SOL    HW218789   0.162   3.546   6.294  2.3845  1.8915 -0.7654
 2386SOL     OW18790   0.045   1.782   5.731 -0.1262  0.6229  0.6528
 2386SOL    HW118791   0.098   1.813   5.658 -0.3074 -2.6427 -0.8876
 2386SOL    HW218792   4.698   1.817   5.703 -0.1329  1.3538  1.5695
 2387SOL     OW18793   1.038   3.165   5.816 -0.0240  0.0656  0.1925
 2387SOL    HW118794   1.123   3.149   5.857 -0.2503 -4.8545 -1.3320
 2387SOL    HW218795   1.028   3.256   5.846  1.0345 -0.5775  2.4823
 2388SOL     OW18796   3.220   4.137   6.054  0.9157 -0.0553 -0.1554
 2388SOL    HW118797   3.213   4.230   6.037  2.1097  0.1753  0.6095
 2388SOL    HW218798   3.143   4.124   6.110  0.5752 -1.8159 -1.0233
 2389SOL     OW18799   1.078   1.990   2.236  0.6207 -0.0255 -0.1686
 2389SOL    HW118800   1.087   1.985   2.141 -0.1121  1.0328 -0.2946
 2389SOL    HW218801   1.060   1.897   2.254 -2.4302  0.6225  0.2322
 2390SOL     OW18802   2.243   1.012   5.696 -0.1254 -0.0599 -0.3766
 2390SOL    HW118803   2.197   1.092   5.721 -2.7982 -1.4819 -0.7307
 2390SOL    HW218804   2.182   0.941   5.718 -0.2369  0.3583  0.6569
 2391SOL     OW18805   2.729   3.044   5.056  0.1683 -0.1753  0.2674
 2391SOL    HW118806   2.650   3.077   5.015  0.2733  0.5182  0.6236
 2391SOL    HW218807   2.756   3.121   5.106  3.4320 -0.3970 -1.1674
 2392SOL     OW18808   1.502   2.043  10.637  0.0256 -0.1517  0.5076
 2392SOL    HW118809   1.515   2.138  10.635  0.9709 -0.3312 -2.7250
 2392SOL    HW218810   1.472   2.024  10.548 -2.1080  1.3761  0.9091
 2393SOL     OW18811   4.480   4.336   8.390  0.4503 -0.7860  0.0972
 2393SOL    HW118812   4.435   4.378   8.463 -0.1685  0.8094 -1.2083
 2393SOL    HW218813   4.414   4.345   8.321  0.2494  0.6036  0.4730
 2394SOL     OW18814   4.670   0.743   7.115  0.0754 -0.0674  0.4340
 2394SOL    HW118815   4.685   0.833   7.085  1.0068 -1.7649 -4.1971
 2394SOL    HW218816   4.576   0.741   7.136  0.0897 -0.9954  0.4099
 2395SOL     OW18817   1.883   2.686  11.784  0.2447 -0.4160  0.3088
 2395SOL    HW118818   1.966   2.697  11.831  1.3844  0.2979 -1.8775
 2395SOL    HW218819   1.854   2.598  11.808 -0.1781 -0.4744 -0.4168
 2396SOL     OW18820   0.763   3.827   4.478  0.0144  0.6099 -0.0058
 2396SOL    HW118821   0.787   3.830   4.570 -0.4754  0.6555  0.1219
 2396SOL    HW218822   0.677   3.793   4.503  0.3922 -1.1220 -1.0592
 2397SOL     OW18823   3.577   3.553  13.800  0.7496  0.2842 -0.1548
 2397SOL    HW118824   3.508   3.613  13.830  0.4872 -1.5142  2.8122
 2397SOL    HW218825   3.658   3.604  13.800  2.3901 -2.3538 -1.5363
 2398SOL     OW18826   3.219   0.558   2.809  0.2339  0.0083 -0.5765
 2398SOL    HW118827   3.148   0.528   2.866 -1.1344  2.9163 -0.7347
 2398SOL    HW218828   3.181   0.539   2.723 -1.5763 -0.2040  0.2625
 2399SOL     OW18829   0.527   1.384   4.188  0.3381  0.3726  0.3131
 2399SOL    HW118830   0.566   1.461   4.147 -0.7860  1.4144  1.1787
 2399SOL    HW218831   0.441   1.423   4.208 -0.9443 -3.0175  1.5182
 2400SOL     OW18832   2.781   0.921   1.590 -1.0057 -0.4863 -0.3490
 2400SOL    HW118833   2.821   0.998   1.548  1.1880 -0.5399  1.6381
 2400SOL    HW218834   2.775   0.862   1.515 -1.3346 -0.3963 -0.3967
 2401SOL     OW18835   3.582   1.469   4.066  0.2176 -0.0987 -0.8890
 2401SOL    HW118836   3.652   1.532   4.049  1.4235 -0.6867  1.8447
 2401SOL    HW218837   3.518   1.495   4.000  1.6707  0.7862 -1.9458
 2402SOL     OW18838   1.563   4.096   2.593 -0.6370  0.3646 -0.1770
 2402SOL    HW118839   1.603   4.164   2.539  0.0772  0.5410  0.5694
 2402SOL    HW218840   1.476   4.112   2.556 -1.2281  0.8977  1.4226
 2403SOL     OW18841   1.120   4.101  16.866  0.1615  0.0042  0.3310
 2403SOL    HW118842   1.210   4.069  16.878  0.0941  0.2054  1.3323
 2403SOL    HW218843   1.118   4.125  16.773 -2.4618  0.7323  0.5912
 2404SOL     OW18844   1.176   0.038   4.500 -0.3095  0.1278  0.1956
 2404SOL    HW118845   1.242   0.019   4.433 -0.2435  0.2885  0.2158
 2404SOL    HW218846   1.131   0.117   4.469  2.0411  0.4904 -2.3321
 2405SOL     OW18847   3.819   1.643  10.761  0.0789 -0.2326  0.0993
 2405SOL    HW118848   3.747   1.701  10.788  1.9686  1.7111  0.9048
 2405SOL    HW218849   3.817   1.565  10.817 -1.8199 -0.2944 -0.0573
 2406SOL     OW18850   1.293   2.859  12.107 -0.9884  0.0289 -0.2196
 2406SOL    HW118851   1.387   2.876  12.096 -1.2402  1.9968  0.6029
 2406SOL    HW218852   1.289   2.774  12.151 -1.6803  0.0738 -0.2030
 2407SOL     OW18853   0.924   2.267   9.874 -0.0999  0.5278 -0.3571
 2407SOL    HW118854   0.986   2.336   9.849  1.3718 -0.2257  1.2052
 2407SOL    HW218855   0.866   2.296   9.804 -0.1912  1.9115  0.2701
 2408SOL     OW18856   1.623   1.899   6.837 -0.6127 -0.2075  0.1970
 2408SOL    HW118857   1.669   1.930   6.915 -0.1582 -1.2982  0.3660
 2408SOL    HW218858   1.549   1.852   6.876 -0.3015 -1.8829 -1.2547
 2409SOL     OW18859   3.859   1.162   5.615  0.1967 -0.0508  1.0518
 2409SOL    HW118860   3.828   1.135   5.701  0.5203 -1.1990  0.8101
 2409SOL    HW218861   3.874   1.080   5.568 -1.9829 -0.9486  1.9774
 2410SOL     OW18862   3.009   2.846   6.932  0.0057 -0.1323  0.2172
 2410SOL    HW118863   2.951   2.808   6.866  0.8522 -1.0912  0.0240
 2410SOL    HW218864   2.955   2.836   7.010  0.7616 -0.3630  0.7067
 2411SOL     OW18865   2.880   4.183   8.839 -0.5321 -0.1362 -0.3777
 2411SOL    HW118866   2.903   4.275   8.829  1.1882 -0.4024  1.0490
 2411SOL    HW218867   2.831   4.158   8.761  1.2775 -1.2721 -1.1579
 2412SOL     OW18868   2.356   0.569   6.742 -0.1599  0.4025  0.6581
 2412SOL    HW118869   2.307   0.538   6.819 -0.5381 -0.4483  0.0739
 2412SOL    HW218870   2.432   0.603   6.790 -0.2882  2.6906 -0.7943
 2413SOL     OW18871   0.743   3.663   1.630 -0.7939  0.0513  0.3117
 2413SOL    HW118872   0.762   3.570   1.616  1.5020  0.0415  3.6049
 2413SOL    HW218873   0.708   3.673   1.542  1.6203 -1.2350 -0.7968
 2414SOL     OW18874   1.917   3.716   5.810 -0.1240  0.0674  0.6314
 2414SOL    HW118875   2.009   3.694   5.828  0.1174 -1.1597 -2.1576
 2414SOL    HW218876   1.880   3.628   5.810  1.8099 -0.7520  0.7359
 2415SOL     OW18877   1.912   2.668   3.568  0.3330 -0.2647 -0.7247
 2415SOL    HW118878   1.995   2.716   3.568  0.1903 -0.0179 -0.3222
 2415SOL    HW218879   1.915   2.629   3.481 -0.9576  2.9077 -2.2099
 2416SOL     OW18880   0.125   0.253   4.692 -0.0554 -0.3505 -0.1889
 2416SOL    HW118881   0.164   0.250   4.780 -0.0992  0.8679 -0.1270
 2416SOL    HW218882   0.073   0.172   4.696  0.4050 -0.6662 -0.7098
 2417SOL     OW18883   1.186   1.338   8.654 -0.1313 -0.6671  0.4905
 2417SOL    HW118884   1.175   1.429   8.683 -0.2775 -0.6767  0.4629
 2417SOL    HW218885   1.120   1.328   8.586 -1.3547  1.2730  1.3881
 2418SOL     OW18886   0.467   1.735   5.203  0.3846  0.2133 -0.3340
 2418SOL    HW118887   0.404   1.705   5.137 -0.2359 -0.5462  0.6103
 2418SOL    HW218888   0.411   1.715   5.278  1.3099 -1.2159 -0.0267
 2419SOL     OW18889   4.698   3.251   3.608 -0.2150  0.0707 -0.2494
 2419SOL    HW118890   4.714   3.321   3.671  0.8099 -0.7340  0.3905
 2419SOL    HW218891   4.624   3.279   3.555  0.3387  2.7181  0.3985
 2420SOL     OW18892   1.527   3.148   1.344  0.4654 -0.0473 -0.1332
 2420SOL    HW118893   1.550   3.125   1.254  0.7759  0.8392 -0.2817
 2420SOL    HW218894   1.591   3.218   1.354  1.3153 -0.8099 -0.2633
 2421SOL     OW18895   3.402   1.893   8.719  0.8937 -0.3764  0.0378
 2421SOL    HW118896   3.445   1.840   8.652 -1.0993 -1.9657  0.0232
 2421SOL    HW218897   3.472   1.951   8.750  0.7068  0.7426 -1.6720
 2422SOL     OW18898   1.495   3.689   5.690  0.1242  0.3012  0.7416
 2422SOL    HW118899   1.531   3.771   5.722  1.0881  0.1719 -0.0087
 2422SOL    HW218900   1.571   3.648   5.647 -1.0454  1.2985 -2.2059
 2423SOL     OW18901   2.195   4.670   4.273 -0.1996  0.0008 -0.8241
 2423SOL    HW118902   2.264   4.733   4.254  0.4340 -0.1535  0.9923
 2423SOL    HW218903   2.241   4.589   4.250  0.5488  0.0091  0.6422
 2424SOL     OW18904   4.656   4.694   1.155 -0.3287 -0.0140 -0.9888
 2424SOL    HW118905   4.569   4.686   1.118 -1.5691 -2.3354  2.3677
 2424SOL    HW218906   4.656   0.045   1.189  1.0543 -0.3300 -0.1227
 2425SOL     OW18907   3.270   2.591  14.968 -0.2836  0.4131 -0.2466
 2425SOL    HW118908   3.284   2.607  14.875  4.8640 -0.8934  0.3379
 2425SOL    HW218909   3.222   2.666  15.005  1.8246  1.6360 -0.0140
 2426SOL     OW18910   3.788   1.456  16.420 -0.2572 -0.2430 -0.4788
 2426SOL    HW118911   3.712   1.505  16.388 -1.7344 -2.0512  0.2846
 2426SOL    HW218912   3.797   1.386  16.355 -3.6597 -0.3411 -0.8512
 2427SOL     OW18913   1.028   1.367   7.113  0.0839  0.6357  0.0730
 2427SOL    HW118914   1.055   1.276   7.129  2.5000  0.9364 -2.3967
 2427SOL    HW218915   0.966   1.359   7.041 -0.0653  0.9604  0.1669
 2428SOL     OW18916   0.792   2.565   3.026 -0.1626  0.0479 -0.0767
 2428SOL    HW118917   0.798   2.657   3.051 -0.8778  0.6654 -2.1826
 2428SOL    HW218918   0.869   2.562   2.968  0.0927 -0.3176  0.2814
 2429SOL     OW18919   1.759   4.263   4.180 -0.0719 -0.0684  0.0889
 2429SOL    HW118920   1.780   4.189   4.123 -0.6806  0.2356 -0.5244
 2429SOL    HW218921   1.730   4.208   4.253  1.1044 -1.9806 -0.8858
 2430SOL     OW18922   4.084   4.376   2.076  0.5681  0.1087  0.1726
 2430SOL    HW118923   4.122   4.398   1.991 -0.5476  0.3150 -0.2770
 2430SOL    HW218924   4.050   4.464   2.092  0.2950 -0.0131  0.2677
 2431SOL     OW18925   4.501   4.156   4.516  0.6021  0.0305 -0.1252
 2431SOL    HW118926   4.469   4.067   4.525  1.6785 -0.0219  3.0201
 2431SOL    HW218927   4.481   4.169   4.423  1.4062  0.9229 -0.1791
 2432SOL     OW18928   1.901   1.118   5.864  0.3891  0.8735 -0.1998
 2432SOL    HW118929   1.881   1.028   5.891  3.0468  0.5515  0.6917
 2432SOL    HW218930   1.903   1.106   5.769 -1.3908 -0.0374 -0.1191
 2433SOL     OW18931   1.882   2.467   9.280  0.4458 -0.1799 -0.4457
 2433SOL    HW118932   1.918   2.383   9.308 -0.7166 -1.3966 -2.5972
 2433SOL    HW218933   1.824   2.492   9.352 -1.0449 -0.4625 -1.5486
 2434SOL     OW18934   0.062   4.344  12.637  0.6042  0.2089 -0.1440
 2434SOL    HW118935   0.121   4.316  12.568  0.2425 -0.7621 -0.0551
 2434SOL    HW218936   0.114   4.412  12.679 -0.7365  0.3467  1.3149
 2435SOL     OW18937   2.150   4.023  15.449 -0.0506 -0.2940  0.3732
 2435SOL    HW118938   2.087   4.075  15.498 -2.2080 -3.2696  0.7878
 2435SOL    HW218939   2.174   4.091  15.387 -1.9616  0.0031 -0.0178
 2436SOL     OW18940   1.546   2.079  17.734  0.1198 -0.2349 -0.1421
 2436SOL    HW118941   1.505   2.159   0.015  1.9180  0.6031  0.0893
 2436SOL    HW218942   1.639   2.102  17.733  1.1308 -4.1983  1.4556
 2437SOL     OW18943   0.713   0.664   8.325 -0.1563 -0.6473  0.1822
 2437SOL    HW118944   0.725   0.752   8.287  0.6351 -0.3338  1.1647
 2437SOL    HW218945   0.618   0.665   8.311 -0.4884  1.4397  2.6722
 2438SOL     OW18946   3.549   3.897   8.748  0.4867 -0.1050  0.0539
 2438SOL    HW118947   3.596   3.980   8.739 -2.2607  1.1565 -2.7556
 2438SOL    HW218948   3.481   3.921   8.685  1.8214 -2.1329 -2.2082
 2439SOL     OW18949   4.003   4.632   7.101 -0.1323 -0.2533  0.1473
 2439SOL    HW118950   3.977   4.554   7.150  1.2801 -1.7247 -1.4700
 2439SOL    HW218951   4.074   4.670   7.153 -0.3463 -1.4861  1.3408
 2440SOL     OW18952   2.224   0.785   4.593 -0.3293  0.4742  0.9220
 2440SOL    HW118953   2.218   0.690   4.607  0.8275  0.1242 -0.9176
 2440SOL    HW218954   2.191   0.804   4.505  0.5477  2.3409  0.9950
 2441SOL     OW18955   2.517   0.376   8.157  0.2095  0.1694  0.6898
 2441SOL    HW118956   2.498   0.464   8.190  0.9843  1.4267 -2.2648
 2441SOL    HW218957   2.487   0.320   8.229 -0.8999  2.9059  2.3496
 2442SOL     OW18958   0.742   0.164  16.760  0.5681 -0.0995  0.3739
 2442SOL    HW118959   0.647   0.164  16.754  0.5647  0.9132  0.4700
 2442SOL    HW218960   0.759   0.173  16.667  0.2589 -1.9013  0.1395
 2443SOL     OW18961   2.184   1.236   4.838 -0.1732 -0.0892 -0.4344
 2443SOL    HW118962   2.274   1.235   4.870 -1.0357 -2.2754  1.9824
 2443SOL    HW218963   2.172   1.147   4.804 -0.1016 -0.7905  1.3508
 2444SOL     OW18964   3.529   2.564   2.825  0.0175  0.2593  0.1140
 2444SOL    HW118965   3.552   2.571   2.917 -0.8883  1.9618  0.2115
 2444SOL    HW218966   3.435   2.582   2.821  0.2447  2.0523  3.6484
 2445SOL     OW18967   3.377   0.436  10.743 -0.1399 -0.2663  0.2251
 2445SOL    HW118968   3.447   0.445  10.679 -1.8445 -1.6641 -1.8405
 2445SOL    HW218969   3.313   0.492  10.699 -0.9274 -0.1733  1.4692
 2446SOL     OW18970   3.972   1.733   5.811 -0.4642  1.0220 -0.5985
 2446SOL    HW118971   3.893   1.763   5.856 -0.2859  1.1944 -0.4000
 2446SOL    HW218972   3.975   1.641   5.836  0.2112  1.4915  1.0465
 2447SOL     OW18973   2.802   2.238   5.442 -0.3968  1.1283 -0.0824
 2447SOL    HW118974   2.722   2.224   5.391 -0.3502  0.3038  0.0760
 2447SOL    HW218975   2.757   2.228   5.526 -0.1141  2.7126  0.2638
 2448SOL     OW18976   0.780   1.519   0.904 -0.3223  0.0030  0.6873
 2448SOL    HW118977   0.797   1.514   0.998 -0.0351 -1.8723  0.5340
 2448SOL    HW218978   0.794   1.613   0.892 -1.5505  0.0646 -0.2360
 2449SOL     OW18979   0.994   2.098  12.489 -0.9679 -0.3903  0.5477
 2449SOL    HW118980   1.061   2.153  12.447  0.8403 -2.2963  0.9635
 2449SOL    HW218981   0.915   2.133  12.447 -0.1692  0.8884  0.1189
 2450SOL     OW18982   0.010   4.436   5.213  0.4335 -0.1098  0.7311
 2450SOL    HW118983   4.692   4.479   5.148  1.8137 -0.8818 -0.9668
 2450SOL    HW218984   4.685   4.411   5.281  1.3429 -2.0244  0.8596
 2451SOL     OW18985   2.497   3.474   9.193  0.3051  0.1659 -0.0917
 2451SOL    HW118986   2.414   3.433   9.169  0.5323  0.1584 -0.8770
 2451SOL    HW218987   2.541   3.472   9.108 -0.0598 -0.9216 -0.2641
 2452SOL     OW18988   3.109   1.384   4.629 -0.5639  0.1215  0.1369
 2452SOL    HW118989   3.106   1.475   4.657 -0.0597  0.1634  0.0638
 2452SOL    HW218990   3.016   1.365   4.633 -0.8411  1.5061  0.3452
 2453SOL     OW18991   2.700   3.659  12.519 -0.6918 -0.1525  0.5754
 2453SOL    HW118992   2.637   3.661  12.447  0.5239  0.1795 -0.4795
 2453SOL    HW218993   2.678   3.744  12.555 -0.6736  0.5112 -0.9752
 2454SOL     OW18994   1.310   0.990   8.737  0.6751 -0.5782  0.0021
 2454SOL    HW118995   1.350   1.032   8.661 -0.2205 -1.2478 -0.8310
 2454SOL    HW218996   1.288   0.904   8.702 -1.7457  0.1783 -0.3167
 2455SOL     OW18997   1.720   4.217  11.447  0.0986 -0.2285 -0.1225
 2455SOL    HW118998   1.810   4.238  11.473 -0.8669  1.0006  2.1514
 2455SOL    HW218999   1.673   4.256  11.520  1.8333 -0.8843  1.3532
 2456SOL     OW19000   0.560   0.748   6.981  0.1921  0.1196 -0.0073
 2456SOL    HW119001   0.583   0.827   6.932  2.3602 -0.4531  0.0846
 2456SOL    HW219002   0.615   0.680   6.941  1.0690  0.8822 -0.1262
 2457SOL     OW19003   0.555   0.225   4.908  0.5155 -0.1005  0.1424
 2457SOL    HW119004   0.507   0.255   4.831  0.7813 -0.5883 -0.2070
 2457SOL    HW219005   0.570   0.134   4.886  3.6387  1.1325 -2.8023
 2458SOL     OW19006   3.712   2.156   9.191  0.9263  0.1740  0.0221
 2458SOL    HW119007   3.663   2.073   9.188 -1.8282  1.8180 -1.0598
 2458SOL    HW219008   3.666   2.207   9.125 -0.1850 -1.4463 -0.4714
 2459SOL     OW19009   4.195   1.648  12.161 -0.1989 -0.4853 -0.1438
 2459SOL    HW119010   4.123   1.708  12.140  1.2646  2.3022  2.9291
 2459SOL    HW219011   4.144   1.567  12.153  0.9390 -1.0097 -2.0360
 2460SOL     OW19012   1.544   0.060  11.749 -0.2540 -0.5103  0.4263
 2460SOL    HW119013   1.523   0.107  11.669  0.3327 -0.6732  0.1802
 2460SOL    HW219014   1.472   0.092  11.803  0.2035  1.5165 -0.1737
 2461SOL     OW19015   0.781   3.306   6.648 -0.3570  0.5912  0.6848
 2461SOL    HW119016   0.874   3.326   6.659  0.2929 -1.3619 -1.0475
 2461SOL    HW219017   0.737   3.358   6.715  1.0693  1.5560  0.8607
 2462SOL     OW19018   0.858   1.748  12.796  0.3688  0.0058  0.2693
 2462SOL    HW119019   0.900   1.772  12.713 -1.2175  1.9530  0.0280
 2462SOL    HW219020   0.764   1.738  12.780  0.3737 -0.7889  0.7405
 2463SOL     OW19021   4.213   0.438   7.594  0.1341  0.0422 -0.5941
 2463SOL    HW119022   4.208   0.441   7.689  1.7650  1.5847 -0.5646
 2463SOL    HW219023   4.260   0.358   7.570  0.3128  0.7691 -2.7013
 2464SOL     OW19024   0.708   2.867   3.471 -0.1580 -0.3336 -0.3218
 2464SOL    HW119025   0.787   2.868   3.417  1.1649  0.3407  1.5897
 2464SOL    HW219026   0.678   2.779   3.447 -2.2421 -0.1508  1.6229
 2465SOL     OW19027   0.356   1.985   6.647  0.4954  0.3266 -0.1423
 2465SOL    HW119028   0.396   2.070   6.626  0.5899 -0.1392 -1.7906
 2465SOL    HW219029   0.266   2.009   6.670  0.6413  1.5596 -0.8641
 2466SOL     OW19030   4.569   1.898   4.898 -0.1443  0.3001 -0.1904
 2466SOL    HW119031   4.593   1.808   4.920  3.0615  1.9489  3.2711
 2466SOL    HW219032   4.548   1.927   4.987  2.3252  0.6105  0.3157
 2467SOL     OW19033   0.608   2.851   4.375  0.1790  0.3041 -0.3349
 2467SOL    HW119034   0.691   2.822   4.414 -0.3897 -0.3330  0.4192
 2467SOL    HW219035   0.548   2.779   4.395 -1.2050  1.3283 -0.8081
 2468SOL     OW19036   1.232   2.514   5.749 -0.1432  0.5726 -0.0373
 2468SOL    HW119037   1.237   2.584   5.684  0.9290 -1.2854 -1.9765
 2468SOL    HW219038   1.231   2.568   5.828  2.3645 -0.4354  0.6776
 2469SOL     OW19039   1.113   0.252   8.992 -0.1578  0.1155  0.1886
 2469SOL    HW119040   1.043   0.196   8.958  0.9866 -1.4959  0.4853
 2469SOL    HW219041   1.085   0.332   8.948  1.1713  0.2935 -0.3165
 2470SOL     OW19042   2.389   2.137   1.838  0.5308 -0.2266  0.3813
 2470SOL    HW119043   2.439   2.062   1.871  1.1456  1.1526  2.5899
 2470SOL    HW219044   2.300   2.118   1.870  0.5034  1.9750  1.5758
 2471SOL     OW19045   1.834   3.268   5.091  0.6555 -0.4029  0.1004
 2471SOL    HW119046   1.754   3.304   5.128 -0.0721 -1.2386 -0.6762
 2471SOL    HW219047   1.808   3.180   5.066 -1.1562  0.3248 -0.6158
 2472SOL     OW19048   2.499   2.091   7.760 -0.0976  0.2310 -0.0240
 2472SOL    HW119049   2.420   2.076   7.811  2.2566 -1.6633  3.0964
 2472SOL    HW219050   2.463   2.123   7.678 -1.4486 -3.2888 -0.8261
 2473SOL     OW19051   4.552   1.021  13.906  0.5374 -0.5639 -0.0772
 2473SOL    HW119052   4.514   1.020  13.819  1.0202  1.2200 -0.3091
 2473SOL    HW219053   4.627   1.078  13.891  0.4372 -0.7314 -1.2266
 2474SOL     OW19054   0.041   1.125   3.765 -0.6026 -0.4096 -0.0818
 2474SOL    HW119055   0.098   1.170   3.703 -0.5125  0.2222  0.4633
 2474SOL    HW219056   0.075   1.154   3.849 -1.3792  0.8872 -0.2209
 2475SOL     OW19057   3.712   4.624  16.007 -0.5785  0.2812  0.5229
 2475SOL    HW119058   3.642   4.596  15.947  0.8718 -2.3431  0.0222
 2475SOL    HW219059   3.785   4.586  15.957  1.4051  1.6663  2.3497
 2476SOL     OW19060   4.619   0.876  17.663 -0.3826 -0.1782  0.7697
 2476SOL    HW119061   4.532   0.875  17.623 -0.1371  1.8500  0.2091
 2476SOL    HW219062   4.610   0.959  17.710  1.5439 -0.5517  1.8349
 2477SOL     OW19063   3.993   3.927   1.894  0.5677 -0.1116 -0.0290
 2477SOL    HW119064   3.906   3.944   1.859  0.2330 -0.7324  0.4913
 2477SOL    HW219065   4.000   3.990   1.966  3.0830  1.2183 -1.4452
 2478SOL     OW19066   0.646   3.057  15.445 -0.5571 -0.0781 -0.1369
 2478SOL    HW119067   0.730   3.059  15.490 -0.1878  0.7057 -0.8476
 2478SOL    HW219068   0.675   3.042  15.355  0.4866  0.8449  0.0511
 2479SOL     OW19069   2.051   3.865   1.869 -0.0036  0.9121  0.2798
 2479SOL    HW119070   2.008   3.780   1.858 -0.5755  0.9528  2.0931
 2479SOL    HW219071   2.127   3.830   1.916  0.5250  0.7956 -0.6704
 2480SOL     OW19072   3.389   3.852   0.262 -0.0850 -0.3986  0.1712
 2480SOL    HW119073   3.308   3.846   0.314 -0.0470  2.1610  0.5292
 2480SOL    HW219074   3.444   3.789   0.308 -1.3576 -1.4774  0.2381
 2481SOL     OW19075   3.027   3.869   3.370 -0.1895 -0.3511 -0.1586
 2481SOL    HW119076   2.965   3.915   3.314  0.2276  0.8825  0.3887
 2481SOL    HW219077   2.966   3.806   3.408  0.8398 -2.4763 -2.0053
 2482SOL     OW19078   4.533   1.509   3.846 -0.5510 -0.4573 -0.0028
 2482SOL    HW119079   4.447   1.472   3.867  0.5309 -2.8933  0.1535
 2482SOL    HW219080   4.564   1.442   3.785 -0.0472 -0.8586  0.7037
 2483SOL     OW19081   4.530   0.960  12.580  0.3587 -0.2457 -0.4023
 2483SOL    HW119082   4.469   0.997  12.516  0.6496  1.5259  0.3296
 2483SOL    HW219083   4.483   0.985  12.660  0.3834 -0.2733 -0.3793
 2484SOL     OW19084   4.545   1.662   0.991 -0.6251  0.6403  0.5727
 2484SOL    HW119085   4.560   1.756   0.991 -2.1715  0.8854  1.9423
 2484SOL    HW219086   4.632   1.632   1.019 -0.2475 -0.3425 -1.6470
 2485SOL     OW19087   1.156   2.126   3.148  0.0358 -0.0897  0.0316
 2485SOL    HW119088   1.153   2.111   3.053  0.4993  3.8317 -0.6132
 2485SOL    HW219089   1.132   2.041   3.183 -0.1331 -0.5108 -1.1220
 2486SOL     OW19090   0.456   1.318   3.764  0.3549 -0.1051  0.5218
 2486SOL    HW119091   0.534   1.302   3.817  0.8918 -0.0808 -0.2727
 2486SOL    HW219092   0.406   1.238   3.781  0.0799 -0.0935 -0.2143
 2487SOL     OW19093   0.319   4.545   8.283  0.3739 -0.0486  0.1825
 2487SOL    HW119094   0.285   4.458   8.266  1.0665 -0.0321 -1.2980
 2487SOL    HW219095   0.371   4.553   8.203  2.4728  1.5219  1.6947
 2488SOL     OW19096   0.207   0.720   9.740  0.2078  0.0482 -0.0435
 2488SOL    HW119097   0.212   0.805   9.698  0.9202  1.2243  2.4299
 2488SOL    HW219098   0.131   0.684   9.695  0.6556 -0.4659 -0.3948
 2489SOL     OW19099   1.340   3.200  16.289  0.2773 -0.4874  1.5847
 2489SOL    HW119100   1.391   3.275  16.321  0.0205  0.9754 -1.3883
 2489SOL    HW219101   1.268   3.249  16.248  0.2491 -0.6106  1.4897
 2490SOL     OW19102   2.865   3.979  11.988  0.0654  0.0914  0.4772
 2490SOL    HW119103   2.859   3.903  12.046  3.0135 -0.1490  0.4958
 2490SOL    HW219104   2.789   4.030  12.014 -0.4639 -0.1142 -0.6828
 2491SOL     OW19105   2.373   0.246   4.313  0.5713  0.6546 -0.2538
 2491SOL    HW119106   2.341   0.247   4.223 -0.3525  2.0168  0.0826
 2491SOL    HW219107   2.401   0.337   4.307  1.3352  0.3815 -0.8427
 2492SOL     OW19108   4.135   4.619   6.127  0.5154  0.4462 -0.5775
 2492SOL    HW119109   4.143   4.530   6.092 -2.4025  0.4777 -1.3428
 2492SOL    HW219110   4.039   4.621   6.121  0.5442 -0.3233 -1.3106
 2493SOL     OW19111   2.003   3.705   2.151 -0.1824  0.1382  0.2512
 2493SOL    HW119112   2.003   3.663   2.065 -0.7133 -2.3166  1.4626
 2493SOL    HW219113   1.934   3.771   2.145 -0.0141  0.4428  1.5252
 2494SOL     OW19114   3.758   2.142   9.851  0.0601 -0.4047  0.5022
 2494SOL    HW119115   3.663   2.136   9.862  0.2024  0.0027  2.0740
 2494SOL    HW219116   3.781   2.144   9.944 -1.7293 -0.6546  0.9385
 2495SOL     OW19117   1.455   2.398   5.606 -0.6836 -0.1170 -0.4768
 2495SOL    HW119118   1.485   2.333   5.670 -0.9183 -0.7558 -1.0085
 2495SOL    HW219119   1.385   2.440   5.656 -0.8037  1.0868 -1.6640
 2496SOL     OW19120   4.098   4.715   3.872 -0.4150 -0.4757 -0.4671
 2496SOL    HW119121   4.140   0.025   3.943 -1.2077 -0.9643  0.3175
 2496SOL    HW219122   4.027   4.665   3.911 -0.2835  0.9157  1.5889
 2497SOL     OW19123   4.481   2.189   7.520 -0.0118  0.7282  0.3550
 2497SOL    HW119124   4.394   2.177   7.557  0.1886  0.0452  0.6111
 2497SOL    HW219125   4.502   2.272   7.563 -2.0853  0.5095  1.8185
 2498SOL     OW19126   2.822   1.634  12.078  0.4082 -0.1073  0.1294
 2498SOL    HW119127   2.842   1.541  12.083 -0.9116 -0.4323 -0.5655
 2498SOL    HW219128   2.793   1.647  12.168  0.8875  0.1681  0.2401
 2499SOL     OW19129   2.970   4.393   4.270  0.0694  0.0634 -0.2302
 2499SOL    HW119130   3.027   4.362   4.200  1.0166 -1.1084  1.0704
 2499SOL    HW219131   3.005   4.481   4.287 -0.8863  0.1681  1.1496
 2500SOL     OW19132   4.405   1.697  12.966 -0.3688 -0.0870  0.2951
 2500SOL    HW119133   4.420   1.790  12.951  2.1497 -0.2486  1.6897
 2500SOL    HW219134   4.458   1.677  13.043 -2.0302 -0.4482  1.3315
 2501SOL     OW19135   2.887   2.416   7.835  0.1592  0.5063  0.2682
 2501SOL    HW119136   2.885   2.341   7.776 -0.4973  1.0340 -0.3771
 2501SOL    HW219137   2.844   2.385   7.915 -3.2836  0.0981 -1.7382
 2502SOL     OW19138   2.967   3.749  13.284  0.4722 -0.2235 -0.4161
 2502SOL    HW119139   3.033   3.773  13.349  0.4776  3.2538 -1.7237
 2502SOL    HW219140   3.020   3.742  13.205 -0.8690  1.1168 -1.4352
 2503SOL     OW19141   2.563   4.420  16.038 -0.0084  0.1550 -0.7009
 2503SOL    HW119142   2.631   4.479  16.071  0.1901 -1.9522  2.7567
 2503SOL    HW219143   2.487   4.478  16.032 -0.6072 -0.6322 -0.6967
 2504SOL     OW19144   1.062   1.648   6.568  0.3970  0.2737 -0.3416
 2504SOL    HW119145   0.978   1.655   6.523  1.0056 -0.9906 -1.6872
 2504SOL    HW219146   1.068   1.733   6.611 -0.6910 -0.1549  0.6385
 2505SOL     OW19147   4.294   4.494   2.980 -0.0106  0.3405 -0.3089
 2505SOL    HW119148   4.220   4.449   3.020 -0.0189 -1.0019 -1.8284
 2505SOL    HW219149   4.253   4.517   2.896  0.5311  3.0749  0.1750
 2506SOL     OW19150   2.408   3.526   6.243 -0.4752  0.2997  0.1969
 2506SOL    HW119151   2.395   3.614   6.278  2.6089  0.3128  1.2651
 2506SOL    HW219152   2.437   3.476   6.319  1.1201  0.7534 -0.1025
 2507SOL     OW19153   0.613   0.244   4.115 -0.6104  0.1357 -0.4065
 2507SOL    HW119154   0.709   0.242   4.117 -0.6313  0.8632  1.1668
 2507SOL    HW219155   0.610   0.324   4.062  1.6107  1.7155  1.8526
 2508SOL     OW19156   2.661   3.830   5.021 -0.6598  0.3487  0.5977
 2508SOL    HW119157   2.603   3.904   5.039  1.7395  3.2216 -3.3205
 2508SOL    HW219158   2.651   3.771   5.095 -1.4563 -0.4705 -0.1691
 2509SOL     OW19159   1.913   4.661   9.490 -0.6496 -0.1216  0.1037
 2509SOL    HW119160   1.896   4.634   9.581 -0.4187  0.1420  0.2267
 2509SOL    HW219161   1.849   4.617   9.435 -1.2305  0.5043  0.2836
 2510SOL     OW19162   1.807   3.639   6.450 -0.3557  0.3834 -0.0610
 2510SOL    HW119163   1.735   3.604   6.502 -0.8394 -0.5852 -1.3758
 2510SOL    HW219164   1.781   3.730   6.445  3.4998  1.6330  2.5118
 2511SOL     OW19165   0.955   4.134  14.565  0.7637  0.1938  0.1148
 2511SOL    HW119166   1.007   4.068  14.610 -0.3740  0.2321  1.4594
 2511SOL    HW219167   0.885   4.152  14.627  1.5484 -2.1374  1.6868
 2512SOL     OW19168   1.504   3.707  15.824 -0.0932  0.2043 -0.3877
 2512SOL    HW119169   1.444   3.775  15.854 -1.0458 -0.3624 -1.0172
 2512SOL    HW219170   1.550   3.695  15.907 -0.5413 -2.1463 -0.4794
 2513SOL     OW19171   3.238   0.883   3.468 -0.4669 -1.0394 -0.1766
 2513SOL    HW119172   3.167   0.928   3.513 -2.0476 -1.3304 -2.3863
 2513SOL    HW219173   3.268   0.829   3.541  0.0908 -3.3221 -2.1003
 2514SOL     OW19174   3.196   0.199   3.161 -0.3430 -0.6676  0.0445
 2514SOL    HW119175   3.226   0.258   3.230 -1.3448 -1.0485  0.8099
 2514SOL    HW219176   3.103   0.219   3.169 -0.4964 -1.7541  0.9162
 2515SOL     OW19177   2.668   2.163   7.154  0.2598  0.6257  0.1349
 2515SOL    HW119178   2.723   2.129   7.084  1.6257  1.2895  0.8916
 2515SOL    HW219179   2.650   2.255   7.133 -1.5706  0.2237 -0.0859
 2516SOL     OW19180   2.793   2.928  17.106  0.0876  0.2849  0.1892
 2516SOL    HW119181   2.844   3.009  17.117 -1.1470  1.0501  0.2756
 2516SOL    HW219182   2.786   2.900  17.197  0.7113  1.3749  0.5783
 2517SOL     OW19183   4.522   2.361   8.333  0.0650 -0.3485 -0.6903
 2517SOL    HW119184   4.522   2.345   8.239 -1.3667 -1.5795 -0.4869
 2517SOL    HW219185   4.523   2.456   8.344 -0.4962 -0.3924 -0.2431
 2518SOL     OW19186   2.952   4.400   0.931 -0.3315  0.6019 -0.4271
 2518SOL    HW119187   2.927   4.314   0.897  0.2939 -0.4005  1.6133
 2518SOL    HW219188   3.042   4.387   0.961 -0.4524  2.5388  0.8211
 2519SOL     OW19189   2.647   3.725  13.883  0.0745 -0.3443  0.0333
 2519SOL    HW119190   2.568   3.678  13.912 -0.5890 -0.3829 -1.8345
 2519SOL    HW219191   2.667   3.684  13.799  0.1473 -0.8965  0.3170
 2520SOL     OW19192   1.343   3.339   6.623  0.8987 -0.0807  0.6577
 2520SOL    HW119193   1.430   3.315   6.655  1.6619 -0.2668 -1.5567
 2520SOL    HW219194   1.273   3.281   6.652  1.2257 -1.3117 -1.0344
 2521SOL     OW19195   0.285   4.573   6.101  0.3170  0.1053 -0.3921
 2521SOL    HW119196   0.230   4.626   6.158  0.7795  1.0435 -0.8238
 2521SOL    HW219197   0.270   4.492   6.150 -0.6202  1.3017  1.2947
 2522SOL     OW19198   4.092   2.303   7.424  0.4804  0.0479 -0.2967
 2522SOL    HW119199   4.026   2.329   7.361 -0.8447 -3.0601 -0.1697
 2522SOL    HW219200   4.162   2.314   7.360 -0.4128 -0.3058 -1.3154
 2523SOL     OW19201   0.833   2.104   8.543 -0.0984 -0.1440  1.3169
 2523SOL    HW119202   0.913   2.052   8.555  0.1130 -0.6491 -2.4456
 2523SOL    HW219203   0.867   2.173   8.485  0.4240 -1.1646  0.4227
 2524SOL     OW19204   4.157   4.689   4.295  0.4252  0.3473  0.4376
 2524SOL    HW119205   4.136   4.596   4.283  1.9190  0.3753 -2.4906
 2524SOL    HW219206   4.226   4.681   4.361 -1.7901 -1.0671  2.5446
 2525SOL     OW19207   0.118   0.525  11.970  0.0189 -0.9031  0.6449
 2525SOL    HW119208   0.163   0.503  12.052  0.0177 -0.1822  0.8374
 2525SOL    HW219209   0.180   0.586  11.930 -2.0165 -0.0679 -1.1794
 2526SOL     OW19210   1.688   1.406   6.809  0.2897  0.2295 -0.6203
 2526SOL    HW119211   1.693   1.490   6.764  2.3391 -0.4017 -1.5447
 2526SOL    HW219212   1.615   1.361   6.766  0.1877  0.6147 -0.8541
 2527SOL     OW19213   1.215   0.800   8.238 -0.1049  0.1125  0.1403
 2527SOL    HW119214   1.291   0.742   8.228  0.7361  0.7851  2.5126
 2527SOL    HW219215   1.141   0.741   8.226 -0.1148  0.2740 -0.5668
 2528SOL     OW19216   1.436   0.661   8.051  0.4309 -0.0102 -0.0823
 2528SOL    HW119217   1.384   0.587   8.082  1.1107  0.1287  1.4140
 2528SOL    HW219218   1.379   0.707   7.991  0.3974  0.7679  0.5429
 2529SOL     OW19219   0.553   0.530   7.493 -0.2973  0.4421 -0.2453
 2529SOL    HW119220   0.593   0.580   7.422 -0.3631  1.2556  0.2974
 2529SOL    HW219221   0.459   0.549   7.485 -0.5869 -0.7102  0.4510
 2530SOL     OW19222   3.776   1.896   1.893 -0.6172 -0.1960 -0.0390
 2530SOL    HW119223   3.819   1.978   1.868  1.1774 -1.1882 -0.2289
 2530SOL    HW219224   3.842   1.865   1.954 -2.2743 -1.2079  1.2197
 2531SOL     OW19225   2.293   3.927   2.158 -0.6995 -0.1985 -0.1583
 2531SOL    HW119226   2.372   3.960   2.115  0.2721 -0.4631  1.4663
 2531SOL    HW219227   2.240   4.006   2.164  0.4345  0.5573 -0.1412
 2532SOL     OW19228   4.474   2.730   5.885 -0.8657 -0.0222 -0.5486
 2532SOL    HW119229   4.439   2.650   5.925  0.6628  0.4741  1.8060
 2532SOL    HW219230   4.543   2.711   5.823 -0.9365 -1.0998 -0.2937
 2533SOL     OW19231   0.283   1.763  14.482 -0.1025  0.0666  0.0885
 2533SOL    HW119232   0.374   1.735  14.482 -0.6304 -1.6109  0.9818
 2533SOL    HW219233   0.280   1.856  14.508 -1.0037 -0.3008  1.2877
 2534SOL     OW19234   0.218   2.304   1.171 -0.1083  0.5224 -0.4851
 2534SOL    HW119235   0.164   2.375   1.138  0.0458 -0.2742 -2.4441
 2534SOL    HW219236   0.156   2.247   1.217 -0.4043 -0.0740 -1.6042
 2535SOL     OW19237   2.151   2.750  11.847  0.5214 -0.7442 -0.2025
 2535SOL    HW119238   2.215   2.745  11.918  0.0926  0.9701  0.2923
 2535SOL    HW219239   2.198   2.697  11.783 -0.5945 -0.7783 -0.9907
 2536SOL     OW19240   0.303   0.205   7.511 -0.3433  0.4164 -0.0409
 2536SOL    HW119241   0.265   0.119   7.528  0.3985 -0.2296 -1.6039
 2536SOL    HW219242   0.389   0.206   7.553 -1.5366 -0.1773  2.3950
 2537SOL     OW19243   0.317   2.414  11.155 -0.0360  0.1901 -0.3065
 2537SOL    HW119244   0.375   2.480  11.191  1.8676 -1.7237  0.1140
 2537SOL    HW219245   0.379   2.394  11.085 -0.2342 -5.0643  1.0423
 2538SOL     OW19246   0.062   3.340   4.461  0.2465 -0.2633  0.3329
 2538SOL    HW119247   0.147   3.385   4.462  1.1691 -2.0190  1.2227
 2538SOL    HW219248   4.737   3.390   4.410  1.3975  1.8681  1.0015
 2539SOL     OW19249   3.473   0.027   7.928 -0.3041  0.2778 -0.3170
 2539SOL    HW119250   3.485   4.670   7.928  0.5513  0.3917 -1.0213
 2539SOL    HW219251   3.558   0.063   7.904  0.0889  0.3109  1.1270
 2540SOL     OW19252   0.710   4.451  13.040  0.0231 -0.1758  0.0313
 2540SOL    HW119253   0.633   4.492  13.080  0.2989 -0.6423  1.0563
 2540SOL    HW219254   0.747   4.416  13.121 -0.7209  0.8057  0.7950
 2541SOL     OW19255   1.258   3.674   7.192 -0.3485  0.5886  0.1198
 2541SOL    HW119256   1.260   3.694   7.286  2.4857  2.2068 -0.3021
 2541SOL    HW219257   1.173   3.629   7.189 -0.1517  0.2043  0.3470
 2542SOL     OW19258   0.275   0.799  14.667  0.4837 -0.0399 -0.4067
 2542SOL    HW119259   0.356   0.843  14.638  1.7117 -0.3133  2.5604
 2542SOL    HW219260   0.306   0.709  14.674  2.1091  0.5080 -0.3362
 2543SOL     OW19261   2.931   1.414   4.959 -0.2026  0.3963  0.2918
 2543SOL    HW119262   2.912   1.348   4.892 -0.2363 -0.3964  1.0795
 2543SOL    HW219263   2.990   1.364   5.016  0.2104  0.6240  0.0616
 2544SOL     OW19264   1.757   3.701   8.007  0.3953  0.1622  0.0025
 2544SOL    HW119265   1.809   3.754   7.946  0.7684 -0.5225 -0.2793
 2544SOL    HW219266   1.786   3.717   8.097  2.5119 -0.4145 -0.5631
 2545SOL     OW19267   0.049   3.454   5.965 -0.1941  0.1610 -0.4554
 2545SOL    HW119268   4.706   3.405   5.970  0.6065 -1.1367 -0.1820
 2545SOL    HW219269   0.023   3.546   5.965 -0.3986  0.1032  0.5654
 2546SOL     OW19270   2.833   4.685  16.970  0.2466  0.3587 -0.2284
 2546SOL    HW119271   2.790   4.698  17.055 -0.5476 -0.7087 -0.4671
 2546SOL    HW219272   2.795   4.606  16.931 -0.2279  0.2657  0.4222
 2547SOL     OW19273   3.813   1.683   9.065 -0.1668 -0.1040  0.0343
 2547SOL    HW119274   3.732   1.728   9.040 -1.1234 -0.7498  1.9863
 2547SOL    HW219275   3.833   1.724   9.149  1.2337 -2.8970  1.0663
 2548SOL     OW19276   0.368   2.443   7.065  0.4605  0.6440  0.5944
 2548SOL    HW119277   0.403   2.415   6.980 -3.3549 -0.3273 -0.6686
 2548SOL    HW219278   0.359   2.538   7.057  1.1704  0.8970  2.9652
 2549SOL     OW19279   2.291   2.001   5.207  0.3655  0.2599  0.4341
 2549SOL    HW119280   2.358   2.069   5.208  2.2699 -1.6140  0.5706
 2549SOL    HW219281   2.258   1.978   5.294  0.1806 -1.0605  0.0217
 2550SOL     OW19282   3.099   3.086   6.853 -0.1791  0.4055  0.2563
 2550SOL    HW119283   3.192   3.087   6.875  0.6193  2.7832 -3.2912
 2550SOL    HW219284   3.069   3.002   6.887  4.4635 -0.8768  1.2347
 2551SOL     OW19285   4.733   0.843   8.223  0.2879 -0.2627 -0.5336
 2551SOL    HW119286   0.000   0.933   8.189  0.2158 -0.9338 -2.3153
 2551SOL    HW219287   0.026   0.854   8.313 -4.6461 -0.0768  1.1013
 2552SOL     OW19288   0.261   3.554   4.465  0.2373 -0.0003  0.6397
 2552SOL    HW119289   0.282   3.600   4.383  1.6586 -0.8866  0.5006
 2552SOL    HW219290   0.231   3.629   4.515 -2.0611 -0.0447 -0.6553
 2553SOL     OW19291   4.696   3.265  12.726  0.0498 -0.5208  0.1153
 2553SOL    HW119292   0.047   3.297  12.736  0.1022 -0.3962 -0.7887
 2553SOL    HW219293   4.648   3.319  12.790 -1.7121 -2.9278  0.8203
 2554SOL     OW19294   3.126   4.032   5.343  0.1899  0.0040  0.2548
 2554SOL    HW119295   3.125   4.005   5.434 -2.4681 -1.9812 -0.3881
 2554SOL    HW219296   3.101   4.124   5.352  0.2249  0.0879 -0.4408
 2555SOL     OW19297   3.965   1.405   7.599 -0.2116  0.0806  0.6090
 2555SOL    HW119298   4.059   1.418   7.599 -0.1367 -0.4335 -2.4886
 2555SOL    HW219299   3.945   1.416   7.692 -0.6314 -2.0252  0.7566
 2556SOL     OW19300   4.054   3.350   4.687  0.4254  0.2595  0.6134
 2556SOL    HW119301   4.076   3.260   4.664  0.7969  0.3896  0.4515
 2556SOL    HW219302   4.125   3.405   4.655 -0.0358  1.5106  1.7389
 2557SOL     OW19303   3.287   4.559   3.893  0.7143  0.1200  0.7267
 2557SOL    HW119304   3.381   4.555   3.910  0.2382 -2.3015  2.7463
 2557SOL    HW219305   3.281   4.495   3.823  2.4354 -0.2702  0.9305
 2558SOL     OW19306   0.717   2.958   5.582 -0.6042 -0.1218  0.0397
 2558SOL    HW119307   0.717   2.937   5.489  0.4551  0.5706 -0.1182
 2558SOL    HW219308   0.810   2.968   5.599 -0.8379 -0.5710  1.5894
 2559SOL     OW19309   3.093   2.186  15.846  0.0231 -0.4196  0.0019
 2559SOL    HW119310   3.084   2.278  15.871  1.2798 -0.2001 -0.3579
 2559SOL    HW219311   3.011   2.166  15.802 -0.0308  1.2960 -0.6857
 2560SOL     OW19312   0.683   0.731   5.335 -0.2236  0.3748  0.3971
 2560SOL    HW119313   0.658   0.639   5.323  0.4168  0.2130  0.3119
 2560SOL    HW219314   0.778   0.731   5.346 -0.1476  0.2721 -0.2359
 2561SOL     OW19315   3.118   2.201   6.807  0.8987 -0.3638  0.3451
 2561SOL    HW119316   3.080   2.150   6.736  0.8815  0.8337 -0.4968
 2561SOL    HW219317   3.089   2.292   6.797  0.4444 -0.7252 -1.6066
 2562SOL     OW19318   2.159   0.922   4.372  0.0125  0.5989 -0.1041
 2562SOL    HW119319   2.208   1.004   4.379 -2.7748  2.2160  0.6990
 2562SOL    HW219320   2.153   0.908   4.277 -0.4703  0.1102 -0.0038
 2563SOL     OW19321   3.681   3.172   5.492 -0.2301  0.1402 -0.2063
 2563SOL    HW119322   3.701   3.175   5.398 -0.3295  2.8977 -0.1513
 2563SOL    HW219323   3.649   3.083   5.507 -2.4110  0.9894  0.2141
 2564SOL     OW19324   3.204   0.897   7.825  0.3469  0.0942  0.2794
 2564SOL    HW119325   3.134   0.946   7.781  0.2481 -0.5494 -0.2821
 2564SOL    HW219326   3.267   0.906   7.753 -0.5804  1.3104 -0.3747
 2565SOL     OW19327   1.266   3.690  11.058  0.1580  0.2957  0.5110
 2565SOL    HW119328   1.277   3.768  11.113  2.4568 -0.2606  0.8335
 2565SOL    HW219329   1.184   3.652  11.090  0.4955 -0.9885 -0.1419
 2566SOL     OW19330   2.405   3.276   0.468  0.5066 -0.1327  0.0917
 2566SOL    HW119331   2.458   3.292   0.545  2.4575  2.5011 -1.8132
 2566SOL    HW219332   2.354   3.201   0.499  0.4057 -0.0974  0.0138
 2567SOL     OW19333   4.052   1.933   9.212  0.3820  0.1159 -0.4879
 2567SOL    HW119334   4.009   2.010   9.175 -2.4990 -1.7161 -0.9132
 2567SOL    HW219335   3.985   1.898   9.269  3.3516  0.1362  2.9922
 2568SOL     OW19336   3.538   3.353  13.246  0.0724  0.4046  0.1308
 2568SOL    HW119337   3.620   3.303  13.245  0.2993  0.7175  2.1866
 2568SOL    HW219338   3.567   3.439  13.214  1.3472 -0.3219 -0.6681
 2569SOL     OW19339   2.248   0.418   3.646 -0.5419 -0.7732 -0.1257
 2569SOL    HW119340   2.337   0.429   3.613  0.0413 -1.6289  1.1903
 2569SOL    HW219341   2.262   0.425   3.740 -1.6937  0.0197 -0.0118
 2570SOL     OW19342   0.923   3.356   5.586  0.6280  0.4185 -0.4050
 2570SOL    HW119343   0.887   3.442   5.566  0.2841  0.0846 -1.2223
 2570SOL    HW219344   0.853   3.332   5.647  1.1684 -0.1230  0.0106
 2571SOL     OW19345   3.037   4.072   4.145 -0.1300 -0.4580 -0.0526
 2571SOL    HW119346   3.114   4.020   4.120 -0.7172 -1.2834 -0.1482
 2571SOL    HW219347   3.070   4.119   4.222  0.4679  0.6850 -1.0113
 2572SOL     OW19348   3.133   0.548  14.174 -0.1306  0.6483 -0.5706
 2572SOL    HW119349   3.131   0.526  14.081  2.2220 -0.8330 -0.2758
 2572SOL    HW219350   3.086   0.632  14.175 -0.3106  0.5326  1.5520
 2573SOL     OW19351   2.333   0.064  11.081 -0.0220  0.1156 -0.1299
 2573SOL    HW119352   2.357   0.067  10.988 -2.3214 -0.4295 -0.7367
 2573SOL    HW219353   2.322   0.157  11.099  0.6062  0.5888 -2.2178
 2574SOL     OW19354   1.012   3.120   8.172  0.2029 -0.0520 -0.3322
 2574SOL    HW119355   0.946   3.058   8.142  0.8417 -0.5716 -0.6280
 2574SOL    HW219356   1.005   3.192   8.110  0.6391  1.6008  1.5190
 2575SOL     OW19357   2.093   0.584   8.631  0.3489 -0.0565  0.0938
 2575SOL    HW119358   2.156   0.618   8.568 -0.5581 -0.2898 -0.9394
 2575SOL    HW219359   2.153   0.510   8.639  0.8754  0.3891  0.2475
 2576SOL     OW19360   2.434   0.639   5.790  0.5000 -0.1864  0.0934
 2576SOL    HW119361   2.440   0.628   5.885  0.2707 -0.0007  0.1280
 2576SOL    HW219362   2.524   0.636   5.760  0.2687 -1.3704 -0.4735
 2577SOL     OW19363   0.998   3.762   5.901 -0.2396 -0.6903 -0.2200
 2577SOL    HW119364   1.093   3.763   5.908 -0.2009 -0.9883 -0.7054
 2577SOL    HW219365   0.983   3.753   5.995  0.1704 -1.5456 -0.2400
 2578SOL     OW19366   1.106   3.652  11.989 -0.3069  0.2098 -0.6249
 2578SOL    HW119367   1.072   3.688  12.071 -1.3556 -2.7526  0.2811
 2578SOL    HW219368   1.148   3.571  12.017 -0.0720 -0.1302 -1.9625
 2579SOL     OW19369   2.623   3.620   2.604  0.4281 -0.1423 -0.5663
 2579SOL    HW119370   2.656   3.616   2.514  0.8491 -1.8744 -0.3307
 2579SOL    HW219371   2.536   3.582   2.597 -0.9068  2.4907  1.5020
 2580SOL     OW19372   4.169   4.089   9.424  0.2990  0.5142 -0.0267
 2580SOL    HW119373   4.225   4.158   9.388 -0.2024 -0.3990 -2.5965
 2580SOL    HW219374   4.226   4.015   9.403  1.3236  0.5316  2.7036
 2581SOL     OW19375   0.145   3.469   9.306 -0.0294 -0.0345  0.4741
 2581SOL    HW119376   0.090   3.548   9.302  2.4375  1.6073 -0.8288
 2581SOL    HW219377   0.079   3.418   9.353 -1.6708  1.2191 -0.4177
 2582SOL     OW19378   3.645   1.926   7.573 -0.1093  0.5121  0.3256
 2582SOL    HW119379   3.675   1.896   7.659  1.6260  0.2083 -0.3864
 2582SOL    HW219380   3.714   1.897   7.512 -0.1887  1.6667 -0.3250
 2583SOL     OW19381   1.948   1.350  11.085 -0.2275  0.3307 -0.1321
 2583SOL    HW119382   1.920   1.263  11.056 -0.2005 -0.1977  1.4512
 2583SOL    HW219383   1.865   1.396  11.074 -0.9839 -1.5721 -2.4478
 2584SOL     OW19384   2.733   0.529   1.520 -0.6346  0.1907 -1.0732
 2584SOL    HW119385   2.684   0.543   1.601 -1.4340 -1.6385 -1.2501
 2584SOL    HW219386   2.736   0.433   1.515  0.8283  0.1692 -0.0239
 2585SOL     OW19387   0.422   2.844   6.516  0.6803 -0.2180  0.0468
 2585SOL    HW119388   0.409   2.917   6.577 -0.2487 -2.3159  2.4000
 2585SOL    HW219389   0.516   2.847   6.535  0.3123 -3.5803  2.3546
 2586SOL     OW19390   2.672   1.097   1.333  0.5644 -0.2996 -0.0731
 2586SOL    HW119391   2.690   1.003   1.325  0.9845 -0.1399 -1.0584
 2586SOL    HW219392   2.720   1.132   1.258  0.0588  2.3905  0.8669
 2587SOL     OW19393   4.462   3.996   7.331 -0.1738 -0.0955 -0.0384
 2587SOL    HW119394   4.489   3.919   7.382  1.9470  0.5885 -0.1632
 2587SOL    HW219395   4.427   3.944   7.258 -1.5693  1.8673 -0.7859
 2588SOL     OW19396   1.017   3.851   2.887 -0.3418 -1.0266 -0.2869
 2588SOL    HW119397   0.971   3.792   2.828 -2.2028 -0.9006  1.0335
 2588SOL    HW219398   0.955   3.863   2.959 -0.9077  0.3162 -1.0052
 2589SOL     OW19399   0.335   3.148   9.658 -0.0357  0.5553 -0.3356
 2589SOL    HW119400   0.381   3.102   9.728  0.3956  0.7219 -0.5082
 2589SOL    HW219401   0.402   3.160   9.591  0.0439  2.6782  0.1291
 2590SOL     OW19402   0.465   0.629   8.869  0.0961  0.3061  1.1388
 2590SOL    HW119403   0.432   0.554   8.918 -1.7909 -0.9736 -2.1215
 2590SOL    HW219404   0.513   0.591   8.795  0.1541 -1.9996  2.3771
 2591SOL     OW19405   3.439   0.574   4.948 -0.6886  0.0677  0.3425
 2591SOL    HW119406   3.451   0.669   4.939 -2.8129  0.2607 -0.4353
 2591SOL    HW219407   3.421   0.560   5.041  1.2074  2.3092  1.0476
 2592SOL     OW19408   0.832   1.911   5.740 -0.0946  0.2581  0.7377
 2592SOL    HW119409   0.892   1.863   5.683  0.2134  0.3342  0.9970
 2592SOL    HW219410   0.802   1.976   5.676  0.9162  0.3942  0.4093
 2593SOL     OW19411   3.010   4.685   6.101  0.7482  0.5239 -0.2837
 2593SOL    HW119412   3.097   4.723   6.099  0.5509  0.9972  0.2535
 2593SOL    HW219413   2.999   4.678   6.196 -1.2000 -0.5475 -0.5900
 2594SOL     OW19414   4.558   3.626   3.615  0.1475 -0.3045 -0.6780
 2594SOL    HW119415   4.532   3.578   3.536  0.5626 -1.0918 -0.3421
 2594SOL    HW219416   4.572   3.711   3.573 -0.6594  0.0189 -0.2865
 2595SOL     OW19417   3.990   1.148   7.431 -0.5067  0.0072 -0.3938
 2595SOL    HW119418   3.973   1.056   7.452 -0.4189  0.0996  0.0820
 2595SOL    HW219419   4.043   1.169   7.508 -1.9742  0.8494  0.3737
 2596SOL     OW19420   0.264   3.092   4.852  0.3334  0.4061  0.3251
 2596SOL    HW119421   0.180   3.088   4.807  0.4945 -0.1292  0.0638
 2596SOL    HW219422   0.309   3.047   4.781 -2.8973 -0.7231 -1.0079
 2597SOL     OW19423   0.432   2.932   1.095  0.5884 -0.3945  0.0590
 2597SOL    HW119424   0.453   3.020   1.128 -0.4152  0.0368 -0.4730
 2597SOL    HW219425   0.345   2.919   1.132 -0.3823  1.3762 -1.6556
 2598SOL     OW19426   4.713   0.938   4.715  0.2362  0.2388 -0.1948
 2598SOL    HW119427   4.634   0.887   4.730  1.3609 -1.4845 -0.1520
 2598SOL    HW219428   0.008   0.967   4.800  2.3289  0.4094 -1.0643
 2599SOL     OW19429   3.417   4.210   4.129  0.2328  0.3372 -0.3599
 2599SOL    HW119430   3.455   4.291   4.162  1.3344  0.2104 -1.3036
 2599SOL    HW219431   3.327   4.240   4.121  0.4343  1.6138  2.1225
 2600SOL     OW19432   2.955   0.320   9.841  0.3896 -0.2949  0.2926
 2600SOL    HW119433   2.932   0.233   9.807 -0.2081  0.2230 -0.6393
 2600SOL    HW219434   2.946   0.307   9.936  4.1276  2.3013  0.9793
 2601SOL     OW19435   0.570   2.201   6.539  0.5976 -0.2784  0.4710
 2601SOL    HW119436   0.549   2.271   6.600  1.0627  2.1633 -2.1855
 2601SOL    HW219437   0.557   2.234   6.451  0.3064  0.8489  0.9402
 2602SOL     OW19438   3.770   3.433  15.653 -0.3881 -0.0655  0.0438
 2602SOL    HW119439   3.716   3.478  15.717 -2.1905 -2.5232  0.2641
 2602SOL    HW219440   3.772   3.346  15.693  2.1197 -0.4433 -0.8763
 2603SOL     OW19441   1.463   1.544   5.568 -0.6701 -0.2201  0.6870
 2603SOL    HW119442   1.437   1.456   5.593 -0.3005 -0.1981  1.1432
 2603SOL    HW219443   1.507   1.511   5.489 -0.4942 -2.6505  1.8135
 2604SOL     OW19444   3.470   0.418   3.636  0.0031  0.3610  0.1807
 2604SOL    HW119445   3.400   0.453   3.580  0.0517 -1.9344 -1.3413
 2604SOL    HW219446   3.422   0.368   3.702  1.4378  0.2934  1.1572
 2605SOL     OW19447   1.926   2.366   7.592  0.9106  0.0542  0.0632
 2605SOL    HW119448   1.875   2.445   7.574 -1.0785 -1.4261 -0.8013
 2605SOL    HW219449   1.899   2.346   7.682 -0.3130 -0.5088 -0.4170
 2606SOL     OW19450   0.718   0.488   9.382  0.0616  0.3439  0.0714
 2606SOL    HW119451   0.675   0.457   9.461 -1.5766  1.1637 -0.5112
 2606SOL    HW219452   0.648   0.540   9.344  0.8505  0.6929 -0.9165
 2607SOL     OW19453   0.635   0.589   1.553  0.0041 -0.0488  0.4615
 2607SOL    HW119454   0.671   0.673   1.581  2.4285 -1.5894  1.9386
 2607SOL    HW219455   0.657   0.535   1.629 -0.4702 -2.2553 -0.9573
 2608SOL     OW19456   2.765   1.780   2.879  0.3823 -0.1086 -0.1300
 2608SOL    HW119457   2.767   1.774   2.783 -2.9373  1.5265 -0.2791
 2608SOL    HW219458   2.738   1.691   2.904 -1.8138  0.4129 -0.6827
 2609SOL     OW19459   1.994   4.726   3.582  0.1235 -0.6141  0.5790
 2609SOL    HW119460   1.976   4.649   3.637 -1.8298  0.8825  2.0429
 2609SOL    HW219461   2.088   4.736   3.596  0.2597 -0.1891 -0.6543
 2610SOL     OW19462   0.770   3.562   5.409 -1.1376  0.3931 -0.1780
 2610SOL    HW119463   0.691   3.512   5.385 -2.0668  1.5775  0.4000
 2610SOL    HW219464   0.826   3.567   5.331  0.3495 -1.7400  0.7632
 2611SOL     OW19465   2.161   3.709  17.585 -0.8290 -0.2788 -0.0393
 2611SOL    HW119466   2.118   3.635  17.628  0.9409 -1.8871 -1.0015
 2611SOL    HW219467   2.239   3.714  17.641 -1.0510  1.4765  0.1197
 2612SOL     OW19468   1.656   2.712   0.871  0.0151  0.0996 -0.1377
 2612SOL    HW119469   1.670   2.767   0.948  2.8809 -2.1589  0.9708
 2612SOL    HW219470   1.592   2.745   0.808 -0.7334 -2.3161 -0.6557
 2613SOL     OW19471   1.721   4.065   7.067 -0.5913  0.2352  0.4380
 2613SOL    HW119472   1.680   4.096   7.148 -2.2085 -0.0228 -0.2813
 2613SOL    HW219473   1.772   4.139   7.036  0.0579  0.5582  2.2776
 2614SOL     OW19474   1.863   1.897   6.695  0.4015 -0.1135  0.0139
 2614SOL    HW119475   1.874   1.984   6.655 -1.2483 -0.9887 -2.3345
 2614SOL    HW219476   1.774   1.900   6.729  0.5973 -1.0300  0.6008
 2615SOL     OW19477   2.949   2.741  17.265 -0.2850 -0.7363  0.2015
 2615SOL    HW119478   2.996   2.754  17.347 -1.8448  2.0719  0.6618
 2615SOL    HW219479   3.015   2.767  17.202 -0.5258 -2.2853 -0.6944
 2616SOL     OW19480   2.891   2.035  17.115  0.2197  0.2322 -0.3412
 2616SOL    HW119481   2.881   2.114  17.169  2.0576 -0.0696  0.4555
 2616SOL    HW219482   2.973   2.000  17.151 -1.0098 -1.6864  0.5612
 2617SOL     OW19483   0.633   4.514   4.149  0.4734 -0.0856 -0.2926
 2617SOL    HW119484   0.723   4.495   4.176  0.4030  0.0841  0.0598
 2617SOL    HW219485   0.617   4.600   4.187 -1.0184 -0.2704 -0.5004
 2618SOL     OW19486   2.111   2.146   4.718 -0.0814 -0.4572 -0.0758
 2618SOL    HW119487   2.169   2.107   4.784  0.4607 -0.0592 -0.3226
 2618SOL    HW219488   2.109   2.075   4.653 -1.6173  0.8049 -1.3969
 2619SOL     OW19489   1.156   3.787  10.274  0.0819  0.4225 -0.2120
 2619SOL    HW119490   1.213   3.820  10.343 -2.5193 -1.7137  2.9317
 2619SOL    HW219491   1.127   3.871  10.239 -0.2554  0.7521  0.8729
 2620SOL     OW19492   3.275   2.186   7.557 -0.0146 -0.2120  0.4274
 2620SOL    HW119493   3.266   2.212   7.649  0.1735 -2.7054  1.1470
 2620SOL    HW219494   3.303   2.095   7.554 -1.5158 -0.6863  1.0742
 2621SOL     OW19495   3.587   1.999  12.062  0.0956 -0.1496 -0.2408
 2621SOL    HW119496   3.619   2.052  12.135  1.0641 -1.6206  0.3908
 2621SOL    HW219497   3.583   2.075  12.003 -0.2123 -0.8833 -1.1689
 2622SOL     OW19498   1.234   3.045   4.390  0.2151  0.6562  0.2659
 2622SOL    HW119499   1.200   3.100   4.461  1.1710 -1.4882  2.3987
 2622SOL    HW219500   1.313   3.098   4.380  0.1041  1.0495  1.3992
 2623SOL     OW19501   3.925   0.145   4.481 -0.2606 -0.2952  0.0116
 2623SOL    HW119502   3.881   0.066   4.513  0.6114 -2.5919 -4.4655
 2623SOL    HW219503   3.999   0.137   4.541 -0.2156  1.5892  0.2126
 2624SOL     OW19504   3.957   2.077   2.282 -0.1259 -0.7613  0.2602
 2624SOL    HW119505   3.897   2.144   2.316  1.7252  1.9905 -1.9343
 2624SOL    HW219506   3.963   2.102   2.190 -0.4079  0.3347  0.5381
 2625SOL     OW19507   1.589   1.374   1.224  0.4389 -0.1383 -0.1694
 2625SOL    HW119508   1.671   1.373   1.175  1.1420  0.5262  1.0234
 2625SOL    HW219509   1.538   1.311   1.172 -0.1794  0.0346  0.2237
 2626SOL     OW19510   2.547   4.181  15.923  0.1426 -0.0491 -0.1901
 2626SOL    HW119511   2.497   4.198  15.843 -1.2171 -1.7582  0.2972
 2626SOL    HW219512   2.545   4.270  15.957  0.2117 -0.4643  0.8823
 2627SOL     OW19513   1.190   0.325   2.993 -0.1079  0.2518 -0.2405
 2627SOL    HW119514   1.262   0.347   3.052  0.5766  1.4134 -1.5062
 2627SOL    HW219515   1.236   0.297   2.914 -0.6408  2.5420 -1.3927
 2628SOL     OW19516   2.547   2.648   3.897  0.1197 -0.1894  0.0294
 2628SOL    HW119517   2.618   2.643   3.960 -0.9191  1.6659  1.3488
 2628SOL    HW219518   2.587   2.714   3.840 -0.1296 -0.2002 -0.1639
 2629SOL     OW19519   2.470   0.714   1.232 -0.1223  0.0613 -0.4792
 2629SOL    HW119520   2.440   0.624   1.223 -1.6402  0.5969 -0.7773
 2629SOL    HW219521   2.438   0.755   1.152 -1.5151 -0.6691 -0.2907
 2630SOL     OW19522   2.331   2.533   4.967  0.1504  0.1025  0.9993
 2630SOL    HW119523   2.264   2.521   4.900  2.3288  0.4128 -1.2430
 2630SOL    HW219524   2.279   2.587   5.027 -1.2018  0.4361 -0.4713
 2631SOL     OW19525   0.214   1.663  14.227  0.0935 -0.1279  0.1271
 2631SOL    HW119526   0.295   1.616  14.206 -1.3006 -2.7386  0.6131
 2631SOL    HW219527   0.243   1.713  14.304 -0.9493 -3.0164  2.3633
 2632SOL     OW19528   0.517   1.113   1.913 -0.5480 -0.5143 -0.1865
 2632SOL    HW119529   0.549   1.172   1.981 -1.0521  0.5226 -0.8412
 2632SOL    HW219530   0.455   1.162   1.858 -2.1823 -2.0649  0.2684
 2633SOL     OW19531   1.506   2.561   9.190 -0.4423 -0.0462 -0.5777
 2633SOL    HW119532   1.451   2.639   9.185  0.6252  0.8915  2.0020
 2633SOL    HW219533   1.588   2.600   9.221 -1.5281  0.5326  1.6249
 2634SOL     OW19534   1.906   1.950   1.526  0.3520  0.2075 -0.3753
 2634SOL    HW119535   1.827   1.987   1.486  0.7898  0.9237 -0.5794
 2634SOL    HW219536   1.952   1.892   1.466 -1.2386  0.0665 -1.4500
 2635SOL     OW19537   1.116   0.996   7.512 -0.1121 -0.5272 -0.3389
 2635SOL    HW119538   1.093   0.908   7.482  1.3389 -0.5219 -1.4772
 2635SOL    HW219539   1.054   1.004   7.584  0.9918 -0.1275  0.5605
 2636SOL     OW19540   2.288   2.449  15.382 -0.1352 -0.4561  0.0972
 2636SOL    HW119541   2.270   2.517  15.317  0.1953  1.6054  2.1702
 2636SOL    HW219542   2.351   2.483  15.446  0.1551 -0.2759 -0.2813
 2637SOL     OW19543   1.283   1.020  15.057 -0.2805  0.6595 -0.1764
 2637SOL    HW119544   1.289   1.105  15.012  2.5867 -0.4596 -1.8851
 2637SOL    HW219545   1.213   0.974  15.011 -0.5483  0.6993  0.1868
 2638SOL     OW19546   3.476   0.843   8.444 -0.9235 -0.2459 -0.3850
 2638SOL    HW119547   3.544   0.789   8.404 -1.8762 -1.2353 -0.6485
 2638SOL    HW219548   3.409   0.779   8.469 -1.5035  1.0460  1.3726
 2639SOL     OW19549   1.032   4.589   5.416 -0.1775  0.6111  0.2756
 2639SOL    HW119550   0.993   4.650   5.353 -2.2977 -1.0308  0.0034
 2639SOL    HW219551   1.082   4.650   5.471  2.7794 -1.2801 -0.3079
 2640SOL     OW19552   2.202   2.722   0.701  0.1813 -0.0378 -0.1430
 2640SOL    HW119553   2.113   2.759   0.702  0.4586  0.6159  0.2510
 2640SOL    HW219554   2.201   2.683   0.789 -2.1856 -1.5063 -0.7992
 2641SOL     OW19555   1.049   3.646   4.399 -0.5118 -0.0224  0.1204
 2641SOL    HW119556   1.111   3.666   4.329 -0.5091 -1.2920 -0.2406
 2641SOL    HW219557   0.984   3.716   4.396 -0.2121  0.3218  1.5794
 2642SOL     OW19558   3.479   3.914   6.130  0.4669 -0.3125 -0.4882
 2642SOL    HW119559   3.391   3.878   6.116  1.5788 -2.6541 -1.3817
 2642SOL    HW219560   3.523   3.845   6.082 -0.8789 -0.9760 -0.7558
 2643SOL     OW19561   0.324   1.027   2.058 -0.4248 -0.1563 -0.4863
 2643SOL    HW119562   0.384   1.042   2.131 -1.6029 -1.5672  0.7697
 2643SOL    HW219563   0.376   1.046   1.980  1.7706  0.1223  1.0261
 2644SOL     OW19564   0.922   1.958   6.921 -0.5746 -0.7428 -0.1509
 2644SOL    HW119565   0.986   1.942   6.851  1.1318  0.4231  1.1579
 2644SOL    HW219566   0.949   2.045   6.951 -1.5594 -0.4565 -0.1071
 2645SOL     OW19567   4.648   0.030  13.373  0.0153  0.0843  0.4648
 2645SOL    HW119568   4.623   4.680  13.345  1.1733 -0.7468  2.0826
 2645SOL    HW219569   4.561   0.072  13.371  0.5525  1.2732  1.9243
 2646SOL     OW19570   0.401   0.833  10.887  0.4440  0.5395 -0.2271
 2646SOL    HW119571   0.338   0.763  10.900 -0.6297  1.8536  1.5693
 2646SOL    HW219572   0.417   0.831  10.792  1.2292  0.9310 -0.1099
 2647SOL     OW19573   3.347   0.825  14.692 -0.3663  0.4979  0.5766
 2647SOL    HW119574   3.392   0.783  14.766 -2.3358  0.3298  1.6671
 2647SOL    HW219575   3.260   0.787  14.697 -1.0852  1.8565 -1.8085
 2648SOL     OW19576   4.664   3.477  10.796 -0.3479  0.0120  0.0682
 2648SOL    HW119577   4.687   3.567  10.819 -0.6030  0.6921 -2.3393
 2648SOL    HW219578   4.575   3.482  10.760 -0.2974  2.8524  0.3442
 2649SOL     OW19579   4.378   1.786  13.276  0.1304  0.3813 -0.0040
 2649SOL    HW119580   4.329   1.858  13.315 -1.0308 -1.5411  2.0221
 2649SOL    HW219581   4.428   1.838  13.213 -0.5597 -1.7059 -2.2712
 2650SOL     OW19582   0.661   3.645  10.631 -0.0979  0.0422 -0.1549
 2650SOL    HW119583   0.709   3.707  10.576  0.8589 -1.8238 -1.4089
 2650SOL    HW219584   0.732   3.622  10.691  1.5161  1.5155 -1.4943
 2651SOL     OW19585   1.717   0.030  16.843  0.1167 -0.6977  0.3518
 2651SOL    HW119586   1.785   0.039  16.777 -0.6085  1.9566 -0.0488
 2651SOL    HW219587   1.647   0.063  16.788 -0.5285 -1.0719  0.9457
 2652SOL     OW19588   3.759   2.794   9.028  0.4007  0.5267 -0.8322
 2652SOL    HW119589   3.791   2.828   9.111  0.7288 -2.4554  0.2849
 2652SOL    HW219590   3.684   2.851   9.008  0.9655  1.0007 -1.5938
 2653SOL     OW19591   1.872   4.565   6.023 -0.1084 -0.0522 -0.7487
 2653SOL    HW119592   1.852   4.481   6.062 -0.8761  0.3471 -0.2791
 2653SOL    HW219593   1.963   4.558   5.992 -0.0208  1.9287 -0.9492
 2654SOL     OW19594   2.890   2.385   3.548 -0.4171  0.4970 -0.1846
 2654SOL    HW119595   2.943   2.396   3.627  1.4620 -0.0216 -1.3782
 2654SOL    HW219596   2.916   2.455   3.489 -1.7534  3.1212  2.3249
 2655SOL     OW19597   1.271   1.135   1.470 -0.5796 -0.7294  0.1503
 2655SOL    HW119598   1.304   1.210   1.420  2.0344 -0.7532  1.8761
 2655SOL    HW219599   1.290   1.162   1.559 -0.5843  2.0473 -0.7057
 2656SOL     OW19600   0.910   2.027   9.191 -0.5421  0.2803 -0.2597
 2656SOL    HW119601   0.919   2.050   9.283 -1.2516  1.0714 -0.3843
 2656SOL    HW219602   0.948   2.097   9.138  0.5843  0.3024  0.5884
 2657SOL     OW19603   0.153   2.000   3.309  0.2049 -0.7738 -0.2616
 2657SOL    HW119604   0.084   1.945   3.271 -0.0183  0.2964 -1.3781
 2657SOL    HW219605   0.224   1.938   3.329  1.7432  0.8764 -0.6482
 2658SOL     OW19606   1.679   1.568   1.424  0.2338  0.1303  0.5730
 2658SOL    HW119607   1.615   1.565   1.495 -2.1241  0.1695 -1.5359
 2658SOL    HW219608   1.667   1.487   1.375  0.3011 -0.5800  1.7254
 2659SOL     OW19609   2.439   1.111  17.081 -0.5651  0.1373  0.0826
 2659SOL    HW119610   2.386   1.108  17.001 -0.7783 -1.4362  0.2716
 2659SOL    HW219611   2.478   1.024  17.085  0.8660  0.8133  0.8278
 2660SOL     OW19612   1.789   1.529  12.089  0.3426  0.0298  0.3995
 2660SOL    HW119613   1.793   1.474  12.167 -1.0998  0.8406  1.0529
 2660SOL    HW219614   1.878   1.565  12.085  0.1804  0.5329  1.3596
 2661SOL     OW19615   0.161   1.099   8.188  0.2302 -0.0066 -0.3134
 2661SOL    HW119616   0.073   1.135   8.178 -0.0844 -0.1586  2.0625
 2661SOL    HW219617   0.207   1.163   8.133 -0.3525  1.4403  0.8612
 2662SOL     OW19618   3.395   3.561   8.041 -0.3247 -0.3046  0.1727
 2662SOL    HW119619   3.318   3.600   8.083 -1.0145 -1.3763 -0.1054
 2662SOL    HW219620   3.436   3.521   8.119  0.4848  0.2571  0.0427
 2663SOL     OW19621   3.738   3.921   1.799  0.0277  0.7051 -0.1149
 2663SOL    HW119622   3.720   3.950   1.710  0.4850 -0.2088 -0.5015
 2663SOL    HW219623   3.679   3.983   1.843 -0.3559  0.0494  0.3001
 2664SOL     OW19624   3.989   0.846  16.208  0.2760  0.0097 -0.6343
 2664SOL    HW119625   4.052   0.792  16.160 -0.3593 -0.7781 -0.5750
 2664SOL    HW219626   3.923   0.779  16.225 -0.2423  0.7411  0.2886
 2665SOL     OW19627   3.855   1.100   1.853  0.0616 -0.0683  0.1533
 2665SOL    HW119628   3.814   1.110   1.767 -0.9759 -0.6519  0.5739
 2665SOL    HW219629   3.946   1.077   1.833 -1.0590 -1.7371 -2.9854
 2666SOL     OW19630   0.514   2.382   1.197 -0.3200  0.2347  0.2329
 2666SOL    HW119631   0.421   2.361   1.184 -0.7111  1.4552  0.9515
 2666SOL    HW219632   0.526   2.476   1.180 -0.2643  0.2079  0.1295
 2667SOL     OW19633   0.020   3.561   5.644 -0.4427  0.8295  0.2922
 2667SOL    HW119634   0.098   3.515   5.672 -0.1092  0.9727 -0.3993
 2667SOL    HW219635   4.724   3.518   5.565  2.1160 -0.1225 -0.2778
 2668SOL     OW19636   2.090   1.733   2.173  0.6503 -0.3827 -0.1752
 2668SOL    HW119637   2.069   1.760   2.084  0.8593 -1.0943 -0.4353
 2668SOL    HW219638   2.026   1.786   2.221 -0.0220 -0.3183 -1.1481
 2669SOL     OW19639   3.227   2.189   7.837  0.1865  0.4003  0.7774
 2669SOL    HW119640   3.273   2.149   7.911  1.1489 -0.7838 -0.4665
 2669SOL    HW219641   3.148   2.136   7.846  0.5156 -0.4678 -1.2828
 2670SOL     OW19642   1.810   1.626   7.280  0.1700 -0.4138 -0.8258
 2670SOL    HW119643   1.802   1.567   7.356 -0.7736  0.9283  0.1258
 2670SOL    HW219644   1.807   1.570   7.203 -0.8703  0.3035 -1.2986
 2671SOL     OW19645   2.095   0.786   5.742  0.1109  0.2458  0.1723
 2671SOL    HW119646   2.091   0.695   5.772  1.6425  0.7087  1.7817
 2671SOL    HW219647   2.000   0.797   5.731  0.0632  0.1168  0.4529
 2672SOL     OW19648   1.012   4.558   4.043  0.0973 -0.0861  0.1901
 2672SOL    HW119649   1.091   4.506   4.057 -0.2836 -0.4545  1.0243
 2672SOL    HW219650   0.953   4.530   4.114 -0.1202  0.7455  0.3355
 2673SOL     OW19651   2.125   0.414   8.386 -0.1656  0.4012  0.3723
 2673SOL    HW119652   2.033   0.416   8.359 -0.1209 -0.7930  0.1573
 2673SOL    HW219653   2.170   0.462   8.316  3.3092 -2.3419  0.7433
 2674SOL     OW19654   3.356   0.788   3.704  0.1358  0.3164 -0.3919
 2674SOL    HW119655   3.346   0.708   3.756 -2.6325  1.1433  0.3707
 2674SOL    HW219656   3.448   0.791   3.681  0.0464  1.6804 -0.5630
 2675SOL     OW19657   0.454   3.816   4.142 -0.2441  0.2526 -0.1671
 2675SOL    HW119658   0.464   3.749   4.074 -0.6797 -0.7292  0.7413
 2675SOL    HW219659   0.362   3.839   4.129  0.3119  1.7061 -1.4524
 2676SOL     OW19660   3.450   4.725   8.855 -0.1313 -0.2440  0.4961
 2676SOL    HW119661   3.480   0.016   8.941 -2.0029  1.3024  0.6169
 2676SOL    HW219662   3.434   4.635   8.884 -2.1699  0.0656  0.3387
 2677SOL     OW19663   4.500   1.340  14.037  0.0300 -0.0552  0.0603
 2677SOL    HW119664   4.581   1.289  14.045  0.0857  0.1564  0.8316
 2677SOL    HW219665   4.465   1.303  13.956 -0.5944 -0.6075  0.5817
 2678SOL     OW19666   4.180   3.821   8.663  0.3214  0.3054 -0.0006
 2678SOL    HW119667   4.269   3.855   8.654  0.5169 -0.5841 -1.3390
 2678SOL    HW219668   4.151   3.845   8.575 -2.7051 -0.2019  0.8852
 2679SOL     OW19669   3.455   3.575   2.855  0.2100 -0.1007 -0.4642
 2679SOL    HW119670   3.453   3.505   2.920 -2.5075  0.2558 -0.1928
 2679SOL    HW219671   3.510   3.640   2.900 -1.0857  2.2969 -2.3092
 2680SOL     OW19672   4.591   2.836  14.154  0.1030  0.0285 -0.7817
 2680SOL    HW119673   4.655   2.792  14.210 -0.4809 -1.2574 -1.1364
 2680SOL    HW219674   4.649   2.907  14.126 -2.3734  1.2441 -2.7732
 2681SOL     OW19675   4.334   1.243   2.843 -0.2386  0.2671 -0.2644
 2681SOL    HW119676   4.342   1.320   2.787 -0.5242  1.5783  1.5221
 2681SOL    HW219677   4.244   1.219   2.823 -0.9911  1.4124  1.8360
 2682SOL     OW19678   0.136   0.111   2.693  0.7654 -0.0981 -0.1381
 2682SOL    HW119679   0.160   0.142   2.781  0.1048  2.1576 -0.7553
 2682SOL    HW219680   0.080   0.038   2.721  0.8301  0.6472  1.9652
 2683SOL     OW19681   1.730   3.896   8.536 -0.2040 -0.1313 -0.1447
 2683SOL    HW119682   1.680   3.830   8.489 -1.1791 -0.9626  2.0548
 2683SOL    HW219683   1.814   3.857   8.562 -1.1680 -0.2286  2.8208
 2684SOL     OW19684   2.567   1.658   0.691  0.3306 -0.0342 -0.1874
 2684SOL    HW119685   2.475   1.641   0.674  0.6770 -0.7389 -1.3239
 2684SOL    HW219686   2.596   1.645   0.600 -0.0687 -2.9848  0.1257
 2685SOL     OW19687   0.879   0.501   2.729 -0.2873 -0.2196 -0.1190
 2685SOL    HW119688   0.884   0.497   2.824 -1.9806 -2.9062 -0.1460
 2685SOL    HW219689   0.953   0.448   2.701  0.4609  0.9800 -0.4111
 2686SOL     OW19690   4.672   2.544   4.998 -0.3061  0.2562  0.3270
 2686SOL    HW119691   4.661   2.506   4.910  0.3436  1.6122 -0.3407
 2686SOL    HW219692   4.717   2.482   5.055  0.5372 -2.3669 -3.1449
 2687SOL     OW19693   2.511   4.499   8.711  0.1189  0.2552 -0.1615
 2687SOL    HW119694   2.584   4.440   8.692 -0.8503 -1.1262  0.4280
 2687SOL    HW219695   2.564   4.571   8.742  1.0040 -0.9617  1.1309
 2688SOL     OW19696   3.053   1.703   1.195  0.1494  0.0728  0.5399
 2688SOL    HW119697   3.045   1.745   1.110 -0.4029 -1.7698 -0.3032
 2688SOL    HW219698   3.125   1.757   1.229  0.3086  1.2359 -1.6331
 2689SOL     OW19699   3.730   3.357   6.562 -0.4509 -0.0408  1.1715
 2689SOL    HW119700   3.672   3.402   6.623 -0.7376  0.8824  0.2114
 2689SOL    HW219701   3.722   3.407   6.481 -1.8057  0.3391  1.5351
 2690SOL     OW19702   3.144   2.840  15.061 -0.5247  0.7560 -0.1411
 2690SOL    HW119703   3.057   2.856  15.026 -0.6489 -0.2690 -0.3177
 2690SOL    HW219704   3.202   2.892  15.006  0.7355 -0.0957  0.3618
 2691SOL     OW19705   2.479   3.928   6.442  0.2664  0.1860  0.1875
 2691SOL    HW119706   2.461   3.905   6.533  0.7273  0.5882  0.3812
 2691SOL    HW219707   2.574   3.920   6.433  0.1221 -1.1277 -0.1910
 2692SOL     OW19708   2.285   2.479   2.752 -0.4221 -0.0344  0.4531
 2692SOL    HW119709   2.262   2.565   2.718  0.3267 -0.0057  0.0094
 2692SOL    HW219710   2.346   2.513   2.818  1.4473  2.2252 -2.4089
 2693SOL     OW19711   3.405   0.216  12.152  0.4108  0.4399 -0.2397
 2693SOL    HW119712   3.395   0.145  12.088  2.3990 -0.8140  0.8471
 2693SOL    HW219713   3.359   0.287  12.107 -1.9977 -1.0756 -0.1098
 2694SOL     OW19714   3.216   2.663   9.533  0.2201  0.8637 -0.5617
 2694SOL    HW119715   3.273   2.654   9.456  0.2266 -0.0626 -0.4494
 2694SOL    HW219716   3.272   2.725   9.580 -0.4794  0.6188  0.5956
 2695SOL     OW19717   3.845   0.036   6.920 -0.5754 -0.3772  0.1469
 2695SOL    HW119718   3.895   4.727   6.986  0.4028  3.6400  2.2795
 2695SOL    HW219719   3.918   0.094   6.898 -0.9405  0.3414  0.8167
 2696SOL     OW19720   1.614   0.004  10.322  0.1196 -0.3604 -0.1635
 2696SOL    HW119721   1.586   0.042  10.239  0.2704 -0.9720 -0.4918
 2696SOL    HW219722   1.674   4.671  10.299  0.5208 -0.2463  0.5165
 2697SOL     OW19723   3.905   2.572   1.879 -0.3382  0.2113 -0.0543
 2697SOL    HW119724   3.837   2.515   1.844 -0.8783  1.3289 -0.8239
 2697SOL    HW219725   3.865   2.593   1.963  0.6063 -0.0421  0.4650
 2698SOL     OW19726   4.377   1.553  17.297 -0.0724  0.4014  0.3846
 2698SOL    HW119727   4.318   1.606  17.350 -2.2524 -1.0055 -0.6523
 2698SOL    HW219728   4.457   1.590  17.335  0.0946 -1.5233  1.9538
 2699SOL     OW19729   4.083   2.445   5.659 -0.1039 -0.0698 -0.0871
 2699SOL    HW119730   4.173   2.460   5.633 -0.5983  0.7498 -1.3236
 2699SOL    HW219731   4.035   2.447   5.576  0.7500 -0.4278 -0.5915
 2700SOL     OW19732   2.235   0.657   0.928  0.0979  0.0321 -0.4150
 2700SOL    HW119733   2.302   0.717   0.960 -0.1732  0.2377 -0.2277
 2700SOL    HW219734   2.287   0.577   0.919  0.6699  0.3435  0.1002
 2701SOL     OW19735   3.078   1.159   4.913 -0.0731  0.4898 -0.1277
 2701SOL    HW119736   3.083   1.063   4.913 -0.2691  0.4860 -2.4215
 2701SOL    HW219737   3.136   1.181   4.986 -0.4117 -1.5136  0.7295
 2702SOL     OW19738   3.787   1.143  11.229 -0.1958  0.3138  0.1303
 2702SOL    HW119739   3.814   1.155  11.138  0.9560  0.7719  0.5295
 2702SOL    HW219740   3.715   1.206  11.241 -0.7499 -0.0351 -1.3302
 2703SOL     OW19741   4.621   0.790  17.353  0.5699  0.0061 -0.1186
 2703SOL    HW119742   4.683   0.721  17.330 -0.7182 -1.8467  1.9002
 2703SOL    HW219743   4.621   0.780  17.449  1.2124  2.1030  0.0910
 2704SOL     OW19744   0.110   4.394   3.166  0.1786 -0.1606  0.0331
 2704SOL    HW119745   0.033   4.446   3.188  1.4008  2.1257 -1.1067
 2704SOL    HW219746   0.170   4.468   3.156  0.8146 -0.5305  1.0494
 2705SOL     OW19747   0.724   0.745  12.024  0.0823  0.2286  0.4153
 2705SOL    HW119748   0.671   0.668  12.044 -0.2479  0.4875  0.5445
 2705SOL    HW219749   0.783   0.710  11.957 -1.6480 -2.0996  0.1160
 2706SOL     OW19750   4.341   3.914   4.282 -0.3611 -0.1107 -0.1990
 2706SOL    HW119751   4.387   3.878   4.207 -0.4673  1.7165 -1.1270
 2706SOL    HW219752   4.254   3.911   4.243 -0.0541  1.7334 -1.0196
 2707SOL     OW19753   3.554   0.212   9.817 -0.1166 -0.0519 -0.1419
 2707SOL    HW119754   3.472   0.247   9.852 -1.9026 -2.1216 -2.2681
 2707SOL    HW219755   3.609   0.241   9.889  1.3865 -1.5480 -0.6975
 2708SOL     OW19756   1.413   2.939   0.059 -0.2745 -0.4877  0.2098
 2708SOL    HW119757   1.404   2.968   0.150  0.2047 -1.7879  0.6661
 2708SOL    HW219758   1.499   2.970   0.031 -0.2192 -0.4288  0.4382
 2709SOL     OW19759   0.678   0.990   9.386  0.0926  0.1084  0.7408
 2709SOL    HW119760   0.641   0.975   9.299  1.2606  1.4443  0.0027
 2709SOL    HW219761   0.634   0.916   9.427  1.5153 -1.6257 -0.8963
 2710SOL     OW19762   3.565   4.142   3.912  0.4529  0.2274 -0.2794
 2710SOL    HW119763   3.495   4.146   3.977 -0.3286  1.3308 -1.2086
 2710SOL    HW219764   3.635   4.189   3.957  0.8090  0.9530 -1.6205
 2711SOL     OW19765   2.823   4.427   3.833 -0.0110 -0.3374 -0.1294
 2711SOL    HW119766   2.842   4.485   3.907 -0.2538  1.3142 -1.3476
 2711SOL    HW219767   2.859   4.357   3.886 -1.7808 -0.3836  1.0219
 2712SOL     OW19768   2.160   2.782   8.781 -0.1503  0.3169 -0.1837
 2712SOL    HW119769   2.134   2.827   8.862 -2.8079  1.2618 -1.5416
 2712SOL    HW219770   2.153   2.696   8.823  1.3256  1.1071  1.6862
 2713SOL     OW19771   2.644   4.350   3.226  0.1018 -0.3524 -0.3330
 2713SOL    HW119772   2.661   4.327   3.317 -0.7984 -0.4062 -0.1787
 2713SOL    HW219773   2.624   4.444   3.227  0.2199 -0.3312 -0.0445
 2714SOL     OW19774   2.332   3.173   8.281 -0.4348 -0.5510  0.1678
 2714SOL    HW119775   2.280   3.200   8.356 -1.1882 -3.0185  0.5381
 2714SOL    HW219776   2.272   3.127   8.222 -0.0633 -0.6331 -0.1510
 2715SOL     OW19777   3.080   3.789   3.645 -0.1244 -0.0566 -0.0412
 2715SOL    HW119778   3.105   3.824   3.559  4.2140 -1.4557  0.6427
 2715SOL    HW219779   3.110   3.698   3.642  2.1029  0.6653  0.0725
 2716SOL     OW19780   2.792   1.635   4.472 -1.0126  0.1853 -0.0192
 2716SOL    HW119781   2.883   1.643   4.446 -0.6098 -2.0588  0.7385
 2716SOL    HW219782   2.794   1.709   4.533 -1.3727 -1.8902  2.5259
 2717SOL     OW19783   3.967   3.467   8.211  0.1631  0.5913  0.1299
 2717SOL    HW119784   4.031   3.531   8.179  0.6411  0.9113  1.7612
 2717SOL    HW219785   4.015   3.388   8.185 -1.3172 -0.8134  1.6887
 2718SOL     OW19786   0.904   1.322  14.633 -0.2587  0.3165  0.4434
 2718SOL    HW119787   0.947   1.306  14.717  2.0219  0.0033 -0.7944
 2718SOL    HW219788   0.979   1.321  14.573 -2.7182  0.4858 -2.6586
 2719SOL     OW19789   2.565   3.500  10.628 -0.0517  0.2031 -0.1469
 2719SOL    HW119790   2.599   3.563  10.691 -0.2458  2.1472 -2.0170
 2719SOL    HW219791   2.552   3.436  10.698 -2.0274 -0.2874 -0.9644
 2720SOL     OW19792   1.515   2.724   7.683 -0.7213  0.0791  0.0507
 2720SOL    HW119793   1.591   2.779   7.665 -0.1026 -0.0181  2.3022
 2720SOL    HW219794   1.505   2.735   7.778  0.1699  0.9034  0.0389
 2721SOL     OW19795   1.077   2.297   0.560  0.2330  0.1904 -0.0970
 2721SOL    HW119796   1.117   2.315   0.645 -1.8786  4.3201  0.0064
 2721SOL    HW219797   0.987   2.294   0.593  0.4271 -0.4332  0.3644
 2722SOL     OW19798   0.672   3.130   8.242  0.1576 -0.0352  0.4575
 2722SOL    HW119799   0.709   3.050   8.205 -0.4288 -1.3310  2.6365
 2722SOL    HW219800   0.702   3.134   8.333  0.9136 -2.8874  0.3322
 2723SOL     OW19801   4.210   2.611   7.803  0.1310 -0.0234  0.3493
 2723SOL    HW119802   4.182   2.521   7.789 -0.0102 -0.0903  1.0685
 2723SOL    HW219803   4.262   2.604   7.883 -0.8767 -0.3139  0.9737
 2724SOL     OW19804   0.613   3.910   7.879  0.2336 -0.0677  0.1896
 2724SOL    HW119805   0.623   3.964   7.958  0.2924  1.7142 -1.0390
 2724SOL    HW219806   0.705   3.885   7.867 -0.3307 -1.4449 -1.2752
 2725SOL     OW19807   1.989   3.111  15.887  0.3931  0.0577  0.3495
 2725SOL    HW119808   1.899   3.087  15.905  1.4225 -2.8860  1.5559
 2725SOL    HW219809   1.979   3.147  15.799  2.1863  1.0906  0.5487
 2726SOL     OW19810   3.888   2.305   5.261  0.0607 -0.8185  0.0072
 2726SOL    HW119811   3.842   2.358   5.196 -1.1086  1.1971  2.4557
 2726SOL    HW219812   3.953   2.261   5.207 -0.0556 -2.0513  0.8810
 2727SOL     OW19813   1.093   3.525  11.169 -0.0868 -0.8059  0.2076
 2727SOL    HW119814   1.160   3.465  11.201 -0.1164 -0.9321  0.0355
 2727SOL    HW219815   1.029   3.525  11.241  0.6420  2.5946  0.8621
 2728SOL     OW19816   2.000   0.182   0.433 -0.4424  0.3867 -0.0344
 2728SOL    HW119817   2.031   0.094   0.452  0.5837  0.6379 -0.5485
 2728SOL    HW219818   1.910   0.174   0.465 -0.0242 -2.8063  0.3112
 2729SOL     OW19819   3.095   1.486  16.386  0.3791  0.0751  0.0909
 2729SOL    HW119820   3.020   1.538  16.358 -1.0758 -1.4114  1.2350
 2729SOL    HW219821   3.075   1.399  16.350 -0.4315  0.1616  0.3322
 2730SOL     OW19822   0.042   4.196   9.540 -0.0237 -0.4714  0.0178
 2730SOL    HW119823   0.133   4.208   9.567  0.4097 -3.5506 -0.0061
 2730SOL    HW219824   0.008   4.133   9.603 -0.2349  0.3510  0.7244
 2731SOL     OW19825   0.678   4.544  14.103  0.1187 -0.0255  0.0169
 2731SOL    HW119826   0.712   4.455  14.090 -2.6640 -1.1120  0.3023
 2731SOL    HW219827   0.649   4.535  14.194  0.9853  0.4709  0.3527
 2732SOL     OW19828   3.038   2.468   6.840  0.5561 -0.3882 -0.2828
 2732SOL    HW119829   3.047   2.472   6.936 -1.2155  3.1926 -0.2695
 2732SOL    HW219830   3.104   2.530   6.809  0.7046 -0.2495  0.2997
 2733SOL     OW19831   0.565   4.253   5.349  0.5154  0.2181 -0.5538
 2733SOL    HW119832   0.623   4.301   5.408  0.4861 -1.5135  0.8713
 2733SOL    HW219833   0.478   4.272   5.385  1.6296  2.2542  1.0371
 2734SOL     OW19834   4.382   1.807   4.129 -0.3238  0.2933 -0.3167
 2734SOL    HW119835   4.364   1.895   4.094  1.0018  0.1369 -1.4258
 2734SOL    HW219836   4.323   1.819   4.203 -1.3519  1.5590 -1.3277
 2735SOL     OW19837   4.594   4.404  14.136 -0.4994  0.1476 -0.2981
 2735SOL    HW119838   4.665   4.353  14.174 -0.9993  0.8566  1.6383
 2735SOL    HW219839   4.538   4.331  14.111  0.1563 -0.1597 -0.8770
 2736SOL     OW19840   1.518   1.270   0.275  0.0614  0.4313 -0.1498
 2736SOL    HW119841   1.480   1.328   0.209 -3.6424  1.4589  2.8958
 2736SOL    HW219842   1.590   1.238   0.221  1.1426  2.2251  0.2485
 2737SOL     OW19843   2.058   2.951   3.981 -0.8382 -0.1057 -0.3193
 2737SOL    HW119844   1.971   2.941   4.020 -0.9585  1.6391 -0.1304
 2737SOL    HW219845   2.111   2.888   4.030 -2.3827 -2.1031 -1.2291
 2738SOL     OW19846   4.655   3.909   5.337 -0.1039 -0.0174  0.3046
 2738SOL    HW119847   4.738   3.877   5.370 -0.0935 -0.9816 -0.6610
 2738SOL    HW219848   4.635   3.983   5.395  1.3367 -0.3161  1.1612
 2739SOL     OW19849   0.065   1.289  15.749  0.2217  0.4290  0.5612
 2739SOL    HW119850   0.121   1.366  15.751 -0.1809  0.7091  1.0041
 2739SOL    HW219851   4.713   1.322  15.758 -0.0470  0.4159 -1.8940
 2740SOL     OW19852   3.189   0.588   9.839 -0.5630 -0.0424 -0.4507
 2740SOL    HW119853   3.208   0.531   9.765 -1.0791  1.0258 -1.3960
 2740SOL    HW219854   3.125   0.646   9.798 -0.0483  1.2501  0.5538
 2741SOL     OW19855   0.610   2.240   8.987 -0.2371 -0.2699 -0.1891
 2741SOL    HW119856   0.519   2.240   8.957  0.2780 -1.3745 -1.8139
 2741SOL    HW219857   0.645   2.288   8.912 -0.4147  1.2280  0.6984
 2742SOL     OW19858   2.505   1.152   0.274 -0.4589 -0.4797  0.5154
 2742SOL    HW119859   2.428   1.132   0.326 -0.0955 -2.6372  0.1988
 2742SOL    HW219860   2.499   1.248   0.274 -0.3016 -0.4706  0.5509
 2743SOL     OW19861   0.288   2.399  16.730 -0.3548 -0.3023  0.4201
 2743SOL    HW119862   0.213   2.435  16.776 -0.2185 -2.3596  2.2355
 2743SOL    HW219863   0.352   2.470  16.739 -0.2949 -0.5647  2.0005
 2744SOL     OW19864   0.535   4.331   5.828  0.1170 -0.5061  0.0810
 2744SOL    HW119865   0.534   4.238   5.805  0.9231  0.2021 -2.9695
 2744SOL    HW219866   0.455   4.339   5.880  0.2708 -0.4927  0.3154
 2745SOL     OW19867   1.827   2.195   3.733 -0.5096  0.3281 -0.3513
 2745SOL    HW119868   1.872   2.278   3.746  0.2034 -0.4492  2.2038
 2745SOL    HW219869   1.902   2.136   3.733 -0.3980  0.4796  2.4809
 2746SOL     OW19870   2.834   0.647   7.639  0.1472 -0.3065  0.6663
 2746SOL    HW119871   2.821   0.625   7.547  1.9152  0.7376  0.1694
 2746SOL    HW219872   2.790   0.579   7.690  0.0045 -1.7665 -1.4071
 2747SOL     OW19873   0.135   4.665   5.324  0.0127 -0.1001  0.3878
 2747SOL    HW119874   0.121   4.606   5.249 -0.1992 -0.6240  0.8426
 2747SOL    HW219875   0.100   4.621   5.401 -1.1170 -1.3596 -0.8321
 2748SOL     OW19876   2.592   1.744  15.643 -0.3258  0.5735  0.0367
 2748SOL    HW119877   2.612   1.790  15.562 -1.2450  1.1282  0.1367
 2748SOL    HW219878   2.609   1.657  15.607  1.6371  0.0540  2.1287
 2749SOL     OW19879   4.179   0.764   6.602 -0.0340  0.0892  0.9241
 2749SOL    HW119880   4.271   0.769   6.580 -0.3194 -0.4618 -0.3822
 2749SOL    HW219881   4.167   0.673   6.630 -0.6326 -0.1978 -0.2871
 2750SOL     OW19882   4.360   0.332   3.150 -0.3074 -0.1752  0.1930
 2750SOL    HW119883   4.387   0.244   3.173  0.1626 -0.2104 -0.4902
 2750SOL    HW219884   4.437   0.385   3.129  0.2720 -0.8612  0.6169
 2751SOL     OW19885   4.189   1.118   9.560  0.4824  0.5470  0.2239
 2751SOL    HW119886   4.137   1.046   9.524  0.3801  0.4944  0.4807
 2751SOL    HW219887   4.234   1.079   9.634 -0.4844  0.2169  0.6325
 2752SOL     OW19888   0.547   2.286   3.293  0.2540 -0.3244 -0.1222
 2752SOL    HW119889   0.533   2.201   3.252  0.8288 -0.5353  0.1099
 2752SOL    HW219890   0.640   2.306   3.285 -0.0841  1.1128 -0.4704
 2753SOL     OW19891   2.231   3.957   6.321  0.0713  0.0189 -0.1582
 2753SOL    HW119892   2.306   3.936   6.375 -0.4480 -0.3593  0.4118
 2753SOL    HW219893   2.160   3.986   6.378 -0.1784  0.3671 -0.6501
 2754SOL     OW19894   0.692   2.168   8.208  0.2098 -0.4448  0.3983
 2754SOL    HW119895   0.616   2.216   8.175 -0.8622 -1.1881  1.7831
 2754SOL    HW219896   0.666   2.156   8.299  2.3454 -1.2057  0.9026
 2755SOL     OW19897   1.621   1.861   2.706  0.1650 -0.1316  0.6979
 2755SOL    HW119898   1.665   1.799   2.647 -1.6260 -1.3862  0.7043
 2755SOL    HW219899   1.661   1.946   2.690  0.4725  0.0590  2.5399
 2756SOL     OW19900   3.164   1.634   2.396 -0.2813 -0.7541 -0.2678
 2756SOL    HW119901   3.217   1.554   2.394 -1.9519 -1.8339 -1.0849
 2756SOL    HW219902   3.173   1.654   2.489 -2.7359  0.5189 -0.3048
 2757SOL     OW19903   1.268   0.214   0.210  0.2083  0.2118  0.0195
 2757SOL    HW119904   1.230   0.254   0.288 -0.3542 -0.4343  0.0704
 2757SOL    HW219905   1.341   0.170   0.253 -0.0620 -1.2862 -1.0489
 2758SOL     OW19906   4.192   0.984  16.364  0.2261  0.6138  0.3915
 2758SOL    HW119907   4.138   1.048  16.410  0.0495  0.5134  0.3235
 2758SOL    HW219908   4.132   0.918  16.328  0.9567  0.2550 -0.1773
 2759SOL     OW19909   1.647   1.983   4.310  0.2414  0.4008  0.3454
 2759SOL    HW119910   1.686   2.071   4.313 -0.7040  0.9228 -2.1489
 2759SOL    HW219911   1.698   1.956   4.233  0.8095  0.2923  0.7537
 2760SOL     OW19912   3.547   4.535  11.656  1.1054  0.3377 -0.6355
 2760SOL    HW119913   3.466   4.490  11.680  0.6545  0.7129 -1.4609
 2760SOL    HW219914   3.600   4.524  11.735  0.3499 -0.7265 -0.2826
 2761SOL     OW19915   3.712   2.789  11.144 -0.3165  0.4440 -0.4163
 2761SOL    HW119916   3.638   2.745  11.187 -0.4742 -0.4635 -1.6097
 2761SOL    HW219917   3.759   2.831  11.216  0.3608  0.1420 -0.6774
 2762SOL     OW19918   1.835   0.706   4.044  0.6240 -0.0557  0.2555
 2762SOL    HW119919   1.827   0.624   3.996 -0.6444  0.1422  0.1288
 2762SOL    HW219920   1.844   0.765   3.969  2.7935  0.5095  0.9521
 2763SOL     OW19921   1.989   4.160  13.832 -0.1207 -0.2664 -0.5951
 2763SOL    HW119922   2.020   4.070  13.844  2.6559  0.6864 -0.4552
 2763SOL    HW219923   1.971   4.163  13.738 -1.2328  0.2081 -0.3644
 2764SOL     OW19924   2.435   1.662   5.405 -0.1644 -0.4362 -0.0041
 2764SOL    HW119925   2.343   1.690   5.403 -0.2740 -0.8153 -0.1807
 2764SOL    HW219926   2.474   1.712   5.334  1.4393 -3.5978 -1.3384
 2765SOL     OW19927   4.372   0.760   8.430 -0.3033  0.5048  0.0248
 2765SOL    HW119928   4.339   0.698   8.495 -1.6972  0.4627 -0.7152
 2765SOL    HW219929   4.446   0.808   8.467 -1.1590  2.9865 -1.4617
 2766SOL     OW19930   3.554   2.413   4.894  0.1240 -0.2597  0.4333
 2766SOL    HW119931   3.516   2.325   4.891 -1.8718  0.5984  0.1006
 2766SOL    HW219932   3.474   2.457   4.865  0.6590  0.9529  0.8097
 2767SOL     OW19933   0.815   2.933   8.113 -0.2975  0.4116 -0.1087
 2767SOL    HW119934   0.733   2.887   8.094  0.1245  0.0022 -0.9017
 2767SOL    HW219935   0.876   2.886   8.056 -0.1210 -1.8531  1.9041
 2768SOL     OW19936   3.353   2.280   5.925  0.4891  0.2412  0.2969
 2768SOL    HW119937   3.296   2.203   5.922  1.8738 -0.8611  2.0693
 2768SOL    HW219938   3.425   2.250   5.869 -2.0818  0.1208 -2.9050
 2769SOL     OW19939   1.979   0.372   5.321  0.4997 -0.6353  0.5855
 2769SOL    HW119940   1.900   0.415   5.288 -0.6913 -3.6096 -0.4486
 2769SOL    HW219941   1.977   0.396   5.413  3.0357 -0.9720  0.7266
 2770SOL     OW19942   2.623   2.452   7.185  0.3680 -0.4142  0.2519
 2770SOL    HW119943   2.704   2.421   7.227  0.2477  0.2033  0.9413
 2770SOL    HW219944   2.659   2.503   7.113 -1.7067 -0.7505 -1.0064
 2771SOL     OW19945   3.128   1.897   8.073 -0.3471  0.4456  0.7951
 2771SOL    HW119946   3.125   1.944   7.989  1.3450 -1.8080 -0.5557
 2771SOL    HW219947   3.111   1.968   8.134 -1.3618  1.9438 -1.2363
 2772SOL     OW19948   2.033   1.955   8.111 -0.4489 -0.4332 -0.8877
 2772SOL    HW119949   2.055   1.862   8.114 -0.9910 -0.5743 -1.2913
 2772SOL    HW219950   2.081   1.990   8.186  0.9300 -2.7206 -0.7230
 2773SOL     OW19951   3.012   1.352   8.177  0.2079  0.0761 -0.0375
 2773SOL    HW119952   3.106   1.352   8.197  0.5168 -0.5321 -1.5097
 2773SOL    HW219953   3.002   1.447   8.167 -2.1035 -0.3703 -1.9240
 2774SOL     OW19954   3.973   3.196   3.890 -0.3396 -0.1256 -0.3482
 2774SOL    HW119955   3.890   3.148   3.890  0.8041 -2.0724  0.8788
 2774SOL    HW219956   4.040   3.129   3.903 -0.2170  0.5622  2.4077
 2775SOL     OW19957   2.916   3.093   6.517  0.0004 -0.1245  0.2097
 2775SOL    HW119958   2.924   3.087   6.422  2.3960 -1.6590  0.4932
 2775SOL    HW219959   2.997   3.049   6.543  0.2019  0.6228  0.8569
 2776SOL     OW19960   2.452   0.241   6.330  0.5680 -0.3039  0.3783
 2776SOL    HW119961   2.357   0.233   6.324  0.7674 -2.6397  0.0390
 2776SOL    HW219962   2.464   0.323   6.378 -0.7287 -0.6681  1.3200
 2777SOL     OW19963   0.798   4.655   7.138  0.2047  0.8666 -0.2481
 2777SOL    HW119964   0.772   0.008   7.154 -0.6197  0.6272 -0.2199
 2777SOL    HW219965   0.881   4.669   7.093 -0.8310  0.3984 -2.3242
 2778SOL     OW19966   0.512   2.237  11.304  0.4950  0.1733 -0.2421
 2778SOL    HW119967   0.543   2.210  11.391 -1.8773 -0.8936  0.2738
 2778SOL    HW219968   0.580   2.190  11.256 -2.5350 -1.1916 -3.1744
 2779SOL     OW19969   3.997   1.968   7.109 -0.1301  0.0070  0.0624
 2779SOL    HW119970   4.057   1.912   7.159 -0.3104  3.0561  3.6445
 2779SOL    HW219971   3.950   1.890   7.081  0.4819 -0.6345  0.7953
 2780SOL     OW19972   2.085   1.287   6.352 -0.4177  0.1173 -0.2632
 2780SOL    HW119973   2.051   1.295   6.262  2.1082  0.3751 -1.1991
 2780SOL    HW219974   2.015   1.246   6.403 -1.2210 -1.3756 -2.5517
 2781SOL     OW19975   3.342   2.266   8.857  0.1157  0.1257 -0.2257
 2781SOL    HW119976   3.348   2.356   8.888  0.1476 -0.1345  0.5459
 2781SOL    HW219977   3.386   2.272   8.772  3.2908 -2.3376  1.1993
 2782SOL     OW19978   2.865   0.243  11.279  0.3104 -0.1130 -0.3130
 2782SOL    HW119979   2.802   0.223  11.348  3.2461 -2.1124  1.7580
 2782SOL    HW219980   2.950   0.232  11.323 -0.5654 -0.4502  1.2882
 2783SOL     OW19981   4.491   2.608   8.358  0.2935  0.0549  0.2372
 2783SOL    HW119982   4.532   2.681   8.312  1.2033 -0.2687  0.5418
 2783SOL    HW219983   4.436   2.659   8.418 -0.7188 -2.5968  1.5859
 2784SOL     OW19984   1.062   3.429   6.682 -0.8847 -0.0944  0.0236
 2784SOL    HW119985   1.064   3.486   6.605  0.1011  1.6243  1.3224
 2784SOL    HW219986   1.144   3.461   6.719 -0.4075  1.3035 -2.2246
 2785SOL     OW19987   1.688   2.832   5.503 -0.2863 -0.0834  0.1218
 2785SOL    HW119988   1.619   2.884   5.463  0.5585 -0.1459 -1.4100
 2785SOL    HW219989   1.711   2.881   5.582  1.8617  1.2118 -1.3014
 2786SOL     OW19990   0.017   0.849   2.428 -0.1378  0.2209  0.2513
 2786SOL    HW119991   0.012   0.928   2.373 -2.5040  0.1721  0.3767
 2786SOL    HW219992   0.107   0.852   2.461  0.1499  3.8273 -0.7585
 2787SOL     OW19993   1.162   2.765   2.849 -0.3009  0.3523 -0.0608
 2787SOL    HW119994   1.133   2.854   2.869 -1.1820 -0.1504  0.9015
 2787SOL    HW219995   1.255   2.777   2.832 -0.0164 -0.9820  0.5354
 2788SOL     OW19996   3.798   0.862  12.895 -0.3735  0.1586  0.1427
 2788SOL    HW119997   3.822   0.954  12.898  0.5809 -0.1008  0.4992
 2788SOL    HW219998   3.867   0.839  12.832 -0.4224  0.6035 -0.0736
 2789SOL     OW19999   0.310   4.662   3.665 -0.0057 -0.0029  0.1180
 2789SOL    HW120000   0.340   4.688   3.752 -2.1833 -2.3782  1.6080
 2789SOL    HW220001   0.239   4.605   3.694 -0.8906  1.0385  0.0056
 2790SOL     OW20002   2.572   3.009   3.654  0.4429  0.3574 -0.5780
 2790SOL    HW120003   2.650   3.053   3.689 -0.6322 -0.0359  2.3233
 2790SOL    HW220004   2.570   3.030   3.561 -1.3270 -1.9800 -1.0552
 2791SOL     OW20005   2.971   3.081  15.421  0.1229 -0.0458 -0.0219
 2791SOL    HW120006   2.971   2.995  15.379  0.5603  0.4730 -1.0864
 2791SOL    HW220007   3.064   3.082  15.445  0.5979  3.3308 -1.9401
 2792SOL     OW20008   1.792   3.510  13.960 -0.2780 -0.1549 -0.6028
 2792SOL    HW120009   1.758   3.518  14.050 -1.4494 -0.4370 -1.0187
 2792SOL    HW220010   1.882   3.539  13.977 -1.1324  1.8705  0.4300
 2793SOL     OW20011   3.792   1.801   4.825  0.2826 -0.3922  0.0761
 2793SOL    HW120012   3.844   1.733   4.870  1.4206  0.3510 -0.1146
 2793SOL    HW220013   3.841   1.801   4.742  1.7715 -0.2811  0.9481
 2794SOL     OW20014   3.872   2.853   3.711  0.1245 -0.1372 -0.9267
 2794SOL    HW120015   3.963   2.880   3.698  0.7242 -1.1621  1.0734
 2794SOL    HW220016   3.858   2.772   3.662  1.9773 -0.6994 -0.5163
 2795SOL     OW20017   3.069   2.980   2.226  0.0918 -0.3154 -0.7246
 2795SOL    HW120018   3.007   2.951   2.293  2.5704  1.1180  2.1411
 2795SOL    HW220019   3.117   3.048   2.271 -1.4488  0.1330  0.2229
 2796SOL     OW20020   4.393   0.225   1.664  0.1126  0.1731  0.6087
 2796SOL    HW120021   4.321   0.192   1.718 -1.3413  3.0511  0.4679
 2796SOL    HW220022   4.349   0.279   1.598  0.4378 -3.9382 -2.9114
 2797SOL     OW20023   3.731   1.921  16.678  0.1625  1.0816  0.1155
 2797SOL    HW120024   3.774   1.854  16.624  0.5988  1.8292 -0.4724
 2797SOL    HW220025   3.655   1.938  16.622 -0.1665  1.4365  0.6708
 2798SOL     OW20026   2.780   1.206   5.692 -0.0869 -0.2411  0.2192
 2798SOL    HW120027   2.762   1.269   5.621  0.9066  0.2924  0.4360
 2798SOL    HW220028   2.725   1.132   5.666  2.4488 -1.2742 -2.3185
 2799SOL     OW20029   1.090   0.096   6.479 -0.5537 -0.4374  0.0062
 2799SOL    HW120030   1.176   0.055   6.484 -0.6186 -0.5435  0.2383
 2799SOL    HW220031   1.112   0.185   6.509  2.6264 -0.7966 -1.2110
 2800SOL     OW20032   1.416   3.395   5.710  0.4000  0.3422  0.0181
 2800SOL    HW120033   1.458   3.480   5.695  1.2058  0.0216  0.4360
 2800SOL    HW220034   1.329   3.433   5.697  1.0179  1.7848  0.1437
 2801SOL     OW20035   3.659   4.545   3.322 -0.6562 -0.6334 -0.0029
 2801SOL    HW120036   3.651   4.553   3.227 -2.8888  1.7496  0.3973
 2801SOL    HW220037   3.748   4.510   3.323 -0.7340 -0.8175  0.7008
 2802SOL     OW20038   0.856   4.574   2.745  0.4576 -0.2797  0.3413
 2802SOL    HW120039   0.766   4.605   2.758  0.3426 -0.6677  0.4518
 2802SOL    HW220040   0.858   4.514   2.819 -1.1084  1.5731  1.8643
 2803SOL     OW20041   1.443   4.280   5.933  0.3325 -0.2133 -0.0656
 2803SOL    HW120042   1.531   4.266   5.967  0.1498 -0.0469  0.4648
 2803SOL    HW220043   1.446   4.223   5.856 -0.5203 -0.6999  0.2640
 2804SOL     OW20044   0.992   2.372   5.260 -0.5524 -0.2633  0.5047
 2804SOL    HW120045   0.975   2.466   5.253  1.2848 -0.0597 -1.5938
 2804SOL    HW220046   1.065   2.374   5.197 -1.5779 -0.1962 -0.6788
 2805SOL     OW20047   4.636   3.945   8.609  0.2539 -0.1229  0.4644
 2805SOL    HW120048   4.608   4.017   8.666  0.1039  0.5914 -0.5036
 2805SOL    HW220049   4.697   3.903   8.670  0.5142  1.2209  1.1379
 2806SOL     OW20050   2.044   4.553   4.486 -0.1152 -0.2183 -0.2729
 2806SOL    HW120051   2.116   4.595   4.437  2.3333 -2.0973  1.7450
 2806SOL    HW220052   2.033   4.473   4.435  1.9232  0.2909 -1.5231
 2807SOL     OW20053   2.176   3.882  15.207  0.1127  0.0334  0.2031
 2807SOL    HW120054   2.166   3.931  15.288 -0.7624 -0.1518  0.2075
 2807SOL    HW220055   2.258   3.837  15.227 -0.3765 -0.2264  1.5769
 2808SOL     OW20056   3.244   4.385   3.115  0.4321  0.0296  0.2178
 2808SOL    HW120057   3.166   4.400   3.061 -0.4942 -2.4920  0.8058
 2808SOL    HW220058   3.265   4.471   3.150 -0.9007  0.7017 -0.6089
 2809SOL     OW20059   1.903   2.277   8.349  0.3194  0.1375 -0.3821
 2809SOL    HW120060   1.808   2.268   8.352  0.1642  2.0493  0.8390
 2809SOL    HW220061   1.918   2.348   8.412  1.3856 -1.3477  1.0316
 2810SOL     OW20062   3.010   1.244  15.207 -0.0344  0.4689 -0.2896
 2810SOL    HW120063   3.033   1.173  15.147 -0.8915 -2.0023  2.3167
 2810SOL    HW220064   3.092   1.292  15.215 -1.0113  2.1415 -0.3259
 2811SOL     OW20065   2.877   1.487  12.733  0.8684 -0.5043 -0.1330
 2811SOL    HW120066   2.964   1.457  12.706  0.4520 -1.3406 -0.5392
 2811SOL    HW220067   2.832   1.481  12.649  1.3075 -1.7414 -0.2819
 2812SOL     OW20068   1.409   1.614   3.287 -0.0665 -0.3311  0.3390
 2812SOL    HW120069   1.387   1.642   3.198 -0.1618  1.4883  0.9258
 2812SOL    HW220070   1.502   1.636   3.289 -0.3214  1.1749 -3.4183
 2813SOL     OW20071   2.856   3.354  10.038  0.4274 -0.3700 -0.0344
 2813SOL    HW120072   2.832   3.423  10.100  2.3334 -1.0987  1.5193
 2813SOL    HW220073   2.775   3.307  10.021  0.0178  0.0348  0.7715
 2814SOL     OW20074   3.318   4.022   6.688 -0.0328 -0.0599  0.1625
 2814SOL    HW120075   3.227   3.998   6.701 -0.6353  0.7014 -2.6916
 2814SOL    HW220076   3.314   4.095   6.626 -0.2120  0.1428  0.4084
 2815SOL     OW20077   0.900   2.963   2.869  0.2194  0.4497  0.5343
 2815SOL    HW120078   0.883   3.055   2.847  0.0715  0.4343  0.5865
 2815SOL    HW220079   0.878   2.917   2.788 -2.8658 -1.1725  2.2993
 2816SOL     OW20080   4.075   2.525   6.138  0.1958  0.1528 -0.0501
 2816SOL    HW120081   3.982   2.514   6.156 -0.0555  0.7596 -0.9502
 2816SOL    HW220082   4.110   2.443   6.173 -0.9397 -0.2314  0.1705
 2817SOL     OW20083   2.615   3.111   6.272  0.3564 -0.0695  0.4208
 2817SOL    HW120084   2.660   3.063   6.202 -0.4189 -0.4801  0.1954
 2817SOL    HW220085   2.527   3.073   6.269 -0.2670  1.4763 -0.6690
 2818SOL     OW20086   1.191   0.896   7.198 -0.7579  0.0968 -0.2717
 2818SOL    HW120087   1.161   0.837   7.129  2.4659  0.8987 -2.3536
 2818SOL    HW220088   1.189   0.835   7.272  1.8639 -0.5243 -0.6952
 2819SOL     OW20089   3.725   1.485   7.300 -0.0505  0.0446 -0.4436
 2819SOL    HW120090   3.732   1.396   7.335 -1.0549  0.1050 -0.1048
 2819SOL    HW220091   3.667   1.525   7.364  0.4598 -0.7203  0.4942
 2820SOL     OW20092   3.702   3.125   8.806  0.0666 -0.7179 -0.0709
 2820SOL    HW120093   3.786   3.149   8.845  2.2147 -2.5625 -3.5487
 2820SOL    HW220094   3.737   3.061   8.744 -0.0333  0.5809 -1.4674
 2821SOL     OW20095   0.891   0.977  14.419  0.2741 -0.5752  0.6629
 2821SOL    HW120096   0.925   0.987  14.330  0.7338  0.3417  0.9492
 2821SOL    HW220097   0.965   0.933  14.461  0.9557  0.3363  0.3999
 2822SOL     OW20098   3.320   1.155   6.984 -0.7886 -0.5318 -0.0390
 2822SOL    HW120099   3.236   1.112   7.001 -1.4710  0.2129 -1.5111
 2822SOL    HW220100   3.368   1.140   7.065 -2.3878 -0.5924  0.8801
 2823SOL     OW20101   1.298   0.882   1.412 -0.0975 -0.0131  0.1999
 2823SOL    HW120102   1.388   0.907   1.432 -0.3646  1.2450 -0.1711
 2823SOL    HW220103   1.261   0.970   1.416 -0.8098 -0.2955 -0.1321
 2824SOL     OW20104   4.145   0.679   3.466  0.0383  0.2154  0.5488
 2824SOL    HW120105   4.178   0.769   3.474  0.2281  0.0482  1.6639
 2824SOL    HW220106   4.055   0.701   3.488 -0.9403 -1.0115 -2.3058
 2825SOL     OW20107   3.817   2.128  16.825 -0.2322  0.6905 -0.0597
 2825SOL    HW120108   3.850   2.170  16.746 -2.1190  2.0785 -0.1105
 2825SOL    HW220109   3.764   2.061  16.782  0.9327 -0.2863  0.0363
 2826SOL     OW20110   2.253   2.835   5.810  0.2319  0.3944 -0.0819
 2826SOL    HW120111   2.232   2.916   5.857 -1.3568 -0.9663  1.5244
 2826SOL    HW220112   2.195   2.769   5.848  0.9916 -0.8548 -1.1097
 2827SOL     OW20113   1.337   3.511   6.430 -0.6646 -0.5247  0.2754
 2827SOL    HW120114   1.352   3.448   6.501  3.3463  0.2144  0.0475
 2827SOL    HW220115   1.421   3.502   6.386 -2.0422 -0.6232 -2.3156
 2828SOL     OW20116   4.716   0.401  11.603  0.1973 -0.3653  0.0429
 2828SOL    HW120117   4.686   0.492  11.609 -1.4102 -0.9542  1.0666
 2828SOL    HW220118   4.685   0.379  11.515 -0.6669  0.6125  0.1097
 2829SOL     OW20119   2.494   3.769  13.599 -0.2317  0.5574 -0.1617
 2829SOL    HW120120   2.473   3.792  13.690 -0.8372  1.5545 -0.5517
 2829SOL    HW220121   2.569   3.710  13.605 -0.7264 -0.0382  0.3261
 2830SOL     OW20122   3.751   0.187   6.467 -0.6650  0.2556 -0.3641
 2830SOL    HW120123   3.810   0.209   6.539  1.7930 -1.7045 -1.7584
 2830SOL    HW220124   3.813   0.138   6.413  0.7397  0.5416  0.9791
 2831SOL     OW20125   3.290   1.608   2.889 -0.2295 -0.1198 -0.2488
 2831SOL    HW120126   3.279   1.513   2.888  1.1462 -0.3304  2.7706
 2831SOL    HW220127   3.359   1.608   2.956  0.4817  1.5191 -0.9660
 2832SOL     OW20128   3.174   2.277  13.298 -0.4360  0.0441  0.0452
 2832SOL    HW120129   3.104   2.212  13.301  2.0149 -2.4368  3.1282
 2832SOL    HW220130   3.125   2.339  13.244 -1.0152 -0.3589  0.1099
 2833SOL     OW20131   0.893   3.652   2.746  0.3152 -0.3182 -0.4704
 2833SOL    HW120132   0.813   3.599   2.740  1.3903 -2.1533  1.4999
 2833SOL    HW220133   0.911   3.675   2.655  1.4783  1.2216  0.1417
 2834SOL     OW20134   1.343   2.247   2.009  0.2863 -0.2647 -0.0352
 2834SOL    HW120135   1.383   2.257   1.923 -2.5863  0.2551 -1.2756
 2834SOL    HW220136   1.262   2.202   1.986 -0.1312  0.3273  0.2651
 2835SOL     OW20137   4.315   3.321   7.471  0.3195 -0.1325 -0.3524
 2835SOL    HW120138   4.279   3.237   7.502  2.0180 -0.4881  0.6591
 2835SOL    HW220139   4.230   3.358   7.446  0.7117  0.3580 -0.9402
 2836SOL     OW20140   4.222   2.287   7.029  0.1297  0.4110  0.5281
 2836SOL    HW120141   4.155   2.350   7.003  0.4294  0.8185  0.7423
 2836SOL    HW220142   4.200   2.215   6.971  0.0200  0.5545  0.3944
 2837SOL     OW20143   0.144   0.206  15.553  0.1912 -0.2654  0.3791
 2837SOL    HW120144   0.200   0.264  15.502 -1.8366  1.8644  0.5920
 2837SOL    HW220145   0.095   0.270  15.604 -0.0884  1.0625 -1.5768
 2838SOL     OW20146   1.960   1.916   2.333  0.4613 -0.2498  0.0839
 2838SOL    HW120147   1.886   1.958   2.290 -0.9127 -1.5539  1.1714
 2838SOL    HW220148   1.949   1.951   2.422  1.7621 -1.5985  0.7775
 2839SOL     OW20149   1.966   3.088   3.066  0.3492 -0.3431 -0.5355
 2839SOL    HW120150   1.987   3.111   2.975  2.1304 -1.2828 -0.3536
 2839SOL    HW220151   2.029   3.144   3.112 -1.9306  0.9345  0.9998
 2840SOL     OW20152   1.369   0.201   8.181  0.0322  0.2028 -0.3068
 2840SOL    HW120153   1.338   0.162   8.099  2.1884  2.9303 -2.4311
 2840SOL    HW220154   1.367   0.121   8.233 -1.1816 -0.7207 -1.7950
 2841SOL     OW20155   4.377   3.433   5.810  0.6573 -0.2849  0.0648
 2841SOL    HW120156   4.386   3.517   5.856  0.7492  0.8457 -2.0442
 2841SOL    HW220157   4.302   3.392   5.852  0.4496 -1.2536 -1.2590
 2842SOL     OW20158   1.863   1.368  16.470 -0.1525  0.3117 -0.1218
 2842SOL    HW120159   1.921   1.322  16.531 -0.2712  0.2758 -0.0361
 2842SOL    HW220160   1.774   1.335  16.481 -0.5066  0.6883 -1.9437
 2843SOL     OW20161   3.875   1.204   2.971  0.1691  0.2414 -0.5008
 2843SOL    HW120162   3.918   1.119   2.981 -1.1753 -0.4733 -0.7284
 2843SOL    HW220163   3.923   1.235   2.894  1.9697  1.9344  1.3082
 2844SOL     OW20164   4.243   2.210  10.234  0.1436 -0.8068  0.0648
 2844SOL    HW120165   4.198   2.131  10.264 -0.3930 -0.5033  0.0526
 2844SOL    HW220166   4.167   2.260  10.207  1.1570 -0.2974 -1.8460
 2845SOL     OW20167   2.180   0.111   6.328 -0.6458 -0.1315 -0.0646
 2845SOL    HW120168   2.137   0.025   6.326 -1.4618  0.3450 -3.2189
 2845SOL    HW220169   2.185   0.142   6.238 -0.0046  0.7506  0.2757
 2846SOL     OW20170   0.982   1.261  16.952  0.4268 -0.3456  0.3333
 2846SOL    HW120171   0.918   1.194  16.927  1.4827 -1.6744  1.1938
 2846SOL    HW220172   0.931   1.342  16.940  0.9739 -0.0078  0.2936
 2847SOL     OW20173   0.039   1.367   2.354 -0.3764 -0.1000 -0.2467
 2847SOL    HW120174   4.697   1.418   2.365  0.8657  1.7487  0.3485
 2847SOL    HW220175   0.070   1.388   2.265  1.1980 -1.2335  0.0461
 2848SOL     OW20176   2.130   4.512   7.459 -0.4921  0.7996  0.3223
 2848SOL    HW120177   2.049   4.513   7.511 -0.4996 -0.2158  0.3286
 2848SOL    HW220178   2.170   4.431   7.492 -2.4803 -0.1749  0.3513
 2849SOL     OW20179   3.324   2.541   3.708 -0.0434 -0.1706  1.0408
 2849SOL    HW120180   3.353   2.505   3.625 -1.1922  2.4627 -0.5051
 2849SOL    HW220181   3.279   2.622   3.683 -0.2229  0.0761  2.1207
 2850SOL     OW20182   1.805   2.560  12.107 -0.3443 -0.2084 -0.3921
 2850SOL    HW120183   1.799   2.490  12.171  0.7804 -0.6649 -0.7827
 2850SOL    HW220184   1.888   2.603  12.129  0.6457 -2.1211 -0.3980
 2851SOL     OW20185   2.302   1.825   3.993 -0.5225  0.1708 -0.0883
 2851SOL    HW120186   2.335   1.760   3.931 -0.8922  0.5466 -0.6871
 2851SOL    HW220187   2.349   1.803   4.073  0.6581  0.2662 -0.7600
 2852SOL     OW20188   3.722   2.735  15.559 -0.4296 -0.0436  0.3828
 2852SOL    HW120189   3.732   2.651  15.516  1.6982 -0.1257  1.0240
 2852SOL    HW220190   3.647   2.770  15.511 -0.4778  1.0594  1.2562
 2853SOL     OW20191   0.999   4.344   7.685  0.5987  0.6830 -0.3220
 2853SOL    HW120192   0.927   4.366   7.626  0.7046  0.1684 -0.6472
 2853SOL    HW220193   1.034   4.427   7.715  1.4092  0.8932 -1.8392
 2854SOL     OW20194   4.217   4.136  11.009  0.1873  0.3290 -0.3364
 2854SOL    HW120195   4.237   4.045  11.028 -0.3564  0.2301 -0.2256
 2854SOL    HW220196   4.123   4.132  10.990  0.1260  1.1201 -0.2009
 2855SOL     OW20197   4.065   0.196   3.322 -0.2112  0.4950  0.0471
 2855SOL    HW120198   4.145   0.177   3.372 -0.1071  1.9817  0.4700
 2855SOL    HW220199   4.096   0.286   3.305 -1.2084  1.4862  3.4139
 2856SOL     OW20200   3.131   4.707   9.326 -0.6712  0.3092 -0.2604
 2856SOL    HW120201   3.112   4.668   9.240  3.0105  0.4021 -1.0898
 2856SOL    HW220202   3.108   0.060   9.307 -2.7590 -0.1885 -0.1274
 2857SOL     OW20203   2.300   4.022   7.904 -0.4965 -0.7891 -0.2446
 2857SOL    HW120204   2.247   4.102   7.912 -0.1474 -0.8737  2.7031
 2857SOL    HW220205   2.347   4.057   7.829 -1.2218 -0.0289 -0.3523
 2858SOL     OW20206   2.890   2.808   7.179  0.2974 -0.4480  0.1538
 2858SOL    HW120207   2.887   2.785   7.272 -0.0918 -0.9827  0.0047
 2858SOL    HW220208   2.937   2.891   7.191  1.0542 -0.9023  0.2752
 2859SOL     OW20209   2.595   0.581   7.356  0.7887  0.1810  0.4981
 2859SOL    HW120210   2.533   0.550   7.422 -0.8163  0.0071 -1.1043
 2859SOL    HW220211   2.553   0.552   7.275  2.3871 -2.0786  0.4640
 2860SOL     OW20212   4.536   3.334   9.676 -0.1611  0.1046 -0.3928
 2860SOL    HW120213   4.442   3.337   9.693 -0.2739 -0.5639 -0.9190
 2860SOL    HW220214   4.578   3.324   9.761  0.5535  2.2636 -0.4891
 2861SOL     OW20215   0.074   4.136   8.835 -0.0263  0.9246  0.1159
 2861SOL    HW120216   0.147   4.156   8.894 -0.7116 -1.3431  1.7374
 2861SOL    HW220217   4.733   4.128   8.889 -0.2632 -0.1390 -0.3866
 2862SOL     OW20218   0.404   1.490   7.262 -0.2623 -0.4935 -0.0049
 2862SOL    HW120219   0.485   1.463   7.220  0.6530 -0.0471  1.4576
 2862SOL    HW220220   0.357   1.419   7.219 -0.4897  0.6140 -1.5831
 2863SOL     OW20221   2.249   4.513  12.079 -0.1050 -0.2490 -0.3830
 2863SOL    HW120222   2.245   4.572  12.154  0.5301  1.2202 -1.5073
 2863SOL    HW220223   2.157   4.487  12.078  0.2202 -1.4429  0.6633
 2864SOL     OW20224   0.854   3.951   7.584  0.3699 -0.2159  0.5448
 2864SOL    HW120225   0.814   4.031   7.616  0.0245 -0.8748  1.7553
 2864SOL    HW220226   0.935   3.993   7.553  0.6022 -1.3638 -0.3963
 2865SOL     OW20227   0.264   4.354  12.459  0.8133  0.1784  0.1486
 2865SOL    HW120228   0.256   4.449  12.447 -0.7925 -0.2604 -2.2135
 2865SOL    HW220229   0.309   4.339  12.376  1.1689  0.0902  0.3572
 2866SOL     OW20230   2.696   0.895   3.545 -0.2254  0.1799  0.4208
 2866SOL    HW120231   2.628   0.929   3.603 -0.0171  0.0082  0.7659
 2866SOL    HW220232   2.746   0.832   3.597  0.1712 -0.2010 -0.4187
 2867SOL     OW20233   2.939   3.996  11.402 -0.1738  0.5801  0.1338
 2867SOL    HW120234   2.938   4.087  11.370 -1.3402 -0.4372 -2.7396
 2867SOL    HW220235   3.000   3.963  11.336 -1.2111 -0.7791 -0.1459
 2868SOL     OW20236   0.156   1.585   3.554  0.3291  0.1071 -0.2204
 2868SOL    HW120237   0.242   1.548   3.531  0.1295 -1.7824  2.1181
 2868SOL    HW220238   0.097   1.522   3.513 -1.2149  0.4704  1.4618
 2869SOL     OW20239   2.765   4.697   2.406 -0.2441 -0.0528 -0.1934
 2869SOL    HW120240   2.815   4.630   2.453 -0.2013  0.5591  0.6390
 2869SOL    HW220241   2.843   0.001   2.368 -0.8218  1.1875 -0.0136
 2870SOL     OW20242   0.731   0.481   3.699 -0.5333  0.2273  0.5326
 2870SOL    HW120243   0.710   0.555   3.643 -0.3782 -2.0607 -2.5805
 2870SOL    HW220244   0.653   0.470   3.754  0.2852 -0.7677  1.5016
 2871SOL     OW20245   4.098   0.278  17.484 -0.1413 -0.1378  0.4353
 2871SOL    HW120246   4.039   0.350  17.462 -0.7028 -0.3511  1.2294
 2871SOL    HW220247   4.127   0.254  17.396  1.3149  1.5446  0.4656
 2872SOL     OW20248   1.958   0.924  12.593 -0.0577 -0.2545 -0.1303
 2872SOL    HW120249   1.880   0.962  12.633  0.3028  1.3534 -0.9618
 2872SOL    HW220250   1.931   0.882  12.511 -0.7912 -0.7589  0.3604
 2873SOL     OW20251   1.750   3.581   8.364  0.3985  0.1250  0.1405
 2873SOL    HW120252   1.813   3.631   8.312  0.4405  1.8299  1.8202
 2873SOL    HW220253   1.674   3.639   8.352  1.0241  1.2327  1.5114
 2874SOL     OW20254   1.223   1.767   9.107 -0.3279  0.4470  0.0890
 2874SOL    HW120255   1.270   1.788   9.026  1.6733 -3.0877  0.3422
 2874SOL    HW220256   1.282   1.703   9.147  0.8703  2.1667  1.0487
 2875SOL     OW20257   0.201   1.169  15.023 -0.3552 -0.1557  0.3829
 2875SOL    HW120258   0.291   1.183  15.055 -0.6065  0.4067  0.8548
 2875SOL    HW220259   0.150   1.183  15.103  0.6692 -1.1067  1.2118
 2876SOL     OW20260   2.360   2.894  11.107  0.5987  0.2669  0.0204
 2876SOL    HW120261   2.329   2.891  11.017  1.0703  0.8071 -0.1539
 2876SOL    HW220262   2.283   2.859  11.152 -0.5589  0.7861 -1.5589
 2877SOL     OW20263   1.885   4.475   3.689  0.2961  0.4454 -0.6153
 2877SOL    HW120264   1.913   4.461   3.779 -0.4419 -0.4348 -0.5261
 2877SOL    HW220265   1.802   4.429   3.687  0.2955  0.4439 -0.5559
 2878SOL     OW20266   2.925   3.383   7.179  0.6686  0.4821 -0.1608
 2878SOL    HW120267   2.970   3.459   7.142 -0.1998  1.1144  0.0660
 2878SOL    HW220268   2.903   3.335   7.099 -1.9150  3.2389 -1.1312
 2879SOL     OW20269   2.372   3.258   7.460  0.0594 -0.9521  0.0373
 2879SOL    HW120270   2.447   3.200   7.453 -0.1130 -1.4087  1.9136
 2879SOL    HW220271   2.378   3.298   7.546  0.5664  1.6831 -1.2330
 2880SOL     OW20272   1.011   2.611   1.501 -0.0492  0.0483 -0.3242
 2880SOL    HW120273   0.979   2.664   1.574  1.7453 -1.1245  1.2891
 2880SOL    HW220274   1.044   2.688   1.454 -1.9045  0.8772 -0.2720
 2881SOL     OW20275   1.822   4.435   7.307  0.5792  0.5077 -0.4287
 2881SOL    HW120276   1.914   4.449   7.283  0.5373  0.1624 -0.7968
 2881SOL    HW220277   1.802   4.512   7.359  0.3803  1.3246 -1.7210
 2882SOL     OW20278   0.196   0.472  12.215 -0.1250  0.3479 -0.1862
 2882SOL    HW120279   0.132   0.516  12.270  1.4189  2.7457 -0.2814
 2882SOL    HW220280   0.191   0.382  12.246  2.2599  0.7990  1.5830
 2883SOL     OW20281   3.004   0.531   2.975  0.4752 -0.0988 -0.3713
 2883SOL    HW120282   2.923   0.581   2.978  0.0853 -0.7477 -0.2926
 2883SOL    HW220283   2.967   0.445   2.992  0.2177  0.0266 -0.2998
 2884SOL     OW20284   2.295   0.732   7.662  0.4341 -0.5508  0.0881
 2884SOL    HW120285   2.357   0.801   7.636  0.9599  0.5931  4.4023
 2884SOL    HW220286   2.249   0.722   7.579 -0.3064  0.1440  0.4236
 2885SOL     OW20287   3.759   2.141   8.187  0.1033  0.2534  0.1808
 2885SOL    HW120288   3.850   2.131   8.159 -0.6107 -1.5828 -1.4835
 2885SOL    HW220289   3.728   2.204   8.122  1.3375  0.5332 -0.1262
 2886SOL     OW20290   0.288   3.777  13.122 -0.3480 -0.6288  0.0707
 2886SOL    HW120291   0.377   3.786  13.088 -0.5148  0.0793 -0.1879
 2886SOL    HW220292   0.258   3.866  13.141 -0.4434 -1.1139  2.2142
 2887SOL     OW20293   0.787   3.115  11.867 -0.4832  0.0748 -0.2107
 2887SOL    HW120294   0.759   3.136  11.778 -0.5835 -0.3139 -0.2689
 2887SOL    HW220295   0.700   3.120  11.907 -0.2329 -0.5912  0.4144
 2888SOL     OW20296   4.453   4.003   8.234 -0.7185  0.6119  0.0263
 2888SOL    HW120297   4.469   3.911   8.256 -0.6679  0.5488 -0.2726
 2888SOL    HW220298   4.412   4.007   8.148 -0.4976 -4.2391 -0.2824
 2889SOL     OW20299   2.742   2.226  13.939 -0.3049 -0.5728  0.0649
 2889SOL    HW120300   2.824   2.209  13.987 -0.1394 -2.8187 -1.0025
 2889SOL    HW220301   2.721   2.312  13.974  1.3996 -1.3446  3.0011
 2890SOL     OW20302   2.227   2.525   3.098  0.3112  0.6660  0.1220
 2890SOL    HW120303   2.252   2.518   3.190 -1.1536  0.5434  0.5181
 2890SOL    HW220304   2.220   2.434   3.069  1.1162  0.5988  0.1568
 2891SOL     OW20305   2.975   1.311   1.969 -0.4741  0.0391  0.3071
 2891SOL    HW120306   3.060   1.285   2.005  0.0159  1.7960  0.4357
 2891SOL    HW220307   2.953   1.376   2.036  1.8873  0.7277  0.4144
 2892SOL     OW20308   3.701   0.734   2.838 -0.6429 -0.2495  0.5890
 2892SOL    HW120309   3.708   0.654   2.890 -0.5305 -1.8603 -1.9260
 2892SOL    HW220310   3.792   0.756   2.816 -0.3955 -0.6569  1.2055
 2893SOL     OW20311   0.645   1.829  12.526 -0.1233 -0.3765 -0.0953
 2893SOL    HW120312   0.629   1.837  12.620 -1.2100 -0.2820 -0.2816
 2893SOL    HW220313   0.740   1.836  12.525 -0.1277 -0.2822  0.2066
 2894SOL     OW20314   3.593   0.866  15.147  0.6269 -0.7453 -0.3672
 2894SOL    HW120315   3.591   0.906  15.060  3.6733  0.1774 -0.0050
 2894SOL    HW220316   3.565   0.776  15.127 -1.8035 -0.1975  0.4964
 2895SOL     OW20317   2.780   4.003   5.345 -0.0836  0.3439 -0.3035
 2895SOL    HW120318   2.866   3.991   5.386 -0.4774 -0.5863  0.2454
 2895SOL    HW220319   2.754   3.927   5.294  0.4423 -0.3167  0.4180
 2896SOL     OW20320   3.324   1.414   8.202 -0.0100 -0.0563 -0.0597
 2896SOL    HW120321   3.313   1.481   8.269 -1.0499 -0.4746  0.1821
 2896SOL    HW220322   3.352   1.465   8.125  0.0111  1.5859  1.0342
 2897SOL     OW20323   2.244   0.125   1.380  0.6822 -0.0733 -0.1280
 2897SOL    HW120324   2.319   0.176   1.349 -0.1225  2.0050  1.3565
 2897SOL    HW220325   2.257   0.140   1.474  0.2656  1.0681 -0.2477
 2898SOL     OW20326   3.401   0.355   7.560  0.2252 -0.1991  0.6965
 2898SOL    HW120327   3.363   0.301   7.629 -1.8484 -2.9591 -2.5606
 2898SOL    HW220328   3.418   0.432   7.614 -1.4520  1.4506 -1.1025
 2899SOL     OW20329   3.291   2.679   7.346  0.0308  0.6384 -0.0382
 2899SOL    HW120330   3.291   2.771   7.373  0.9514  1.1786 -1.9258
 2899SOL    HW220331   3.234   2.647   7.416  0.5718 -1.4602 -0.5652
 2900SOL     OW20332   2.005   3.040   5.585 -0.6591 -0.3001 -0.2092
 2900SOL    HW120333   2.058   3.091   5.524 -0.9115 -0.6287 -0.7042
 2900SOL    HW220334   2.011   2.955   5.540  1.3538  0.0124 -0.5417
 2901SOL     OW20335   1.883   2.606   0.414  0.3388 -0.3838  0.3394
 2901SOL    HW120336   1.813   2.629   0.354  3.0171  0.1178 -2.5654
 2901SOL    HW220337   1.837   2.603   0.498 -2.0644  2.9446 -0.8628
 2902SOL     OW20338   2.680   2.030   2.969  0.4423 -0.0150  0.4058
 2902SOL    HW120339   2.706   1.949   2.925  0.4182 -0.7464  1.7352
 2902SOL    HW220340   2.717   2.014   3.056  0.2501 -1.2374  0.2535
 2903SOL     OW20341   0.849   2.987  15.728 -0.3392  0.3848 -0.8017
 2903SOL    HW120342   0.785   2.929  15.686 -0.6601  0.2856 -0.1793
 2903SOL    HW220343   0.798   3.001  15.808  0.9551 -0.5736  0.1958
 2904SOL     OW20344   1.675   0.267  13.476  0.5736 -0.4298  0.7700
 2904SOL    HW120345   1.701   0.233  13.561  1.4431 -0.5568  0.4525
 2904SOL    HW220346   1.651   0.180  13.445  0.2550  0.9739 -2.9143
 2905SOL     OW20347   1.923   1.839   0.715 -0.5221  0.0397 -0.4739
 2905SOL    HW120348   2.017   1.828   0.727 -0.1218  1.8227 -2.0893
 2905SOL    HW220349   1.926   1.894   0.637 -1.0870  1.9736  0.8913
 2906SOL     OW20350   3.314   2.018   6.833  0.0576 -0.6240 -0.4304
 2906SOL    HW120351   3.274   1.941   6.792 -0.2601 -0.6373 -0.0990
 2906SOL    HW220352   3.249   2.083   6.808  1.8898  0.1276 -3.2016
 2907SOL     OW20353   3.998   3.534   4.222 -0.0362 -0.5573  0.3978
 2907SOL    HW120354   4.041   3.451   4.200 -0.6803 -0.7090 -0.2803
 2907SOL    HW220355   3.962   3.562   4.138  0.4925 -0.2341  0.2744
 2908SOL     OW20356   3.741   1.208   9.904 -0.2933 -0.0249 -0.4289
 2908SOL    HW120357   3.767   1.159   9.982  2.2998 -0.7300 -1.7372
 2908SOL    HW220358   3.670   1.159   9.862  0.6807  0.2110 -2.3351
 2909SOL     OW20359   3.149   4.012   4.654  0.2351  0.2538  0.3666
 2909SOL    HW120360   3.122   4.081   4.594  1.2473 -1.3064 -1.8914
 2909SOL    HW220361   3.191   3.950   4.594  0.0591 -1.4484  1.9844
 2910SOL     OW20362   0.203   3.378   9.627 -0.3270 -0.3862  0.0382
 2910SOL    HW120363   0.161   3.333   9.553  0.0641  0.1255 -0.4979
 2910SOL    HW220364   0.237   3.306   9.679  0.9616 -0.7790 -1.3485
 2911SOL     OW20365   1.685   1.646   3.254  0.0671 -0.7114  0.2801
 2911SOL    HW120366   1.719   1.609   3.172 -2.0313 -1.8485 -0.0532
 2911SOL    HW220367   1.739   1.593   3.313 -0.3421 -1.4820 -0.0405
 2912SOL     OW20368   1.596   3.182   1.065  0.0784  0.7399 -0.3577
 2912SOL    HW120369   1.542   3.166   0.987  0.8429  0.8419 -0.9050
 2912SOL    HW220370   1.673   3.209   1.015 -0.9683  0.8561 -1.9006
 2913SOL     OW20371   0.091   3.061   7.564  0.6512 -0.2706  0.3396
 2913SOL    HW120372   0.101   3.152   7.537  0.9064 -0.1726  0.7747
 2913SOL    HW220373   0.168   3.024   7.520  0.4562  0.2808 -0.4632
 2914SOL     OW20374   2.154   0.726   1.785 -0.0731  0.4986  0.4526
 2914SOL    HW120375   2.123   0.655   1.728  1.0921  0.5037 -0.1875
 2914SOL    HW220376   2.080   0.732   1.846  1.0642  1.1278  1.7585
 2915SOL     OW20377   4.663   2.115   5.441  0.8887  0.0871  0.6134
 2915SOL    HW120378   4.593   2.053   5.422  1.4370 -0.5905  0.8266
 2915SOL    HW220379   4.679   2.106   5.535  3.1446  0.0077  0.2212
 2916SOL     OW20380   0.709   3.251  11.618 -0.8393  0.5512  0.2392
 2916SOL    HW120381   0.708   3.332  11.566 -1.7210 -0.5860 -1.4982
 2916SOL    HW220382   0.618   3.264  11.647 -0.4888 -1.0121  1.9925
 2917SOL     OW20383   0.844   0.751   1.699 -0.0076  0.0026 -0.5882
 2917SOL    HW120384   0.935   0.752   1.670 -0.4664  0.6145 -2.0391
 2917SOL    HW220385   0.839   0.826   1.757 -0.9124  0.0776 -0.7655
 2918SOL     OW20386   1.296   0.705   1.180  0.3346  0.1892 -0.6708
 2918SOL    HW120387   1.349   0.627   1.195  0.4693  0.4933  0.4857
 2918SOL    HW220388   1.294   0.748   1.266  0.6855 -2.9004  0.8602
 2919SOL     OW20389   2.417   2.632  17.452  0.1608  0.1099  0.5205
 2919SOL    HW120390   2.466   2.703  17.410 -0.1373 -0.0393 -0.0840
 2919SOL    HW220391   2.364   2.608  17.376  2.2831 -1.2813 -0.5240
 2920SOL     OW20392   4.081   0.844   4.122 -0.5235  0.0623 -0.6136
 2920SOL    HW120393   4.151   0.900   4.155 -1.6634  1.5744 -0.7516
 2920SOL    HW220394   4.028   0.853   4.201  0.1951  1.0462 -0.2419
 2921SOL     OW20395   2.459   2.804   0.692  0.3366  0.0010 -0.5389
 2921SOL    HW120396   2.378   2.762   0.721  1.3521 -3.1258 -2.2448
 2921SOL    HW220397   2.513   2.817   0.769  1.4609  0.2248 -1.3746
 2922SOL     OW20398   3.868   1.727   8.265  0.6322 -0.4700  0.3711
 2922SOL    HW120399   3.850   1.732   8.359 -1.0644  1.6968 -0.0722
 2922SOL    HW220400   3.789   1.774   8.240  0.7132  0.1399  1.2434
 2923SOL     OW20401   4.065   3.009   9.437  0.4101 -0.3575  0.4768
 2923SOL    HW120402   3.979   3.004   9.480 -0.4547  1.9360 -0.9726
 2923SOL    HW220403   4.095   2.922   9.462 -0.9465 -0.7758  0.6391
 2924SOL     OW20404   0.941   2.400   1.332 -0.7277  1.0573 -0.2101
 2924SOL    HW120405   0.926   2.443   1.248  0.5985  0.3982 -0.7746
 2924SOL    HW220406   0.973   2.474   1.384  1.1329 -0.4749  0.8001
 2925SOL     OW20407   1.904   1.913   5.124 -0.1080  0.8648 -1.1256
 2925SOL    HW120408   1.815   1.943   5.108  0.3337  2.1796 -1.1263
 2925SOL    HW220409   1.924   1.875   5.039 -1.3268  0.7152 -1.3414
 2926SOL     OW20410   0.480   0.843  12.729 -0.6443 -0.4229  0.6411
 2926SOL    HW120411   0.459   0.927  12.688  4.9094  0.2132 -0.9586
 2926SOL    HW220412   0.451   0.775  12.668  2.0488 -1.2129  0.2392
 2927SOL     OW20413   3.079   0.501  14.746  0.6794  0.6563 -0.3906
 2927SOL    HW120414   2.994   0.471  14.779 -0.0645  0.3926 -2.5477
 2927SOL    HW220415   3.048   0.509  14.655  0.1499  1.7933 -0.1206
 2928SOL     OW20416   4.648   1.398   9.183 -0.4093  0.3289  0.0615
 2928SOL    HW120417   4.666   1.492   9.183  1.1275  0.0284 -1.3491
 2928SOL    HW220418   4.566   1.388   9.232 -0.7829  0.9626 -0.4404
 2929SOL     OW20419   1.335   4.448   4.472  0.3979  0.2952 -0.2766
 2929SOL    HW120420   1.335   4.367   4.420 -1.4673 -0.0976  0.3208
 2929SOL    HW220421   1.363   4.506   4.402  2.3627  0.2936  0.5064
 2930SOL     OW20422   0.154   2.598   6.543  0.1676 -0.0038 -0.4329
 2930SOL    HW120423   0.149   2.621   6.450  0.7113  2.1961  0.0704
 2930SOL    HW220424   0.061   2.600   6.566  0.5695  0.2821  1.1818
 2931SOL     OW20425   1.481   0.268   4.407  0.4406 -0.4388 -0.3830
 2931SOL    HW120426   1.462   0.252   4.315 -3.4641  0.3967  0.2833
 2931SOL    HW220427   1.527   0.350   4.391  1.2204 -0.9026 -0.5653
 2932SOL     OW20428   0.377   3.408   3.476 -0.0078  0.7951  0.6058
 2932SOL    HW120429   0.409   3.464   3.547 -2.2493 -1.0684  3.0977
 2932SOL    HW220430   0.341   3.470   3.412  1.1642 -1.5618 -2.3423
 2933SOL     OW20431   2.887   4.469   9.227  0.5753 -0.0486 -0.3678
 2933SOL    HW120432   2.922   4.454   9.315 -2.2962  0.7390  0.9267
 2933SOL    HW220433   2.854   4.381   9.206  0.6068 -0.6546  2.1153
 2934SOL     OW20434   0.971   4.381  11.219 -0.4498 -0.0883 -0.6610
 2934SOL    HW120435   0.980   4.349  11.129 -4.8048  0.3498 -1.2266
 2934SOL    HW220436   1.031   4.456  11.216  0.6303 -0.9308 -0.3024
 2935SOL     OW20437   0.578   1.800  11.454 -0.3819  0.1381  0.7412
 2935SOL    HW120438   0.596   1.890  11.424 -1.0881  0.2851  0.7532
 2935SOL    HW220439   0.549   1.817  11.544  0.5119 -0.6680  1.1818
 2936SOL     OW20440   3.433   3.514   2.166  0.1117  0.4018  0.3122
 2936SOL    HW120441   3.433   3.605   2.196  1.3471  0.6224 -0.3833
 2936SOL    HW220442   3.342   3.485   2.174  0.3499 -0.3695  0.2513
 2937SOL     OW20443   1.994   1.192   3.421 -0.3284 -0.5494  0.4181
 2937SOL    HW120444   1.987   1.244   3.341 -0.7547  0.3039  1.0036
 2937SOL    HW220445   1.970   1.103   3.396  0.0691 -0.6519  0.4114
 2938SOL     OW20446   1.189   4.170   5.701  0.0426 -0.0606  0.5456
 2938SOL    HW120447   1.124   4.184   5.768 -0.8086 -2.7258  0.2974
 2938SOL    HW220448   1.139   4.200   5.625  1.4209  0.0194 -0.3431
 2939SOL     OW20449   3.241   1.791   3.743 -0.3069  0.1264  0.1745
 2939SOL    HW120450   3.334   1.768   3.743  0.0470  1.5729  1.1410
 2939SOL    HW220451   3.238   1.863   3.680 -1.9913  0.6163  0.8061
 2940SOL     OW20452   2.190   3.299   8.831  0.8255 -0.6141  0.4407
 2940SOL    HW120453   2.234   3.227   8.876  0.6837  0.1077  1.7100
 2940SOL    HW220454   2.238   3.298   8.748 -0.0002 -0.1100 -0.0374
 2941SOL     OW20455   1.746   1.562   8.785  0.1958 -0.1997  0.0052
 2941SOL    HW120456   1.800   1.484   8.769 -0.6035 -0.7601  0.0499
 2941SOL    HW220457   1.674   1.523   8.834 -1.1473  1.1670 -0.8814
 2942SOL     OW20458   0.176   1.909   8.299  0.3676 -0.4010 -0.0403
 2942SOL    HW120459   0.106   1.919   8.363 -1.7691 -3.6424 -1.8719
 2942SOL    HW220460   0.240   1.978   8.319 -1.0412  1.1506 -0.9318
 2943SOL     OW20461   4.249   0.310  10.025  0.2378  0.2948 -0.3328
 2943SOL    HW120462   4.262   0.318  10.119  1.1694 -1.2432 -0.3349
 2943SOL    HW220463   4.293   0.226  10.016 -2.2108 -0.8525 -1.3579
 2944SOL     OW20464   0.311   1.431   8.989  0.1563 -0.1414  0.0275
 2944SOL    HW120465   0.303   1.339   8.965  0.1104 -0.0125 -0.4438
 2944SOL    HW220466   0.316   1.424   9.085  0.5272  2.7188  0.2288
 2945SOL     OW20467   4.065   0.515  12.210 -0.2491 -0.2993 -0.2490
 2945SOL    HW120468   4.126   0.553  12.273 -2.5373  1.5314  0.8056
 2945SOL    HW220469   4.034   0.444  12.266  1.3483  0.4237  1.5572
 2946SOL     OW20470   1.702   3.530   9.957  0.8534 -0.2156  0.0990
 2946SOL    HW120471   1.754   3.498   9.884  1.7723  1.7170 -0.0693
 2946SOL    HW220472   1.631   3.465   9.959 -0.3284  1.0345 -2.2296
 2947SOL     OW20473   4.224   1.187   7.614 -0.1453 -0.2527 -0.4700
 2947SOL    HW120474   4.212   1.208   7.707  1.7702 -0.9236 -0.0753
 2947SOL    HW220475   4.209   1.093   7.614 -1.9729  0.0330  0.4797
 2948SOL     OW20476   1.486   1.427   7.088  0.0521 -0.4368  0.0997
 2948SOL    HW120477   1.428   1.493   7.051  1.0916  0.5408  0.2541
 2948SOL    HW220478   1.437   1.411   7.170  1.6623  1.6347  1.4652
 2949SOL     OW20479   1.705   4.217   9.201 -0.1056 -0.4783  0.4209
 2949SOL    HW120480   1.704   4.191   9.293 -1.4875 -2.1484 -0.0590
 2949SOL    HW220481   1.784   4.271   9.200 -2.2465  2.6044 -0.0054
 2950SOL     OW20482   2.925   4.594   4.045  0.0547  0.2193 -0.8137
 2950SOL    HW120483   2.918   4.613   4.138  0.0262  0.2832 -0.8295
 2950SOL    HW220484   3.020   4.579   4.039  0.1597  0.2122  0.8315
 2951SOL     OW20485   4.412   1.216   7.408 -0.2667 -0.1961 -0.7148
 2951SOL    HW120486   4.363   1.151   7.459  1.2618  1.2021  2.4660
 2951SOL    HW220487   4.403   1.285   7.473  0.6196 -0.4396 -0.3415
 2952SOL     OW20488   0.311   0.540   7.383  0.2919 -0.4120  0.3271
 2952SOL    HW120489   0.283   0.625   7.418  2.2256 -0.0244  0.9549
 2952SOL    HW220490   0.236   0.526   7.325 -0.1448 -1.2042  1.0871
 2953SOL     OW20491   1.529   0.117   4.663 -0.3550 -0.0883 -0.1131
 2953SOL    HW120492   1.439   0.085   4.664 -0.1855 -0.6153 -1.8026
 2953SOL    HW220493   1.579   0.078   4.735 -1.4564 -2.9205 -0.9094
 2954SOL     OW20494   2.487   2.446   3.280  0.4322  0.4894 -0.2421
 2954SOL    HW120495   2.417   2.391   3.245 -0.4773  0.6390  1.3384
 2954SOL    HW220496   2.555   2.432   3.214  0.6555 -0.1254  0.1213
 2955SOL     OW20497   4.692   2.395   6.038 -0.0282 -0.4942 -0.3602
 2955SOL    HW120498   4.675   2.301   6.042  1.4508 -0.6953  1.4748
 2955SOL    HW220499   4.606   2.437   6.036  0.5659  0.7055 -0.9247
 2956SOL     OW20500   1.848   1.539   7.899 -0.2287  0.0063  0.2548
 2956SOL    HW120501   1.752   1.537   7.889 -0.3773  0.7564  1.4844
 2956SOL    HW220502   1.865   1.616   7.952 -0.9601 -0.6706  1.4900
 2957SOL     OW20503   1.996   1.522   4.518  0.4319 -0.3758 -0.5131
 2957SOL    HW120504   2.024   1.500   4.429  0.8846 -0.5982 -0.3167
 2957SOL    HW220505   1.984   1.437   4.559  0.3215 -0.7783 -1.3817
 2958SOL     OW20506   2.647   1.704   0.418  0.0417  0.1225 -0.2164
 2958SOL    HW120507   2.730   1.752   0.417 -0.2876  0.7475  1.9353
 2958SOL    HW220508   2.661   1.662   0.333 -2.7850 -0.3269 -0.4492
 2959SOL     OW20509   3.935   4.185  16.888 -0.2742  0.9275 -0.4986
 2959SOL    HW120510   3.925   4.270  16.930 -2.8362  1.1466 -1.5591
 2959SOL    HW220511   3.846   4.150  16.892  0.1641 -0.5169 -3.0149
 2960SOL     OW20512   2.028   1.616   6.204  0.5771 -0.8801 -0.1670
 2960SOL    HW120513   2.104   1.562   6.179  0.8458 -0.8545  0.6109
 2960SOL    HW220514   1.994   1.578   6.285  1.1969 -3.5708 -1.1741
 2961SOL     OW20515   2.331   2.023  11.749 -0.2051 -0.1596  0.3103
 2961SOL    HW120516   2.402   2.024  11.814 -1.9044  0.4140  2.1476
 2961SOL    HW220517   2.392   2.006  11.677  1.4972 -0.2444  1.7540
 2962SOL     OW20518   3.426   2.091   4.558 -0.6257  0.1874  0.2698
 2962SOL    HW120519   3.479   2.034   4.614  0.1675  1.4092  0.7800
 2962SOL    HW220520   3.491   2.112   4.491 -0.6027 -0.7848 -0.0154
 2963SOL     OW20521   3.300   2.892   6.205 -0.4728 -0.3288  0.3707
 2963SOL    HW120522   3.291   2.895   6.110  2.2641 -2.5058  0.0373
 2963SOL    HW220523   3.217   2.850   6.228 -0.9077 -0.5888 -1.6662
 2964SOL     OW20524   2.067   2.813  11.425  0.0920  0.5817  0.0338
 2964SOL    HW120525   2.108   2.879  11.481  1.6026 -0.8316  0.6041
 2964SOL    HW220526   2.110   2.732  11.452  1.4559  1.5494  0.7329
 2965SOL     OW20527   1.162   0.717  14.074 -0.4874  0.1212  0.2227
 2965SOL    HW120528   1.077   0.686  14.040 -1.0682  1.1851  0.6959
 2965SOL    HW220529   1.188   0.639  14.123  1.6917  1.1354  0.6347
 2966SOL     OW20530   0.665   1.947   4.312  0.0972  0.4196 -0.3059
 2966SOL    HW120531   0.617   1.865   4.324 -0.4565  0.8921  0.6982
 2966SOL    HW220532   0.626   1.990   4.388 -2.2963 -0.9029 -0.7851
 2967SOL     OW20533   2.925   1.343  10.359 -0.1680 -0.1331 -0.0205
 2967SOL    HW120534   2.958   1.373  10.444 -1.0736  0.3228  0.1667
 2967SOL    HW220535   2.850   1.401  10.347  0.3824  0.9222  1.6225
 2968SOL     OW20536   0.104   1.232   4.003 -0.0176  0.0654  0.5073
 2968SOL    HW120537   0.028   1.225   4.061 -0.5615 -1.1914 -0.3526
 2968SOL    HW220538   0.167   1.282   4.055  1.2172 -0.2195 -0.7235
 2969SOL     OW20539   1.224   4.109  13.937 -0.5517  0.7646 -0.2670
 2969SOL    HW120540   1.239   4.155  13.854  0.6516 -2.8158 -2.0328
 2969SOL    HW220541   1.309   4.133  13.971 -0.8194  2.6125 -0.9261
 2970SOL     OW20542   3.263   4.599   3.487 -0.2546 -0.2393  0.0231
 2970SOL    HW120543   3.335   4.537   3.478 -0.4975 -0.2410 -1.9661
 2970SOL    HW220544   3.184   4.550   3.465 -0.7780  0.4657  0.3027
 2971SOL     OW20545   2.756   3.606   5.992 -0.2281  0.0892 -0.1073
 2971SOL    HW120546   2.809   3.623   5.914 -0.1241 -0.7663 -0.2179
 2971SOL    HW220547   2.808   3.537   6.033 -1.9466 -0.9664  0.2588
 2972SOL     OW20548   4.410   3.704  10.012  0.6086 -0.4686  0.1633
 2972SOL    HW120549   4.345   3.754   9.963  1.0924  0.0782  0.0835
 2972SOL    HW220550   4.374   3.714  10.100  0.4271  0.5534 -0.0214
 2973SOL     OW20551   2.257   3.007   7.258 -0.1541  0.4377  0.0082
 2973SOL    HW120552   2.330   2.955   7.292 -0.6093 -0.1281  0.1223
 2973SOL    HW220553   2.259   3.012   7.163 -3.0299 -2.2522 -0.1859
 2974SOL     OW20554   3.673   0.843   4.310  0.2844 -0.1567 -0.9618
 2974SOL    HW120555   3.744   0.832   4.373 -1.7951  1.8174  1.7021
 2974SOL    HW220556   3.688   0.931   4.278 -0.9035  0.2930 -0.2769
 2975SOL     OW20557   2.336   2.986  13.414  0.0972 -0.0488  0.2727
 2975SOL    HW120558   2.430   2.996  13.429 -0.1168 -1.8344  2.7572
 2975SOL    HW220559   2.344   2.966  13.321  2.4327  3.1960 -0.2391
 2976SOL     OW20560   0.306   2.369   6.586  0.4557  0.2865 -0.6381
 2976SOL    HW120561   0.250   2.446   6.586  0.4847  0.3082 -1.0238
 2976SOL    HW220562   0.359   2.380   6.507 -0.7953 -0.6933 -1.6086
 2977SOL     OW20563   0.064   0.572  14.246  0.2061 -0.1484  0.3718
 2977SOL    HW120564   4.718   0.619  14.239 -1.8381 -3.1723  4.5862
 2977SOL    HW220565   0.126   0.643  14.263  1.2151 -0.8439 -0.4127
 2978SOL     OW20566   4.705   0.308   4.305  0.5019  0.4926 -0.2678
 2978SOL    HW120567   4.682   0.228   4.352  1.0786  1.6877  1.9970
 2978SOL    HW220568   4.640   0.373   4.333  0.3233  0.4023 -0.4663
 2979SOL     OW20569   2.798   4.618   6.922 -0.7641  0.3324  0.3804
 2979SOL    HW120570   2.861   4.580   6.862  0.5748 -0.3024  2.1673
 2979SOL    HW220571   2.829   4.594   7.010  0.5351 -0.3558 -0.2823
 2980SOL     OW20572   2.245   1.209   8.366 -0.1327  0.4442  0.2518
 2980SOL    HW120573   2.291   1.289   8.342 -0.3662  0.6860  0.6147
 2980SOL    HW220574   2.188   1.196   8.290 -1.2435  0.2945  1.1119
 2981SOL     OW20575   2.669   1.808   6.788  0.1700 -0.0360 -0.0367
 2981SOL    HW120576   2.695   1.806   6.696  1.7268 -0.5132  0.4161
 2981SOL    HW220577   2.592   1.751   6.782 -1.0215  1.5934 -0.3569
 2982SOL     OW20578   4.626   4.008   3.013  0.0752 -0.2214  0.6134
 2982SOL    HW120579   4.601   3.929   2.966 -2.2465  0.5184  0.5935
 2982SOL    HW220580   4.702   3.988   3.068  0.5122  1.0207  0.4596
 2983SOL     OW20581   4.515   2.805  16.454  0.2988  0.3769 -0.1493
 2983SOL    HW120582   4.545   2.896  16.446 -1.9126  1.1949  0.7131
 2983SOL    HW220583   4.455   2.812  16.528 -1.2884 -0.0575 -1.3835
 2984SOL     OW20584   3.342   2.759   2.455 -0.5129 -0.2819  0.3368
 2984SOL    HW120585   3.362   2.852   2.463 -0.8399 -0.2985  1.3742
 2984SOL    HW220586   3.415   2.716   2.499 -0.8268 -0.0052  1.1289
 2985SOL     OW20587   1.311   0.643   3.048 -0.7847  0.1823 -1.4307
 2985SOL    HW120588   1.326   0.737   3.041  1.3956 -0.3841 -4.2226
 2985SOL    HW220589   1.326   0.616   2.958  0.3171 -0.8972 -0.9257
 2986SOL     OW20590   2.961   3.907   4.401  0.3222  0.0326  0.5188
 2986SOL    HW120591   2.979   3.853   4.323 -2.2153  0.7220 -0.5379
 2986SOL    HW220592   2.957   3.991   4.355  0.8121  0.3113  0.9869
 2987SOL     OW20593   0.140   0.415   7.558 -0.0717 -0.1506  0.4746
 2987SOL    HW120594   0.197   0.340   7.543 -0.2462  0.1151 -1.6030
 2987SOL    HW220595   0.171   0.474   7.489  0.3733 -0.9353 -0.0005
 2988SOL     OW20596   2.887   3.988   4.993  0.5185 -0.1850 -0.2869
 2988SOL    HW120597   2.822   3.924   5.020 -0.0918  0.8335  0.6428
 2988SOL    HW220598   2.839   4.032   4.923 -1.8280 -1.2175  0.6769
 2989SOL     OW20599   3.836   4.668   1.311  0.9744  0.3253 -0.2978
 2989SOL    HW120600   3.876   4.583   1.329 -0.2683 -0.1282  0.3365
 2989SOL    HW220601   3.803   4.700   1.395  2.1921  0.9364 -0.0494
 2990SOL     OW20602   1.971   4.664  11.941 -0.1098 -0.3734  0.1345
 2990SOL    HW120603   1.972   4.572  11.966  0.5476 -1.0233 -2.2644
 2990SOL    HW220604   1.923   4.708  12.011 -2.4921 -0.5899 -1.3748
 2991SOL     OW20605   0.704   2.759  15.564  0.2646  0.2304  0.7529
 2991SOL    HW120606   0.705   2.678  15.615  0.9285  0.5008  1.1597
 2991SOL    HW220607   0.627   2.740  15.509  0.6674  2.2245 -0.4861
 2992SOL     OW20608   4.405   4.121   5.604 -0.1333 -0.1041 -0.7405
 2992SOL    HW120609   4.341   4.161   5.546  0.0994  1.6778  0.2339
 2992SOL    HW220610   4.382   4.029   5.593  1.2159 -0.4095 -1.0017
 2993SOL     OW20611   3.527   2.481   8.872  0.3582 -0.0445 -0.7524
 2993SOL    HW120612   3.580   2.457   8.949  1.4197 -0.7562 -1.7028
 2993SOL    HW220613   3.557   2.427   8.799  2.0342  1.5649 -1.2487
 2994SOL     OW20614   2.569   4.496   6.102  0.0466 -0.2730 -0.0436
 2994SOL    HW120615   2.602   4.420   6.149 -0.1039 -1.8973 -2.5584
 2994SOL    HW220616   2.528   4.452   6.027  1.8596  1.0715 -1.8219
 2995SOL     OW20617   4.455   2.376   0.884  0.2016  0.0367 -0.6540
 2995SOL    HW120618   4.431   2.284   0.877 -0.8605  0.2320  0.5052
 2995SOL    HW220619   4.550   2.369   0.892  0.2647 -0.4753 -1.8245
 2996SOL     OW20620   3.234   3.516  12.274  0.5345 -0.3786  0.3066
 2996SOL    HW120621   3.293   3.491  12.204 -0.5378 -1.5720 -0.1690
 2996SOL    HW220622   3.171   3.579  12.237 -0.9056 -1.1159  1.4882
 2997SOL     OW20623   3.078   4.272   9.830 -0.7738 -0.0346  0.0820
 2997SOL    HW120624   3.126   4.194   9.804 -0.2382 -0.0019  0.9444
 2997SOL    HW220625   3.124   4.326   9.766 -5.2941  0.2974 -2.8397
 2998SOL     OW20626   2.136   4.082   5.659 -0.1428 -0.6560  0.0655
 2998SOL    HW120627   2.059   4.050   5.706 -1.6119  0.1747 -1.7642
 2998SOL    HW220628   2.122   4.047   5.571 -0.1164 -1.6239  0.4341
 2999SOL     OW20629   3.401   1.546   3.446 -0.2816 -0.2252  0.2812
 2999SOL    HW120630   3.419   1.471   3.503 -2.7311  0.6430  2.2064
 2999SOL    HW220631   3.473   1.606   3.462  0.6888 -1.8289  1.9483
 3000SOL     OW20632   1.926   2.757  15.212  0.3534  0.0587 -0.2309
 3000SOL    HW120633   1.876   2.838  15.225  0.5424  0.1613 -0.1523
 3000SOL    HW220634   1.854   2.704  15.177 -0.7715  1.9307 -0.7756
 3001SOL     OW20635   3.873   0.857   7.043  0.2982 -0.2124 -0.4388
 3001SOL    HW120636   3.952   0.811   7.018 -1.3729 -2.6207 -1.2623
 3001SOL    HW220637   3.871   0.932   6.983 -1.4998 -0.2678 -0.4659
 3002SOL     OW20638   3.738   0.692   2.122 -0.2027 -0.3922 -0.2353
 3002SOL    HW120639   3.701   0.738   2.197  2.2323  1.0015  0.1068
 3002SOL    HW220640   3.707   0.747   2.050 -1.6190 -0.1388  0.5736
 3003SOL     OW20641   0.713   2.913  14.891  0.1444 -0.0511 -0.2411
 3003SOL    HW120642   0.680   2.937  14.804  1.6247  1.4791 -0.3676
 3003SOL    HW220643   0.787   2.974  14.892  0.8902 -0.9109 -2.5129
 3004SOL     OW20644   1.632   3.411   6.367  0.4036  0.3232 -0.6436
 3004SOL    HW120645   1.721   3.443   6.380  0.2137  0.0992  1.1640
 3004SOL    HW220646   1.644   3.328   6.414  1.0182  1.5671  1.3970
 3005SOL     OW20647   3.729   2.575   2.074 -0.1264 -0.5393 -0.4444
 3005SOL    HW120648   3.703   2.568   2.166  0.7843  0.6485 -0.0960
 3005SOL    HW220649   3.659   2.523   2.033 -0.3487  0.8837 -1.8743
 3006SOL     OW20650   2.328   4.421  16.269 -0.1423 -0.3417 -0.0280
 3006SOL    HW120651   2.267   4.435  16.341  0.9696 -0.8147  1.0107
 3006SOL    HW220652   2.290   4.474  16.200 -1.1150 -1.3843 -0.2869
 3007SOL     OW20653   0.654   0.782   8.654 -0.1011 -0.1664  0.0663
 3007SOL    HW120654   0.729   0.834   8.685 -1.8593  2.9803 -1.0590
 3007SOL    HW220655   0.601   0.841   8.602  0.5034  0.2475 -0.0850
 3008SOL     OW20656   4.259   1.674  13.478 -0.6820 -0.3066 -0.0195
 3008SOL    HW120657   4.216   1.759  13.487 -0.2889 -0.3285  1.9511
 3008SOL    HW220658   4.320   1.688  13.406 -0.3729  0.2147  0.3422
 3009SOL     OW20659   0.881   3.733   3.977 -0.0460  0.1053  0.2614
 3009SOL    HW120660   0.905   3.645   4.006  1.3254  0.1302 -0.7774
 3009SOL    HW220661   0.832   3.761   4.054  1.1060 -1.9006  1.7401
 3010SOL     OW20662   3.377   0.331   9.996  0.0248 -0.2345 -0.7677
 3010SOL    HW120663   3.353   0.239  10.004 -2.0211  0.2626 -1.3002
 3010SOL    HW220664   3.440   0.325  10.068  0.1850 -1.4557 -1.0171
 3011SOL     OW20665   2.216   0.880   3.167  0.0040 -0.7033  0.1782
 3011SOL    HW120666   2.160   0.825   3.112  1.2610 -3.3037  1.5164
 3011SOL    HW220667   2.158   0.890   3.243  0.4782 -2.2953  0.7358
 3012SOL     OW20668   1.354   1.576   8.457  0.1543  0.1318 -0.3357
 3012SOL    HW120669   1.405   1.637   8.510  0.3525 -1.1086  0.9139
 3012SOL    HW220670   1.395   1.491   8.472  1.3885  0.6322 -0.8425
 3013SOL     OW20671   1.101   2.207  11.276 -0.2827 -0.2153 -0.1001
 3013SOL    HW120672   1.008   2.229  11.283 -0.3957 -1.4122  2.5183
 3013SOL    HW220673   1.150   2.277  11.320  1.1676 -0.1336 -1.8233
 3014SOL     OW20674   1.370   4.736   5.753 -0.0527 -0.2514 -0.1112
 3014SOL    HW120675   1.456   4.734   5.712  0.0473  1.1249  0.0312
 3014SOL    HW220676   1.376   0.072   5.814  0.0831 -0.2504 -0.1264
 3015SOL     OW20677   1.248   2.841   6.891  0.5425 -0.5898  0.1988
 3015SOL    HW120678   1.278   2.781   6.960  1.5355 -0.0210  0.2748
 3015SOL    HW220679   1.290   2.919   6.928  0.0386  0.4326 -1.4195
 3016SOL     OW20680   0.231   2.251   3.236 -0.0087  0.1151 -0.1383
 3016SOL    HW120681   0.220   2.157   3.252  1.1401 -0.3787 -2.2970
 3016SOL    HW220682   0.277   2.248   3.152  0.2318  1.8719 -0.0693
 3017SOL     OW20683   1.177   3.151   4.923 -0.1529 -0.0504  0.3282
 3017SOL    HW120684   1.169   3.123   5.014  1.7259  1.1428  0.8601
 3017SOL    HW220685   1.187   3.243   4.948 -0.8337  0.3998 -1.0571
 3018SOL     OW20686   2.455   3.117  10.962 -0.2755 -0.3102  0.6697
 3018SOL    HW120687   2.369   3.149  10.990 -0.8331 -0.8351 -0.4263
 3018SOL    HW220688   2.455   3.036  11.012  1.9450 -1.4365 -1.1696
 3019SOL     OW20689   4.085   2.213   6.007 -0.0666 -0.1026  0.9233
 3019SOL    HW120690   4.007   2.269   6.003  1.2806  1.7773  0.9601
 3019SOL    HW220691   4.051   2.154   6.074 -0.8355 -2.5367 -1.6129
 3020SOL     OW20692   3.509   2.274   1.960  0.7116  0.7977  0.2751
 3020SOL    HW120693   3.419   2.246   1.976 -0.0174  2.4972 -0.8945
 3020SOL    HW220694   3.498   2.352   2.016  0.3491  1.9079 -1.3568
 3021SOL     OW20695   0.319   2.306   9.095  0.0484 -0.3210 -0.8957
 3021SOL    HW120696   0.241   2.265   9.133  0.0770 -1.6360 -2.2463
 3021SOL    HW220697   0.363   2.341   9.173  2.2715 -0.3788 -2.1449
 3022SOL     OW20698   0.492   3.606   3.982 -0.4196  0.2472  0.4340
 3022SOL    HW120699   0.415   3.577   3.932 -0.3073 -0.8019  0.8666
 3022SOL    HW220700   0.502   3.530   4.040 -0.6063 -0.8264 -0.9327
 3023SOL     OW20701   3.718   1.552   2.729 -1.0158 -0.1187 -0.6571
 3023SOL    HW120702   3.651   1.496   2.768  0.0233  0.4122  1.9260
 3023SOL    HW220703   3.754   1.594   2.808 -0.0190 -1.5153 -0.3690
 3024SOL     OW20704   3.349   3.227  17.608 -0.4954  0.8978  0.3284
 3024SOL    HW120705   3.374   3.246  17.518  0.6862 -1.5228  0.1277
 3024SOL    HW220706   3.435   3.231  17.651  0.3730 -1.5477 -1.1625
 3025SOL     OW20707   4.328   1.510   1.384 -0.0234 -1.0425 -0.1453
 3025SOL    HW120708   4.248   1.490   1.335  0.3303  1.1256 -1.6660
 3025SOL    HW220709   4.301   1.479   1.470  0.3358 -2.3912 -0.5188
 3026SOL     OW20710   3.446   3.197  17.356 -0.1806  0.3604  0.0343
 3026SOL    HW120711   3.537   3.177  17.337 -0.1541  2.3688 -1.9948
 3026SOL    HW220712   3.400   3.113  17.350  1.3807 -0.6581  2.5018
 3027SOL     OW20713   3.403   4.105  13.739  0.0845  0.0814  0.6300
 3027SOL    HW120714   3.398   4.138  13.828 -0.8951 -0.0658  0.6263
 3027SOL    HW220715   3.464   4.165  13.697  0.6932 -0.8774  0.1237
 3028SOL     OW20716   1.588   3.365   4.762  0.2923  0.7863 -0.4946
 3028SOL    HW120717   1.598   3.324   4.677 -0.9505 -0.3997 -0.0722
 3028SOL    HW220718   1.549   3.295   4.815 -0.9908  2.2681  0.5499
 3029SOL     OW20719   3.923   1.352  10.144 -0.3125 -0.3481 -0.1365
 3029SOL    HW120720   3.842   1.325  10.101 -0.5650 -1.3899  1.0134
 3029SOL    HW220721   3.993   1.347  10.079 -0.7714  1.2712 -0.7562
 3030SOL     OW20722   2.582   0.029   6.245 -0.0269 -0.4002 -0.0933
 3030SOL    HW120723   2.524   0.101   6.271  0.3315  0.3298 -1.3155
 3030SOL    HW220724   2.639   0.023   6.322 -0.1264 -0.6322 -0.0396
 3031SOL     OW20725   0.889   3.837   2.526 -0.0536  0.2815 -0.3874
 3031SOL    HW120726   0.821   3.896   2.558 -0.5023  0.2339 -1.2409
 3031SOL    HW220727   0.844   3.807   2.446 -0.7872 -0.7456  0.4075
 3032SOL     OW20728   2.209   4.596   3.014  0.4980 -0.2103  0.6144
 3032SOL    HW120729   2.173   4.553   2.936  2.0914  1.1452 -0.8542
 3032SOL    HW220730   2.202   4.689   2.997 -0.3306 -0.2134  0.8903
 3033SOL     OW20731   1.121   1.948   7.326 -0.3957 -0.4097 -0.0183
 3033SOL    HW120732   1.076   1.866   7.347  0.7820 -1.1028 -0.2058
 3033SOL    HW220733   1.149   1.918   7.239 -0.2869 -2.5108  0.7365
 3034SOL     OW20734   0.321   0.775  15.952 -0.2406 -0.7543 -0.0943
 3034SOL    HW120735   0.390   0.767  15.886  0.2043 -1.3268  0.4322
 3034SOL    HW220736   0.246   0.738  15.906 -2.5659  1.6319  1.7705
 3035SOL     OW20737   1.701   0.652   6.140  0.3091  0.2890 -0.0372
 3035SOL    HW120738   1.725   0.628   6.230  0.0575 -0.1383 -0.0867
 3035SOL    HW220739   1.792   0.658   6.111  0.7029 -1.7552  0.7558
 3036SOL     OW20740   4.480   0.432   5.594 -0.1653 -0.1580 -0.3115
 3036SOL    HW120741   4.433   0.482   5.528  0.6059  1.6368  0.4707
 3036SOL    HW220742   4.424   0.355   5.604 -2.0050  1.4191  1.5186
 3037SOL     OW20743   0.288   2.589   5.542  0.2082 -0.3167 -0.0451
 3037SOL    HW120744   0.303   2.608   5.449  2.9237 -0.2446  0.3956
 3037SOL    HW220745   0.193   2.580   5.539  0.4212 -1.9882 -2.0489
 3038SOL     OW20746   4.672   0.522   0.960  0.7428 -0.0154 -0.2270
 3038SOL    HW120747   0.019   0.562   0.946  0.3186  0.6926 -0.7839
 3038SOL    HW220748   4.699   0.442   1.005  0.7082 -0.2923 -0.7007
 3039SOL     OW20749   1.373   1.705   1.346  0.1627 -0.0885  0.4073
 3039SOL    HW120750   1.315   1.770   1.384  1.9859  1.7070  0.1374
 3039SOL    HW220751   1.454   1.750   1.372  0.5232 -1.2382  1.2666
 3040SOL     OW20752   3.179   3.270   3.293 -0.7741 -0.2141 -0.4182
 3040SOL    HW120753   3.125   3.227   3.360 -1.9597  1.4629 -0.3142
 3040SOL    HW220754   3.118   3.292   3.223 -0.1707  2.0018 -0.2296
 3041SOL     OW20755   4.474   2.544   9.434  0.3279  0.1677 -0.1814
 3041SOL    HW120756   4.480   2.456   9.396 -0.7220  0.4615 -1.0215
 3041SOL    HW220757   4.419   2.531   9.511 -0.2341  0.6572 -0.5090
 3042SOL     OW20758   0.368   3.371   2.388 -0.0048  0.0653 -0.1177
 3042SOL    HW120759   0.424   3.346   2.462 -0.1357 -0.7516 -0.2979
 3042SOL    HW220760   0.306   3.429   2.432  3.2967  1.8417  2.2307
 3043SOL     OW20761   2.442   4.314  10.360  0.1302 -0.2140  0.1280
 3043SOL    HW120762   2.431   4.282  10.450 -2.9357  0.3703 -0.0135
 3043SOL    HW220763   2.518   4.369  10.377  1.2847 -1.1665 -2.0580
 3044SOL     OW20764   3.276   3.689   1.745 -0.2134 -0.9437 -0.1279
 3044SOL    HW120765   3.345   3.748   1.774 -1.1176 -0.5340  1.1754
 3044SOL    HW220766   3.304   3.604   1.779 -3.3779 -1.6451  0.6915
 3045SOL     OW20767   3.595   3.821   5.775 -0.3875  0.0103  0.3627
 3045SOL    HW120768   3.574   3.742   5.824  1.3657 -0.1247  0.9024
 3045SOL    HW220769   3.671   3.859   5.819  0.8704 -4.4574  2.0459
 3046SOL     OW20770   0.749   3.406   8.144 -0.4034 -0.0238 -0.6976
 3046SOL    HW120771   0.740   3.337   8.078 -0.1100 -2.6263  2.0040
 3046SOL    HW220772   0.670   3.456   8.122 -0.1804  0.4060 -0.4976
 3047SOL     OW20773   1.911   0.016   2.808 -0.2151  0.8889  0.0522
 3047SOL    HW120774   1.964   4.674   2.809 -2.0257 -0.2758  1.9199
 3047SOL    HW220775   1.889   0.017   2.901 -1.2893  0.6683 -0.1998
 3048SOL     OW20776   2.057   0.555   9.961 -0.0546 -0.0219 -0.0438
 3048SOL    HW120777   2.057   0.647   9.988 -0.4897  0.4818 -1.7318
 3048SOL    HW220778   2.022   0.555   9.871  0.3138 -0.0089 -0.1855
 3049SOL     OW20779   4.236   4.724  11.927  0.3167  0.0892 -0.0110
 3049SOL    HW120780   4.231   0.080  11.941  1.7374  0.2174 -0.3938
 3049SOL    HW220781   4.327   4.714  11.956  0.5874  1.6211 -0.3724
 3050SOL     OW20782   0.155   3.980   8.393  0.1390 -0.2468  0.0748
 3050SOL    HW120783   0.136   4.074   8.389 -0.6248 -0.4161 -0.4419
 3050SOL    HW220784   0.215   3.983   8.467 -1.4782 -1.8852  1.4697
 3051SOL     OW20785   0.167   1.198   5.391 -0.5897 -0.2117  0.0455
 3051SOL    HW120786   0.215   1.189   5.309 -0.6271  0.1602 -0.0188
 3051SOL    HW220787   0.086   1.241   5.362 -0.2266  1.8523  2.0678
 3052SOL     OW20788   3.683   4.400   4.876 -0.2826  0.5138  0.0401
 3052SOL    HW120789   3.688   4.478   4.931  1.1811  1.7062 -1.7963
 3052SOL    HW220790   3.595   4.367   4.895  0.8370 -2.1339  0.7059
 3053SOL     OW20791   1.731   4.665   3.923  0.3186 -0.3262  0.3213
 3053SOL    HW120792   1.675   4.593   3.951 -1.2921  0.2124 -1.4884
 3053SOL    HW220793   1.797   4.662   3.992 -0.8683  0.0244  1.4682
 3054SOL     OW20794   1.029   4.592   7.761  0.2012 -0.2327 -0.3874
 3054SOL    HW120795   1.003   4.674   7.719 -0.1995  0.5610  1.3797
 3054SOL    HW220796   1.035   4.618   7.853 -3.1332 -1.3196  0.1743
 3055SOL     OW20797   3.369   0.693   1.955 -0.1410  0.7429 -0.0850
 3055SOL    HW120798   3.365   0.598   1.945 -1.1386  0.7876 -0.1323
 3055SOL    HW220799   3.369   0.714   1.862  0.3447 -0.4451 -0.3566
 3056SOL     OW20800   1.477   3.226   3.417 -0.4830  0.2144 -0.7374
 3056SOL    HW120801   1.543   3.292   3.440 -0.0922 -0.2123 -0.6407
 3056SOL    HW220802   1.500   3.218   3.325 -1.3814  0.8313 -1.0121
 3057SOL     OW20803   0.463   4.373  12.746  0.2074 -0.3595 -0.4167
 3057SOL    HW120804   0.440   4.368  12.653 -0.1769 -2.3551 -0.2263
 3057SOL    HW220805   0.445   4.464  12.767 -0.9410 -0.8432  0.6851
 3058SOL     OW20806   0.005   4.077  14.040 -0.4699  0.4978 -0.9956
 3058SOL    HW120807   0.020   4.144  14.106 -4.2088 -1.9411  2.3234
 3058SOL    HW220808   0.026   3.999  14.093 -0.0294  1.2285 -0.0794
 3059SOL     OW20809   1.957   2.871   8.978 -0.0496 -0.1062  0.3362
 3059SOL    HW120810   1.974   2.842   9.068 -1.7190 -1.2953  0.2710
 3059SOL    HW220811   1.936   2.962   8.997 -1.8923 -0.5154  0.2558
 3060SOL     OW20812   2.192   3.852   9.029 -0.0072  0.1616 -0.2313
 3060SOL    HW120813   2.283   3.825   9.025 -0.4822 -1.4655  0.1660
 3060SOL    HW220814   2.210   3.943   9.054  2.6591  0.0498 -1.7403
 3061SOL     OW20815   0.550   2.880   7.245 -0.4542 -0.1891 -0.3799
 3061SOL    HW120816   0.605   2.930   7.184  0.0496 -0.6690 -0.3287
 3061SOL    HW220817   0.594   2.795   7.247  0.0479  0.0737 -0.1811
 3062SOL     OW20818   3.640   3.601  14.975 -0.1174 -0.6866  0.3056
 3062SOL    HW120819   3.553   3.581  14.939  0.6003  0.5971 -2.1565
 3062SOL    HW220820   3.670   3.679  14.927  0.5770 -0.0955  1.7035
 3063SOL     OW20821   1.895   2.537   7.918 -0.1063  0.1101  0.2883
 3063SOL    HW120822   1.903   2.533   8.013 -3.2679 -1.3153  0.4725
 3063SOL    HW220823   1.953   2.611   7.901  0.0603  0.4202  2.2065
 3064SOL     OW20824   3.514   2.252   8.604  0.6115  0.5752  0.2667
 3064SOL    HW120825   3.596   2.265   8.557  0.9071 -0.8957  0.3813
 3064SOL    HW220826   3.443   2.241   8.541  0.0452  2.0290  0.6365
 3065SOL     OW20827   4.389   2.523   6.337  0.2399 -0.0834 -0.0386
 3065SOL    HW120828   4.350   2.607   6.313 -0.3986 -0.3830 -0.0435
 3065SOL    HW220829   4.314   2.464   6.330  0.6634 -0.6039 -0.2362
 3066SOL     OW20830   1.902   0.195   9.843  0.4779  0.1639  0.3605
 3066SOL    HW120831   1.921   0.235   9.758  2.4122  1.6064  1.4898
 3066SOL    HW220832   1.991   0.172   9.868  0.4763 -0.6196 -0.3292
 3067SOL     OW20833   3.811   1.023  10.712  0.9506 -0.3622  0.4910
 3067SOL    HW120834   3.832   0.931  10.692 -1.8385 -0.0751 -3.6810
 3067SOL    HW220835   3.724   1.023  10.674  0.2408  1.5783  2.1458
 3068SOL     OW20836   3.248   3.012   0.000  0.3304  0.7232  0.0410
 3068SOL    HW120837   3.258   3.093  17.700  1.1363  0.3315 -0.4216
 3068SOL    HW220838   3.330   2.970  17.728  0.0537 -0.1100  0.5715
 3069SOL     OW20839   3.055   3.694  14.736  0.1059 -0.6759  0.5061
 3069SOL    HW120840   3.041   3.675  14.829 -0.3810 -0.3872  0.4926
 3069SOL    HW220841   2.979   3.748  14.716  2.2640  2.4564  0.8739
 3070SOL     OW20842   2.012   1.485   8.546 -0.1376  0.2621  0.1310
 3070SOL    HW120843   2.034   1.465   8.455  1.2000 -1.2545  0.7952
 3070SOL    HW220844   2.007   1.581   8.548  0.2986  0.2912 -0.1590
 3071SOL     OW20845   1.856   1.149   2.307 -0.2981 -0.7564 -0.0547
 3071SOL    HW120846   1.938   1.156   2.258 -1.9945  2.5851 -2.4607
 3071SOL    HW220847   1.894   1.083   2.365  2.3462 -0.9730 -2.0249
 3072SOL     OW20848   1.860   3.610  16.599  0.3291 -0.0205  0.2587
 3072SOL    HW120849   1.852   3.617  16.695 -3.9915  1.2696 -0.2018
 3072SOL    HW220850   1.778   3.569  16.573 -0.1925  1.2356 -0.0276
 3073SOL     OW20851   3.195   0.153   6.087  0.3483 -0.2804 -0.2165
 3073SOL    HW120852   3.182   0.168   5.993  1.9314 -0.7804 -0.5343
 3073SOL    HW220853   3.189   0.232   6.140  1.6742 -1.9642  2.4377
 3074SOL     OW20854   2.009   4.045   8.086  0.5361 -0.5092  0.0828
 3074SOL    HW120855   2.010   4.043   8.181  0.7221  1.3140  0.1212
 3074SOL    HW220856   2.083   4.099   8.057 -0.3249 -0.2124 -1.5891
 3075SOL     OW20857   3.519   0.478  14.798  0.3160 -0.2082 -0.8412
 3075SOL    HW120858   3.545   0.466  14.889  3.0351 -0.9091 -1.7332
 3075SOL    HW220859   3.597   0.523  14.766  0.5757  0.7690  1.2072
 3076SOL     OW20860   1.489   1.012   1.853  0.0223  0.1875  0.4563
 3076SOL    HW120861   1.526   0.973   1.932 -0.8471 -1.4559  0.0333
 3076SOL    HW220862   1.431   0.946   1.817 -0.3644  0.7488  0.0434
 3077SOL     OW20863   2.024   0.851   1.369 -0.2999 -0.1509 -0.1261
 3077SOL    HW120864   2.074   0.918   1.416 -0.3152  0.9738 -1.7230
 3077SOL    HW220865   1.935   0.887   1.371  0.1039  0.8739 -0.5952
 3078SOL     OW20866   0.544   1.631  16.929  1.0268 -0.5804  0.6981
 3078SOL    HW120867   0.542   1.672  17.016 -0.5223 -1.9475  1.3239
 3078SOL    HW220868   0.554   1.708  16.874  0.0688 -1.0615 -0.1520
 3079SOL     OW20869   0.124   1.314   1.878 -0.0090  0.3271  0.1598
 3079SOL    HW120870   0.030   1.328   1.878  0.0698  0.8300  1.2922
 3079SOL    HW220871   0.138   1.258   1.801  1.3304  0.5559  0.2315
 3080SOL     OW20872   2.636   2.325   7.920 -0.1420 -0.4110  1.0308
 3080SOL    HW120873   2.548   2.299   7.944 -0.7912  0.1427 -0.7752
 3080SOL    HW220874   2.619   2.352   7.830  2.4640  0.1494  0.6953
 3081SOL     OW20875   1.488   1.064   8.361  0.4059 -0.1429 -0.4416
 3081SOL    HW120876   1.550   1.018   8.419 -1.4321 -0.2560  1.4568
 3081SOL    HW220877   1.492   1.017   8.278  0.7951  0.2730 -0.6523
 3082SOL     OW20878   0.682   1.527   2.666  0.6258  0.0007  0.1315
 3082SOL    HW120879   0.660   1.505   2.576 -0.3410  0.7787  0.1762
 3082SOL    HW220880   0.596   1.548   2.704  0.4619  0.8354 -0.7191
 3083SOL     OW20881   1.721   0.291   2.477  0.1173 -0.8988  0.6721
 3083SOL    HW120882   1.697   0.371   2.430 -1.2820 -0.6629  1.8011
 3083SOL    HW220883   1.658   0.228   2.442 -0.7619 -0.8730  2.2129
 3084SOL     OW20884   0.008   0.351  16.363  0.3385 -0.0078 -0.4464
 3084SOL    HW120885   4.737   0.328  16.456 -2.2970 -0.7159 -0.9051
 3084SOL    HW220886   4.680   0.417  16.344 -0.1454 -0.5353 -0.5745
 3085SOL     OW20887   0.361   0.313   8.905 -0.2983  0.0975 -0.9668
 3085SOL    HW120888   0.375   0.241   8.968 -1.2496 -0.0983 -0.9788
 3085SOL    HW220889   0.270   0.340   8.918 -0.0960 -0.4470  1.7681
 3086SOL     OW20890   0.353   3.930   9.719  0.4965 -0.3621  0.6243
 3086SOL    HW120891   0.290   3.892   9.658 -0.4376  0.2047  1.2395
 3086SOL    HW220892   0.382   3.859   9.776 -0.8102  0.3233  2.1563
 3087SOL     OW20893   3.775   3.217   9.955  0.1873  0.7920 -0.1738
 3087SOL    HW120894   3.780   3.313   9.956 -1.8028  0.9307 -1.9182
 3087SOL    HW220895   3.860   3.201   9.995 -0.3689  1.6337  1.3372
 3088SOL     OW20896   1.564   1.279  11.035 -0.0469 -0.3197 -0.2311
 3088SOL    HW120897   1.623   1.355  11.029  1.2800 -1.3160  0.1345
 3088SOL    HW220898   1.518   1.279  10.951 -1.1467 -1.5275  0.3644
 3089SOL     OW20899   0.104   3.214   5.852 -0.5425 -0.8092 -0.1694
 3089SOL    HW120900   0.187   3.209   5.805 -0.7295  1.1031 -0.7112
 3089SOL    HW220901   0.107   3.307   5.876  1.2734 -0.1274 -3.0779
 3090SOL     OW20902   1.984   0.534   1.002  0.1141 -0.4706  0.6001
 3090SOL    HW120903   2.012   0.481   1.076  2.5665 -1.6025 -1.1265
 3090SOL    HW220904   2.068   0.544   0.957 -0.4991 -0.6988 -0.5997
 3091SOL     OW20905   0.117   2.042   9.046  0.0035  0.5631  0.6351
 3091SOL    HW120906   0.036   2.045   9.097  1.0941  2.3834  2.2641
 3091SOL    HW220907   0.093   1.981   8.977  0.7674  0.8702  0.0951
 3092SOL     OW20908   2.544   3.117  17.079 -0.3147 -0.1085  0.0369
 3092SOL    HW120909   2.530   3.040  17.024 -2.8658 -1.4502  2.5232
 3092SOL    HW220910   2.639   3.115  17.086 -0.3004 -0.1980 -0.1890
 3093SOL     OW20911   0.842   4.365   6.321 -0.1397 -0.2537 -0.7087
 3093SOL    HW120912   0.793   4.332   6.396  0.8540 -0.6981 -0.2427
 3093SOL    HW220913   0.894   4.434   6.362 -0.6203  0.0356 -0.5921
 3094SOL     OW20914   3.272   4.688  11.331  0.3508  0.3041  0.5005
 3094SOL    HW120915   3.262   4.593  11.325  1.5751  0.1362  1.1620
 3094SOL    HW220916   3.349   4.699  11.386  1.1990 -0.7537 -0.4897
 3095SOL     OW20917   2.664   4.206   3.746 -0.1273 -0.3004  0.5898
 3095SOL    HW120918   2.734   4.266   3.772 -0.4960  0.6353 -0.5416
 3095SOL    HW220919   2.624   4.189   3.831 -0.2834 -1.0549  0.3649
 3096SOL     OW20920   2.954   0.379   3.425 -0.2545  0.1975  0.2689
 3096SOL    HW120921   2.957   0.466   3.465  1.6969 -0.3319  1.3090
 3096SOL    HW220922   3.047   0.359   3.438 -0.1539  0.1676 -0.4983
 3097SOL     OW20923   0.246   0.238   4.939  0.3803 -0.2285  0.1986
 3097SOL    HW120924   0.308   0.300   4.978  0.3313  0.0958 -0.2420
 3097SOL    HW220925   0.278   0.166   4.994 -0.7028 -0.0360  1.0790
 3098SOL     OW20926   2.550   1.221   5.159  0.3240 -0.5906  0.4004
 3098SOL    HW120927   2.520   1.177   5.238 -0.5817  2.7267  1.8952
 3098SOL    HW220928   2.591   1.298   5.198  1.6052 -0.7652 -0.5929
 3099SOL     OW20929   3.975   2.417   7.661 -0.5861  0.5212  0.2364
 3099SOL    HW120930   3.968   2.511   7.645  0.4621  1.0711  2.9281
 3099SOL    HW220931   3.997   2.380   7.576  2.6335 -0.2478  1.4454
 3100SOL     OW20932   4.392   1.034   4.848  0.3083  0.0697 -0.5101
 3100SOL    HW120933   4.315   1.085   4.874  0.3949 -0.1982  0.2470
 3100SOL    HW220934   4.351   0.951   4.822  2.6119 -0.9931 -0.6985
 3101SOL     OW20935   3.513   3.428   9.039 -0.5431 -0.2917  0.4817
 3101SOL    HW120936   3.442   3.427   8.974  0.9259  0.5312 -1.1484
 3101SOL    HW220937   3.550   3.516   9.032  0.3909 -0.7290  0.0308
 3102SOL     OW20938   0.258   2.630  13.502 -0.5897  0.1953  0.0861
 3102SOL    HW120939   0.263   2.711  13.450 -0.6931 -0.2727 -0.6505
 3102SOL    HW220940   0.233   2.663  13.588  1.3895 -1.4792  1.3106
 3103SOL     OW20941   0.913   3.135   7.571  0.6312  0.2447  0.4022
 3103SOL    HW120942   0.860   3.084   7.510 -1.2460  4.0741 -1.1864
 3103SOL    HW220943   0.967   3.193   7.516  2.5280 -0.4058  1.5614
 3104SOL     OW20944   2.598   2.558  10.218  0.5163 -0.2019  0.0145
 3104SOL    HW120945   2.616   2.634  10.163 -0.0909 -1.5869 -2.0741
 3104SOL    HW220946   2.521   2.584  10.268  0.0873  0.5644 -1.0615
 3105SOL     OW20947   3.792   2.860   7.312 -0.2784  0.0994 -0.0213
 3105SOL    HW120948   3.852   2.930   7.285  1.4019 -2.0303 -1.8632
 3105SOL    HW220949   3.722   2.912   7.350  0.2907  0.6372  0.3017
 3106SOL     OW20950   1.324   0.322   4.663  0.2813  0.4124  0.4419
 3106SOL    HW120951   1.403   0.286   4.622  1.2282  3.2171 -0.2076
 3106SOL    HW220952   1.281   0.346   4.581  2.6507  1.8241 -0.4066
 3107SOL     OW20953   0.464   2.823   9.362 -0.2298  0.2032  0.0774
 3107SOL    HW120954   0.488   2.865   9.445  1.7702  0.4572 -0.6353
 3107SOL    HW220955   0.521   2.747   9.354  0.6518  1.0320 -1.4671
 3108SOL     OW20956   3.440   3.881   3.184  0.0494  0.0642  0.0342
 3108SOL    HW120957   3.499   3.928   3.126 -0.3623  0.3004 -0.1909
 3108SOL    HW220958   3.473   3.903   3.270  0.9136  2.4391 -0.9082
 3109SOL     OW20959   1.684   1.802   0.477 -0.0666  0.0675  0.0941
 3109SOL    HW120960   1.753   1.851   0.522  0.5639 -0.2229 -0.5728
 3109SOL    HW220961   1.678   1.844   0.391  0.2604 -0.8827 -0.3902
 3110SOL     OW20962   1.861   2.027   9.096 -0.3986  0.2812  0.0657
 3110SOL    HW120963   1.779   1.989   9.066  1.6535 -1.8723 -2.7064
 3110SOL    HW220964   1.851   2.121   9.081 -0.6266  0.4866  1.4472
 3111SOL     OW20965   2.618   4.485  15.407  0.2611 -0.3824  0.0031
 3111SOL    HW120966   2.538   4.436  15.425  0.8760 -1.2998  0.2766
 3111SOL    HW220967   2.635   4.516  15.496 -1.3792 -0.0419  0.2009
 3112SOL     OW20968   4.117   2.934   3.666  0.1240  0.0820  0.4529
 3112SOL    HW120969   4.189   2.882   3.628  1.1157  2.6211 -1.1242
 3112SOL    HW220970   4.176   3.003   3.696 -0.4748  1.1938 -0.9537
 3113SOL     OW20971   3.998   4.635  15.167  0.1702  0.0021  0.2059
 3113SOL    HW120972   4.070   4.638  15.104 -0.6216 -0.5120 -0.7146
 3113SOL    HW220973   4.009   4.698  15.239 -0.8948  0.1467  0.2376
 3114SOL     OW20974   2.425   1.995   0.056  0.0105 -0.0041  0.1590
 3114SOL    HW120975   2.344   2.032   0.022  0.3204  1.2368  0.7605
 3114SOL    HW220976   2.401   1.961   0.142  3.7239 -1.9247  0.4443
 3115SOL     OW20977   3.421   1.755  15.861 -0.4683  0.1419  0.0034
 3115SOL    HW120978   3.378   1.800  15.789  2.5072  3.5628  0.3884
 3115SOL    HW220979   3.351   1.768  15.926 -1.2899  2.3151 -1.3080
 3116SOL     OW20980   3.291   3.177  13.569 -0.8620 -0.2496  0.0232
 3116SOL    HW120981   3.291   3.155  13.476 -0.2569 -2.0519  0.4345
 3116SOL    HW220982   3.375   3.220  13.577  1.1399 -4.1916  0.3583
 3117SOL     OW20983   0.847   3.080   1.916 -0.4583 -0.6156  0.0485
 3117SOL    HW120984   0.809   3.033   1.842 -0.6913 -1.9161  0.9787
 3117SOL    HW220985   0.924   3.124   1.881  0.4156 -2.0385  0.1817
 3118SOL     OW20986   2.783   3.758   2.813 -0.2917 -0.1668  0.7019
 3118SOL    HW120987   2.735   3.714   2.743 -0.0216 -1.3038  1.2320
 3118SOL    HW220988   2.858   3.701   2.831  1.1253  1.3488 -0.3218
 3119SOL     OW20989   0.207   0.419  10.662 -0.6076  0.1244  0.0359
 3119SOL    HW120990   0.140   0.354  10.640  0.6008 -0.8302 -0.8308
 3119SOL    HW220991   0.243   0.421  10.573  1.3069  1.1130  0.8299
 3120SOL     OW20992   3.102   0.212   2.669  0.5797 -0.2075  0.4812
 3120SOL    HW120993   3.017   0.245   2.699  1.1931  2.7473 -1.1130
 3120SOL    HW220994   3.145   0.190   2.751 -1.6565 -0.7788  1.4995
 3121SOL     OW20995   2.582   1.152   8.104  0.2410  0.1214  0.0826
 3121SOL    HW120996   2.660   1.188   8.061 -0.8868  2.1666 -0.2217
 3121SOL    HW220997   2.533   1.229   8.130  0.5243  0.2566  0.2123
 3122SOL     OW20998   4.166   2.609  13.097  0.4677 -0.1699 -0.1001
 3122SOL    HW120999   4.226   2.534  13.094  0.4729 -0.2228  1.1479
 3122SOL    HW221000   4.178   2.631  13.189 -1.2356 -1.8381  0.5288
 3123SOL     OW21001   2.655   4.428  13.042  0.7294  0.3631 -0.3328
 3123SOL    HW121002   2.676   4.497  13.105 -3.0165  0.8384  0.4246
 3123SOL    HW221003   2.725   4.438  12.977 -0.4254  1.4199 -1.4338
 3124SOL     OW21004   4.272   3.178   2.481  0.0844  0.0597 -0.3597
 3124SOL    HW121005   4.286   3.084   2.489 -2.9485 -0.3199  0.7283
 3124SOL    HW221006   4.288   3.195   2.388 -1.2996 -2.2202 -1.0110
 3125SOL     OW21007   4.654   1.780   6.567  0.0548  0.0190  0.2468
 3125SOL    HW121008   0.004   1.772   6.604 -0.4515  0.5285  1.5484
 3125SOL    HW221009   4.601   1.775   6.646  0.5737 -0.1172  0.5896
 3126SOL     OW21010   0.504   2.183   8.680 -0.0967  0.2007  0.0082
 3126SOL    HW121011   0.429   2.189   8.622  1.4512 -3.2141 -2.3334
 3126SOL    HW221012   0.561   2.238   8.627  1.4131  0.5391  1.9754
 3127SOL     OW21013   3.894   4.443   2.563  0.0569  0.1806 -0.5969
 3127SOL    HW121014   3.888   4.368   2.622  0.9874  1.8690  1.6379
 3127SOL    HW221015   3.914   4.402   2.479 -1.5431 -1.2453 -0.2799
 3128SOL     OW21016   2.295   1.935   5.471 -0.0258 -0.3621 -0.7583
 3128SOL    HW121017   2.202   1.914   5.460 -0.2398 -0.0535  0.5465
 3128SOL    HW221018   2.292   2.011   5.528  1.3656  0.2394 -1.5019
 3129SOL     OW21019   3.647   2.971   3.105  0.1501 -0.0266 -0.4091
 3129SOL    HW121020   3.596   3.022   3.168  0.8555 -0.9052  0.8584
 3129SOL    HW221021   3.664   3.037   3.037 -3.4443  1.7600  0.4141
 3130SOL     OW21022   1.137   4.111   4.551 -0.1805  0.1310  0.5804
 3130SOL    HW121023   1.147   4.016   4.554 -1.5788 -0.0316  0.1079
 3130SOL    HW221024   1.131   4.146   4.639  3.2403 -0.5333  1.0818
 3131SOL     OW21025   1.019   3.728   8.789  0.4285 -0.2480  0.1620
 3131SOL    HW121026   1.111   3.706   8.801  0.9357  1.3828 -0.6374
 3131SOL    HW221027   0.984   3.642   8.810  0.1391 -0.0955  0.3108
 3132SOL     OW21028   1.125   0.456   9.814  0.0792  0.3454  0.1669
 3132SOL    HW121029   1.204   0.418   9.851 -0.2442 -0.0800  0.4332
 3132SOL    HW221030   1.154   0.475   9.725 -0.3864 -2.4719 -0.5721
 3133SOL     OW21031   4.064   3.608  14.592  0.3124 -0.2298 -0.1021
 3133SOL    HW121032   3.969   3.593  14.595  0.5818 -2.1122 -0.7065
 3133SOL    HW221033   4.080   3.637  14.681 -1.0458 -0.6700  0.2774
 3134SOL     OW21034   3.111   2.809   2.607  0.0093  0.0615 -0.2655
 3134SOL    HW121035   3.169   2.772   2.541 -0.1937 -2.4684  0.9880
 3134SOL    HW221036   3.027   2.766   2.591 -0.6629  0.8386  1.2753
 3135SOL     OW21037   2.695   1.634   0.924 -0.1699 -0.1897 -0.2413
 3135SOL    HW121038   2.653   1.693   0.986  0.5041  1.8275 -1.6932
 3135SOL    HW221039   2.642   1.633   0.844  2.3177 -1.4570 -1.8901
 3136SOL     OW21040   3.871   3.776   4.062  0.0579  0.0393 -0.2630
 3136SOL    HW121041   3.781   3.756   4.035 -0.3258  3.4716 -1.5252
 3136SOL    HW221042   3.851   3.817   4.146  1.7986 -0.3392  0.3276
 3137SOL     OW21043   0.629   0.368  11.317  0.4356 -0.1140  0.3158
 3137SOL    HW121044   0.570   0.357  11.242  0.7847  0.4490 -0.0487
 3137SOL    HW221045   0.602   0.291  11.367 -0.5599 -0.4690 -0.7563
 3138SOL     OW21046   3.432   4.698  16.263 -0.0587  0.4453 -0.2100
 3138SOL    HW121047   3.475   4.618  16.291 -1.8615 -0.1011  1.0276
 3138SOL    HW221048   3.468   0.021  16.327  0.3726  0.4886 -0.4956
 3139SOL     OW21049   3.638   3.432   3.841  0.6204  0.4944 -0.1638
 3139SOL    HW121050   3.576   3.383   3.895  0.1942  0.6446 -0.5189
 3139SOL    HW221051   3.667   3.368   3.776  0.2640  0.2583 -0.0872
 3140SOL     OW21052   1.199   3.334  15.856  0.0779 -0.0217 -0.4475
 3140SOL    HW121053   1.182   3.398  15.786  0.0897  0.5950  0.1064
 3140SOL    HW221054   1.294   3.323  15.860  0.3102  1.6634 -1.1165
 3141SOL     OW21055   0.883   0.082   7.731  0.3239 -0.6080  0.0859
 3141SOL    HW121056   0.799   0.045   7.758  0.3759  0.9864  2.3750
 3141SOL    HW221057   0.881   0.085   7.635  2.0287  1.2535  0.1093
 3142SOL     OW21058   2.229   3.279   6.692 -0.0524 -0.4995 -0.2362
 3142SOL    HW121059   2.232   3.184   6.704 -1.2360 -0.4408  0.5609
 3142SOL    HW221060   2.153   3.294   6.748 -1.2686  1.0772 -2.2707
 3143SOL     OW21061   3.549   0.976   5.401 -0.1695 -0.2660 -0.5887
 3143SOL    HW121062   3.513   0.897   5.361  0.0940 -0.7742  0.2073
 3143SOL    HW221063   3.482   1.008   5.461 -0.7567 -3.1958  0.3139
 3144SOL     OW21064   3.632   4.513  11.942 -0.3168  0.1819  0.3661
 3144SOL    HW121065   3.640   4.420  11.963 -0.6645 -0.1391 -0.9694
 3144SOL    HW221066   3.544   4.525  11.976 -0.4174  0.8314 -0.1218
 3145SOL     OW21067   0.250   2.115  15.706  0.1075  0.3551  0.1773
 3145SOL    HW121068   0.258   2.039  15.647  1.0307 -0.5940  1.5221
 3145SOL    HW221069   0.225   2.185  15.645  0.3256  0.0837 -0.2258
 3146SOL     OW21070   0.851   1.303   5.638 -0.2878 -0.2707 -0.6142
 3146SOL    HW121071   0.911   1.377   5.629  0.5620 -0.7141  1.3600
 3146SOL    HW221072   0.789   1.344   5.698  0.3046 -1.2597  0.6797
 3147SOL     OW21073   1.402   1.507  10.066  0.3676 -0.0863  0.7386
 3147SOL    HW121074   1.402   1.590  10.114  0.7350 -1.6576  3.4712
 3147SOL    HW221075   1.488   1.478  10.097  0.6761  0.0667  0.0216
 3148SOL     OW21076   3.836   3.502   6.127  0.2537 -0.0148  0.1245
 3148SOL    HW121077   3.876   3.528   6.044 -0.2437 -0.3335 -0.2137
 3148SOL    HW221078   3.793   3.420   6.100 -1.1848  0.8144 -0.0588
 3149SOL     OW21079   4.501   3.648  10.363  0.3461 -0.4942  0.9218
 3149SOL    HW121080   4.592   3.637  10.333 -0.8403 -0.3230 -2.7203
 3149SOL    HW221081   4.522   3.713  10.430  0.3158 -0.6748  1.1037
 3150SOL     OW21082   0.618   2.417  11.800  0.2517 -0.3153 -0.0059
 3150SOL    HW121083   0.547   2.378  11.850  1.0898 -2.0946 -0.1897
 3150SOL    HW221084   0.666   2.454  11.874 -0.0423 -1.2066  0.6276
 3151SOL     OW21085   1.790   0.661   9.482  0.2339 -0.1711  0.3728
 3151SOL    HW121086   1.820   0.750   9.469 -0.1850 -0.1943 -0.7724
 3151SOL    HW221087   1.792   0.643   9.388 -2.2418 -0.3739  0.3510
 3152SOL     OW21088   1.608   2.413   6.969  0.4055 -0.1631 -0.2148
 3152SOL    HW121089   1.620   2.326   6.931 -1.1254  0.2712 -1.7101
 3152SOL    HW221090   1.672   2.414   7.040 -1.0417  2.5922  1.0614
 3153SOL     OW21091   3.783   0.057   1.582  0.1004  0.1931 -0.0411
 3153SOL    HW121092   3.695   0.093   1.590  0.1992  0.3620  0.2995
 3153SOL    HW221093   3.799   0.044   1.676 -0.9624  1.0728  0.2639
 3154SOL     OW21094   1.186   3.434   5.264  0.3174 -0.7892  0.1570
 3154SOL    HW121095   1.160   3.511   5.314  1.0638 -1.0636  0.9905
 3154SOL    HW221096   1.210   3.378   5.339 -0.0534 -0.3705  0.5865
 3155SOL     OW21097   2.427   2.488   6.917  0.1830 -0.2891  0.0009
 3155SOL    HW121098   2.463   2.507   6.830 -0.3680  0.8126  0.0181
 3155SOL    HW221099   2.505   2.467   6.969  1.7141 -0.9144 -2.5030
 3156SOL     OW21100   3.392   3.426   3.591  0.8899  0.2339  0.4066
 3156SOL    HW121101   3.480   3.405   3.621  1.1416  0.2827 -0.3122
 3156SOL    HW221102   3.419   3.497   3.533  1.0693 -0.5362 -0.4571
 3157SOL     OW21103   3.205   0.662   3.146 -0.2375  0.6172  0.0364
 3157SOL    HW121104   3.144   0.614   3.090  0.1233 -0.2141  0.3670
 3157SOL    HW221105   3.275   0.694   3.088 -0.8877 -2.5727 -2.5147
 3158SOL     OW21106   2.638   3.132   0.180 -0.0999 -0.4264  0.4077
 3158SOL    HW121107   2.727   3.156   0.155 -0.0250 -0.2260  0.8645
 3158SOL    HW221108   2.650   3.069   0.251  1.4275 -1.4773 -0.7704
 3159SOL     OW21109   3.333   1.331  12.067  0.0382  0.2966  0.9068
 3159SOL    HW121110   3.350   1.299  12.155 -0.7229 -2.4168  0.0733
 3159SOL    HW221111   3.256   1.387  12.077  0.4662  1.0173  0.1893
 3160SOL     OW21112   3.434   1.920   2.712 -0.5896 -0.3609  0.3645
 3160SOL    HW121113   3.458   1.851   2.650 -0.1052  1.0737 -1.0636
 3160SOL    HW221114   3.512   1.920   2.767  0.5364  0.5998 -1.2301
 3161SOL     OW21115   4.223   3.138  13.795  0.4084 -0.2756  0.1831
 3161SOL    HW121116   4.170   3.059  13.782 -0.1087  0.1234 -0.1476
 3161SOL    HW221117   4.203   3.193  13.719 -1.2985  1.4371  1.8633
 3162SOL     OW21118   1.339   2.655  10.952  0.0621 -0.0229 -0.1106
 3162SOL    HW121119   1.407   2.655  11.019  1.3179 -2.7841 -1.3608
 3162SOL    HW221120   1.254   2.668  10.994 -0.4625  1.5520 -1.6744
 3163SOL     OW21121   0.951   1.894   0.498  0.8215  0.0709  0.1260
 3163SOL    HW121122   0.920   1.822   0.443 -2.7975  1.7532  0.0209
 3163SOL    HW221123   1.000   1.938   0.428  0.2557  0.0233 -0.3000
 3164SOL     OW21124   3.046   2.622   2.152  0.7640  0.7317  0.2433
 3164SOL    HW121125   3.025   2.554   2.215 -1.1741  0.2711 -0.9082
 3164SOL    HW221126   2.971   2.680   2.164  1.4974  2.2668 -2.5383
 3165SOL     OW21127   2.447   1.125   5.990 -0.1515  0.6813  0.5389
 3165SOL    HW121128   2.357   1.095   6.006 -0.6479  2.1682  0.4838
 3165SOL    HW221129   2.477   1.043   5.951 -0.3002  0.2325  1.3763
 3166SOL     OW21130   2.852   1.718   7.970 -0.1242  0.3240 -0.2833
 3166SOL    HW121131   2.913   1.652   7.937 -0.6995 -0.3954  0.0841
 3166SOL    HW221132   2.816   1.751   7.887  0.5275  0.8660 -0.3436
 3167SOL     OW21133   0.665   4.192   8.470  0.1710 -0.0399  0.1068
 3167SOL    HW121134   0.637   4.102   8.455 -0.1005 -0.0265  0.5187
 3167SOL    HW221135   0.752   4.182   8.507  0.4036  0.8886 -0.1840
 3168SOL     OW21136   4.204   2.099  17.497 -0.4501 -0.1595  0.3941
 3168SOL    HW121137   4.236   2.060  17.416 -0.4446  0.3666  0.1440
 3168SOL    HW221138   4.111   2.077  17.492 -0.7501  0.4844  2.6889
 3169SOL     OW21139   2.484   1.963  11.546  0.0437  0.3614 -0.2761
 3169SOL    HW121140   2.483   1.868  11.560  1.1175  0.6256  1.5713
 3169SOL    HW221141   2.575   1.986  11.527  0.4185 -2.2583 -1.7189
 3170SOL     OW21142   2.886   3.305  13.517  0.2299 -0.1641  0.3632
 3170SOL    HW121143   2.901   3.379  13.575  1.2751 -0.2862  0.2430
 3170SOL    HW221144   2.880   3.339  13.428  3.3798  0.7162  0.5057
 3171SOL     OW21145   0.848   4.402  14.509 -0.2838  0.0090 -0.0147
 3171SOL    HW121146   0.869   4.433  14.597  1.8679 -0.3956 -0.3857
 3171SOL    HW221147   0.892   4.317  14.507  0.3955  0.3534  0.4598
 3172SOL     OW21148   1.308   3.388   8.656  0.0550 -0.3743 -0.2420
 3172SOL    HW121149   1.252   3.401   8.580 -1.5850  0.0050  1.0367
 3172SOL    HW221150   1.241   3.329   8.690 -0.7388  0.3654 -0.5328
 3173SOL     OW21151   0.538   1.135   4.126 -0.2113  0.4334 -0.0300
 3173SOL    HW121152   0.524   1.226   4.150  0.8834  0.6627 -0.2562
 3173SOL    HW221153   0.566   1.109   4.214  0.4298 -1.0554 -0.6599
 3174SOL     OW21154   4.232   0.291  12.960  0.3619  0.2168 -0.2807
 3174SOL    HW121155   4.184   0.236  12.899  0.6611 -1.5006  1.0320
 3174SOL    HW221156   4.241   0.243  13.042  1.2850  0.7889 -0.0418
 3175SOL     OW21157   0.602   0.156  13.095 -0.2385  0.1922  0.3568
 3175SOL    HW121158   0.645   0.075  13.123  0.7001  0.7953  0.6515
 3175SOL    HW221159   0.512   0.145  13.126  0.7379 -0.8623  2.7423
 3176SOL     OW21160   1.490   0.021  14.226  0.4025 -0.3971 -0.0499
 3176SOL    HW121161   1.559   0.078  14.192  0.1633  0.7764  1.3849
 3176SOL    HW221162   1.530   4.690  14.277  0.8364  1.7582  2.5378
 3177SOL     OW21163   1.879   1.398  13.432 -0.2630 -0.1335 -0.0856
 3177SOL    HW121164   1.845   1.429  13.516 -2.1354  1.0669 -1.3168
 3177SOL    HW221165   1.875   1.475  13.375 -3.8538 -0.7571 -0.6455
 3178SOL     OW21166   3.148   4.113   8.751  0.6561 -0.1556  0.3594
 3178SOL    HW121167   3.165   4.097   8.658 -0.7863  1.1669 -0.1300
 3178SOL    HW221168   3.053   4.107   8.755  0.5479  1.5203  0.1948
 3179SOL     OW21169   2.962   2.344   6.351 -0.0182 -0.3800 -0.1154
 3179SOL    HW121170   3.013   2.414   6.310  1.3474 -0.6100  1.1939
 3179SOL    HW221171   2.976   2.274   6.288 -0.3999  1.0693 -1.8151
 3180SOL     OW21172   1.063   4.052   3.251  0.1357 -0.2716  0.4538
 3180SOL    HW121173   1.067   4.117   3.321 -1.4339  0.4592 -0.1374
 3180SOL    HW221174   0.971   4.032   3.265  0.0936 -0.9571 -0.7536
 3181SOL     OW21175   1.437   2.990   4.632 -0.0384 -0.3896  0.3039
 3181SOL    HW121176   1.493   2.917   4.604 -1.1023 -0.3373 -1.9827
 3181SOL    HW221177   1.461   3.056   4.567 -0.6557  2.6612  3.1779
 3182SOL     OW21178   2.943   4.495   6.700  0.0194 -0.7038 -0.2405
 3182SOL    HW121179   3.027   4.535   6.722 -0.3707 -0.4415  0.7531
 3182SOL    HW221180   2.978   4.429   6.639 -2.1322 -1.8070 -0.2567
 3183SOL     OW21181   1.852   2.001  10.403  0.7268  0.3234 -0.4003
 3183SOL    HW121182   1.808   2.080  10.435 -0.2434  1.0567 -3.5616
 3183SOL    HW221183   1.829   1.935  10.468  1.3789 -0.0057 -0.4973
 3184SOL     OW21184   1.505   3.345   8.318 -0.6001  0.2571 -0.3991
 3184SOL    HW121185   1.512   3.351   8.414  1.5864 -1.7335 -0.4601
 3184SOL    HW221186   1.412   3.323   8.316  0.3621 -3.4487 -2.6881
 3185SOL     OW21187   2.918   1.047   4.098 -0.4836 -0.3184 -0.0934
 3185SOL    HW121188   3.001   1.057   4.145 -1.4391 -0.6294  1.6766
 3185SOL    HW221189   2.872   1.123   4.133 -0.2447 -0.6259  0.8875
 3186SOL     OW21190   2.681   4.225  13.860 -0.0268  0.2654 -0.5297
 3186SOL    HW121191   2.648   4.180  13.782 -1.6583  0.2782  0.1590
 3186SOL    HW221192   2.598   4.247  13.902  0.0881  1.8434 -1.1182
 3187SOL     OW21193   3.030   3.727   6.058 -0.2229  0.1705  0.2839
 3187SOL    HW121194   3.098   3.778   6.013  0.2882  0.1469  1.0288
 3187SOL    HW221195   2.973   3.691   5.990 -2.5323  0.4797  2.0521
 3188SOL     OW21196   2.955   2.636   5.871  0.3363 -0.5279  0.1253
 3188SOL    HW121197   3.018   2.580   5.825  1.5896 -0.4324  1.7490
 3188SOL    HW221198   3.011   2.700   5.915 -1.6124  1.5225 -0.3642
 3189SOL     OW21199   0.311   1.081  10.741 -0.2112  0.3646  0.3200
 3189SOL    HW121200   0.367   1.019  10.787  1.8558  1.5011 -0.6651
 3189SOL    HW221201   0.238   1.027  10.710 -0.1099 -0.0701  0.8394
 3190SOL     OW21202   1.064   0.995  13.375  0.1484  0.4688 -0.2614
 3190SOL    HW121203   1.123   0.927  13.340  0.4209 -0.3525  1.8037
 3190SOL    HW221204   1.128   1.053  13.417  1.7904 -0.1665 -1.8875
 3191SOL     OW21205   0.571   3.282  12.221  0.4705  0.5502 -0.0612
 3191SOL    HW121206   0.643   3.224  12.194  1.6505  1.3254  1.4535
 3191SOL    HW221207   0.618   3.315  12.298 -0.1129  0.6263  0.2561
 3192SOL     OW21208   0.073   1.656   8.364  0.5294  0.3552  0.5916
 3192SOL    HW121209   0.070   1.607   8.282 -3.2191  1.7952 -0.1256
 3192SOL    HW221210   0.126   1.732   8.340 -2.5399  1.9866 -0.9016
 3193SOL     OW21211   3.028   4.617   8.073  0.5624  0.3667  0.1456
 3193SOL    HW121212   3.123   4.620   8.062  0.9105 -2.3366  2.6305
 3193SOL    HW221213   3.015   4.709   8.048  2.5502  1.0514  1.5995
 3194SOL     OW21214   3.115   1.087   7.165 -0.5119 -0.2094  0.0152
 3194SOL    HW121215   3.151   1.162   7.213  1.6270 -0.4497 -1.2234
 3194SOL    HW221216   3.021   1.099   7.156 -0.5233  1.4952  2.3037
 3195SOL     OW21217   1.295   3.643   8.768  0.0868 -0.5947  0.0718
 3195SOL    HW121218   1.308   3.550   8.786 -0.1108 -0.2402  2.0076
 3195SOL    HW221219   1.352   3.693   8.827 -1.6871  1.0136  0.4119
 3196SOL     OW21220   4.563   3.413   7.568 -0.5886 -0.2342  0.3756
 3196SOL    HW121221   4.568   3.410   7.663 -1.1531  0.9486  0.4487
 3196SOL    HW221222   4.470   3.397   7.549  0.1370 -3.4865 -0.3835
 3197SOL     OW21223   3.640   1.777   4.327  0.7851 -0.2364 -0.1483
 3197SOL    HW121224   3.653   1.689   4.362 -0.7746 -0.4633 -0.1331
 3197SOL    HW221225   3.715   1.820   4.367  0.1498  0.9463 -0.2134
 3198SOL     OW21226   0.068   1.470   0.135 -0.6512 -0.0612  0.4838
 3198SOL    HW121227   0.025   1.482   0.051 -0.2028 -4.5427 -0.3354
 3198SOL    HW221228   0.126   1.547   0.134  1.9859 -2.0655  0.5247
 3199SOL     OW21229   1.887   3.467   3.232  0.1174  0.4164  0.3845
 3199SOL    HW121230   1.835   3.522   3.290  1.9081  0.2093  2.1803
 3199SOL    HW221231   1.856   3.503   3.149  2.1457 -1.4227 -1.1645
 3200SOL     OW21232   4.295   1.654   4.966 -0.1283  0.3257  0.0704
 3200SOL    HW121233   4.342   1.689   5.041 -0.9433 -0.9478  1.1835
 3200SOL    HW221234   4.299   1.734   4.913 -2.2654 -0.0697 -0.6963
 3201SOL     OW21235   0.665   1.396   5.834  0.0290  0.5830 -0.5154
 3201SOL    HW121236   0.623   1.318   5.871  1.9470  0.2670  1.0083
 3201SOL    HW221237   0.584   1.436   5.801 -0.9587  0.1949  1.4221
 3202SOL     OW21238   3.134   4.463   8.328 -0.0990 -0.0274 -0.4142
 3202SOL    HW121239   3.207   4.445   8.387 -0.6339  2.2432  0.9599
 3202SOL    HW221240   3.173   4.512   8.256  0.2188 -1.9132 -1.5292
 3203SOL     OW21241   3.584   3.477   6.750  0.4507  0.5452  0.0032
 3203SOL    HW121242   3.494   3.450   6.729 -0.1789  2.6391 -0.0271
 3203SOL    HW221243   3.592   3.569   6.725 -1.5908  0.7696  0.1596
 3204SOL     OW21244   4.258   2.352   7.825 -0.6902  0.2301  0.4164
 3204SOL    HW121245   4.230   2.281   7.767  0.2327 -0.7529  1.1566
 3204SOL    HW221246   4.250   2.309   7.910 -2.1676  1.3264  0.8334
 3205SOL     OW21247   3.869   0.682   4.088  0.1571 -0.5620  0.5470
 3205SOL    HW121248   3.803   0.729   4.139 -0.2858  0.1338 -0.6400
 3205SOL    HW221249   3.943   0.743   4.087 -1.0920  0.9774  0.8922
 3206SOL     OW21250   4.052   2.459   6.921  0.2977 -0.2272  0.6553
 3206SOL    HW121251   3.989   2.465   6.849  0.9020 -1.2225  0.0348
 3206SOL    HW221252   4.000   2.512   6.981 -1.9242 -0.1973 -1.2921
 3207SOL     OW21253   4.481   4.733   7.861 -0.6966  0.2171 -0.4736
 3207SOL    HW121254   4.399   4.729   7.812 -0.0533 -0.1709 -1.5137
 3207SOL    HW221255   4.454   4.698   7.946 -4.0174  0.6069 -1.3417
 3208SOL     OW21256   1.752   1.844   2.988 -0.2412  0.0203 -0.0479
 3208SOL    HW121257   1.673   1.887   3.020 -0.2266  0.6865 -0.9106
 3208SOL    HW221258   1.718   1.766   2.945 -0.5155  1.7110 -2.8902
 3209SOL     OW21259   3.452   1.162   1.874  0.0776  0.1862 -0.0150
 3209SOL    HW121260   3.526   1.222   1.883  0.1669  0.3243 -1.5361
 3209SOL    HW221261   3.460   1.116   1.957 -1.5291 -0.9691 -0.4952
 3210SOL     OW21262   1.256   4.655  16.995 -0.2595 -0.0022 -0.2686
 3210SOL    HW121263   1.253   4.605  17.077 -0.3818 -1.2031 -0.9995
 3210SOL    HW221264   1.187   4.719  17.010 -0.7973 -0.9431  1.3175
 3211SOL     OW21265   2.576   0.570   8.426  0.1027 -0.6604  0.4441
 3211SOL    HW121266   2.596   0.660   8.452  0.1914 -0.7704  0.7530
 3211SOL    HW221267   2.507   0.589   8.363  1.3096  2.7035  0.1407
 3212SOL     OW21268   2.289   4.282   7.522  0.0497  0.6726 -0.4053
 3212SOL    HW121269   2.321   4.264   7.610  0.9310 -0.6379 -0.9943
 3212SOL    HW221270   2.370   4.307   7.477  1.6181 -1.7520  1.0871
 3213SOL     OW21271   1.789   2.915   8.691 -0.4950  0.0682  0.6791
 3213SOL    HW121272   1.738   2.917   8.772  0.0114  1.0501  0.9754
 3213SOL    HW221273   1.843   2.994   8.695  2.1635 -1.7381  0.2410
 3214SOL     OW21274   4.596   3.176  17.557  0.5085  0.5152 -0.7985
 3214SOL    HW121275   4.634   3.117  17.623 -1.5451 -0.0254 -0.0930
 3214SOL    HW221276   4.649   3.251  17.581 -0.6592  1.2417 -0.4892
 3215SOL     OW21277   1.187   3.819   7.697  0.5433  0.2104  0.5548
 3215SOL    HW121278   1.154   3.883   7.759 -0.8617  0.4722 -0.4810
 3215SOL    HW221279   1.272   3.794   7.733  0.5279 -0.2978  0.2450
 3216SOL     OW21280   3.562   0.193   4.619 -0.0035  0.3135  0.4304
 3216SOL    HW121281   3.614   0.190   4.700  0.0693  1.3780  0.4170
 3216SOL    HW221282   3.477   0.174   4.658 -1.4676  1.0266 -2.4169
 3217SOL     OW21283   3.713   1.131   8.482 -0.1298  0.0399  0.2445
 3217SOL    HW121284   3.780   1.200   8.488 -0.3050  0.2422 -0.1120
 3217SOL    HW221285   3.686   1.100   8.568 -1.2074 -2.1729 -0.8867
 3218SOL     OW21286   2.865   0.909   3.033 -0.2115 -0.5752  0.0796
 3218SOL    HW121287   2.782   0.906   3.079 -0.2301  0.0872  0.0886
 3218SOL    HW221288   2.922   0.928   3.108 -0.8584  1.7202 -0.0207
 3219SOL     OW21289   1.682   3.772   5.968 -0.0435 -0.5589 -0.0905
 3219SOL    HW121290   1.736   3.731   5.901  0.6301 -0.6018  0.4746
 3219SOL    HW221291   1.646   3.843   5.914 -0.4772 -1.3789 -0.8675
 3220SOL     OW21292   0.473   0.937  14.944  0.2737 -0.0696 -0.2650
 3220SOL    HW121293   0.457   1.024  14.909 -0.9894 -0.2004 -0.0214
 3220SOL    HW221294   0.531   0.890  14.885  1.8249  1.1554  0.2811
 3221SOL     OW21295   3.176   0.378   1.928 -0.0379  0.5473 -0.0736
 3221SOL    HW121296   3.102   0.438   1.935  0.8665  1.6992 -0.4241
 3221SOL    HW221297   3.139   0.308   1.873 -0.0659  0.3864  0.1500
 3222SOL     OW21298   1.488   4.565   2.487 -0.1101  0.0466 -0.6677
 3222SOL    HW121299   1.432   4.533   2.417 -1.8210 -1.4416  1.3475
 3222SOL    HW221300   1.421   4.596   2.549 -0.4609  0.4509 -1.2571
 3223SOL     OW21301   1.787   2.504   6.495  0.6837 -0.0955  0.2549
 3223SOL    HW121302   1.718   2.463   6.548 -0.1161  0.4791 -0.3473
 3223SOL    HW221303   1.759   2.592   6.473  0.6370 -0.3868 -0.8455
 3224SOL     OW21304   0.037   4.586   6.922 -0.1251 -0.7768  0.0689
 3224SOL    HW121305   0.065   4.532   6.849  0.2713  1.4821 -1.4508
 3224SOL    HW221306   0.121   4.632   6.932  0.8677 -2.2361 -1.5956
 3225SOL     OW21307   0.102   0.962   8.473 -0.4662  0.4953 -0.0480
 3225SOL    HW121308   0.149   1.023   8.417 -1.3253 -2.0472 -3.5490
 3225SOL    HW221309   0.170   0.905   8.510 -0.6981 -1.3139 -2.3648
 3226SOL     OW21310   3.713   3.517   7.864 -0.3085  0.4169  0.1629
 3226SOL    HW121311   3.752   3.429   7.867 -1.7418 -0.2372 -0.3620
 3226SOL    HW221312   3.739   3.551   7.950 -0.2569  1.8720 -0.4272
 3227SOL     OW21313   3.816   4.457  14.294  0.2305 -0.7136  0.9434
 3227SOL    HW121314   3.823   4.544  14.335 -0.3513 -1.4369  2.5928
 3227SOL    HW221315   3.784   4.406  14.368  0.4483 -1.6392  0.3940
 3228SOL     OW21316   0.854   4.103  15.434 -0.2392  0.0991 -0.5119
 3228SOL    HW121317   0.816   4.141  15.513 -0.8159 -3.0715  0.7388
 3228SOL    HW221318   0.776   4.089  15.380  0.0498 -0.6041 -0.7395
 3229SOL     OW21319   0.747   4.310  17.103 -0.5179 -0.1741  0.6236
 3229SOL    HW121320   0.671   4.359  17.135 -0.9780 -0.9658  0.7386
 3229SOL    HW221321   0.798   4.389  17.082 -1.0200  0.7434  2.7901
 3230SOL     OW21322   1.340   4.439   9.486  0.3072 -0.0427  0.4894
 3230SOL    HW121323   1.407   4.489   9.532 -1.0912  0.6542  1.7542
 3230SOL    HW221324   1.255   4.475   9.511  0.2862  0.0227  0.3245
 3231SOL     OW21325   3.618   1.525  15.768 -0.0927 -0.5524  0.1455
 3231SOL    HW121326   3.624   1.585  15.843  2.0085  0.4539 -0.8494
 3231SOL    HW221327   3.603   1.585  15.695  0.6001  1.0503  1.3266
 3232SOL     OW21328   4.630   2.904   2.859  0.6456 -0.3404  0.6932
 3232SOL    HW121329   4.590   2.818   2.871 -0.1735 -0.2041 -1.1579
 3232SOL    HW221330   4.681   2.925   2.937  0.4309 -0.5693  0.8948
 3233SOL     OW21331   4.323   3.898  15.486  0.0697  0.7998  0.2586
 3233SOL    HW121332   4.298   3.833  15.551 -2.3964 -0.1795 -1.6699
 3233SOL    HW221333   4.240   3.938  15.458 -0.7194  0.2123  1.7617
 3234SOL     OW21334   3.594   3.977   3.701 -0.0479  0.0806  0.3068
 3234SOL    HW121335   3.680   4.015   3.685 -0.2461 -0.4749 -2.0026
 3234SOL    HW221336   3.564   4.025   3.779  1.2823  0.7647  0.3969
 3235SOL     OW21337   1.751   1.863   8.749 -1.0896 -0.8808  0.6184
 3235SOL    HW121338   1.789   1.887   8.665  0.7708 -2.1522  1.0811
 3235SOL    HW221339   1.755   1.768   8.761 -0.6856 -1.2971 -2.9048
 3236SOL     OW21340   4.515   2.833   3.136  0.2362 -0.1381  0.0663
 3236SOL    HW121341   4.507   2.739   3.126 -0.0024 -0.1259  0.1391
 3236SOL    HW221342   4.609   2.850   3.142 -0.0808  1.5138  0.4872
 3237SOL     OW21343   2.789   2.335   4.462  0.1570 -0.1198 -0.0538
 3237SOL    HW121344   2.706   2.302   4.497  0.9483 -0.4342  1.5220
 3237SOL    HW221345   2.762   2.387   4.387  2.3477  0.4661 -0.4226
 3238SOL     OW21346   1.374   2.056   0.284 -0.2502 -0.2833 -0.3443
 3238SOL    HW121347   1.347   1.965   0.280 -0.2494 -0.2261 -1.6018
 3238SOL    HW221348   1.421   2.062   0.368 -1.2308  1.5347  0.0928
 3239SOL     OW21349   3.467   2.997   4.688  0.1043 -0.4276 -0.1592
 3239SOL    HW121350   3.464   2.907   4.721 -0.2013 -0.6975 -0.9225
 3239SOL    HW221351   3.428   3.045   4.761  1.7534 -1.0413  1.1579
 3240SOL     OW21352   2.608   3.118   9.246 -0.2475 -0.7416 -0.3344
 3240SOL    HW121353   2.609   3.110   9.151  0.2460  0.0667 -0.3938
 3240SOL    HW221354   2.663   3.044   9.273  0.6256 -0.4872 -1.4017
 3241SOL     OW21355   1.881   1.137   6.451 -0.5422 -0.6972 -0.2025
 3241SOL    HW121356   1.816   1.197   6.413  1.4586  1.4538 -0.1999
 3241SOL    HW221357   1.862   1.055   6.406 -2.1183  0.0507 -0.9205
 3242SOL     OW21358   1.728   1.234   0.107 -0.3652  0.3257 -0.1278
 3242SOL    HW121359   1.770   1.311   0.144  0.4675 -1.0984  1.8912
 3242SOL    HW221360   1.695   1.267   0.024  0.2716 -0.6980 -0.7843
 3243SOL     OW21361   1.301   0.853   0.764 -0.2318  0.2070 -0.1566
 3243SOL    HW121362   1.352   0.933   0.775  0.4214  0.0418 -1.8918
 3243SOL    HW221363   1.211   0.876   0.784 -0.3077 -1.2542  1.1446
 3244SOL     OW21364   3.682   4.044   4.744 -0.5609 -0.1708  0.3994
 3244SOL    HW121365   3.674   3.950   4.758 -0.3614 -0.4842 -1.6696
 3244SOL    HW221366   3.588   4.062   4.737 -0.6456 -1.1972 -0.9004
 3245SOL     OW21367   3.345   2.328   3.894  0.2925  0.6530  0.3338
 3245SOL    HW121368   3.312   2.400   3.839  3.4356 -0.3431 -2.8892
 3245SOL    HW221369   3.435   2.352   3.916  0.1492  2.0424 -0.5555
 3246SOL     OW21370   2.496   1.592  10.507  0.2676  0.8691 -0.2452
 3246SOL    HW121371   2.476   1.612  10.599  0.7869  0.5652 -0.0676
 3246SOL    HW221372   2.422   1.633  10.461  0.8334  0.1621 -1.7914
 3247SOL     OW21373   2.062   0.594   2.026  0.1201  0.4732  0.0713
 3247SOL    HW121374   2.040   0.518   2.079  0.7168 -0.6173 -1.2466
 3247SOL    HW221375   2.145   0.569   1.986  1.5435  0.9826  2.7618
 3248SOL     OW21376   4.558   1.501   4.738  0.0967  0.2412  0.2502
 3248SOL    HW121377   4.591   1.591   4.738 -1.1101  0.6922  2.7966
 3248SOL    HW221378   4.611   1.476   4.663  2.2932  2.1352  1.1585
 3249SOL     OW21379   0.886   2.841   9.041  0.0285  0.1094  0.2921
 3249SOL    HW121380   0.791   2.850   9.048  0.0014  1.8223 -2.3290
 3249SOL    HW221381   0.900   2.825   9.134 -4.7634  2.3022  1.3772
 3250SOL     OW21382   0.452   3.174  16.823  0.7187 -0.8281  0.1981
 3250SOL    HW121383   0.441   3.203  16.913  2.3393  0.0639  0.1199
 3250SOL    HW221384   0.540   3.207  16.804 -0.0213  0.6355 -0.7054
 3251SOL     OW21385   4.445   2.509   6.054 -0.1043  0.3148 -0.3382
 3251SOL    HW121386   4.445   2.510   6.150 -0.5451 -0.5509 -0.3326
 3251SOL    HW221387   4.388   2.435   6.035 -0.1789 -0.0152  1.1370
 3252SOL     OW21388   3.819   4.511   4.376  0.2986  0.7324 -0.2951
 3252SOL    HW121389   3.806   4.519   4.470 -0.4039  0.7230 -0.3877
 3252SOL    HW221390   3.912   4.510   4.355  0.1035 -0.5818 -1.1545
 3253SOL     OW21391   0.357   4.376   2.552 -0.9397  0.2363  0.0600
 3253SOL    HW121392   0.377   4.456   2.502 -1.7948 -0.1255 -0.8669
 3253SOL    HW221393   0.285   4.345   2.497 -1.0952 -1.4588  1.2394
 3254SOL     OW21394   4.160   3.459  13.317  0.0286  0.0135  0.3787
 3254SOL    HW121395   4.154   3.370  13.282 -3.5107  0.9042 -1.2727
 3254SOL    HW221396   4.078   3.465  13.366  0.5828  1.9966  1.0865
 3255SOL     OW21397   3.739   2.021   3.107 -0.2780 -0.5107 -0.2258
 3255SOL    HW121398   3.695   2.105   3.093 -1.4050 -0.7507  1.8854
 3255SOL    HW221399   3.830   2.040   3.085  0.2197 -0.6834  1.6858
 3256SOL     OW21400   0.881   4.486   4.279  0.1251 -0.6493  0.4227
 3256SOL    HW121401   0.878   4.544   4.355 -2.3976 -0.8397  0.4526
 3256SOL    HW221402   0.898   4.401   4.319  3.7766  0.0110  0.3371
 3257SOL     OW21403   3.156   1.364   5.868 -0.1259 -0.6562 -0.5309
 3257SOL    HW121404   3.166   1.431   5.801  2.6146 -1.4231 -0.8662
 3257SOL    HW221405   3.179   1.410   5.948  0.6868 -0.0701 -1.1091
 3258SOL     OW21406   3.770   4.727   3.716  0.2999 -0.3133  0.0225
 3258SOL    HW121407   3.691   0.040   3.698 -0.7475 -1.7519  0.5501
 3258SOL    HW221408   3.842   0.051   3.702  1.2267 -0.7811  2.6965
 3259SOL     OW21409   0.541   2.501   4.990  0.0577 -0.3793  0.4207
 3259SOL    HW121410   0.478   2.560   5.031 -0.5148 -0.0819 -0.8671
 3259SOL    HW221411   0.589   2.561   4.934 -0.8894  1.2204  1.3297
 3260SOL     OW21412   1.966   0.648   8.205  0.1302  0.2225  0.7461
 3260SOL    HW121413   1.915   0.621   8.281  0.9355 -0.0456  1.1899
 3260SOL    HW221414   1.957   0.743   8.206 -2.0146  0.0036  0.6954
 3261SOL     OW21415   1.845   2.792   2.648 -0.0719  0.0843 -0.9292
 3261SOL    HW121416   1.872   2.741   2.724  1.5985  0.7920 -1.0418
 3261SOL    HW221417   1.781   2.851   2.689  0.2749 -0.1937  0.0040
 3262SOL     OW21418   4.491   2.933   8.787 -0.0878 -0.7195  0.3303
 3262SOL    HW121419   4.461   3.011   8.740 -1.0239 -1.5513 -0.4505
 3262SOL    HW221420   4.563   2.968   8.840  1.1678 -1.6392 -0.7634
 3263SOL     OW21421   0.324   2.391   3.458  0.0940  0.2198 -0.0854
 3263SOL    HW121422   0.409   2.348   3.455 -0.9674 -1.8020 -1.1206
 3263SOL    HW221423   0.275   2.346   3.390  0.4870  1.5262 -1.2356
 3264SOL     OW21424   0.875   3.988   9.731  0.1903 -0.0878 -0.4487
 3264SOL    HW121425   0.826   4.052   9.782  1.3125 -1.1761  1.9674
 3264SOL    HW221426   0.801   3.931   9.709 -0.1861 -1.0188  3.2811
 3265SOL     OW21427   4.278   1.064  12.652 -0.0555  0.2185  0.2041
 3265SOL    HW121428   4.306   1.134  12.593  0.2823 -0.5252 -0.5164
 3265SOL    HW221429   4.214   1.019  12.595  0.9353  0.8501 -1.3940
 3266SOL     OW21430   0.540   2.156   4.502  0.2659 -0.2411 -0.2471
 3266SOL    HW121431   0.584   2.238   4.483  0.3639 -0.2781 -0.1821
 3266SOL    HW221432   0.557   2.144   4.596  0.9273 -1.2926 -0.4959
 3267SOL     OW21433   3.166   2.139   3.921  0.4198 -0.3004  0.1678
 3267SOL    HW121434   3.235   2.206   3.924 -0.4373  0.6600 -1.3449
 3267SOL    HW221435   3.220   2.063   3.942 -0.0082 -0.6963 -0.1646
 3268SOL     OW21436   0.571   3.630   8.309 -0.2412  0.0622 -0.0605
 3268SOL    HW121437   0.661   3.659   8.324  0.1200 -1.7601  1.2521
 3268SOL    HW221438   0.537   3.645   8.397  0.5137 -2.3039  0.6330
 3269SOL     OW21439   3.301   2.077   2.243  0.7960  0.8797 -0.2161
 3269SOL    HW121440   3.391   2.057   2.216  1.1707  0.5534  1.2929
 3269SOL    HW221441   3.318   2.113   2.330  0.8953 -1.7626  0.8672
 3270SOL     OW21442   2.490   1.046   8.706  0.2184 -0.1616 -0.2906
 3270SOL    HW121443   2.449   0.966   8.739 -1.6538  1.1576  0.5767
 3270SOL    HW221444   2.532   1.018   8.624 -0.0327 -0.8668 -0.1852
 3271SOL     OW21445   0.254   0.455  15.667 -0.3777  0.1269  0.6978
 3271SOL    HW121446   0.207   0.520  15.719 -0.1114  1.9894 -1.4061
 3271SOL    HW221447   0.295   0.394  15.729 -0.5878 -0.8186 -0.0957
 3272SOL     OW21448   2.959   2.163   2.088  0.0408  0.3439  0.1140
 3272SOL    HW121449   2.888   2.216   2.052 -1.9119 -0.9792  2.0496
 3272SOL    HW221450   2.925   2.136   2.173  0.9908  0.2969  0.4821
 3273SOL     OW21451   3.361   2.408  14.626  0.3916 -0.2181 -0.2711
 3273SOL    HW121452   3.397   2.319  14.623 -2.0725 -1.2943  1.6405
 3273SOL    HW221453   3.401   2.458  14.555  1.8150 -0.0560  0.6513
 3274SOL     OW21454   1.085   2.479   8.212 -0.5320 -0.0077 -0.5188
 3274SOL    HW121455   1.162   2.423   8.218 -0.1581  0.5164 -0.3693
 3274SOL    HW221456   1.098   2.509   8.122  0.7877 -1.7414 -0.8976
 3275SOL     OW21457   3.399   2.622   9.325  0.5709  0.0792 -0.0729
 3275SOL    HW121458   3.494   2.619   9.319  0.6313  1.1523  0.3166
 3275SOL    HW221459   3.380   2.689   9.259 -0.1855 -0.1041 -0.0475
 3276SOL     OW21460   3.046   0.497   4.939 -0.0621  0.6016  0.1729
 3276SOL    HW121461   2.970   0.491   4.881 -0.2473  0.8602  0.3902
 3276SOL    HW221462   3.102   0.433   4.896  0.9817  0.7460  1.3078
 3277SOL     OW21463   0.050   1.051   5.004 -0.1477  0.7596  0.3876
 3277SOL    HW121464   4.722   1.120   5.012 -1.5923 -0.8892  2.6002
 3277SOL    HW221465   0.125   1.090   5.049  0.9551 -0.4250 -0.4467
 3278SOL     OW21466   2.541   1.894   4.410  0.8153 -0.1799  0.2700
 3278SOL    HW121467   2.628   1.933   4.420 -0.2190  1.7117  1.6531
 3278SOL    HW221468   2.525   1.859   4.498 -0.1775 -1.4310 -0.3964
 3279SOL     OW21469   4.111   1.069   8.005  0.2609  0.0679  0.0213
 3279SOL    HW121470   4.019   1.043   8.003  0.7546 -1.5826 -0.5231
 3279SOL    HW221471   4.143   1.038   8.090 -0.0493 -0.0875  0.0796
 3280SOL     OW21472   3.360   2.378   9.185  0.5945  0.0505 -0.5208
 3280SOL    HW121473   3.330   2.318   9.253  1.0349  0.7626  0.2939
 3280SOL    HW221474   3.340   2.452   9.242 -1.1997  0.1703 -1.3017
 3281SOL     OW21475   3.555   0.853   1.755  0.0627  0.8429  0.1554
 3281SOL    HW121476   3.469   0.888   1.780 -0.9291 -0.5686 -1.3279
 3281SOL    HW221477   3.548   0.823   1.664  2.0875 -0.5665  0.4715
 3282SOL     OW21478   3.860   2.366   4.371 -0.6302  0.2455 -0.9639
 3282SOL    HW121479   3.819   2.447   4.341 -2.8358 -0.2532  0.6053
 3282SOL    HW221480   3.927   2.349   4.306 -1.5418 -0.5452 -1.7044
 3283SOL     OW21481   2.118   1.540   3.797 -0.6944 -0.9185  0.4031
 3283SOL    HW121482   2.026   1.569   3.797 -0.2521  0.4617  0.5510
 3283SOL    HW221483   2.112   1.477   3.725 -1.3055  1.8089 -1.8996
 3284SOL     OW21484   1.956   2.376   4.744 -0.4754 -0.3673 -0.0688
 3284SOL    HW121485   1.941   2.348   4.654 -1.5908 -1.1848  0.3808
 3284SOL    HW221486   2.000   2.297   4.777 -2.1060 -1.6608 -1.0157
 3285SOL     OW21487   3.734   4.001  15.879  0.2315 -0.4664  0.7731
 3285SOL    HW121488   3.639   4.009  15.871  0.2831 -0.9401 -0.3806
 3285SOL    HW221489   3.762   4.091  15.862 -1.7329  0.0568  0.2642
 3286SOL     OW21490   2.922   1.128   8.874 -0.2536 -0.3177 -0.3337
 3286SOL    HW121491   2.929   1.099   8.783  2.0326  0.1912 -0.3229
 3286SOL    HW221492   2.894   1.050   8.921  0.5887 -0.7299 -0.5021
 3287SOL     OW21493   3.016   4.148   2.093 -0.5101 -0.0141  0.4967
 3287SOL    HW121494   3.012   4.186   2.181  1.6453  0.9669  0.1647
 3287SOL    HW221495   3.087   4.086   2.108 -0.5416 -0.5737 -1.8070
 3288SOL     OW21496   3.764   2.290   2.263 -0.6792  0.1833  0.0983
 3288SOL    HW121497   3.785   2.300   2.356 -0.9438  2.3272 -0.0814
 3288SOL    HW221498   3.735   2.376   2.234  0.1884  0.7779  0.9722
 3289SOL     OW21499   4.161   4.439   4.342 -0.2984 -0.6866 -0.0877
 3289SOL    HW121500   4.148   4.351   4.307 -0.9032 -0.9535  0.7905
 3289SOL    HW221501   4.218   4.424   4.417  1.2727  1.4345 -0.8712
 3290SOL     OW21502   2.309   0.711   8.524 -0.1722  0.0062 -0.5192
 3290SOL    HW121503   2.299   0.796   8.482  0.8069  0.2016 -0.3493
 3290SOL    HW221504   2.357   0.736   8.603  0.8626 -0.3681 -1.0354
 3291SOL     OW21505   3.073   3.141   3.727  0.3244  0.1123  0.5231
 3291SOL    HW121506   3.065   3.216   3.668  2.0947  1.4733  1.9771
 3291SOL    HW221507   2.981   3.122   3.744  0.1181 -1.9128 -3.0063
 3292SOL     OW21508   2.005   3.310  13.837 -0.1547  0.2443 -0.1413
 3292SOL    HW121509   1.967   3.225  13.857  0.7830 -0.1905 -0.1753
 3292SOL    HW221510   1.930   3.368  13.847  0.2101  0.3695  1.8622
 3293SOL     OW21511   2.304   0.360   8.771  0.2222  0.4268  0.8635
 3293SOL    HW121512   2.238   0.319   8.828 -1.2807  0.2439 -1.0075
 3293SOL    HW221513   2.269   0.326   8.688  1.2059  2.2793 -0.3004
 3294SOL     OW21514   3.576   1.115  15.769  0.2519 -0.1580 -0.1473
 3294SOL    HW121515   3.646   1.157  15.819  0.5770  0.2372 -0.9373
 3294SOL    HW221516   3.579   1.023  15.796 -2.0438 -0.5571 -1.2154
 3295SOL     OW21517   3.030   0.946   8.215  1.2213 -0.1706 -0.8585
 3295SOL    HW121518   3.086   0.868   8.216  2.1035  0.4675  1.3530
 3295SOL    HW221519   3.077   1.002   8.153 -3.0856  0.5862 -3.3782
 3296SOL     OW21520   2.695   0.828   8.536  0.1066 -0.1982  0.4035
 3296SOL    HW121521   2.774   0.788   8.572 -0.6568 -1.2567  0.8777
 3296SOL    HW221522   2.736   0.880   8.466  1.5368 -0.2697  1.1970
 3297SOL     OW21523   0.595   4.361   2.890 -0.1917 -0.3440  0.2529
 3297SOL    HW121524   0.688   4.353   2.914  0.0640 -0.7436 -0.8740
 3297SOL    HW221525   0.593   4.331   2.799  1.2404 -1.3850  0.5464
 3298SOL     OW21526   3.345   3.105  14.617 -0.1919  0.0781 -0.4945
 3298SOL    HW121527   3.255   3.072  14.620  0.1897 -0.8636  0.5632
 3298SOL    HW221528   3.384   3.039  14.560  1.2005 -0.7275  1.3958
 3299SOL     OW21529   0.054   4.318   1.259  0.0022  0.1333 -0.3189
 3299SOL    HW121530   0.083   4.396   1.305 -0.0237 -0.1624  0.2014
 3299SOL    HW221531   4.712   4.309   1.310  0.5687  1.5107  0.8158
 3300SOL     OW21532   1.418   2.277   1.753 -0.3576  0.0735 -0.0351
 3300SOL    HW121533   1.344   2.321   1.710  1.1984  1.4882 -1.2311
 3300SOL    HW221534   1.485   2.344   1.745 -0.9024  0.4679 -1.2365
 3301SOL     OW21535   2.675   3.898  12.615 -0.1515  0.2316  0.0858
 3301SOL    HW121536   2.611   3.953  12.659 -0.1577  0.6339 -0.4256
 3301SOL    HW221537   2.760   3.940  12.632 -0.4358  0.1407  1.6953
 3302SOL     OW21538   4.087   3.788   5.989 -0.1071 -0.3076 -0.2744
 3302SOL    HW121539   4.163   3.734   6.008  0.2686  0.4678  0.4342
 3302SOL    HW221540   4.106   3.863   6.046 -2.4296 -1.2172  1.6707
 3303SOL     OW21541   0.304   4.336  10.793 -0.0423  0.3350  0.0095
 3303SOL    HW121542   0.252   4.299  10.721 -0.4666 -1.4304  1.2441
 3303SOL    HW221543   0.254   4.295  10.863  1.6441 -0.1202  0.9379
 3304SOL     OW21544   4.660   2.826  10.069 -0.0382  0.3134 -0.2455
 3304SOL    HW121545   4.703   2.910  10.088 -1.9106  1.0344  0.8876
 3304SOL    HW221546   4.653   2.796  10.160 -0.4962  1.3006  0.0544
 3305SOL     OW21547   3.675   0.619  10.837 -0.2233 -0.7058 -0.1270
 3305SOL    HW121548   3.740   0.584  10.775  0.3889  1.6955 -0.8507
 3305SOL    HW221549   3.630   0.692  10.794 -2.2953 -1.7795  0.2304
 3306SOL     OW21550   2.131   4.008   9.324  0.4542 -0.6417 -0.1819
 3306SOL    HW121551   2.220   4.015   9.287 -0.1271  1.1185 -1.2619
 3306SOL    HW221552   2.139   4.028   9.417  0.4519  0.4048 -0.4075
 3307SOL     OW21553   1.590   1.180   7.787 -0.3766 -0.3736 -0.0212
 3307SOL    HW121554   1.510   1.128   7.784  0.6131 -2.0020  1.7750
 3307SOL    HW221555   1.633   1.143   7.864 -1.0718  2.0740  1.5376
 3308SOL     OW21556   4.398   4.642   1.131  0.1017 -0.3766  0.0527
 3308SOL    HW121557   4.323   4.640   1.071  1.7075  3.1061 -2.1330
 3308SOL    HW221558   4.426   4.552   1.141 -0.9514 -0.6011  0.9967
 3309SOL     OW21559   0.357   4.615   7.710  0.7939 -0.8426 -0.8191
 3309SOL    HW121560   0.269   4.578   7.719 -0.2016  1.1237 -2.6131
 3309SOL    HW221561   0.399   4.540   7.754 -0.6789 -1.6567 -0.8146
 3310SOL     OW21562   4.042   1.456   5.924  0.1760  1.0080 -0.3468
 3310SOL    HW121563   3.992   1.375   5.940  1.1097  0.8151  1.6486
 3310SOL    HW221564   4.076   1.479   6.010 -1.7447 -1.5566  1.1059
 3311SOL     OW21565   3.910   4.625   2.924 -0.1119 -0.2161  0.3443
 3311SOL    HW121566   3.819   4.606   2.899  0.1728 -0.1104 -0.7930
 3311SOL    HW221567   3.949   4.595   2.842 -0.8229 -0.7307  0.1958
 3312SOL     OW21568   3.222   1.471   1.370  1.1268 -0.1895 -0.1126
 3312SOL    HW121569   3.222   1.550   1.315  0.6400  0.6444  1.0820
 3312SOL    HW221570   3.183   1.503   1.451  1.8569  0.1653  0.0946
 3313SOL     OW21571   3.786   4.284  12.062  0.5756 -0.2328  0.3913
 3313SOL    HW121572   3.780   4.368  12.106 -1.1477  0.4692 -1.1784
 3313SOL    HW221573   3.863   4.301  12.007 -0.3502  0.5773 -0.6527
 3314SOL     OW21574   0.056   2.635   5.941 -0.5218 -0.3392  0.4252
 3314SOL    HW121575   0.013   2.624   5.857 -0.2946 -2.5663  0.6030
 3314SOL    HW221576   0.031   2.562   5.998 -0.1836 -1.3826 -0.7561
 3315SOL     OW21577   0.205   1.297   9.591  0.3548 -0.4217 -0.7628
 3315SOL    HW121578   0.293   1.261   9.605 -0.8956 -3.3551 -0.4753
 3315SOL    HW221579   0.166   1.244   9.521 -0.1909 -2.4753  1.1139
 3316SOL     OW21580   1.578   0.355   6.677  0.4281 -0.2207 -0.1680
 3316SOL    HW121581   1.554   0.437   6.721  1.9681 -0.0362  0.3414
 3316SOL    HW221582   1.626   0.313   6.748 -2.5372 -0.9577  1.4001
 3317SOL     OW21583   0.070   2.440   9.267 -0.2724 -0.1883  0.0183
 3317SOL    HW121584   0.097   2.447   9.358  0.2207 -2.1677  0.0294
 3317SOL    HW221585   0.154   2.456   9.225 -0.4477 -1.4540 -0.8433
 3318SOL     OW21586   2.653   0.979   3.169 -0.0542 -0.2510  0.5025
 3318SOL    HW121587   2.682   1.010   3.255  1.2695  1.4370 -0.5481
 3318SOL    HW221588   2.616   1.061   3.135 -1.5876 -1.7520 -1.3928
 3319SOL     OW21589   3.618   0.601   3.802  0.6089  0.7711 -0.6767
 3319SOL    HW121590   3.571   0.532   3.754  0.7733  0.5681 -0.5426
 3319SOL    HW221591   3.614   0.674   3.740 -1.3461  0.8627 -0.4500
 3320SOL     OW21592   2.856   1.143   4.421  0.1622 -0.0818 -0.3939
 3320SOL    HW121593   2.941   1.149   4.465 -0.0247 -2.3367  0.2379
 3320SOL    HW221594   2.803   1.093   4.483 -0.9098  0.6315 -0.7464
 3321SOL     OW21595   4.606   4.293   3.398  0.0696  0.0058 -0.5487
 3321SOL    HW121596   4.581   4.264   3.310 -2.9259 -2.0729  1.0243
 3321SOL    HW221597   4.652   4.370   3.364  3.5901 -1.2653  1.2776
 3322SOL     OW21598   1.759   0.483   3.275 -0.3074 -0.2479  0.5163
 3322SOL    HW121599   1.744   0.423   3.348 -0.8927 -2.3268 -1.2999
 3322SOL    HW221600   1.692   0.450   3.215  0.0846 -0.0424 -0.0358
 3323SOL     OW21601   0.871   0.551   0.828 -0.3830 -0.0981  0.4792
 3323SOL    HW121602   0.933   0.536   0.756  0.0739  0.0642  0.8306
 3323SOL    HW221603   0.928   0.556   0.906  1.5968  0.6063 -0.9921
 3324SOL     OW21604   0.811   3.924   6.827  0.0139  0.5894 -0.1553
 3324SOL    HW121605   0.900   3.891   6.821 -1.1653 -2.7549  0.6093
 3324SOL    HW221606   0.791   3.902   6.918  1.1000 -1.3704 -0.3952
 3325SOL     OW21607   3.976   3.296  14.885 -0.0342 -0.1175  0.1472
 3325SOL    HW121608   4.023   3.263  14.962 -0.3880  0.8920  0.7927
 3325SOL    HW221609   3.889   3.272  14.919  0.6605 -1.0359  1.2739
 3326SOL     OW21610   0.452   4.206   3.670  0.1110  0.3081 -0.6032
 3326SOL    HW121611   0.483   4.296   3.679  0.6936 -0.0873  1.2420
 3326SOL    HW221612   0.479   4.183   3.759  1.5387  0.4619 -1.0090
 3327SOL     OW21613   4.206   4.622   3.579 -0.4161  0.1642 -0.0169
 3327SOL    HW121614   4.136   4.581   3.630 -0.8304 -0.4223 -1.0650
 3327SOL    HW221615   4.256   4.545   3.554 -0.4421  0.1301  0.0366
 3328SOL     OW21616   1.539   0.899   5.845 -0.2506  0.6099  0.0705
 3328SOL    HW121617   1.538   0.879   5.752 -0.0288  0.0600  0.1890
 3328SOL    HW221618   1.509   0.990   5.836 -0.9331  0.4305  0.5092
 3329SOL     OW21619   2.710   0.954   5.544  0.1902  0.5006  0.2923
 3329SOL    HW121620   2.803   0.952   5.523  0.2011  0.2425  0.3560
 3329SOL    HW221621   2.680   0.891   5.478 -2.7166 -0.4765  2.5461
 3330SOL     OW21622   1.449   2.968   9.405 -0.3205  0.5767 -0.0835
 3330SOL    HW121623   1.522   2.993   9.349 -0.5783 -0.0828 -0.7073
 3330SOL    HW221624   1.428   2.894   9.348 -1.0043  0.6101  0.1189
 3331SOL     OW21625   1.658   3.126   2.509 -0.2485 -0.2351 -0.1467
 3331SOL    HW121626   1.585   3.068   2.530 -1.0264  1.0963  0.8827
 3331SOL    HW221627   1.695   3.143   2.596 -1.4392  0.1492  0.2910
 3332SOL     OW21628   1.128   3.116  11.158 -0.3508 -0.3051  0.1630
 3332SOL    HW121629   1.195   3.048  11.168 -0.3978  0.0552  2.9979
 3332SOL    HW221630   1.180   3.196  11.167  0.1828 -0.6733  0.3498
 3333SOL     OW21631   1.035   0.971   3.703 -0.6874 -0.3439  0.2983
 3333SOL    HW121632   1.025   1.038   3.635  0.8186  0.7500  1.1540
 3333SOL    HW221633   1.014   1.016   3.784  1.2245  1.6394 -0.3143
 3334SOL     OW21634   3.935   0.194   3.719 -0.0409 -0.1845 -0.9328
 3334SOL    HW121635   4.014   0.145   3.741 -1.3468 -1.5580  0.7343
 3334SOL    HW221636   3.923   0.263   3.784 -1.1814 -0.9005 -0.3642
 3335SOL     OW21637   3.609   4.687   2.557 -0.1671 -0.3165 -0.5964
 3335SOL    HW121638   3.637   0.036   2.585  0.2049 -1.0950  1.4465
 3335SOL    HW221639   3.533   4.704   2.502  0.6484 -2.6980 -2.4731
 3336SOL     OW21640   1.462   1.940   1.126  0.0585  0.2494 -0.3630
 3336SOL    HW121641   1.535   1.880   1.119  0.4417  0.8742 -1.7810
 3336SOL    HW221642   1.398   1.906   1.063 -0.9154  1.0759  0.1729
 3337SOL     OW21643   2.973   2.292   3.092 -0.1878  0.0161 -0.1960
 3337SOL    HW121644   2.947   2.349   3.020  0.4149 -0.8864 -1.1397
 3337SOL    HW221645   2.956   2.206   3.053 -0.5242 -0.5432  1.1793
 3338SOL     OW21646   0.820   3.812   7.332 -0.4085 -0.7497  0.1392
 3338SOL    HW121647   0.825   3.896   7.378 -0.5322  0.0561 -1.3176
 3338SOL    HW221648   0.915   3.807   7.319 -0.4344  0.2765 -0.4163
 3339SOL     OW21649   4.411   0.326   6.276 -0.1373 -0.1142  0.0652
 3339SOL    HW121650   4.369   0.407   6.247 -0.2299 -0.3857 -0.5722
 3339SOL    HW221651   4.488   0.370   6.311  0.4263  0.6473 -2.1403
 3340SOL     OW21652   3.592   0.838   3.973  0.1347 -0.0567 -0.4298
 3340SOL    HW121653   3.657   0.846   3.904  1.9696  1.9163  1.5534
 3340SOL    HW221654   3.572   0.744   3.971  0.0581 -0.0396 -0.5118
 3341SOL     OW21655   0.604   2.971  15.862 -0.2311  0.3892  0.4431
 3341SOL    HW121656   0.566   3.043  15.914 -0.5099 -2.0738  3.6640
 3341SOL    HW221657   0.577   2.991  15.773  0.4953 -0.0807  0.1203
 3342SOL     OW21658   3.387   1.647   7.567 -0.3863 -0.1075  0.2562
 3342SOL    HW121659   3.332   1.724   7.556  1.2542  1.2384  1.5869
 3342SOL    HW221660   3.413   1.645   7.475  0.2937  1.5082  0.4184
 3343SOL     OW21661   0.568   1.538   9.140  0.1362 -0.0867 -0.5482
 3343SOL    HW121662   0.594   1.521   9.049 -0.7271 -0.2280 -0.7636
 3343SOL    HW221663   0.655   1.551   9.177 -0.0232  1.1831 -0.6381
 3344SOL     OW21664   0.384   4.143   2.152  0.2983 -0.0743 -0.1619
 3344SOL    HW121665   0.388   4.216   2.091 -0.0209  0.6650  0.7156
 3344SOL    HW221666   0.358   4.186   2.234 -0.5162 -0.4521 -0.2138
 3345SOL     OW21667   3.532   2.271  11.950 -0.3832  0.0481 -0.4108
 3345SOL    HW121668   3.584   2.340  11.908  0.9886 -1.0167 -0.4701
 3345SOL    HW221669   3.442   2.263  11.919 -0.3533 -1.1425 -0.1790
 3346SOL     OW21670   0.848   2.183   3.294 -0.1825 -0.0660 -0.2251
 3346SOL    HW121671   0.838   2.154   3.203 -2.7578  1.4064 -0.3948
 3346SOL    HW221672   0.897   2.265   3.288 -1.2846  0.5311 -1.0790
 3347SOL     OW21673   0.534   4.516   9.215 -0.1407 -0.6198  0.0445
 3347SOL    HW121674   0.601   4.530   9.282  0.9723 -0.1140 -1.1907
 3347SOL    HW221675   0.590   4.469   9.154 -1.3173 -0.5689 -1.0684
 3348SOL     OW21676   3.822   0.594   4.486  0.3441  0.7831 -0.2974
 3348SOL    HW121677   3.858   0.555   4.566 -1.6094  1.9668  1.1275
 3348SOL    HW221678   3.832   0.513   4.436  0.4242  1.2867 -1.0844
 3349SOL     OW21679   2.880   1.322   3.960  0.2191  0.6189 -0.4586
 3349SOL    HW121680   2.968   1.294   3.934 -0.5056 -0.0334 -2.1517
 3349SOL    HW221681   2.892   1.413   3.990  1.2063 -0.0077  1.0877
 3350SOL     OW21682   2.936   2.549   7.101  0.1805 -0.2507 -0.0019
 3350SOL    HW121683   2.930   2.500   7.183  2.1730  1.1810  1.0091
 3350SOL    HW221684   2.941   2.639   7.134  1.7044 -0.0050 -0.9009
 3351SOL     OW21685   1.563   2.875  12.921  0.6498  0.1193  0.0086
 3351SOL    HW121686   1.549   2.960  12.964  0.0456  1.2655 -2.5007
 3351SOL    HW221687   1.481   2.838  12.953  0.1881  1.5420  0.5024
 3352SOL     OW21688   4.395   2.068   1.096  0.3205  0.3938 -0.0633
 3352SOL    HW121689   4.404   1.975   1.119  0.4756  0.0439 -1.5256
 3352SOL    HW221690   4.303   2.069   1.069 -0.1903  0.1633  1.6894
 3353SOL     OW21691   4.127   1.717  10.384 -0.3849  0.1952 -0.2701
 3353SOL    HW121692   4.124   1.681  10.473  0.0860 -1.4982 -0.9496
 3353SOL    HW221693   4.212   1.761  10.379  0.2620 -0.8617  1.4125
 3354SOL     OW21694   4.145   1.194   4.897 -0.1567 -0.1294  0.1830
 3354SOL    HW121695   4.190   1.278   4.894  1.0348 -0.8414 -1.6678
 3354SOL    HW221696   4.054   1.225   4.894  0.4028  1.2067 -2.4743
 3355SOL     OW21697   0.653   4.565   1.271  0.7978  0.3194  0.9506
 3355SOL    HW121698   0.706   4.519   1.336 -2.0247 -0.1399  2.9321
 3355SOL    HW221699   0.689   4.538   1.186  1.4276 -1.4474  1.7864
 3356SOL     OW21700   1.231   1.866  16.386 -0.3227  0.2781 -0.4742
 3356SOL    HW121701   1.189   1.904  16.463  0.1495 -0.6315  0.2297
 3356SOL    HW221702   1.252   1.775  16.406 -1.5578 -0.0627 -0.7147
 3357SOL     OW21703   2.839   0.305   7.673 -1.1285 -0.1850 -0.1638
 3357SOL    HW121704   2.806   0.296   7.583 -0.3248  1.0626 -0.5882
 3357SOL    HW221705   2.770   0.348   7.723 -0.3102  0.7412  0.1717
 3358SOL     OW21706   1.203   3.187   2.357 -0.8325 -0.2615  0.5710
 3358SOL    HW121707   1.107   3.196   2.357 -0.9882 -1.9587 -0.9345
 3358SOL    HW221708   1.208   3.092   2.367  0.1389 -0.2903 -0.2807
 3359SOL     OW21709   4.569   1.243   1.589  0.0744  0.4934  0.0722
 3359SOL    HW121710   4.585   1.248   1.495  0.6546  0.5419  0.1773
 3359SOL    HW221711   4.574   1.148   1.598 -0.3210  0.4107 -0.5658
 3360SOL     OW21712   3.296   4.578   9.810  0.2692  0.5405  0.3983
 3360SOL    HW121713   3.386   4.612   9.807  0.3212  0.2669 -0.9909
 3360SOL    HW221714   3.268   4.620   9.730 -1.7172  2.4272  2.0988
 3361SOL     OW21715   1.623   0.206   9.393 -0.5369  0.1141  0.2628
 3361SOL    HW121716   1.639   0.167   9.307  1.3328 -0.7413  1.0049
 3361SOL    HW221717   1.705   0.244   9.425 -0.4566 -0.0517  0.2530
 3362SOL     OW21718   2.407   2.710  12.317 -0.7339 -0.1065 -0.4393
 3362SOL    HW121719   2.500   2.726  12.333 -0.5871 -0.2465 -1.1529
 3362SOL    HW221720   2.386   2.750  12.401  0.1723  0.9680 -0.7199
 3363SOL     OW21721   2.658   2.884   6.031 -0.6820 -0.2329  0.1936
 3363SOL    HW121722   2.665   2.839   5.947 -1.4933 -2.0012  1.0870
 3363SOL    HW221723   2.627   2.813   6.088 -0.2310  0.0453  0.7871
 3364SOL     OW21724   3.701   2.236   2.814  0.3396 -0.3616 -0.0111
 3364SOL    HW121725   3.784   2.234   2.861  0.8782  2.1842 -0.8395
 3364SOL    HW221726   3.691   2.140   2.813 -4.8341  0.1689 -0.6421
 3365SOL     OW21727   4.044   2.836  10.733 -0.3177  0.6009 -0.1767
 3365SOL    HW121728   4.091   2.905  10.781 -0.3439  2.1927 -2.4140
 3365SOL    HW221729   4.041   2.769  10.802  0.6991  2.0455  1.2862
 3366SOL     OW21730   3.022   0.297   3.784 -0.0978  0.0057 -0.3562
 3366SOL    HW121731   3.106   0.340   3.768  0.2806 -0.1647  1.1744
 3366SOL    HW221732   3.049   0.210   3.753  1.3640  1.1099 -2.2074
 3367SOL     OW21733   0.340   0.191   3.729 -0.2185  0.2033 -0.1274
 3367SOL    HW121734   0.266   0.246   3.704 -1.3681 -1.2158  0.1629
 3367SOL    HW221735   0.319   0.105   3.693 -2.5834  0.3823  0.8511
 3368SOL     OW21736   2.465   4.185  10.605 -0.3573  0.2313  0.0588
 3368SOL    HW121737   2.507   4.129  10.539 -1.6823 -1.4481  0.6388
 3368SOL    HW221738   2.406   4.117  10.637 -0.1174 -0.7501 -1.5651
 3369SOL     OW21739   2.883   4.405   7.667  0.3666 -0.0291  0.2705
 3369SOL    HW121740   2.899   4.398   7.761  0.3604 -0.1160  0.2659
 3369SOL    HW221741   2.960   4.365   7.627 -0.6382 -1.5134 -0.1678
 3370SOL     OW21742   4.340   1.575   6.337  0.0351  0.1325 -0.2002
 3370SOL    HW121743   4.345   1.670   6.327 -0.9687 -0.1022 -2.9840
 3370SOL    HW221744   4.423   1.550   6.377 -0.6764 -0.7820  0.7135
 3371SOL     OW21745   2.227   4.565   3.975  0.3230  0.9562  0.3035
 3371SOL    HW121746   2.271   4.507   4.037 -2.2699 -1.2062  0.0951
 3371SOL    HW221747   2.137   4.534   3.987  0.8441 -0.0530  1.5798
 3372SOL     OW21748   2.388   1.575  13.870  1.0242  0.1047 -0.2329
 3372SOL    HW121749   2.318   1.634  13.843  0.7157  0.7318  1.9329
 3372SOL    HW221750   2.360   1.493  13.828 -0.5216  1.1009 -1.1363
 3373SOL     OW21751   2.442   3.047   8.530  0.1963 -0.1072 -0.0650
 3373SOL    HW121752   2.352   3.058   8.499  0.1908 -2.1484 -0.7269
 3373SOL    HW221753   2.422   2.979   8.594 -1.2063  1.1426  0.8210
 3374SOL     OW21754   2.137   1.075   2.364  0.0868 -0.6067 -0.2276
 3374SOL    HW121755   2.216   1.054   2.414 -0.4148  0.7381  1.1139
 3374SOL    HW221756   2.080   1.016   2.413  0.5723  1.6153  2.9768
 3375SOL     OW21757   4.091   0.235   6.842 -0.2118 -0.1176 -0.4197
 3375SOL    HW121758   4.099   0.291   6.919 -0.6673 -0.1802 -0.3290
 3375SOL    HW221759   4.182   0.206   6.841 -1.1343 -3.0603  0.9177
 3376SOL     OW21760   0.034   1.106   4.516  0.6195 -0.1567 -0.6431
 3376SOL    HW121761   0.129   1.102   4.509  0.5045  0.2363 -2.3778
 3376SOL    HW221762   0.011   1.024   4.560  0.7758 -0.1576 -0.5627
 3377SOL     OW21763   4.214   2.967  13.443  0.7472  0.3522 -1.1089
 3377SOL    HW121764   4.173   2.980  13.529  1.5368  1.2310 -0.8709
 3377SOL    HW221765   4.285   3.029  13.456  1.8880 -0.9816 -1.0490
 3378SOL     OW21766   1.621   0.221   2.868 -0.1116 -0.5515  0.0416
 3378SOL    HW121767   1.624   0.129   2.895 -0.1019 -0.1079  1.5841
 3378SOL    HW221768   1.685   0.231   2.797 -0.2040  1.1884  0.2124
 3379SOL     OW21769   2.849   0.166  15.497  0.2482  0.1635  0.7462
 3379SOL    HW121770   2.875   0.133  15.583  0.6443  1.8227  1.2483
 3379SOL    HW221771   2.936   0.173  15.458  0.3876  0.8241  1.1872
 3380SOL     OW21772   0.461   4.392  15.771  0.0325 -0.3852  0.5465
 3380SOL    HW121773   0.376   4.420  15.737  1.0658  0.3002 -1.4503
 3380SOL    HW221774   0.491   4.453  15.838  0.3028  1.1835 -1.0230
 3381SOL     OW21775   0.996   1.994  15.339 -0.6889  0.6077  0.1222
 3381SOL    HW121776   0.920   1.979  15.282 -0.3590 -0.6828  0.0232
 3381SOL    HW221777   0.988   1.930  15.409  0.1454  0.5927  0.1998
 3382SOL     OW21778   2.720   3.291  14.403 -0.2768  0.4044  0.1230
 3382SOL    HW121779   2.773   3.215  14.377 -0.2544  0.9990 -1.5300
 3382SOL    HW221780   2.643   3.239  14.425  1.7513 -0.8052  4.3627
 3383SOL     OW21781   1.593   2.101   4.759 -0.7413  0.0767  0.0397
 3383SOL    HW121782   1.592   2.176   4.700  0.4241 -1.2495 -1.6636
 3383SOL    HW221783   1.560   2.029   4.705 -2.3751 -0.1769  1.3384
 3384SOL     OW21784   1.590   0.765   3.739  0.2825  0.3503  0.2097
 3384SOL    HW121785   1.543   0.793   3.818  0.5889  0.9163  0.1869
 3384SOL    HW221786   1.531   0.694   3.712 -0.4478  1.1812 -0.4025
 3385SOL     OW21787   0.340   1.854  17.495 -0.1737  0.3227  0.3482
 3385SOL    HW121788   0.315   1.778  17.547 -0.6481  0.3128  0.1084
 3385SOL    HW221789   0.289   1.919  17.544 -1.1136 -0.0877 -0.0825
 3386SOL     OW21790   1.600   1.038   4.895 -0.1688 -0.2533 -0.3533
 3386SOL    HW121791   1.580   1.132   4.895  0.6086 -0.0847 -0.5732
 3386SOL    HW221792   1.689   1.025   4.861  0.7063 -1.7383  2.4485
 3387SOL     OW21793   4.320   1.315   3.618  0.2614 -0.0786 -0.3353
 3387SOL    HW121794   4.329   1.238   3.562  0.4830 -1.6954  1.9177
 3387SOL    HW221795   4.407   1.325   3.655 -0.8273 -1.1681  2.5544
 3388SOL     OW21796   3.764   2.059  15.220 -0.0549 -0.2123  0.5692
 3388SOL    HW121797   3.765   2.009  15.302 -2.6140 -3.3106 -1.3135
 3388SOL    HW221798   3.736   1.987  15.164 -2.4148  2.0200 -1.0983
 3389SOL     OW21799   0.930   3.650   7.721 -0.2831  0.4105  0.0830
 3389SOL    HW121800   0.985   3.712   7.672  1.4154  0.0830  1.5883
 3389SOL    HW221801   0.863   3.636   7.654 -0.7907 -0.6230  0.8126
 3390SOL     OW21802   0.687   3.467   6.860 -0.6505  0.5052 -0.2824
 3390SOL    HW121803   0.747   3.511   6.921 -1.4512  1.7454 -0.3841
 3390SOL    HW221804   0.647   3.544   6.821 -1.0020 -0.1749 -1.2604
 3391SOL     OW21805   2.611   0.901  15.416 -0.1388  0.0635 -1.0844
 3391SOL    HW121806   2.579   0.919  15.327 -0.9946 -1.6548 -1.1178
 3391SOL    HW221807   2.541   0.943  15.465 -0.9018 -0.6741 -1.5546
 3392SOL     OW21808   2.126   0.953   7.351  0.2879  0.3104 -0.1062
 3392SOL    HW121809   2.031   0.959   7.359  0.1743 -1.0119 -0.5312
 3392SOL    HW221810   2.139   0.859   7.367 -1.1698 -0.5809 -4.2139
 3393SOL     OW21811   4.112   2.367   9.257  0.2983 -0.3309 -0.1049
 3393SOL    HW121812   4.159   2.438   9.213  1.2557 -1.0553 -0.2513
 3393SOL    HW221813   4.177   2.344   9.323  0.9258  0.2135 -0.5325
 3394SOL     OW21814   4.630   2.044  10.153 -0.1880  0.5275  0.3013
 3394SOL    HW121815   4.592   1.993  10.082 -1.1004 -0.4473  1.4812
 3394SOL    HW221816   4.589   2.129  10.141 -0.1565  0.3354 -1.0928
 3395SOL     OW21817   3.153   0.045   7.086 -0.2703 -0.2459 -0.2805
 3395SOL    HW121818   3.186   0.076   7.171 -3.7041  1.4972  0.3903
 3395SOL    HW221819   3.239   0.011   7.061 -0.3258 -1.2653  0.9307
 3396SOL     OW21820   3.002   3.071   8.570  0.3125  0.2342  0.1464
 3396SOL    HW121821   2.947   2.994   8.552 -2.3137  2.0403  0.4600
 3396SOL    HW221822   3.063   3.069   8.496 -1.4696 -0.2714 -1.3048
 3397SOL     OW21823   2.212   1.433   4.045 -0.6457  0.3539 -0.4841
 3397SOL    HW121824   2.279   1.412   3.981 -1.2680  0.2741 -1.1162
 3397SOL    HW221825   2.151   1.467   3.979 -0.7152  3.5949  1.2900
 3398SOL     OW21826   4.288   1.419   4.374 -0.0583 -0.0901 -0.6571
 3398SOL    HW121827   4.301   1.380   4.461  2.4782 -0.7974 -1.3495
 3398SOL    HW221828   4.377   1.427   4.339 -0.3949  2.7554 -0.8670
 3399SOL     OW21829   4.189   2.625   1.516  0.0867  0.2381  0.2524
 3399SOL    HW121830   4.135   2.675   1.577  0.1981  1.5499 -0.7033
 3399SOL    HW221831   4.220   2.552   1.569  1.6562  2.7347  2.7421
 3400SOL     OW21832   0.856   3.387   8.400  0.4135 -0.3774 -0.2775
 3400SOL    HW121833   0.814   3.412   8.318 -0.3918 -0.5352  0.0842
 3400SOL    HW221834   0.848   3.291   8.399 -0.9911 -0.2644  0.2575
 3401SOL     OW21835   1.469   4.289   2.238  0.2383 -0.3178 -0.9420
 3401SOL    HW121836   1.400   4.275   2.303  0.5581 -2.4948 -1.0771
 3401SOL    HW221837   1.463   4.383   2.218  0.4741  0.0095  0.5077
 3402SOL     OW21838   2.635   2.822  10.370  0.3087  0.2104  0.6433
 3402SOL    HW121839   2.651   2.753  10.435  0.4585 -0.1376  0.2381
 3402SOL    HW221840   2.681   2.898  10.405 -1.1383  1.5799 -0.4404
 3403SOL     OW21841   0.606   2.598   7.649  0.3237  0.0189 -0.1829
 3403SOL    HW121842   0.531   2.539   7.653 -1.7129  2.5853 -0.3761
 3403SOL    HW221843   0.621   2.603   7.743  3.0966  0.2665 -0.6201
 3404SOL     OW21844   2.386   0.400   5.411 -0.4821 -0.3457  0.0258
 3404SOL    HW121845   2.422   0.475   5.364  2.4792  0.0544  2.9712
 3404SOL    HW221846   2.319   0.437   5.468  0.0578  3.2185 -1.7079
 3405SOL     OW21847   0.834   1.156   6.237 -0.6407 -0.3571 -0.1462
 3405SOL    HW121848   0.910   1.123   6.189  0.4786 -0.7924  1.9120
 3405SOL    HW221849   0.877   1.169   6.322  2.1555 -0.5833 -1.5171
 3406SOL     OW21850   4.312   1.549   3.431  0.0202 -0.0177 -0.0388
 3406SOL    HW121851   4.315   1.470   3.486  1.0946 -1.6042 -2.3801
 3406SOL    HW221852   4.311   1.617   3.499  0.3183  0.7815 -0.8410
 3407SOL     OW21853   3.066   2.949   2.828 -0.4029 -0.0352 -0.4779
 3407SOL    HW121854   3.092   2.897   2.751  1.1342 -1.3006  0.9002
 3407SOL    HW221855   2.986   2.905   2.855 -0.3097  0.9328  1.3860
 3408SOL     OW21856   0.310   4.194   9.609 -0.0981  0.0767  0.1012
 3408SOL    HW121857   0.356   4.255   9.667  1.8578 -0.1450 -1.2347
 3408SOL    HW221858   0.344   4.111   9.642  1.6621 -0.9501 -4.2858
 3409SOL     OW21859   0.107   3.843   3.076  0.0745 -0.1033 -0.0744
 3409SOL    HW121860   0.193   3.836   3.118  0.9891  1.1858 -1.7724
 3409SOL    HW221861   0.066   3.759   3.098  1.5780 -0.2889  2.0850
 3410SOL     OW21862   4.390   4.662   3.807 -0.3953  0.2888  0.3818
 3410SOL    HW121863   4.350   4.702   3.884 -0.7048 -0.1262  0.4344
 3410SOL    HW221864   4.317   4.670   3.745  0.0089 -0.2538 -0.1639
 3411SOL     OW21865   4.209   2.692   6.605 -0.5701  0.2218  0.2721
 3411SOL    HW121866   4.194   2.748   6.529  1.1033  0.5124  0.1617
 3411SOL    HW221867   4.123   2.676   6.645 -0.8629  1.2789  0.0660
 3412SOL     OW21868   1.988   2.241  10.272  0.4265  0.8307  0.2007
 3412SOL    HW121869   2.000   2.153  10.310 -0.4281 -0.4997 -2.6485
 3412SOL    HW221870   2.075   2.275  10.295  0.1863  0.8277  1.1346
 3413SOL     OW21871   2.667   1.096  14.883 -0.2435 -0.1790  0.2190
 3413SOL    HW121872   2.686   1.189  14.897  3.2573 -1.0223  1.0223
 3413SOL    HW221873   2.756   1.063  14.873 -0.5010 -0.5860 -0.7666
 3414SOL     OW21874   3.444   2.634   5.691 -0.0472  0.0736 -0.1548
 3414SOL    HW121875   3.440   2.585   5.609 -0.2660 -0.7472  0.3421
 3414SOL    HW221876   3.429   2.721   5.655  1.4742 -0.3650 -1.8318
 3415SOL     OW21877   1.325   2.980   7.538 -0.6196  0.4638  0.7677
 3415SOL    HW121878   1.264   3.010   7.471  1.7858 -1.3645 -2.1819
 3415SOL    HW221879   1.404   3.031   7.525 -1.1665  0.6555 -1.7238
 3416SOL     OW21880   2.961   2.632   0.152 -0.1189 -0.1955  0.2123
 3416SOL    HW121881   2.912   2.620   0.234  1.7498  0.5701  1.4319
 3416SOL    HW221882   2.994   2.722   0.157  0.4145 -0.4025  0.4664
 3417SOL     OW21883   2.069   3.357   5.225  0.2497 -0.6395 -0.3593
 3417SOL    HW121884   1.989   3.369   5.173 -0.4855  1.7488  1.3081
 3417SOL    HW221885   2.053   3.290   5.292 -2.0853 -1.1584 -1.4429
 3418SOL     OW21886   4.063   3.745   4.378 -0.4404 -0.5555  0.1457
 3418SOL    HW121887   4.022   3.674   4.329 -3.0301 -1.2806  3.4076
 3418SOL    HW221888   4.050   3.815   4.314  0.9502 -1.0547 -0.6828
 3419SOL     OW21889   3.579   2.886   5.040  0.4476  0.4955 -0.7291
 3419SOL    HW121890   3.614   2.954   4.982  0.1654  0.0991 -1.3700
 3419SOL    HW221891   3.509   2.923   5.094 -0.4677 -1.3599 -0.6567
 3420SOL     OW21892   2.799   0.527   4.378  0.2862  0.1251 -0.6815
 3420SOL    HW121893   2.764   0.526   4.289  2.1397 -0.1984 -1.4097
 3420SOL    HW221894   2.786   0.619   4.401  0.6586 -0.2978  1.2473
 3421SOL     OW21895   0.907   0.618   4.547 -0.5965 -0.5997  0.2523
 3421SOL    HW121896   0.876   0.598   4.458  0.6811  0.0789 -0.3378
 3421SOL    HW221897   0.846   0.687   4.572 -0.1439 -0.1096 -0.0156
 3422SOL     OW21898   0.665   1.873   9.291 -0.2944  0.0483  0.1070
 3422SOL    HW121899   0.690   1.919   9.211 -0.8479 -0.4359 -0.3411
 3422SOL    HW221900   0.664   1.938   9.361 -1.0900 -0.1426  0.2780
 3423SOL     OW21901   3.113   2.151   6.207 -0.3430 -0.4852 -0.1485
 3423SOL    HW121902   3.110   2.153   6.111  2.6704 -2.0171 -0.2530
 3423SOL    HW221903   3.160   2.231   6.229  1.5534 -1.8246  0.6825
 3424SOL     OW21904   0.883   0.051   8.245 -0.2775  0.6659 -0.0252
 3424SOL    HW121905   0.796   0.011   8.243  0.1906 -0.4038  0.9684
 3424SOL    HW221906   0.902   0.039   8.338 -0.3783 -1.1950 -0.2480
 3425SOL     OW21907   0.815   1.963   1.964  0.0765 -0.1052 -0.0010
 3425SOL    HW121908   0.903   1.999   1.981 -1.1795  3.0807 -0.1949
 3425SOL    HW221909   0.806   1.983   1.871  0.1078 -0.7199 -0.1327
 3426SOL     OW21910   2.541   3.137   7.128  0.4894 -0.1420  0.8451
 3426SOL    HW121911   2.448   3.137   7.106  0.7260 -0.9956 -0.1535
 3426SOL    HW221912   2.559   3.042   7.131 -2.3483 -0.7628 -2.8870
 3427SOL     OW21913   0.147   3.249   9.059  0.4121 -0.0078  0.1883
 3427SOL    HW121914   0.148   3.328   9.112 -0.0160  0.1968 -0.1073
 3427SOL    HW221915   0.208   3.197   9.112 -1.5763 -0.3427  2.1857
 3428SOL     OW21916   2.147   2.552  11.001 -0.1803 -0.4697  0.1786
 3428SOL    HW121917   2.105   2.618  11.055 -1.5480  1.9759 -3.8798
 3428SOL    HW221918   2.131   2.590  10.915  0.3469 -0.2786  0.1637
 3429SOL     OW21919   4.505   2.325   4.042  0.4696 -0.1200  0.2422
 3429SOL    HW121920   4.506   2.417   4.071  0.7624  0.4682 -1.6641
 3429SOL    HW221921   4.595   2.339   4.013  0.1097  1.5135 -0.1254
 3430SOL     OW21922   0.395   0.293  16.633  0.2769  0.7108 -0.3372
 3430SOL    HW121923   0.432   0.214  16.595  0.2346 -0.4487  2.0904
 3430SOL    HW221924   0.434   0.298  16.720  1.0413  0.8946 -0.6922
 3431SOL     OW21925   2.956   3.525  12.142 -0.0625 -0.1508 -0.0284
 3431SOL    HW121926   2.990   3.534  12.053  0.0358 -3.2352 -0.3214
 3431SOL    HW221927   2.867   3.497  12.120  0.6214 -1.5268 -1.0213
 3432SOL     OW21928   1.204   1.657  16.554 -0.2872  0.2427 -0.1040
 3432SOL    HW121929   1.253   1.716  16.611 -2.0888  1.1282  0.5326
 3432SOL    HW221930   1.116   1.655  16.592 -0.8030  0.8160 -1.2820
 3433SOL     OW21931   1.957   1.747   8.553  0.2822 -0.1624 -0.0479
 3433SOL    HW121932   1.928   1.770   8.465 -1.2820 -0.9426  0.2668
 3433SOL    HW221933   1.993   1.833   8.570 -0.7793  0.5382 -1.3410
 3434SOL     OW21934   3.182   3.022   9.091 -0.4188  0.4301 -0.0711
 3434SOL    HW121935   3.184   3.046   8.998  1.5235 -1.8254 -0.6096
 3434SOL    HW221936   3.097   2.978   9.091  0.6458 -1.6460  0.7998
 3435SOL     OW21937   0.929   0.325   3.954 -0.0231 -0.1826 -0.8673
 3435SOL    HW121938   0.996   0.261   3.930 -2.0730 -1.9538 -1.7872
 3435SOL    HW221939   0.969   0.367   4.030 -1.2539 -2.4890  1.0621
 3436SOL     OW21940   4.007   0.551  12.603 -0.0377  0.1681 -0.1477
 3436SOL    HW121941   4.006   0.489  12.676  1.6262 -0.0975 -0.3463
 3436SOL    HW221942   3.936   0.515  12.549  0.1204  2.9994 -2.2091
 3437SOL     OW21943   1.311   2.297   8.216  0.3117  0.2014 -0.2999
 3437SOL    HW121944   1.344   2.379   8.253  1.8244 -0.3552 -0.4147
 3437SOL    HW221945   1.388   2.260   8.171  0.6890  1.2762 -0.5590
 3438SOL     OW21946   3.991   0.111  11.715 -0.0049 -0.3150 -0.8448
 3438SOL    HW121947   4.026   0.200  11.704 -1.2128  0.3387  0.7161
 3438SOL    HW221948   4.023   0.072  11.796  0.1720 -0.6247 -1.0615
 3439SOL     OW21949   4.168   4.363   9.762 -0.7231 -0.4983 -0.2288
 3439SOL    HW121950   4.107   4.307   9.811  1.1553 -0.1409  2.5132
 3439SOL    HW221951   4.228   4.398   9.828 -0.6575  0.7685 -0.9589
 3440SOL     OW21952   2.195   0.126   2.926  0.4482  0.0361 -0.1443
 3440SOL    HW121953   2.210   0.215   2.894 -0.1466  1.2939  3.1155
 3440SOL    HW221954   2.120   0.122   2.985  0.9567  1.8343  0.6274
 3441SOL     OW21955   0.305   3.361   8.487  0.1984  0.3753 -0.0165
 3441SOL    HW121956   0.236   3.428   8.480  1.0320  0.9301 -2.9845
 3441SOL    HW221957   0.362   3.391   8.416  0.3291  3.4873  1.3760
 3442SOL     OW21958   2.708   3.670   6.978  0.9023 -0.2839 -0.0395
 3442SOL    HW121959   2.663   3.586   6.980  0.7893 -0.1953  0.8721
 3442SOL    HW221960   2.657   3.713   7.047 -1.3702 -1.1589 -1.1911
 3443SOL     OW21961   4.534   0.018   2.785  0.3159 -0.2871  0.1376
 3443SOL    HW121962   4.586   0.026   2.705 -0.8238  1.8479 -0.4156
 3443SOL    HW221963   4.445   0.013   2.750  0.1797  1.6987  0.1486
 3444SOL     OW21964   1.289   1.007   6.840 -0.4945  0.2168 -0.0203
 3444SOL    HW121965   1.356   1.044   6.898 -2.3437  0.1705  2.1618
 3444SOL    HW221966   1.213   1.064   6.852  0.5120  1.2819  1.2487
 3445SOL     OW21967   3.830   3.477   4.463  0.1936  0.2036 -0.4565
 3445SOL    HW121968   3.764   3.418   4.427  0.7292 -1.9133  2.0681
 3445SOL    HW221969   3.886   3.497   4.388 -1.2761 -0.2752 -1.6840
 3446SOL     OW21970   0.007   0.685   3.543 -0.2565 -0.3865 -0.5869
 3446SOL    HW121971   0.035   0.602   3.580  0.8360  1.0915  1.8535
 3446SOL    HW221972   0.090   0.730   3.529 -1.1845  1.4830 -0.0989
 3447SOL     OW21973   2.736   2.247   2.781  0.6108 -0.5300  0.5148
 3447SOL    HW121974   2.645   2.246   2.753  0.5801  1.0962  0.5365
 3447SOL    HW221975   2.749   2.160   2.819  0.1069 -0.7178  0.2646
 3448SOL     OW21976   4.114   2.177   0.834 -0.3119 -0.1101  0.0060
 3448SOL    HW121977   4.207   2.154   0.835 -0.3292 -0.1225  1.4307
 3448SOL    HW221978   4.096   2.126   0.913  1.8692 -0.2664  0.4010
 3449SOL     OW21979   0.018   2.159  10.714 -0.3351  0.3381  0.1226
 3449SOL    HW121980   0.085   2.223  10.688 -0.1165 -0.0708 -0.3171
 3449SOL    HW221981   4.711   2.130  10.635  0.4254  0.5329 -0.3771
 3450SOL     OW21982   4.736   4.223  12.896  0.2136 -0.2736 -0.2074
 3450SOL    HW121983   4.728   4.263  12.810  0.1465 -0.7274 -0.4108
 3450SOL    HW221984   0.090   4.198  12.896  0.6795  1.4260 -1.2508
 3451SOL     OW21985   2.307   1.543   2.056  0.0047 -0.2583 -0.5019
 3451SOL    HW121986   2.321   1.605   2.128 -0.0341 -1.2868  0.3940
 3451SOL    HW221987   2.241   1.587   2.003  0.2755 -0.7243 -1.2234
 3452SOL     OW21988   0.807   2.375   4.982  0.2218  0.0255  0.1413
 3452SOL    HW121989   0.799   2.350   4.890 -1.6635  0.4166  0.1941
 3452SOL    HW221990   0.715   2.397   4.997 -0.2996 -0.7967 -1.8400
 3453SOL     OW21991   0.595   3.376   7.673 -0.4429 -0.6295 -0.1672
 3453SOL    HW121992   0.586   3.457   7.722 -1.9598 -0.3840 -0.8341
 3453SOL    HW221993   0.624   3.310   7.737  2.8896  2.7465  1.7769
 3454SOL     OW21994   3.678   0.675   7.083 -0.4935  0.6615 -0.0273
 3454SOL    HW121995   3.737   0.600   7.080  1.3760  2.1152  0.1794
 3454SOL    HW221996   3.751   0.735   7.068 -1.7627  1.2748 -3.8701
 3455SOL     OW21997   0.755   3.012  11.510  0.3678  0.2546 -0.5150
 3455SOL    HW121998   0.750   3.094  11.560 -1.3396  0.3682 -0.8579
 3455SOL    HW221999   0.827   3.027  11.449  1.3825 -1.5676  0.2491
 3456SOL     OW22000   0.010   3.053   9.888 -0.1103 -0.2482  0.0419
 3456SOL    HW122001   0.016   2.992   9.814  1.1362  0.6607 -0.5939
 3456SOL    HW222002   0.089   3.056   9.942 -0.1527 -1.2254  0.1637
 3457SOL     OW22003   0.459   1.912  10.197  0.3061 -0.4718  0.2671
 3457SOL    HW122004   0.554   1.901  10.192  0.6704  2.4299  1.2344
 3457SOL    HW222005   0.426   1.823  10.183  1.1194 -0.5738 -1.0152
 3458SOL     OW22006   3.622   2.506   4.470 -0.1932  0.0934 -0.1252
 3458SOL    HW122007   3.661   2.429   4.511 -0.1821  0.7458  1.0815
 3458SOL    HW222008   3.678   2.573   4.510 -1.1653  1.9586 -1.8813
 3459SOL     OW22009   0.010   3.416   5.369 -0.2942 -0.8333  0.0141
 3459SOL    HW122010   4.724   3.373   5.287 -3.0229  0.7689  0.0070
 3459SOL    HW222011   0.105   3.405   5.367 -0.5036 -2.5257 -0.3330
 3460SOL     OW22012   1.015   2.919   3.824  0.5601 -0.1598  0.4164
 3460SOL    HW122013   1.010   2.957   3.912  3.8192 -1.3707  1.1575
 3460SOL    HW222014   1.104   2.942   3.795  0.9325 -0.3339  1.3994
 3461SOL     OW22015   3.603   3.586  11.254 -0.1459  0.0197  0.4025
 3461SOL    HW122016   3.544   3.528  11.304 -0.8085 -0.0803 -0.4901
 3461SOL    HW222017   3.566   3.575  11.167 -1.2180 -0.9567  0.9673
 3462SOL     OW22018   3.154   0.068   8.340  0.8580  0.3422  0.2442
 3462SOL    HW122019   3.061   0.057   8.320  1.5110  0.9896 -3.0671
 3462SOL    HW222020   3.157   0.045   8.433  0.7182 -0.7669 -0.0202
 3463SOL     OW22021   3.601   0.355   4.223  0.1946 -0.2016 -0.5291
 3463SOL    HW122022   3.685   0.342   4.267 -0.0864  1.3192  0.4342
 3463SOL    HW222023   3.597   0.450   4.212  1.2215 -0.1602 -0.6167
 3464SOL     OW22024   1.687   2.046   2.026  0.3050  0.4553  0.0436
 3464SOL    HW122025   1.663   2.129   2.069  0.2744  0.1905  0.5366
 3464SOL    HW222026   1.765   2.074   1.980  0.6081 -0.9485 -0.2844
 3465SOL     OW22027   2.466   4.652   5.380  0.7070  0.4112 -0.0424
 3465SOL    HW122028   2.373   4.650   5.359  0.0206  0.1122  3.0251
 3465SOL    HW222029   2.490   0.005   5.397  0.1089  0.7878 -1.2301
 3466SOL     OW22030   1.053   1.320  16.045 -0.1087  0.3207  0.7780
 3466SOL    HW122031   1.006   1.264  16.106  1.1982 -1.7314 -0.0920
 3466SOL    HW222032   0.983   1.350  15.987 -1.1958  0.1807  2.0306
 3467SOL     OW22033   3.384   3.652   8.467  0.2380 -0.2888  0.5423
 3467SOL    HW122034   3.295   3.687   8.455  0.4923  0.4945  0.9275
 3467SOL    HW222035   3.395   3.662   8.562 -0.8876  0.9565  0.5550
 3468SOL     OW22036   4.493   0.418  14.381  0.5705  0.5221  0.1560
 3468SOL    HW122037   4.533   0.472  14.449 -0.7818  1.0011  0.5787
 3468SOL    HW222038   4.510   0.468  14.301 -0.9533  1.3330  0.3264
 3469SOL     OW22039   3.355   2.338   8.364  0.1074  0.5517 -0.2249
 3469SOL    HW122040   3.307   2.395   8.304  0.2435  1.2039  0.2800
 3469SOL    HW222041   3.433   2.393   8.369  0.2532  0.3636 -0.4739
 3470SOL     OW22042   4.226   4.655  15.022 -0.0208  0.2860  0.0205
 3470SOL    HW122043   4.179   4.713  14.963 -0.8009  0.3733  0.7162
 3470SOL    HW222044   4.274   4.603  14.958 -0.4459  1.3785 -1.1640
 3471SOL     OW22045   2.695   2.331   5.047 -0.0048 -0.2495  0.3843
 3471SOL    HW122046   2.676   2.408   5.101 -0.4224  0.7312 -1.1663
 3471SOL    HW222047   2.637   2.348   4.973  0.9179  0.8032 -0.0972
 3472SOL     OW22048   0.434   2.886   4.922  0.7561  0.3654  0.5839
 3472SOL    HW122049   0.523   2.905   4.892 -0.2879 -0.0113 -2.7442
 3472SOL    HW222050   0.401   2.976   4.926  2.7202  1.0708  0.8763
 3473SOL     OW22051   4.063   3.873  16.051 -0.0733 -0.4675 -0.1808
 3473SOL    HW122052   4.023   3.844  16.133  1.5634  1.6483  1.3638
 3473SOL    HW222053   4.021   3.815  15.988  0.6154 -1.4806  0.3080
 3474SOL     OW22054   1.669   4.374   4.725 -0.1833 -0.3925  0.1096
 3474SOL    HW122055   1.582   4.392   4.760 -0.3657 -1.6749  0.3167
 3474SOL    HW222056   1.712   4.337   4.803 -0.9395 -0.8680  0.2953
 3475SOL     OW22057   3.582   3.093  10.119  0.0226  0.3451 -0.2962
 3475SOL    HW122058   3.654   3.131  10.068 -0.2487  1.4020  0.1193
 3475SOL    HW222059   3.634   3.068  10.196 -2.1394  1.0625  1.3893
 3476SOL     OW22060   4.344   4.095   2.489  0.5391  0.5122  0.0045
 3476SOL    HW122061   4.253   4.127   2.493  1.1012  2.0056  0.7992
 3476SOL    HW222062   4.351   4.049   2.572 -1.5124 -1.8431 -1.1108
 3477SOL     OW22063   4.724   3.350  16.328 -0.2644  0.1568  0.2079
 3477SOL    HW122064   4.709   3.443  16.313 -3.2340 -0.0133  2.0678
 3477SOL    HW222065   4.692   3.339  16.418 -1.7294 -2.7456 -0.6732
 3478SOL     OW22066   2.970   0.930   7.667  0.1356  0.2308 -0.2189
 3478SOL    HW122067   2.948   0.849   7.620  0.9247 -0.7245  1.0491
 3478SOL    HW222068   2.996   0.979   7.589 -1.2072  0.6114 -0.4243
 3479SOL     OW22069   3.716   4.383   9.744  0.2124 -0.2897 -0.0728
 3479SOL    HW122070   3.640   4.404   9.689 -0.3886 -3.1344 -0.3503
 3479SOL    HW222071   3.683   4.325   9.813 -2.0919  0.7629 -0.2895
 3480SOL     OW22072   4.601   3.857   3.484 -0.1946 -0.1626 -0.0040
 3480SOL    HW122073   4.568   3.936   3.528 -0.9206 -0.6119  0.2616
 3480SOL    HW222074   4.681   3.901   3.456 -2.6128  2.8559 -2.3671
 3481SOL     OW22075   3.159   4.048   4.987  0.1795  0.2239  0.1039
 3481SOL    HW122076   3.066   4.028   4.995  1.0804 -4.0395  0.1570
 3481SOL    HW222077   3.148   4.143   4.979 -0.3116  0.1165 -0.5352
 3482SOL     OW22078   3.058   1.590  16.931  0.5025  0.4431  0.1461
 3482SOL    HW122079   3.009   1.517  16.971 -0.3029  1.9090  1.8315
 3482SOL    HW222080   3.092   1.559  16.847  0.0286 -2.9407  1.1713
 3483SOL     OW22081   2.893   4.588   5.060 -0.5677 -0.2970 -0.5095
 3483SOL    HW122082   2.856   4.524   5.000 -0.0370 -2.5314  1.5281
 3483SOL    HW222083   2.815   4.608   5.112 -1.0131  1.9146 -2.0216
 3484SOL     OW22084   0.459   2.089  14.397 -0.1606  0.1953 -0.2500
 3484SOL    HW122085   0.494   2.059  14.313  0.8964  1.2552 -0.1800
 3484SOL    HW222086   0.513   2.166  14.414 -1.4883  0.5050  2.6132
 3485SOL     OW22087   4.122   1.336  16.962  0.2303  0.2726  0.6012
 3485SOL    HW122088   4.051   1.303  17.017  1.0721 -1.4852  0.6143
 3485SOL    HW222089   4.191   1.327  17.027  0.2608  3.9153  1.0805
 3486SOL     OW22090   3.496   2.245  16.503 -0.0381  0.4337 -0.6980
 3486SOL    HW122091   3.518   2.251  16.410  0.2752 -2.8243 -0.8232
 3486SOL    HW222092   3.477   2.337  16.520 -0.0144  0.8613 -2.9556
 3487SOL     OW22093   4.557   2.553   4.199  0.0860 -0.0189 -0.5439
 3487SOL    HW122094   4.642   2.570   4.239  0.9712 -2.1142 -1.5687
 3487SOL    HW222095   4.499   2.590   4.265 -0.3166 -1.5509 -0.0399
 3488SOL     OW22096   2.533   0.831   7.073  0.1235 -0.5093 -0.2313
 3488SOL    HW122097   2.459   0.782   7.110 -1.6085  0.3156 -2.5754
 3488SOL    HW222098   2.590   0.838   7.149 -1.9363  1.0650  1.1648
 3489SOL     OW22099   4.522   3.437   3.379 -0.1542 -0.7980  0.3395
 3489SOL    HW122100   4.566   3.352   3.377  2.8748  0.8003 -1.4848
 3489SOL    HW222101   4.452   3.421   3.317 -1.5179  0.7636  1.4605
 3490SOL     OW22102   2.046   3.325   8.466 -0.0727  0.5991 -0.0372
 3490SOL    HW122103   2.127   3.374   8.480  0.4871  0.2658 -2.0850
 3490SOL    HW222104   2.083   3.238   8.447  2.2729  0.8058  3.5130
 3491SOL     OW22105   2.004   2.469   0.190 -0.2909 -0.2174 -0.0508
 3491SOL    HW122106   2.010   2.556   0.150 -0.8414  0.3073  0.9875
 3491SOL    HW222107   1.985   2.498   0.280 -2.7639  0.0168 -0.6615
 3492SOL     OW22108   4.448   4.282  12.025 -0.2238  0.1198  0.1484
 3492SOL    HW122109   4.428   4.273  11.932 -2.1809 -0.5911  0.6538
 3492SOL    HW222110   4.511   4.211  12.038  0.7682  1.3216  1.9958
 3493SOL     OW22111   2.891   4.601   5.855  0.4877 -0.7096 -0.2919
 3493SOL    HW122112   2.885   4.519   5.904 -3.0402  0.0540  0.4829
 3493SOL    HW222113   2.907   4.663   5.926 -1.2167 -1.5083  0.7676
 3494SOL     OW22114   0.544   4.275   8.015  0.0782  0.1122  0.6388
 3494SOL    HW122115   0.475   4.289   8.080  0.3957  1.3039  0.7164
 3494SOL    HW222116   0.570   4.187   8.043 -0.5376 -0.1945  0.2436
 3495SOL     OW22117   2.759   1.499   6.779 -0.1726  0.3498  0.1415
 3495SOL    HW122118   2.779   1.587   6.808  1.8808  1.2017 -3.9264
 3495SOL    HW222119   2.816   1.441   6.828 -1.7913 -1.9522 -0.6596
 3496SOL     OW22120   2.766   0.536  17.699  1.0960  0.0756 -0.2405
 3496SOL    HW122121   2.845   0.534   0.002  0.4179  1.2055  0.7924
 3496SOL    HW222122   2.809   0.505  17.619 -1.7570  0.3601 -1.9283
 3497SOL     OW22123   4.249   2.414   3.968  0.3315  0.2585  0.5249
 3497SOL    HW122124   4.319   2.359   4.004 -2.0702 -1.4508  2.6083
 3497SOL    HW222125   4.259   2.396   3.875 -0.3216  2.0628  0.1056
 3498SOL     OW22126   0.681   0.310   5.885  0.6095 -0.1588 -0.6606
 3498SOL    HW122127   0.642   0.229   5.851 -3.5371 -0.0313  3.8820
 3498SOL    HW222128   0.677   0.361   5.804 -0.3248  0.2189 -0.3764
 3499SOL     OW22129   1.018   0.661   6.760  0.8597  0.4659 -0.0856
 3499SOL    HW122130   1.020   0.569   6.734 -1.6233  0.8475 -1.5853
 3499SOL    HW222131   1.107   0.687   6.735  1.1493 -1.2258 -0.8216
 3500SOL     OW22132   1.552   3.170   3.880  0.3368 -0.0684  0.2633
 3500SOL    HW122133   1.530   3.249   3.930  0.8492 -0.1063  0.5427
 3500SOL    HW222134   1.463   3.137   3.866 -0.2732  1.0220  1.5776
 3501SOL     OW22135   2.101   4.501   8.415 -0.0915 -0.2306 -0.0645
 3501SOL    HW122136   2.176   4.550   8.381  0.9218 -0.7982  1.3250
 3501SOL    HW222137   2.137   4.498   8.504 -1.3262  0.4958  0.4676
 3502SOL     OW22138   0.603   3.610   6.446 -0.2060 -0.2853 -0.1048
 3502SOL    HW122139   0.674   3.603   6.382 -1.0230  1.3949 -1.1790
 3502SOL    HW222140   0.524   3.633   6.398  1.3767  0.2030 -2.4766
 3503SOL     OW22141   2.358   0.421   7.777  0.2691  0.3260 -0.2455
 3503SOL    HW122142   2.317   0.501   7.812 -0.7326  0.9832 -2.9763
 3503SOL    HW222143   2.301   0.358   7.821  0.7830  1.0276  1.4524
 3504SOL     OW22144   3.140   3.645   4.434  0.1505 -0.3555  0.0118
 3504SOL    HW122145   3.140   3.604   4.521 -1.3128  0.5171  0.4122
 3504SOL    HW222146   3.189   3.725   4.450 -2.7250  1.6556 -1.4027
 3505SOL     OW22147   4.017   1.326   8.215 -0.1622  0.5796  0.1245
 3505SOL    HW122148   4.108   1.320   8.242 -0.8167  0.2667  2.2130
 3505SOL    HW222149   4.019   1.361   8.126  3.1592  0.5485  0.1699
 3506SOL     OW22150   4.137   2.396   4.695  0.0567 -0.2027  0.2763
 3506SOL    HW122151   4.124   2.447   4.614 -0.7965  2.7714  2.2542
 3506SOL    HW222152   4.064   2.415   4.755  1.0523  0.0671  1.3974
 3507SOL     OW22153   1.482   2.824   4.890  0.3397  0.4993  0.3432
 3507SOL    HW122154   1.439   2.815   4.975 -0.2769  1.9454  0.1850
 3507SOL    HW222155   1.558   2.766   4.892 -0.0907  0.0253  2.1357
 3508SOL     OW22156   2.358   3.385   6.007  0.1679 -0.4337  0.0952
 3508SOL    HW122157   2.266   3.361   5.997 -0.2073  1.7313 -1.5805
 3508SOL    HW222158   2.371   3.419   6.096 -1.2359 -0.8146  0.4467
 3509SOL     OW22159   3.510   2.108  13.436 -0.1918  0.7944  0.0099
 3509SOL    HW122160   3.598   2.118  13.400  0.1496 -2.8598 -0.1561
 3509SOL    HW222161   3.534   2.102  13.529  0.2298  2.0971 -0.0153
 3510SOL     OW22162   1.079   4.637   8.043  0.1692 -0.0448  0.1219
 3510SOL    HW122163   1.072   4.579   8.119  1.7171 -1.9269 -1.1721
 3510SOL    HW222164   1.016   4.704   8.069 -0.7835 -1.3944  1.2368
 3511SOL     OW22165   0.988   0.029   3.369 -0.6034  0.4333 -0.0833
 3511SOL    HW122166   0.953   0.011   3.457  2.6396 -1.5059  0.7735
 3511SOL    HW222167   0.908   0.002   3.324  0.9717 -0.6803 -2.1721
 3512SOL     OW22168   1.384   3.913  15.939  0.0513 -0.1485  0.0873
 3512SOL    HW122169   1.443   3.979  15.974  1.4332 -0.7638 -1.0529
 3512SOL    HW222170   1.305   3.951  15.976  0.8037  1.2082  0.2682
 3513SOL     OW22171   0.544   4.497   2.292  0.1650  0.1275  0.2871
 3513SOL    HW122172   0.495   4.424   2.254 -0.4251 -0.0747  1.4229
 3513SOL    HW222173   0.633   4.473   2.266 -0.7019 -1.9059 -0.8264
 3514SOL     OW22174   2.306   3.111   4.521 -0.0983 -0.3203 -0.5568
 3514SOL    HW122175   2.242   3.132   4.589  0.2592  2.0935 -0.9512
 3514SOL    HW222176   2.352   3.047   4.574  0.3261  0.8379  0.4917
 3515SOL     OW22177   2.457   4.253  15.326 -0.1855  0.1108  0.5343
 3515SOL    HW122178   2.486   4.260  15.235  0.0839  0.4951  0.6509
 3515SOL    HW222179   2.534   4.213  15.366  2.2648  0.4751 -3.7732
 3516SOL     OW22180   3.091   2.432  14.600 -0.0857 -0.1339  0.0732
 3516SOL    HW122181   3.183   2.434  14.629  0.5954  0.5756 -2.1211
 3516SOL    HW222182   3.074   2.340  14.621 -0.2605 -0.2388 -0.5150
 3517SOL     OW22183   4.014   2.987   1.883 -0.1369  0.3244  0.1656
 3517SOL    HW122184   4.032   2.941   1.965 -1.5348  2.0884  1.4829
 3517SOL    HW222185   4.083   3.052   1.894  1.4639 -1.3052 -0.3730
 3518SOL     OW22186   1.242   3.403  11.982  0.2726 -0.0935  0.0478
 3518SOL    HW122187   1.288   3.360  11.910 -1.3953  1.8995 -2.2015
 3518SOL    HW222188   1.159   3.355  11.975 -0.1594  0.6425  0.1352
 3519SOL     OW22189   4.054   4.086   7.040  0.2825  0.2827 -0.5498
 3519SOL    HW122190   4.136   4.104   6.992  0.2040  3.6630  0.5930
 3519SOL    HW222191   4.079   3.997   7.064  2.9850  0.9429 -0.8450
 3520SOL     OW22192   0.095   3.027   7.847  0.6542  0.3957 -0.3077
 3520SOL    HW122193   4.738   3.040   7.847  0.4600 -0.9926 -1.5699
 3520SOL    HW222194   0.107   3.058   7.757  0.1884  0.5046 -0.3326
 3521SOL     OW22195   4.369   4.550  16.144  0.0665  0.1444 -0.0277
 3521SOL    HW122196   4.372   4.468  16.193 -0.7279  0.9305  1.3450
 3521SOL    HW222197   4.417   4.608  16.203 -0.7600  2.2422 -1.4068
 3522SOL     OW22198   1.519   1.038   9.254 -0.4277  0.3392 -0.5295
 3522SOL    HW122199   1.525   0.998   9.167  0.8078  1.5743 -1.0184
 3522SOL    HW222200   1.532   0.964   9.313 -0.4244  1.5240  0.9606
 3523SOL     OW22201   2.918   3.619   5.789 -0.1096 -0.5469  0.2023
 3523SOL    HW122202   2.996   3.564   5.797  1.6255  2.0280  1.2012
 3523SOL    HW222203   2.932   3.661   5.704 -2.9137 -0.7890 -0.3732
 3524SOL     OW22204   1.940   0.221   6.625 -0.1762 -0.4801 -0.1676
 3524SOL    HW122205   1.904   0.136   6.652 -1.2257  0.1162  0.3387
 3524SOL    HW222206   1.889   0.252   6.551 -0.0355 -0.7426 -0.3726
 3525SOL     OW22207   2.742   0.579   9.397 -0.2614  0.2082  0.1883
 3525SOL    HW122208   2.827   0.600   9.435 -1.4467  0.8156  2.5687
 3525SOL    HW222209   2.759   0.613   9.310  0.3207 -0.7871 -0.0747
 3526SOL     OW22210   3.887   2.404   9.816  0.5165 -0.2614  0.0563
 3526SOL    HW122211   3.909   2.312   9.830  0.0883 -0.1815  1.2796
 3526SOL    HW222212   3.799   2.407   9.853 -0.0428  0.5876 -1.3443
 3527SOL     OW22213   3.369   3.986  10.424  0.2149  0.6908  0.2265
 3527SOL    HW122214   3.462   3.981  10.400 -0.0873  1.0769 -1.0269
 3527SOL    HW222215   3.371   3.982  10.520  0.2398 -0.6801  0.1591
 3528SOL     OW22216   1.879   2.655   8.724 -0.1726  0.0362  0.0207
 3528SOL    HW122217   1.833   2.734   8.695  2.8943  2.9709  3.1673
 3528SOL    HW222218   1.917   2.696   8.802  2.4050  0.0372 -1.2367
 3529SOL     OW22219   1.456   1.773   5.174  0.5249  0.0742  0.4979
 3529SOL    HW122220   1.517   1.837   5.138 -0.5069  1.0727  0.5242
 3529SOL    HW222221   1.474   1.794   5.265 -0.5563 -0.1381  0.7570
 3530SOL     OW22222   0.908   0.788  13.534  0.1648 -0.1175 -0.4171
 3530SOL    HW122223   0.987   0.781  13.588  1.3592  2.6792 -1.8173
 3530SOL    HW222224   0.927   0.863  13.478  0.9275  1.3672  1.8125
 3531SOL     OW22225   2.247   1.977   3.107  0.4547  0.1678  0.0355
 3531SOL    HW122226   2.181   1.921   3.148 -0.3147  0.9982 -0.0893
 3531SOL    HW222227   2.326   1.934   3.140 -0.1956  0.5259  2.0839
 3532SOL     OW22228   4.270   3.055   7.972  0.5523  0.2022 -0.2201
 3532SOL    HW122229   4.287   3.058   7.878  1.2408  2.4409 -0.0319
 3532SOL    HW222230   4.222   2.973   7.979  2.8098 -0.9650  1.6591
 3533SOL     OW22231   2.517   1.183   3.053 -0.4983  0.1967  0.2504
 3533SOL    HW122232   2.446   1.120   3.040 -1.9961  1.1137  4.0715
 3533SOL    HW222233   2.471   1.267   3.050 -1.6241 -0.4311  0.0079
 3534SOL     OW22234   1.211   2.779  14.085  0.2385 -0.4193  0.0275
 3534SOL    HW122235   1.247   2.723  14.016 -3.4492  2.0389 -3.8524
 3534SOL    HW222236   1.286   2.797  14.141  0.2169  0.8731 -0.3742
 3535SOL     OW22237   2.532   0.541   8.716  0.3893 -0.5718  0.5352
 3535SOL    HW122238   2.543   0.544   8.621 -0.1789  2.6568  0.5652
 3535SOL    HW222239   2.455   0.486   8.731  0.6054 -1.7242 -2.5533
 3536SOL     OW22240   4.705   1.789   5.309 -0.2585 -0.4281  0.0498
 3536SOL    HW122241   4.724   1.710   5.359  0.2557 -0.8545 -0.8373
 3536SOL    HW222242   0.023   1.846   5.361  0.0485  2.1716 -3.1342
 3537SOL     OW22243   0.573   4.386   4.990 -0.2758  0.0727  0.5156
 3537SOL    HW122244   0.504   4.393   4.924  0.5069 -1.7640 -0.4683
 3537SOL    HW222245   0.545   4.453   5.053  0.1768  1.2035 -0.4761
 3538SOL     OW22246   0.961   2.703   5.887  0.0484 -0.1875  0.7172
 3538SOL    HW122247   0.900   2.775   5.899  0.8205  0.8257 -1.4610
 3538SOL    HW222248   1.024   2.735   5.822 -1.7094  0.0592 -0.8767
 3539SOL     OW22249   3.982   0.097   5.132  0.1263 -0.1434  0.6480
 3539SOL    HW122250   4.069   0.136   5.132  0.3258 -0.5923 -0.0322
 3539SOL    HW222251   3.941   0.184   5.128  0.3869 -0.1141 -1.8104
 3540SOL     OW22252   2.864   0.180  10.216  0.5347 -0.0835 -0.5904
 3540SOL    HW122253   2.947   0.211  10.252  0.4987 -0.9098  0.2032
 3540SOL    HW222254   2.896   0.100  10.174 -0.2568  0.1601 -1.6806
 3541SOL     OW22255   2.695   3.935   8.670 -0.4216  0.0102  0.0191
 3541SOL    HW122256   2.748   4.006   8.634 -1.3409  0.3231 -0.7148
 3541SOL    HW222257   2.629   3.928   8.601 -0.2381 -0.4127 -0.1109
 3542SOL     OW22258   2.111   1.381   7.146 -0.4903  0.2096 -0.4038
 3542SOL    HW122259   2.147   1.298   7.115 -0.4849 -0.1886  0.6480
 3542SOL    HW222260   2.080   1.408   7.060  0.6936  0.8325 -0.6342
 3543SOL     OW22261   0.552   2.830   8.099  0.5303 -0.3193  0.1186
 3543SOL    HW122262   0.551   2.862   8.009 -0.3832 -0.0173  0.2337
 3543SOL    HW222263   0.460   2.838   8.123  0.5061  0.4447 -0.2408
 3544SOL     OW22264   2.512   2.017  15.144  0.2565 -0.0559 -0.1947
 3544SOL    HW122265   2.513   1.997  15.238  2.1972  0.3207 -0.1241
 3544SOL    HW222266   2.561   2.099  15.139 -0.2283  0.2987  0.8677
 3545SOL     OW22267   0.078   0.551   7.258  0.1944  0.3222 -0.1088
 3545SOL    HW122268   0.052   0.634   7.219 -2.0290 -0.1324  0.3846
 3545SOL    HW222269   4.735   0.500   7.253  1.7963 -2.2328  0.0716
 3546SOL     OW22270   0.755   4.444   8.797 -0.0932 -0.1619 -0.0915
 3546SOL    HW122271   0.682   4.485   8.752 -0.5174 -0.6999  0.1126
 3546SOL    HW222272   0.823   4.454   8.731  0.9797  1.5243  1.2469
 3547SOL     OW22273   0.298   4.242   1.385 -0.2873 -0.4454  0.1620
 3547SOL    HW122274   0.359   4.231   1.312 -2.1955  0.0502 -1.5000
 3547SOL    HW222275   0.218   4.267   1.340  0.4357  1.8492  0.1873
 3548SOL     OW22276   1.374   3.243   1.599  0.1858 -0.4926  0.3999
 3548SOL    HW122277   1.372   3.310   1.531  1.3307 -1.9127 -1.0339
 3548SOL    HW222278   1.346   3.291   1.677  2.6580 -0.2433  1.1546
 3549SOL     OW22279   2.277   3.591   7.846  0.2878 -0.6398  0.3986
 3549SOL    HW122280   2.288   3.671   7.898 -0.3083 -1.4799  1.8169
 3549SOL    HW222281   2.182   3.583   7.853  0.2421  0.8431  1.5285
 3550SOL     OW22282   0.608   3.399   9.319 -0.2952  0.2411  0.2132
 3550SOL    HW122283   0.677   3.462   9.340 -1.1245  0.9689  0.7434
 3550SOL    HW222284   0.531   3.456   9.314 -0.0967  0.3241 -1.7195
 3551SOL     OW22285   2.146   1.940   5.964  0.8431 -0.2509 -0.3972
 3551SOL    HW122286   2.112   1.953   5.875 -0.3569 -0.6771  0.0004
 3551SOL    HW222287   2.075   1.979   6.015  1.8505 -1.7051  2.0884
 3552SOL     OW22288   3.973   4.288   3.383 -0.3174 -0.1932 -0.5266
 3552SOL    HW122289   3.947   4.354   3.447  1.1520  0.2298 -0.3665
 3552SOL    HW222290   3.987   4.346   3.308  0.5819  1.2750  0.7920
 3553SOL     OW22291   1.676   4.596  15.388  0.0891  0.3290 -0.5461
 3553SOL    HW122292   1.687   4.673  15.443 -2.5111  1.3153 -1.4382
 3553SOL    HW222293   1.587   4.616  15.359 -0.7123 -1.8635  0.3929
 3554SOL     OW22294   2.451   3.137  11.683  0.2718  0.0240 -0.2131
 3554SOL    HW122295   2.465   3.080  11.758 -2.2960  3.4306  2.8148
 3554SOL    HW222296   2.365   3.108  11.650  0.0185  1.7935 -1.1330
 3555SOL     OW22297   3.284   0.544  16.729 -0.1138  0.2975 -0.5187
 3555SOL    HW122298   3.254   0.617  16.783 -0.7178 -0.6325  0.3965
 3555SOL    HW222299   3.213   0.535  16.665  0.8742 -1.2878 -1.4137
 3556SOL     OW22300   2.664   1.881  17.022 -0.0688 -0.0289 -0.4721
 3556SOL    HW122301   2.720   1.949  17.060  2.0762 -1.3346 -1.2716
 3556SOL    HW222302   2.704   1.803  17.061 -1.0516 -0.5922 -0.5930
 3557SOL     OW22303   2.297   2.764   3.948  0.0138 -0.2166  0.1128
 3557SOL    HW122304   2.372   2.706   3.934  0.4424  0.8351 -1.9230
 3557SOL    HW222305   2.321   2.836   3.890 -0.6109  1.3362  1.7763
 3558SOL     OW22306   3.022   1.554  12.407 -0.1671 -0.3911  0.1340
 3558SOL    HW122307   2.967   1.504  12.347  0.2307 -1.0850  0.3554
 3558SOL    HW222308   3.045   1.491  12.475  1.9237  0.0299 -0.1844
 3559SOL     OW22309   2.837   0.613   7.051 -0.0761 -0.2895  0.0004
 3559SOL    HW122310   2.754   0.575   7.079  0.3722 -0.2867  1.3632
 3559SOL    HW222311   2.812   0.675   6.982  1.6202 -1.0236 -1.2678
 3560SOL     OW22312   2.367   3.537   4.559  0.2965  0.2322 -0.2419
 3560SOL    HW122313   2.446   3.497   4.524  0.8859  0.2743  1.0492
 3560SOL    HW222314   2.326   3.470   4.613  0.0712  0.6391  0.0981
 3561SOL     OW22315   0.283   3.442   3.928 -0.5954 -0.1655  0.2812
 3561SOL    HW122316   0.285   3.382   3.853 -2.6520 -2.1077  1.7625
 3561SOL    HW222317   0.191   3.468   3.928 -0.7131 -0.5634 -0.4211
 3562SOL     OW22318   2.572   2.120   1.535 -0.2082 -1.0073 -0.0115
 3562SOL    HW122319   2.562   2.066   1.614 -0.4773 -0.2432  0.4762
 3562SOL    HW222320   2.648   2.078   1.494  1.2572 -0.5765  2.3060
 3563SOL     OW22321   2.047   3.839  17.360 -0.4808 -0.0486  0.0734
 3563SOL    HW122322   1.996   3.880  17.429 -1.2877 -0.8871 -0.0356
 3563SOL    HW222323   2.095   3.778  17.416 -0.5696 -0.4780 -0.3158
 3564SOL     OW22324   2.298   3.443   2.102  0.3087 -0.1087  0.5790
 3564SOL    HW122325   2.328   3.481   2.185 -2.1718  1.7359  0.6557
 3564SOL    HW222326   2.290   3.524   2.051 -1.1128 -0.6739 -0.0831
 3565SOL     OW22327   1.307   2.696   3.460 -0.0161  0.6670  0.2183
 3565SOL    HW122328   1.327   2.702   3.554  1.9086  1.5916 -0.2688
 3565SOL    HW222329   1.269   2.608   3.454 -1.5125  1.2828  0.4513
 3566SOL     OW22330   0.872   4.372   9.494  0.1075  0.0283 -0.7312
 3566SOL    HW122331   0.868   4.319   9.414 -0.4224  0.7672 -1.1899
 3566SOL    HW222332   0.787   4.347   9.531  1.4884 -1.0522  1.7207
 3567SOL     OW22333   1.960   4.613   5.537 -0.2843  0.6299 -0.5371
 3567SOL    HW122334   2.014   4.691   5.546  1.0987 -0.2710 -1.0363
 3567SOL    HW222335   1.890   4.644   5.480 -0.0366  2.7850  0.3191
 3568SOL     OW22336   4.014   2.599  14.653  0.5762  0.2170  0.9358
 3568SOL    HW122337   4.023   2.565  14.563  3.0895  0.5640  1.0648
 3568SOL    HW222338   4.009   2.513  14.694  0.3203  0.5696  1.6366
 3569SOL     OW22339   1.793   2.965  10.404  0.1511  0.3228  0.7226
 3569SOL    HW122340   1.735   2.998  10.473  0.4220  0.4935  0.8714
 3569SOL    HW222341   1.873   3.018  10.399  1.4520 -1.6537  0.8066
 3570SOL     OW22342   2.444   1.331   1.981 -0.0809  0.0713 -0.4078
 3570SOL    HW122343   2.413   1.354   1.893 -1.5805 -1.1413 -0.1983
 3570SOL    HW222344   2.402   1.409   2.017 -1.3314 -0.7470 -0.1089
 3571SOL     OW22345   2.028   3.634  14.050 -0.5397 -0.3669 -0.0237
 3571SOL    HW122346   2.082   3.563  14.087 -0.6106  0.1725  1.0986
 3571SOL    HW222347   2.086   3.709  14.040  0.5370 -1.3613 -1.2191
 3572SOL     OW22348   4.073   1.970  12.673 -0.2693 -0.1345  0.2154
 3572SOL    HW122349   4.048   1.948  12.583 -0.2263  0.5601  0.0319
 3572SOL    HW222350   4.118   1.893  12.707  1.9141  0.0663 -2.2466
 3573SOL     OW22351   0.768   1.645   5.162 -0.2315  0.3115 -0.1885
 3573SOL    HW122352   0.777   1.594   5.242  1.2415  0.0031 -0.5360
 3573SOL    HW222353   0.681   1.681   5.176 -0.1969  0.4455 -0.3128
 3574SOL     OW22354   1.311   0.038  16.252 -0.6477  0.5071  0.5618
 3574SOL    HW122355   1.238   0.060  16.310 -0.8332  1.1742  0.0785
 3574SOL    HW222356   1.331   4.683  16.261  1.5285  0.8768 -0.4630
 3575SOL     OW22357   0.433   2.736   3.355 -0.2234  0.1817  0.1272
 3575SOL    HW122358   0.477   2.684   3.422  0.2476 -0.8195 -0.9482
 3575SOL    HW222359   0.430   2.818   3.404 -1.1342 -0.4032  1.0554
 3576SOL     OW22360   2.602   0.322   6.872  0.2457  0.1115  0.7831
 3576SOL    HW122361   2.632   0.233   6.852 -1.1038 -0.0919 -0.3312
 3576SOL    HW222362   2.509   0.298   6.877  0.3587 -0.2487  1.2059
 3577SOL     OW22363   2.408   3.236   5.711 -0.2996  0.1232 -0.1006
 3577SOL    HW122364   2.401   3.278   5.797  0.3052  0.7310 -0.3539
 3577SOL    HW222365   2.493   3.270   5.682  0.3855 -1.3017  0.2347
 3578SOL     OW22366   1.783   3.002   5.018  0.3164  0.1549 -0.1911
 3578SOL    HW122367   1.838   2.966   4.948 -0.8846  0.5010 -1.3248
 3578SOL    HW222368   1.702   2.975   4.974 -1.7735  0.8036  3.2645
 3579SOL     OW22369   2.318   3.621   7.289 -0.3125 -0.5046  0.3739
 3579SOL    HW122370   2.330   3.683   7.361  0.9814 -0.8938  0.4841
 3579SOL    HW222371   2.309   3.539   7.337  0.1843 -0.9920 -0.3710
 3580SOL     OW22372   4.005   4.128  12.777 -0.2169  0.5096 -0.4426
 3580SOL    HW122373   4.037   4.185  12.847  0.2278 -0.4178  0.1076
 3580SOL    HW222374   4.022   4.182  12.700 -0.2795 -1.5417 -1.9015
 3581SOL     OW22375   4.427   3.929   2.714  0.5748  0.4727  0.1895
 3581SOL    HW122376   4.485   3.866   2.672 -2.3031 -2.6542  0.9304
 3581SOL    HW222377   4.411   3.887   2.799 -0.5432  2.3234  0.9104
 3582SOL     OW22378   3.209   2.721   1.536  0.0377 -0.2174 -0.3280
 3582SOL    HW122379   3.217   2.720   1.440 -3.4921  0.7514 -0.6364
 3582SOL    HW222380   3.118   2.693   1.550 -0.3144  2.1305  2.0119
 3583SOL     OW22381   3.496   3.636   5.361 -0.1355  0.1176 -0.0256
 3583SOL    HW122382   3.494   3.731   5.366  0.8747  0.1380 -0.0907
 3583SOL    HW222383   3.588   3.610   5.369 -0.1441  1.1414  3.1475
 3584SOL     OW22384   4.704   0.037   4.685  0.8929  0.2368  0.7866
 3584SOL    HW122385   0.021   0.005   4.613 -0.5376  2.1630 -1.1680
 3584SOL    HW222386   4.676   4.689   4.717  2.5892 -1.5736 -2.5652
 3585SOL     OW22387   1.695   0.277   3.444 -0.1485 -0.1280 -0.4661
 3585SOL    HW122388   1.604   0.303   3.455 -0.5448 -1.6791 -0.0440
 3585SOL    HW222389   1.705   0.205   3.506  0.6918  0.9573  0.6623
 3586SOL     OW22390   1.596   0.521  10.015  0.2896  0.2288  0.4416
 3586SOL    HW122391   1.577   0.556  10.103  0.0434  1.8075 -0.2271
 3586SOL    HW222392   1.685   0.492  10.036 -0.0648 -0.6659  0.6912
 3587SOL     OW22393   4.621   0.411   2.855 -0.0812  0.0940 -0.2662
 3587SOL    HW122394   4.688   0.379   2.795  0.9866  1.8202 -0.0172
 3587SOL    HW222395   4.608   0.333   2.909  0.3267  1.4192  1.7750
 3588SOL     OW22396   2.420   2.448   2.276  0.4891  0.4445 -0.5783
 3588SOL    HW122397   2.390   2.411   2.193  2.4803  0.4239 -1.2842
 3588SOL    HW222398   2.474   2.376   2.308  2.2778  1.7494 -0.6336
 3589SOL     OW22399   1.879   4.034  16.227 -0.7264 -0.3422 -0.0191
 3589SOL    HW122400   1.870   3.998  16.315 -0.6718  0.9884  0.5366
 3589SOL    HW222401   1.970   4.064  16.230 -0.2423 -1.6273 -1.9825
 3590SOL     OW22402   3.499   3.978   7.343  0.1223  0.2289 -0.2261
 3590SOL    HW122403   3.585   4.005   7.376  0.4537 -0.5618 -0.4285
 3590SOL    HW222404   3.525   3.908   7.283  1.4059 -0.6229  1.3298
 3591SOL     OW22405   2.607   3.164   4.463 -0.6294  0.2090  0.6060
 3591SOL    HW122406   2.547   3.100   4.502  0.5891 -1.1650  0.2428
 3591SOL    HW222407   2.687   3.120   4.491 -0.2897  0.3475 -0.1480
 3592SOL     OW22408   1.444   3.981   8.240  0.4221  0.7898  0.1781
 3592SOL    HW122409   1.383   3.970   8.313 -2.2715  4.2473 -1.5437
 3592SOL    HW222410   1.468   4.071   8.261  0.3575  0.4352  1.7663
 3593SOL     OW22411   0.336   4.504  11.788 -0.2673  0.2349 -0.1881
 3593SOL    HW122412   0.372   4.422  11.821 -0.2799  0.2984 -0.0123
 3593SOL    HW222413   0.245   4.474  11.784  0.2299 -1.3629  0.7471
 3594SOL     OW22414   3.917   3.669   7.183  0.3008 -0.0951 -0.0935
 3594SOL    HW122415   3.845   3.732   7.179 -1.2520 -1.7697  1.6196
 3594SOL    HW222416   3.909   3.626   7.268 -1.5475 -4.2724 -2.3472
 3595SOL     OW22417   4.399   0.072   4.448  0.6942  0.6751 -0.2754
 3595SOL    HW122418   4.477   0.045   4.400  1.1041  0.8496  0.3021
 3595SOL    HW222419   4.432   0.136   4.511  0.2507  0.1759  0.4609
 3596SOL     OW22420   2.758   1.589   1.711 -0.3692  0.1275 -0.3060
 3596SOL    HW122421   2.735   1.619   1.799  2.5095 -1.3111  0.9544
 3596SOL    HW222422   2.852   1.575   1.726 -0.6153 -0.2005  0.9504
 3597SOL     OW22423   0.383   4.578   2.958 -0.0963 -0.5872 -0.0719
 3597SOL    HW122424   0.303   4.571   2.907  0.5539 -0.1883 -1.1327
 3597SOL    HW222425   0.444   4.517   2.917  0.2741  0.3752 -0.9680
 3598SOL     OW22426   0.793   3.375   9.107  0.1676  0.0509  0.1433
 3598SOL    HW122427   0.841   3.294   9.122  1.2769  0.3334 -1.9473
 3598SOL    HW222428   0.725   3.358   9.173  0.1930 -0.8338 -0.0651
 3599SOL     OW22429   1.601   2.746   8.933 -0.3984  0.3369 -0.0581
 3599SOL    HW122430   1.593   2.781   9.021 -0.3983 -1.1654  0.5283
 3599SOL    HW222431   1.561   2.816   8.880  0.7110  0.3136 -0.9199
 3600SOL     OW22432   2.978   4.305  17.304 -0.0583 -0.4201  0.5300
 3600SOL    HW122433   3.064   4.310  17.347 -0.5482  0.0554  1.4553
 3600SOL    HW222434   2.987   4.287  17.211  0.1067  0.1112  0.4485
 3601SOL     OW22435   3.280   0.280  12.397  0.3329  0.2300 -0.3090
 3601SOL    HW122436   3.320   0.238  12.320 -0.3857 -2.1006  0.5954
 3601SOL    HW222437   3.205   0.226  12.421  0.2875 -1.3315 -4.0808
 3602SOL     OW22438   2.913   4.068  12.770  0.3115 -0.3811 -0.3455
 3602SOL    HW122439   2.900   3.992  12.828 -1.3703 -0.2317 -0.5185
 3602SOL    HW222440   3.008   4.077  12.768  0.2939 -0.4505 -1.6328
 3603SOL     OW22441   0.651   1.858   3.959 -0.0620  0.3378 -0.1233
 3603SOL    HW122442   0.675   1.950   3.974  0.0320  0.3316 -0.2380
 3603SOL    HW222443   0.727   1.824   3.913 -0.6755 -2.2954  0.7942
 3604SOL     OW22444   1.619   3.537   0.062 -0.0777 -0.4196 -0.2313
 3604SOL    HW122445   1.622   3.547  17.718  0.5091  0.9620 -0.0604
 3604SOL    HW222446   1.704   3.577   0.080 -0.7611  1.1080 -0.4128
 3605SOL     OW22447   4.574   1.613   0.226 -0.2621  0.1314 -0.0064
 3605SOL    HW122448   4.653   1.565   0.202 -0.2342 -0.1411  0.6455
 3605SOL    HW222449   4.501   1.554   0.209 -0.5758 -0.1390  2.3101
 3606SOL     OW22450   2.529   4.059   9.623  0.2133 -0.2842 -0.3589
 3606SOL    HW122451   2.625   4.057   9.625  0.2487  0.2179 -1.4064
 3606SOL    HW222452   2.502   3.974   9.588  3.0660 -0.6897 -1.5815
 3607SOL     OW22453   0.063   1.892   4.554 -0.0488  0.3146  0.1222
 3607SOL    HW122454   0.005   1.821   4.579 -0.2842  0.7662  0.8688
 3607SOL    HW222455   0.035   1.966   4.608 -0.7172 -1.3766  2.0783
 3608SOL     OW22456   4.159   0.160   7.713  0.6170  0.1244 -0.1761
 3608SOL    HW122457   4.164   0.123   7.801 -0.7221 -2.1705 -1.0615
 3608SOL    HW222458   4.099   0.233   7.726 -1.7522 -1.8750  0.0071
 3609SOL     OW22459   1.745   3.569   9.388  0.4746  0.2725  0.1803
 3609SOL    HW122460   1.692   3.511   9.442 -1.2956  1.1030 -0.6517
 3609SOL    HW222461   1.678   3.593   9.323  2.4039  4.1363 -0.4223
 3610SOL     OW22462   0.609   2.716   5.413  0.7120  0.1055  0.3036
 3610SOL    HW122463   0.542   2.701   5.348 -1.5118  0.5084  2.5111
 3610SOL    HW222464   0.660   2.789   5.377 -0.0159  0.5023  0.0752
 3611SOL     OW22465   0.208   3.402   8.175  0.2194 -0.5146 -0.4207
 3611SOL    HW122466   0.296   3.365   8.185 -0.4830 -1.7103  1.3151
 3611SOL    HW222467   0.156   3.329   8.209  0.5922  0.4047  2.1153
 3612SOL     OW22468   3.766   0.016   8.420 -0.3962  0.0121 -0.1947
 3612SOL    HW122469   3.806   4.720   8.499  0.0901  0.0897 -0.4069
 3612SOL    HW222470   3.719   0.095   8.448  2.0292  1.3776  0.0241
 3613SOL     OW22471   4.047   1.553   4.092 -0.3265  0.0372 -0.1150
 3613SOL    HW122472   4.075   1.470   4.132  1.3944 -0.0518 -1.4881
 3613SOL    HW222473   4.110   1.617   4.127 -0.5346 -0.6956  1.6133
 3614SOL     OW22474   1.997   4.377  11.101  0.7723  0.1107 -0.4723
 3614SOL    HW122475   1.947   4.301  11.069  1.0738  0.0205 -0.7306
 3614SOL    HW222476   1.927   4.430  11.139 -0.7521 -2.0206 -0.2492
 3615SOL     OW22477   1.082   2.840   1.369 -0.2424 -0.4203  0.5776
 3615SOL    HW122478   1.139   2.917   1.370 -3.0725  1.6821  0.6676
 3615SOL    HW222479   1.004   2.872   1.323 -0.4187 -1.8953 -0.1394
 3616SOL     OW22480   2.037   0.634   0.517  0.0809  0.1168 -0.7322
 3616SOL    HW122481   2.039   0.698   0.589  2.0395  0.6864 -1.2969
 3616SOL    HW222482   2.085   0.566   0.564  0.1857  1.0946  0.5943
 3617SOL     OW22483   4.027   2.761   1.702 -0.5208  0.5177 -0.3078
 3617SOL    HW122484   3.997   2.821   1.770 -3.8785  0.9715 -2.1647
 3617SOL    HW222485   3.980   2.684   1.734  0.7847  0.3762  1.2647
 3618SOL     OW22486   3.076   1.187  15.557  0.0005 -0.0201  0.1937
 3618SOL    HW122487   2.988   1.150  15.545 -1.4196  3.1192  1.0316
 3618SOL    HW222488   3.127   1.125  15.505 -1.0265  1.2002 -2.2138
 3619SOL     OW22489   0.130   4.494   8.505  0.0990  0.2309  0.4893
 3619SOL    HW122490   0.096   4.496   8.594  1.8417 -1.7880  1.2255
 3619SOL    HW222491   0.219   4.529   8.508 -0.9756  2.8188  1.8540
 3620SOL     OW22492   2.376   4.090   8.609 -0.2794 -0.2170 -0.1074
 3620SOL    HW122493   2.290   4.122   8.636  0.3701  0.7409  0.8397
 3620SOL    HW222494   2.386   4.159   8.543  2.4346  1.3479  1.9268
 3621SOL     OW22495   1.177   4.514   6.312 -0.6451 -0.5187 -0.4000
 3621SOL    HW122496   1.086   4.507   6.339 -0.6590 -1.4165 -0.6588
 3621SOL    HW222497   1.195   4.436   6.259  2.5802  1.4364 -2.1851
 3622SOL     OW22498   2.857   2.148  16.853 -0.6930  0.0515  1.0662
 3622SOL    HW122499   2.876   2.101  16.934  1.4428  4.4158  3.0239
 3622SOL    HW222500   2.861   2.240  16.877  1.8829  0.3698 -0.5444
 3623SOL     OW22501   3.239   0.218   8.878  0.1434  0.1571 -0.1270
 3623SOL    HW122502   3.232   0.132   8.836  0.3718  0.8957 -1.6925
 3623SOL    HW222503   3.334   0.225   8.886  0.1648  0.3000 -0.5297
 3624SOL     OW22504   0.528   4.269   4.174 -0.0317  0.0304  0.0704
 3624SOL    HW122505   0.558   4.358   4.157 -0.1167  0.3785  1.7940
 3624SOL    HW222506   0.593   4.239   4.238  0.0607  0.7551  0.3076
 3625SOL     OW22507   1.277   1.284   9.983 -0.0941  0.0959 -0.0500
 3625SOL    HW122508   1.354   1.253   9.935  0.5666  3.3675 -1.1282
 3625SOL    HW222509   1.301   1.376   9.998  1.4966 -0.6637  1.9625
 3626SOL     OW22510   2.622   4.650   8.100  0.1666  0.0837 -0.0348
 3626SOL    HW122511   2.644   4.571   8.050  1.0444 -1.0186  2.1194
 3626SOL    HW222512   2.529   4.656   8.077 -0.3943  2.4776  2.8470
 3627SOL     OW22513   0.627   4.258   9.585 -0.1056  0.4022 -0.0725
 3627SOL    HW122514   0.625   4.192   9.655 -2.2225 -1.5759 -1.9952
 3627SOL    HW222515   0.588   4.329   9.636  1.4663  0.0339  1.6687
 3628SOL     OW22516   1.823   4.190  10.683  0.6933 -0.4519 -0.1455
 3628SOL    HW122517   1.785   4.104  10.666 -0.1160  0.2300 -1.7592
 3628SOL    HW222518   1.808   4.235  10.600  2.1906 -1.5152 -0.9833
 3629SOL     OW22519   4.360   3.425   8.004 -0.5565 -0.0020  0.0551
 3629SOL    HW122520   4.418   3.361   7.962 -0.9590  0.8331 -1.7664
 3629SOL    HW222521   4.356   3.489   7.933 -2.7051 -0.1043  0.0904
 3630SOL     OW22522   1.982   2.186  10.654 -0.0189  0.7215  0.2357
 3630SOL    HW122523   1.895   2.182  10.615  0.0820 -1.5839  0.2632
 3630SOL    HW222524   2.023   2.133  10.586  1.2704  1.0130  0.7817
 3631SOL     OW22525   1.870   3.127   6.720  0.4556 -0.1934  0.0518
 3631SOL    HW122526   1.898   3.036   6.708  0.5727 -0.4127  2.0739
 3631SOL    HW222527   1.905   3.163   6.638 -4.0264  0.8366 -1.3980
 3632SOL     OW22528   2.175   3.867   2.553  0.1550  0.5247  0.3762
 3632SOL    HW122529   2.174   3.787   2.501  1.1914  0.0313  1.1042
 3632SOL    HW222530   2.087   3.900   2.535  0.6695  0.4987 -2.1796
 3633SOL     OW22531   1.033   2.263  17.328  0.3254 -0.5062 -0.5261
 3633SOL    HW122532   1.018   2.235  17.419 -0.5296 -0.1655 -0.5623
 3633SOL    HW222533   0.944   2.292  17.311  0.3565  0.2287  0.5453
 3634SOL     OW22534   0.685   3.151   6.440 -0.4244  0.6282  0.4074
 3634SOL    HW122535   0.727   3.221   6.490  2.6192  0.2044 -1.5107
 3634SOL    HW222536   0.597   3.177   6.414 -0.5833 -1.4594 -1.1622
 3635SOL     OW22537   2.774   0.313   8.947 -0.0209 -0.1381 -0.6057
 3635SOL    HW122538   2.819   0.254   8.886  0.2100 -1.4567  0.8333
 3635SOL    HW222539   2.691   0.271   8.970 -0.1344  0.2470 -0.3231
 3636SOL     OW22540   3.388   1.224  11.313 -0.3466 -0.5662 -0.0232
 3636SOL    HW122541   3.352   1.187  11.233 -3.6652  2.5414  0.0219
 3636SOL    HW222542   3.324   1.202  11.381  0.1775 -0.0879  0.6348
 3637SOL     OW22543   0.045   1.802  10.112 -0.3951  0.7057 -0.1106
 3637SOL    HW122544   4.721   1.818  10.183 -1.6531 -0.4234 -0.9566
 3637SOL    HW222545   4.718   1.794  10.042  0.0726 -0.7432 -0.3870
 3638SOL     OW22546   0.189   0.895   4.027 -0.7505 -0.2175  0.7260
 3638SOL    HW122547   0.103   0.854   4.014 -0.7458 -0.2383  0.7608
 3638SOL    HW222548   0.157   0.963   4.087  0.5784 -0.0002  1.1910
 3639SOL     OW22549   0.133   3.915   6.437 -0.4294  0.2477 -0.2916
 3639SOL    HW122550   0.091   3.829   6.427 -1.0565  0.4222  0.9936
 3639SOL    HW222551   0.146   3.944   6.347  1.2055  1.4156  0.3294
 3640SOL     OW22552   3.763   0.986  11.891  0.0221  0.0829 -1.0376
 3640SOL    HW122553   3.765   1.076  11.924  0.8719 -0.3662  0.1485
 3640SOL    HW222554   3.790   0.999  11.800  1.4117  1.8319 -0.3913
 3641SOL     OW22555   0.030   2.403   9.727  0.3791  0.4026  0.8761
 3641SOL    HW122556   0.119   2.372   9.712 -0.1021  0.6263 -2.4119
 3641SOL    HW222557   4.723   2.320   9.735 -1.9487  1.8797  3.1335
 3642SOL     OW22558   0.331   0.262  14.163  0.3726  0.2086 -0.1524
 3642SOL    HW122559   0.359   0.354  14.170  0.1905  0.2307  0.2575
 3642SOL    HW222560   0.420   0.227  14.164  0.5590  0.6627 -0.8122
 3643SOL     OW22561   1.310   4.493   7.850  0.5191  0.2427  0.2388
 3643SOL    HW122562   1.243   4.548   7.811  0.9506 -0.0318 -0.8932
 3643SOL    HW222563   1.268   4.450   7.925 -0.9634  0.7278 -0.3148
 3644SOL     OW22564   2.058   1.042   2.889  0.4229  0.0876 -0.6411
 3644SOL    HW122565   2.063   0.952   2.922 -0.5922  0.0148 -0.6918
 3644SOL    HW222566   2.132   1.037   2.828 -0.1880  0.7730 -1.4245
 3645SOL     OW22567   0.295   4.049  13.108  0.1650 -0.0672  0.0690
 3645SOL    HW122568   0.363   4.097  13.156  1.2658 -1.3029 -0.2578
 3645SOL    HW222569   0.290   4.100  13.027 -0.5644  0.0575  0.1970
 3646SOL     OW22570   3.712   2.207   8.440  0.1347  0.2393 -0.3573
 3646SOL    HW122571   3.763   2.142   8.487  0.9828  1.1792  0.0443
 3646SOL    HW222572   3.741   2.188   8.350 -0.0851 -1.1373 -0.1261
 3647SOL     OW22573   4.369   3.111   1.507 -0.0621  0.5055 -0.2573
 3647SOL    HW122574   4.283   3.079   1.533 -0.0929 -0.0487 -1.0279
 3647SOL    HW222575   4.375   3.192   1.557  1.2706 -1.5040  2.8493
 3648SOL     OW22576   3.550   2.117   5.191  0.2574  0.1584 -0.2860
 3648SOL    HW122577   3.620   2.117   5.257  0.0381 -0.7468 -0.0634
 3648SOL    HW222578   3.595   2.061   5.129  0.9820 -0.4842  0.8218
 3649SOL     OW22579   1.262   1.305   9.665 -0.0694  0.1219  0.5437
 3649SOL    HW122580   1.193   1.282   9.727  1.1303 -1.2604  1.3615
 3649SOL    HW222581   1.243   1.261   9.582  0.8426 -1.0854  0.9688
 3650SOL     OW22582   0.151   3.977   6.149 -0.2188  0.4010  0.0959
 3650SOL    HW122583   0.075   4.034   6.158 -0.9301 -0.7337  1.1632
 3650SOL    HW222584   0.114   3.906   6.098 -0.9188  1.5431 -0.9958
 3651SOL     OW22585   3.702   3.902   8.365 -0.1003 -0.1203 -0.1211
 3651SOL    HW122586   3.699   3.952   8.447 -0.6435 -0.4816  0.0779
 3651SOL    HW222587   3.764   3.833   8.386  1.3001  1.2560  0.3061
 3652SOL     OW22588   3.410   0.579   5.236  0.4589 -0.2279 -0.0148
 3652SOL    HW122589   3.479   0.536   5.285  0.3556 -0.1484  0.1989
 3652SOL    HW222590   3.450   0.666   5.231 -2.0313  0.9934  1.2270
 3653SOL     OW22591   4.474   3.135   3.460 -0.6855 -0.3412 -0.4463
 3653SOL    HW122592   4.554   3.132   3.409 -1.1244 -0.8501 -1.1015
 3653SOL    HW222593   4.444   3.044   3.461  0.1610 -0.5939  0.8951
 3654SOL     OW22594   4.294   4.496   9.974  0.1246  0.6192 -0.3572
 3654SOL    HW122595   4.253   4.487  10.061  0.7649  0.0724 -0.1113
 3654SOL    HW222596   4.386   4.488   9.997  0.0200  0.0881 -0.1202
 3655SOL     OW22597   3.891   2.785  17.403 -0.1597 -0.4796  0.9076
 3655SOL    HW122598   3.946   2.712  17.431 -1.2025 -0.7252  2.3110
 3655SOL    HW222599   3.955   2.856  17.395  1.3300 -1.9043  0.0567
 3656SOL     OW22600   2.764   0.444  15.496  0.0800 -0.6248  0.3948
 3656SOL    HW122601   2.738   0.357  15.524  1.8765 -0.9931  0.9427
 3656SOL    HW222602   2.845   0.420  15.450  0.6646  0.4636  0.8446
 3657SOL     OW22603   1.168   3.855   4.638 -0.1748 -0.4092 -0.0983
 3657SOL    HW122604   1.260   3.850   4.611  0.0715 -1.8993  1.0422
 3657SOL    HW222605   1.135   3.767   4.622  1.5947 -1.2300  0.7893
 3658SOL     OW22606   1.598   3.053   6.098  0.3424  0.0767  0.2344
 3658SOL    HW122607   1.655   2.995   6.047  0.7568 -0.6659  1.5367
 3658SOL    HW222608   1.593   3.136   6.051 -0.6662 -0.6423 -0.9158
 3659SOL     OW22609   0.783   4.439  15.552 -0.3699  0.1921 -0.1972
 3659SOL    HW122610   0.785   4.416  15.644 -2.0478  0.7342 -0.0253
 3659SOL    HW222611   0.851   4.506  15.556 -1.1083  0.7916  2.0501
 3660SOL     OW22612   1.384   4.397   4.764  0.8607  0.4261 -0.1000
 3660SOL    HW122613   1.357   4.425   4.676 -2.0633 -1.4165  0.2183
 3660SOL    HW222614   1.377   4.482   4.807  1.1165  0.1161  0.5496
 3661SOL     OW22615   4.000   4.058  10.772 -0.4314 -0.2417  0.3224
 3661SOL    HW122616   4.011   3.965  10.789 -2.4940 -0.8510 -1.6672
 3661SOL    HW222617   3.927   4.080  10.828 -1.0530  1.4717 -1.1581
 3662SOL     OW22618   3.947   0.356   8.981 -0.5765  0.1720  0.1161
 3662SOL    HW122619   4.036   0.368   9.013 -1.5011  1.9967  2.0794
 3662SOL    HW222620   3.943   0.418   8.908  2.4762 -2.6163 -2.3865
 3663SOL     OW22621   3.490   2.551  14.395  0.1776  0.2753  0.2140
 3663SOL    HW122622   3.568   2.524  14.347  1.0745 -1.7683  2.8785
 3663SOL    HW222623   3.417   2.547  14.332  0.9910 -0.5904 -0.6702
 3664SOL     OW22624   1.332   3.958   6.600  0.1179  0.0600 -0.3054
 3664SOL    HW122625   1.368   3.923   6.519  1.0056  1.2048 -0.4093
 3664SOL    HW222626   1.380   3.906   6.666 -1.0562  0.7662  1.1008
 3665SOL     OW22627   0.857   1.895   2.841  0.3082  0.0028 -0.1192
 3665SOL    HW122628   0.783   1.898   2.781  1.1303 -2.4350 -1.2382
 3665SOL    HW222629   0.904   1.821   2.804  3.3990  2.2269 -0.6191
 3666SOL     OW22630   3.477   2.916   7.054  0.0585  0.6163 -0.1648
 3666SOL    HW122631   3.522   2.874   7.127  0.0813 -0.1655 -0.6328
 3666SOL    HW222632   3.492   3.008   7.076 -0.5999  1.0888 -1.6636
 3667SOL     OW22633   2.129   1.746  14.042  0.6915  0.1304 -0.0300
 3667SOL    HW122634   2.119   1.737  13.947  0.5672  3.1047 -0.2993
 3667SOL    HW222635   2.117   1.841  14.047 -0.1705  0.1853 -3.2979
 3668SOL     OW22636   4.099   1.892   3.961  0.0328 -0.3560  0.3970
 3668SOL    HW122637   4.162   1.959   3.986  2.0353 -1.7791 -0.8130
 3668SOL    HW222638   4.070   1.867   4.049 -1.5719 -0.8024 -0.2585
 3669SOL     OW22639   2.738   3.803   3.886 -0.1534  0.1806  0.0275
 3669SOL    HW122640   2.719   3.869   3.953 -0.8475  0.6484 -0.6336
 3669SOL    HW222641   2.819   3.837   3.850 -0.1150 -0.3252 -0.3594
 3670SOL     OW22642   3.100   4.138  10.925  0.0932  0.3027  0.4341
 3670SOL    HW122643   3.090   4.104  10.836  4.0598  3.4150 -1.2378
 3670SOL    HW222644   3.084   4.232  10.913 -0.0403  0.3137  0.7060
 3671SOL     OW22645   3.810   1.609   3.962  0.2148 -0.0851  0.0685
 3671SOL    HW122646   3.842   1.597   3.872  0.0897  0.4150 -0.0414
 3671SOL    HW222647   3.884   1.584   4.017  1.6312  1.3754 -1.1523
 3672SOL     OW22648   0.621   2.489   8.858 -0.0161 -0.0236  0.8192
 3672SOL    HW122649   0.626   2.576   8.816  0.4707  1.3733  3.7853
 3672SOL    HW222650   0.530   2.487   8.887 -0.3212  0.2259 -0.1290
 3673SOL     OW22651   3.937   1.419  14.968 -0.2530  0.4976  0.1411
 3673SOL    HW122652   3.912   1.442  15.058 -0.0996 -0.8690  0.5495
 3673SOL    HW222653   3.869   1.357  14.942  0.6248 -0.6915  0.6345
 3674SOL     OW22654   2.857   1.739   6.593 -0.0374  0.1462  0.0218
 3674SOL    HW122655   2.871   1.761   6.501  0.4298  1.9321  0.5296
 3674SOL    HW222656   2.910   1.659   6.592  0.3491  0.4174 -1.0041
 3675SOL     OW22657   3.929   4.306   7.172  0.4091 -0.0770 -0.0295
 3675SOL    HW122658   4.020   4.335   7.181  0.0950  0.4419  1.4610
 3675SOL    HW222659   3.935   4.231   7.113 -0.0642 -1.8904  2.2389
 3676SOL     OW22660   0.212   1.721   0.224 -0.2830  0.6411  0.4641
 3676SOL    HW122661   0.167   1.707   0.308  0.0159 -2.0629  0.1642
 3676SOL    HW222662   0.279   1.785   0.249 -0.7126  1.4178 -0.3753
 3677SOL     OW22663   2.918   4.334   5.946  0.0418  1.0203  0.2186
 3677SOL    HW122664   2.864   4.280   5.889 -0.5010  1.2700  0.4913
 3677SOL    HW222665   2.998   4.341   5.894 -0.6991  0.1359 -1.0369
 3678SOL     OW22666   2.774   4.085   0.502  0.5900 -0.1387  0.3813
 3678SOL    HW122667   2.777   3.997   0.539  0.0590  0.3344  1.5847
 3678SOL    HW222668   2.744   4.130   0.582 -0.7607 -1.6745  0.7417
 3679SOL     OW22669   0.674   2.576   2.124 -0.6414  0.0366 -0.0787
 3679SOL    HW122670   0.598   2.635   2.129 -0.1991  0.6671 -0.8035
 3679SOL    HW222671   0.652   2.519   2.198 -0.8885 -0.8868 -0.8592
 3680SOL     OW22672   2.430   3.727   9.305  0.5025  0.3679  0.1364
 3680SOL    HW122673   2.472   3.647   9.272  1.9393  1.1970 -0.0521
 3680SOL    HW222674   2.435   3.783   9.228 -0.6661 -0.7078 -0.7214
 3681SOL     OW22675   3.043   1.793   2.223  0.1798  0.4570 -0.0351
 3681SOL    HW122676   3.105   1.865   2.228  2.0808 -1.1275 -0.8513
 3681SOL    HW222677   3.074   1.747   2.300  1.4155 -0.5442 -1.1236
 3682SOL     OW22678   4.456   2.502   4.593  0.2488  0.0053 -0.5126
 3682SOL    HW122679   4.408   2.518   4.674  0.2786  1.5635 -0.8008
 3682SOL    HW222680   4.503   2.419   4.606  1.7238  0.7470 -1.0666
 3683SOL     OW22681   1.808   3.642  17.565 -0.3754 -0.2344  0.0656
 3683SOL    HW122682   1.743   3.691  17.516  0.8394  2.5113  1.2041
 3683SOL    HW222683   1.862   3.715  17.595 -2.1417  1.5321 -1.0680
 3684SOL     OW22684   3.573   2.793  17.226  0.3601  0.2833  0.2989
 3684SOL    HW122685   3.502   2.730  17.215  0.2625 -0.1788  3.6142
 3684SOL    HW222686   3.558   2.838  17.142 -0.5703  0.2871  0.4639
 3685SOL     OW22687   0.722   2.936  15.161 -0.7402 -0.6399 -0.0736
 3685SOL    HW122688   0.726   2.841  15.153  0.6615 -0.7239  1.5233
 3685SOL    HW222689   0.713   2.960  15.069 -0.9068  1.2031  0.4251
 3686SOL     OW22690   1.021   1.052   8.975 -0.3423 -0.1099  0.1661
 3686SOL    HW122691   1.079   0.977   8.975  0.5737  0.6007 -0.4097
 3686SOL    HW222692   1.083   1.120   8.948  0.8614 -0.7139  1.4371
 3687SOL     OW22693   3.926   4.610   2.166  0.3308 -0.0424 -0.8184
 3687SOL    HW122694   3.834   4.628   2.149  0.6435  1.4234 -1.0234
 3687SOL    HW222695   3.915   4.637   2.258  1.9527  3.2284 -1.5572
 3688SOL     OW22696   4.508   3.515  15.286 -0.3060  0.2714 -0.2815
 3688SOL    HW122697   4.590   3.470  15.307  0.1413  0.4044 -1.7529
 3688SOL    HW222698   4.502   3.511  15.191 -0.2219 -0.6086 -0.2521
 3689SOL     OW22699   2.914   3.855   4.673 -0.3442 -0.0193 -0.6211
 3689SOL    HW122700   2.926   3.863   4.578 -0.7984  0.4674 -0.6333
 3689SOL    HW222701   2.991   3.903   4.702  0.2242 -2.0875  1.2586
 3690SOL     OW22702   3.938   2.613   4.686  0.3440 -0.0354 -0.0175
 3690SOL    HW122703   3.935   2.626   4.591 -1.5967  2.6460  0.4316
 3690SOL    HW222704   3.917   2.704   4.706 -1.5446 -0.1820 -1.4012
 3691SOL     OW22705   0.339   4.071   4.012 -0.0628  0.0102 -0.5493
 3691SOL    HW122706   0.415   4.112   3.972  0.6611 -1.0332 -0.2470
 3691SOL    HW222707   0.265   4.089   3.953 -0.8799 -0.6986  0.2563
 3692SOL     OW22708   0.943   3.479  11.724  0.1617 -0.1234  0.3660
 3692SOL    HW122709   0.998   3.411  11.763  0.0211 -1.6645 -2.1478
 3692SOL    HW222710   0.858   3.444  11.752 -0.7051  0.3315 -1.7156
 3693SOL     OW22711   4.340   4.503  12.174 -0.5969 -0.4326  0.1192
 3693SOL    HW122712   4.376   4.432  12.121 -0.5812  1.0678 -1.8845
 3693SOL    HW222713   4.385   4.579  12.137 -1.5811 -1.1511 -2.6096
 3694SOL     OW22714   4.236   0.830  15.402 -0.6118 -0.5131  0.9336
 3694SOL    HW122715   4.273   0.910  15.439  3.2525 -1.6331 -0.4894
 3694SOL    HW222716   4.145   0.842  15.431  0.3150  2.7648  2.5044
 3695SOL     OW22717   4.179   4.255   3.133 -0.0402 -0.8099 -0.3739
 3695SOL    HW122718   4.125   4.182   3.162  0.7452 -0.7571  1.2391
 3695SOL    HW222719   4.211   4.223   3.048  3.2990 -1.9806  1.3165
 3696SOL     OW22720   3.925   3.313   3.293 -0.8444  0.0223 -0.5023
 3696SOL    HW122721   3.833   3.337   3.288 -0.3481  2.2995  1.2014
 3696SOL    HW222722   3.935   3.246   3.360 -0.5703 -0.8769 -1.4506
 3697SOL     OW22723   3.671   1.745   1.685  0.5863  0.2097  0.2664
 3697SOL    HW122724   3.760   1.733   1.653 -0.3967  1.2798 -2.7888
 3697SOL    HW222725   3.691   1.791   1.767 -1.6659  3.4498 -1.0066
 3698SOL     OW22726   2.004   2.702  12.269  0.1145 -0.2786  0.0571
 3698SOL    HW122727   2.016   2.666  12.357  1.8992 -0.9232 -0.4594
 3698SOL    HW222728   2.096   2.723  12.253 -0.5152  2.0111 -0.6042
 3699SOL     OW22729   4.164   3.614   8.068  0.2214 -0.3797  0.1344
 3699SOL    HW122730   4.237   3.603   8.130 -0.1451  0.6644  0.7490
 3699SOL    HW222731   4.187   3.699   8.032  1.3330  0.5014  2.8991
 3700SOL     OW22732   2.046   2.189   2.421  0.0253 -0.5198 -0.8256
 3700SOL    HW122733   2.040   2.199   2.326 -1.1192  0.0939 -0.6922
 3700SOL    HW222734   2.138   2.169   2.437 -0.3632  0.1384  2.2086
 3701SOL     OW22735   1.260   0.135   9.785  0.4769  0.0903 -0.1221
 3701SOL    HW122736   1.188   0.140   9.848  0.3396  0.5604 -0.3169
 3701SOL    HW222737   1.224   0.141   9.697 -0.1850 -0.4052  0.1189
 3702SOL     OW22738   4.395   3.520   9.102  0.3781  0.1743 -0.0333
 3702SOL    HW122739   4.478   3.528   9.056 -1.3067  3.7510 -2.4875
 3702SOL    HW222740   4.406   3.434   9.141 -1.1551 -0.1100 -0.2061
 3703SOL     OW22741   0.800   3.763   8.512  0.1442 -0.3366  0.2315
 3703SOL    HW122742   0.813   3.690   8.574  0.7968 -2.3093 -2.2310
 3703SOL    HW222743   0.884   3.770   8.468 -0.2449 -1.3311 -0.6756
 3704SOL     OW22744   1.881   3.055   2.367 -0.1560  0.8533  0.3551
 3704SOL    HW122745   1.868   2.975   2.418 -1.4592  0.3375 -0.7808
 3704SOL    HW222746   1.807   3.105   2.401 -0.1223 -0.3281  2.1295
 3705SOL     OW22747   2.783   1.541   5.772 -0.4492  0.4932 -0.4056
 3705SOL    HW122748   2.804   1.629   5.741  0.7490  0.4533  0.2851
 3705SOL    HW222749   2.785   1.489   5.692 -2.0273 -3.0466  1.8389
 3706SOL     OW22750   3.271   3.295   2.080  0.5485  0.4975  0.7211
 3706SOL    HW122751   3.303   3.370   2.030 -2.1048  0.7816 -0.5675
 3706SOL    HW222752   3.355   3.250   2.086 -0.8752 -1.9782  1.9915
 3707SOL     OW22753   1.872   0.780   9.060  0.0620  0.3875 -0.4364
 3707SOL    HW122754   1.842   0.870   9.049 -0.6311  0.2929  0.6730
 3707SOL    HW222755   1.889   0.753   8.970  0.1104  0.4784 -0.4542
 3708SOL     OW22756   0.030   2.202  17.473  0.0287 -0.1026  0.0239
 3708SOL    HW122757   4.703   2.215  17.542 -1.8125 -0.1987 -1.7024
 3708SOL    HW222758   0.026   2.286  17.429  0.5604 -0.6527 -1.0740
 3709SOL     OW22759   2.336   2.678   7.679 -0.5400 -0.2363 -0.2975
 3709SOL    HW122760   2.317   2.589   7.710 -1.1156  0.8241  2.4608
 3709SOL    HW222761   2.428   2.678   7.704 -1.3819  0.2110  2.8123
 3710SOL     OW22762   1.922   0.910   7.850  0.3212 -0.4484  0.1294
 3710SOL    HW122763   1.917   0.935   7.942  1.4908  1.1637 -0.2417
 3710SOL    HW222764   1.964   0.826   7.868  0.1895 -0.3613  0.8300
 3711SOL     OW22765   2.214   0.897  12.628 -0.0748  0.5828 -0.2603
 3711SOL    HW122766   2.239   0.860  12.543  2.6164 -1.1585  1.3112
 3711SOL    HW222767   2.120   0.909  12.612 -0.2192  1.0395  0.9328
 3712SOL     OW22768   0.759   1.383   3.644 -0.6069 -0.2695 -0.8142
 3712SOL    HW122769   0.701   1.351   3.713 -0.8276 -0.1144 -0.9268
 3712SOL    HW222770   0.798   1.460   3.685 -1.6254  0.1031 -0.5308
 3713SOL     OW22771   3.326   4.022   1.973  0.3583  0.3273  0.2310
 3713SOL    HW122772   3.296   4.044   1.885  0.5620 -0.1291  0.0456
 3713SOL    HW222773   3.266   3.949   1.991  2.3422 -0.1028  5.3336
 3714SOL     OW22774   2.760   0.682   2.306  0.2020 -0.2005 -0.7217
 3714SOL    HW122775   2.816   0.759   2.318  0.7890 -0.6915 -0.2794
 3714SOL    HW222776   2.704   0.720   2.239  0.3831 -2.6577 -2.2520
 3715SOL     OW22777   0.795   3.147   8.831 -0.3382  0.2383 -0.7618
 3715SOL    HW122778   0.705   3.119   8.815 -0.5110  0.2725  0.1461
 3715SOL    HW222779   0.783   3.242   8.824 -1.4654  0.1330 -0.1988
 3716SOL     OW22780   3.927   3.165   8.987  0.3333  0.1909  0.6633
 3716SOL    HW122781   3.958   3.083   9.026 -0.1267 -0.7721 -1.0024
 3716SOL    HW222782   3.862   3.205   9.045  0.0610  0.7951 -0.0556
 3717SOL     OW22783   0.432   3.215   1.071  0.1024  0.1147 -0.1698
 3717SOL    HW122784   0.353   3.200   1.019 -0.6705  2.1092  0.4133
 3717SOL    HW222785   0.491   3.253   1.006 -1.0707  3.1809  0.5559
 3718SOL     OW22786   0.473   2.545   9.653 -0.4663 -0.0243  0.4432
 3718SOL    HW122787   0.545   2.540   9.716 -0.7951  2.8589  1.0618
 3718SOL    HW222788   0.457   2.451   9.649 -2.7927  0.3533  0.6536
 3719SOL     OW22789   2.470   1.106   5.484 -0.0454  0.0404 -0.3620
 3719SOL    HW122790   2.477   1.172   5.553  1.8464 -2.6987  2.0140
 3719SOL    HW222791   2.523   1.030   5.505  0.6543  0.3999 -0.8354
 3720SOL     OW22792   0.717   2.688   4.903 -0.1088 -0.1584 -0.3392
 3720SOL    HW122793   0.792   2.729   4.946 -0.1125 -0.4489 -0.0513
 3720SOL    HW222794   0.694   2.758   4.843  1.5919  0.4910 -0.2150
 3721SOL     OW22795   1.306   2.923  13.549  0.2871 -0.0601 -0.1968
 3721SOL    HW122796   1.219   2.961  13.549 -0.2291 -1.2554 -0.3746
 3721SOL    HW222797   1.365   2.990  13.582  0.1038 -1.2875  2.7081
 3722SOL     OW22798   3.346   2.144   8.067  0.0521  0.6897  0.0846
 3722SOL    HW122799   3.368   2.051   8.068 -0.0585  0.6548 -0.4395
 3722SOL    HW222800   3.344   2.177   8.157 -1.2550  0.6451  0.0716
 3723SOL     OW22801   3.854   2.131   8.855  0.7593  0.2734 -0.0205
 3723SOL    HW122802   3.847   2.091   8.941  0.3040  0.2564 -0.0635
 3723SOL    HW222803   3.892   2.211   8.890  0.1612  1.4596 -2.0480
 3724SOL     OW22804   4.324   3.087   4.068  0.5619  0.3125  0.2551
 3724SOL    HW122805   4.278   3.009   4.099  1.4346 -0.4977 -0.4771
 3724SOL    HW222806   4.405   3.049   4.033 -1.4334 -1.9976 -1.8659
 3725SOL     OW22807   3.095   0.232  14.067 -0.0056 -0.8999 -0.7085
 3725SOL    HW122808   3.047   0.158  14.031 -1.6226  0.7599 -1.9581
 3725SOL    HW222809   3.120   0.200  14.153  0.2964  1.7499  0.1992
 3726SOL     OW22810   1.220   0.462   5.327  0.4117 -0.1137 -0.3229
 3726SOL    HW122811   1.256   0.482   5.241 -1.0948  1.3612 -0.6122
 3726SOL    HW222812   1.126   0.457   5.312  0.0293  2.9805  1.1601
 3727SOL     OW22813   4.164   2.941  13.145 -0.0811 -0.0075  0.7214
 3727SOL    HW122814   4.226   2.927  13.217  0.3679  1.2143  0.5698
 3727SOL    HW222815   4.097   2.877  13.171  1.7578 -1.5332  1.7545
 3728SOL     OW22816   1.143   3.263   5.471  0.8728 -0.5615 -0.1176
 3728SOL    HW122817   1.055   3.287   5.498  0.4323 -1.9770 -0.3034
 3728SOL    HW222818   1.152   3.171   5.496 -0.3352 -0.3603  1.0471
 3729SOL     OW22819   1.577   1.800   8.325 -0.1675  0.4427 -0.0156
 3729SOL    HW122820   1.539   1.748   8.254  0.9526 -1.8138  1.0198
 3729SOL    HW222821   1.670   1.781   8.309 -0.1619 -1.2332  1.9692
 3730SOL     OW22822   1.993   0.376   6.100  0.2268  0.1668 -0.6015
 3730SOL    HW122823   1.997   0.373   6.196 -0.7114 -0.1259 -0.5639
 3730SOL    HW222824   1.952   0.289   6.091  0.4788 -0.1246  1.0799
 3731SOL     OW22825   0.858   3.619   6.341 -0.5710  0.1635  0.0865
 3731SOL    HW122826   0.895   3.542   6.298  0.3092 -0.1097  1.3364
 3731SOL    HW222827   0.916   3.633   6.415 -1.7791  0.4438  0.9897
 3732SOL     OW22828   1.826   0.331  10.074  0.0028  0.0037  0.3609
 3732SOL    HW122829   1.911   0.374  10.083  0.3383 -0.6301  0.2468
 3732SOL    HW222830   1.844   0.292   9.988 -1.5877  1.4518 -0.6302
 3733SOL     OW22831   1.864   2.407   5.771 -0.2876 -0.2731 -0.5241
 3733SOL    HW122832   1.813   2.456   5.835  0.9901 -0.9252  1.0085
 3733SOL    HW222833   1.952   2.433   5.799  0.4856 -2.0602 -1.2578
 3734SOL     OW22834   1.219   3.431   5.002  0.2138 -0.1593 -0.3872
 3734SOL    HW122835   1.227   3.521   4.971  1.5492  0.1976  0.9588
 3734SOL    HW222836   1.203   3.441   5.096  1.0431  2.3523 -0.5012
 3735SOL     OW22837   3.661   1.338  13.984 -0.4014 -0.0392 -0.0542
 3735SOL    HW122838   3.659   1.248  14.018 -2.0662 -0.6030 -1.6521
 3735SOL    HW222839   3.687   1.323  13.893 -2.8770  0.1709 -0.7988
 3736SOL     OW22840   1.363   2.900   6.150 -0.2216 -0.7136  0.0375
 3736SOL    HW122841   1.302   2.915   6.222  0.7574 -1.2544  0.9811
 3736SOL    HW222842   1.440   2.954   6.166  0.5071 -2.2754  1.7844
 3737SOL     OW22843   3.078   0.494   0.370 -0.1731 -0.0359 -0.1037
 3737SOL    HW122844   3.155   0.471   0.318 -1.1028 -1.8355 -0.6562
 3737SOL    HW222845   3.091   0.588   0.358 -0.8578  0.0595 -0.0832
 3738SOL     OW22846   0.388   0.985   4.880 -0.2198 -0.5630 -0.2236
 3738SOL    HW122847   0.445   1.004   4.955  0.6804  1.3933 -1.4258
 3738SOL    HW222848   0.391   0.890   4.868 -0.5078 -0.8256  1.7783
 3739SOL     OW22849   1.056   1.228   3.253 -0.0381 -0.0235  0.3796
 3739SOL    HW122850   1.079   1.195   3.166 -1.6561 -1.6439  0.5654
 3739SOL    HW222851   1.143   1.246   3.289  0.7930 -2.0952 -0.5845
 3740SOL     OW22852   4.129   2.319   5.123  0.1005  0.2394  0.4051
 3740SOL    HW122853   4.190   2.263   5.170  3.1464  0.9961 -2.6722
 3740SOL    HW222854   4.186   2.344   5.051  2.5174 -1.3938  1.7786
 3741SOL     OW22855   0.405   3.087  14.488 -0.1945 -0.1863 -0.2382
 3741SOL    HW122856   0.331   3.054  14.438 -1.5567  0.1391  1.5808
 3741SOL    HW222857   0.456   3.139  14.426  0.0309  0.0316  0.1289
 3742SOL     OW22858   1.957   0.634   6.018  0.3247 -0.3522  0.4055
 3742SOL    HW122859   2.030   0.665   6.072  0.4366 -2.2097  1.2976
 3742SOL    HW222860   1.958   0.545   6.054 -1.1563 -1.2406 -1.7700
 3743SOL     OW22861   4.663   1.298   7.917  0.2626 -0.6643 -0.0167
 3743SOL    HW122862   4.610   1.240   7.862 -0.0990 -1.6037  1.3115
 3743SOL    HW222863   4.643   1.252   7.999  0.0823  0.2947  0.4784
 3744SOL     OW22864   3.228   2.102   5.113 -0.3350 -0.4886 -0.3783
 3744SOL    HW122865   3.156   2.164   5.105  0.9231  1.0109  0.0134
 3744SOL    HW222866   3.296   2.148   5.162 -0.9060 -0.5589  0.4735
 3745SOL     OW22867   1.776   2.294   0.147 -0.2648  0.4562 -0.1841
 3745SOL    HW122868   1.786   2.282   0.052  0.6338 -1.2106  0.1089
 3745SOL    HW222869   1.854   2.347   0.161 -0.8840  1.5643 -0.9389
 3746SOL     OW22870   0.869   1.328   7.358 -0.2939  0.9984  0.0483
 3746SOL    HW122871   0.944   1.379   7.389  0.0903 -1.3204  2.9167
 3746SOL    HW222872   0.861   1.352   7.266 -0.1129 -0.7268 -0.4091
 3747SOL     OW22873   0.786   0.365   4.919 -0.0386  0.6177  0.3567
 3747SOL    HW122874   0.694   0.348   4.942 -0.6889  1.6084 -1.5380
 3747SOL    HW222875   0.832   0.304   4.976 -1.1196  0.5758  1.1795
 3748SOL     OW22876   1.306   4.367   1.774  0.7090 -0.1459 -0.0216
 3748SOL    HW122877   1.366   4.292   1.775 -0.8884 -1.4257  0.7959
 3748SOL    HW222878   1.260   4.332   1.850  0.3437  1.3247  0.4252
 3749SOL     OW22879   3.502   1.381   2.894  0.9167 -0.7352  0.1089
 3749SOL    HW122880   3.508   1.286   2.890  3.1170 -0.6349  1.2753
 3749SOL    HW222881   3.461   1.391   2.980  1.2418 -0.2629  0.2105
 3750SOL     OW22882   3.129   0.526  10.613 -0.3985 -0.5787  0.2283
 3750SOL    HW122883   3.072   0.449  10.618 -0.6455 -0.3739  0.5462
 3750SOL    HW222884   3.148   0.534  10.520  1.7257 -1.5767  0.5693
 3751SOL     OW22885   0.209   0.466   1.887 -0.2772  0.1026 -0.1951
 3751SOL    HW122886   0.217   0.557   1.917 -1.8311 -0.5670  2.2743
 3751SOL    HW222887   0.150   0.474   1.811 -2.0355 -1.1450  1.0496
 3752SOL     OW22888   3.166   1.826   1.635  0.1958 -0.0780 -0.1473
 3752SOL    HW122889   3.167   1.745   1.686 -1.4058 -0.6543 -1.0477
 3752SOL    HW222890   3.169   1.888   1.708  0.5732 -1.4731  1.0285
 3753SOL     OW22891   1.034   3.320   7.413  0.1144 -0.0905 -0.3131
 3753SOL    HW122892   0.968   3.370   7.460 -1.1781 -3.0433  1.0084
 3753SOL    HW222893   1.027   3.366   7.329 -0.1583  0.4596  0.0165
 3754SOL     OW22894   0.270   2.252   5.707 -0.3102 -0.6253 -0.3217
 3754SOL    HW122895   0.247   2.211   5.790  1.2753  0.2324  0.5351
 3754SOL    HW222896   0.287   2.343   5.731  2.3688 -0.9557 -0.8973
 3755SOL     OW22897   2.429   0.909   8.104  0.2463  0.1571  0.3525
 3755SOL    HW122898   2.466   0.991   8.071 -3.4166  1.6662  0.0545
 3755SOL    HW222899   2.368   0.892   8.032 -0.8294  1.2965  1.0030
 3756SOL     OW22900   0.725   0.419   5.606 -0.2158 -0.0292  0.1338
 3756SOL    HW122901   0.742   0.512   5.597 -1.7362  0.1471 -0.9515
 3756SOL    HW222902   0.809   0.389   5.639 -0.7974 -1.1821  0.5882
 3757SOL     OW22903   3.380   2.411   7.806 -0.1263 -0.4478 -0.5026
 3757SOL    HW122904   3.319   2.338   7.815 -0.3133 -0.4770 -1.9917
 3757SOL    HW222905   3.376   2.455   7.891  2.6527 -0.0269 -0.5918
 3758SOL     OW22906   2.897   3.370   6.541 -0.4568 -0.2128  0.7874
 3758SOL    HW122907   2.881   3.279   6.566 -0.0397 -0.6529 -0.5154
 3758SOL    HW222908   2.845   3.377   6.460 -1.1995  2.9802  1.5756
 3759SOL     OW22909   3.972   1.821   2.514  0.3273 -0.1617  0.0380
 3759SOL    HW122910   3.893   1.876   2.517  0.5610  0.1377  0.7312
 3759SOL    HW222911   4.035   1.881   2.475  0.7803 -0.0720  0.9055
 3760SOL     OW22912   4.116   0.302  12.521  0.2548  0.4791 -0.1556
 3760SOL    HW122913   4.150   0.390  12.541  1.0930  0.4136 -1.2995
 3760SOL    HW222914   4.066   0.303  12.440  0.8534  1.6559 -0.5225
 3761SOL     OW22915   2.665   2.841  12.403  0.6608 -0.3715  0.4351
 3761SOL    HW122916   2.702   2.885  12.480  0.2500  0.9990 -0.1579
 3761SOL    HW222917   2.715   2.760  12.396 -0.2371 -1.0438  1.7087
 3762SOL     OW22918   2.716   3.357   3.175  0.1708 -0.2677 -0.0072
 3762SOL    HW122919   2.682   3.403   3.098  0.0514  1.2875  0.9593
 3762SOL    HW222920   2.715   3.268   3.141  1.3937  0.0355 -0.8215
 3763SOL     OW22921   3.977   3.040  17.030  0.0227 -0.3704 -0.0286
 3763SOL    HW122922   3.913   2.993  16.976 -0.5791  2.9188 -2.1918
 3763SOL    HW222923   4.027   2.965  17.062  0.8193  0.3096  0.3082
 3764SOL     OW22924   1.200   4.711   5.166 -0.3226 -0.0173  0.5741
 3764SOL    HW122925   1.181   0.065   5.146 -2.3302 -0.6769 -0.5626
 3764SOL    HW222926   1.117   4.672   5.139 -0.1181  0.2424 -0.4173
 3765SOL     OW22927   1.659   1.863   8.994 -0.2363 -0.5372  0.0588
 3765SOL    HW122928   1.676   1.775   9.028 -1.7228 -0.1128  1.8857
 3765SOL    HW222929   1.710   1.877   8.915  1.4209  0.9578  1.3659
 3766SOL     OW22930   2.459   0.022   3.000  0.0594 -0.2170  0.4427
 3766SOL    HW122931   2.442   4.676   2.958  1.0631  0.0855 -0.5836
 3766SOL    HW222932   2.395   0.083   2.964  0.4008 -0.3294 -0.3819
 3767SOL     OW22933   1.972   2.331   6.829  0.0982  0.2429  0.0773
 3767SOL    HW122934   1.949   2.376   6.910 -1.6896 -0.7215  0.0963
 3767SOL    HW222935   2.051   2.283   6.853  0.9061  1.0803 -0.8736
 3768SOL     OW22936   1.979   2.871   0.683 -0.1427 -0.5431  0.8334
 3768SOL    HW122937   1.941   2.940   0.738 -0.7688  0.3856 -0.7581
 3768SOL    HW222938   1.912   2.803   0.683 -0.6379 -0.0615 -0.7637
 3769SOL     OW22939   0.255   0.712   1.524 -0.1191 -0.2178 -0.0929
 3769SOL    HW122940   0.173   0.717   1.475 -1.5422  0.4240  2.3273
 3769SOL    HW222941   0.279   0.620   1.510 -1.9786 -1.0886  2.4819
 3770SOL     OW22942   1.811   0.699   7.501  0.2624  0.0235  0.0454
 3770SOL    HW122943   1.733   0.651   7.472  0.9419 -1.6230  0.9454
 3770SOL    HW222944   1.773   0.745   7.577 -0.0804  1.9319 -1.2655
 3771SOL     OW22945   0.932   4.188  13.786 -0.0539 -0.4848 -0.4175
 3771SOL    HW122946   0.919   4.252  13.856 -1.3040 -0.2942 -0.8145
 3771SOL    HW222947   0.935   4.107  13.836  0.6490 -1.4679 -2.0774
 3772SOL     OW22948   1.731   2.299  12.520  0.2474  0.0383 -0.1590
 3772SOL    HW122949   1.809   2.258  12.557  0.7137  0.4073 -0.7399
 3772SOL    HW222950   1.671   2.249  12.575  0.4856 -1.6153 -1.4018
 3773SOL     OW22951   4.163   0.728   8.255  0.2172  0.3218  0.1768
 3773SOL    HW122952   4.162   0.816   8.218 -1.5494  0.2537  0.0443
 3773SOL    HW222953   4.233   0.728   8.320  2.2951 -1.8329 -2.0626
 3774SOL     OW22954   1.418   2.721  13.335 -0.0992  0.5593  0.1134
 3774SOL    HW122955   1.481   2.744  13.403  1.8490 -0.1366 -1.4454
 3774SOL    HW222956   1.339   2.714  13.388 -1.6974  2.1439 -2.1049
 3775SOL     OW22957   1.343   1.478   0.846 -0.2384  0.0515  0.6477
 3775SOL    HW122958   1.386   1.543   0.901  0.2120 -1.7662  2.4288
 3775SOL    HW222959   1.422   1.452   0.799 -1.0012  1.6904 -1.5226
 3776SOL     OW22960   4.315   1.722   8.121  0.8097  0.5626 -0.0218
 3776SOL    HW122961   4.409   1.740   8.121  1.4284 -2.6004  1.4573
 3776SOL    HW222962   4.315   1.626   8.118  0.9730  0.6004 -1.3197
 3777SOL     OW22963   3.106   2.607   5.348 -0.1809 -0.1491  0.1224
 3777SOL    HW122964   3.029   2.555   5.370 -0.0829  0.5373  2.1099
 3777SOL    HW222965   3.170   2.536   5.337  0.9106  0.6185  1.5039
 3778SOL     OW22966   0.954   3.984   4.349 -0.1086  0.0613  0.6798
 3778SOL    HW122967   0.925   4.073   4.370 -1.3885 -0.4773  1.1997
 3778SOL    HW222968   0.874   3.936   4.370 -0.6767 -1.6738 -5.4858
 3779SOL     OW22969   4.109   1.914   4.627 -0.1089 -0.0306 -0.6235
 3779SOL    HW122970   4.148   1.923   4.714  2.2831  1.5875 -1.8595
 3779SOL    HW222971   4.054   1.992   4.622 -0.8615 -0.6124 -1.3960
 3780SOL     OW22972   0.258   0.790   3.473 -0.3266 -0.7707  0.0150
 3780SOL    HW122973   0.284   0.856   3.538 -1.3759  1.0558 -1.4305
 3780SOL    HW222974   0.340   0.806   3.426 -1.5000 -1.3548 -2.2294
 3781SOL     OW22975   0.830   4.110   7.297  0.2321  0.1213 -0.1084
 3781SOL    HW122976   0.765   4.169   7.334  0.6335 -0.6768  1.8873
 3781SOL    HW222977   0.850   4.153   7.214  0.3087 -0.1493 -0.2295
 3782SOL     OW22978   1.188   0.634   9.176  0.1652  0.4186  0.1218
 3782SOL    HW122979   1.102   0.593   9.185  0.2003  0.3922  0.3409
 3782SOL    HW222980   1.240   0.555   9.192  0.2567  0.3555 -0.4704
 3783SOL     OW22981   1.992   2.232   2.156  0.1269  0.0458 -0.2264
 3783SOL    HW122982   1.983   2.319   2.195 -0.0642 -0.4640  0.8763
 3783SOL    HW222983   1.946   2.246   2.073  1.9549  0.3141 -1.1810
 3784SOL     OW22984   2.106   1.054   5.115  0.5038  0.5382 -0.0736
 3784SOL    HW122985   2.155   0.977   5.086 -3.4211 -2.5455  1.5203
 3784SOL    HW222986   2.157   1.092   5.187  0.0366  1.7963 -0.4033
 3785SOL     OW22987   1.648   4.144   7.841  0.4348 -0.2194 -0.2380
 3785SOL    HW122988   1.598   4.203   7.784 -1.4452 -1.1089  0.4692
 3785SOL    HW222989   1.577   4.097   7.884 -1.3029 -0.2322 -3.1233
 3786SOL     OW22990   3.825   3.821   6.083  0.0145 -0.1296 -0.1911
 3786SOL    HW122991   3.918   3.801   6.068  0.5175  0.6078  2.0061
 3786SOL    HW222992   3.788   3.740   6.118  1.2630 -0.9353 -0.7098
 3787SOL     OW22993   0.497   1.724   7.361 -0.2953  0.1848 -0.6101
 3787SOL    HW122994   0.453   1.641   7.343  0.0660 -0.1704  0.1476
 3787SOL    HW222995   0.585   1.694   7.381  0.3293  2.4393  0.1266
 3788SOL     OW22996   3.149   3.092   8.800  0.5349 -0.3317  0.1352
 3788SOL    HW122997   3.134   2.997   8.800  0.5236 -0.3250 -2.0381
 3788SOL    HW222998   3.112   3.108   8.713 -0.1716  0.7854  0.6421
 3789SOL     OW22999   2.538   2.668   3.464  0.7044 -0.2363  0.9576
 3789SOL    HW123000   2.508   2.726   3.394 -0.3273 -2.8953 -0.7563
 3789SOL    HW223001   2.505   2.584   3.435 -0.5729  0.4237  0.5076
 3790SOL     OW23002   2.139   3.668   7.083  0.1947 -0.0019 -0.0080
 3790SOL    HW123003   2.148   3.575   7.060 -1.8177 -1.1126  3.5728
 3790SOL    HW223004   2.186   3.671   7.166 -0.3138  1.6163  0.2059
 3791SOL     OW23005   3.272   0.417   3.312 -0.0238  0.2486 -0.3370
 3791SOL    HW123006   3.235   0.427   3.400  1.4771 -2.2186  0.5723
 3791SOL    HW223007   3.251   0.501   3.271 -1.5382 -0.8494 -1.7913
 3792SOL     OW23008   4.135   3.016   1.579  0.5529 -0.1922 -0.3951
 3792SOL    HW123009   4.132   2.955   1.654  0.6630 -2.0214 -1.8667
 3792SOL    HW223010   4.049   2.998   1.543  0.9457 -1.3059 -0.7819
 3793SOL     OW23011   0.603   4.306  13.868 -0.2002  0.3492 -0.3607
 3793SOL    HW123012   0.607   4.279  13.960 -0.4510  0.7258 -0.2369
 3793SOL    HW223013   0.650   4.233  13.829 -0.7056  0.4357 -1.1260
 3794SOL     OW23014   3.888   3.381   0.100 -0.1953 -0.1103  0.4791
 3794SOL    HW123015   3.932   3.327   0.166 -0.5778  0.4311  1.1652
 3794SOL    HW223016   3.797   3.380   0.129 -0.9426 -0.9166 -1.8593
 3795SOL     OW23017   3.182   1.322   5.117  0.3513  0.1771 -0.0452
 3795SOL    HW123018   3.235   1.264   5.171  1.3597  1.4288  0.2929
 3795SOL    HW223019   3.252   1.384   5.098  0.2264 -0.3532 -2.2879
 3796SOL     OW23020   1.557   0.516   4.310  0.2728  0.1203 -0.6170
 3796SOL    HW123021   1.561   0.611   4.298 -2.7403  0.2031 -0.9761
 3796SOL    HW223022   1.488   0.495   4.247  1.2307  0.9341 -1.9323
 3797SOL     OW23023   3.295   1.053   9.931  0.2910  0.3315 -0.4129
 3797SOL    HW123024   3.210   1.092   9.911  1.7030  3.3162 -0.5579
 3797SOL    HW223025   3.351   1.128   9.948  0.6794  0.5358 -2.5337
 3798SOL     OW23026   1.198   2.353   5.036  0.9752 -0.0518 -0.2828
 3798SOL    HW123027   1.200   2.269   4.990  0.0444  0.9908 -2.2369
 3798SOL    HW223028   1.269   2.396   4.988 -0.1906  0.7647 -1.2857
 3799SOL     OW23029   4.572   1.780   4.660  0.3023  0.0084  0.1481
 3799SOL    HW123030   4.558   1.851   4.722  0.7621 -0.8194  1.2120
 3799SOL    HW223031   4.491   1.784   4.610 -0.4268  1.2807  1.4292
 3800SOL     OW23032   1.366   0.821   4.601 -0.0867  0.0884  0.0346
 3800SOL    HW123033   1.382   0.837   4.694 -2.9846 -1.3261  0.7986
 3800SOL    HW223034   1.438   0.870   4.564 -1.2015  1.5271 -0.2250
 3801SOL     OW23035   4.151   1.033   4.598  0.5494  0.5885 -0.1211
 3801SOL    HW123036   4.058   1.010   4.610  0.9844 -1.2344 -0.1529
 3801SOL    HW223037   4.187   0.944   4.599 -2.4591 -0.6219  2.6894
 3802SOL     OW23038   4.204   2.706   4.371  0.4517  0.2236 -0.0028
 3802SOL    HW123039   4.119   2.745   4.352  0.3083 -0.8286 -1.4929
 3802SOL    HW223040   4.201   2.610   4.374  1.1563  0.1580 -1.4595
 3803SOL     OW23041   4.103   2.570   9.743 -0.0042 -0.1757 -0.4134
 3803SOL    HW123042   4.029   2.529   9.788 -0.5353  1.3181  0.0703
 3803SOL    HW223043   4.135   2.635   9.805 -0.0817  0.0370 -0.5963
 3804SOL     OW23044   0.507   3.816   4.991 -0.0167  0.6003 -0.5202
 3804SOL    HW123045   0.415   3.810   4.965 -0.9129 -1.1918  3.0392
 3804SOL    HW223046   0.513   3.901   5.035 -0.7995 -0.6039  1.9268
 3805SOL     OW23047   0.251   1.909   8.604  0.3180  0.2046 -0.2250
 3805SOL    HW123048   0.297   1.980   8.559  3.4347 -2.5006 -1.2950
 3805SOL    HW223049   0.158   1.930   8.599  0.1271 -1.1069 -2.0663
 3806SOL     OW23050   1.479   3.700   4.278 -0.3421  0.1295 -0.3167
 3806SOL    HW123051   1.555   3.690   4.335 -0.6559  1.0015  0.2516
 3806SOL    HW223052   1.418   3.632   4.308 -0.4948 -0.0699 -1.0871
 3807SOL     OW23053   2.496   4.501   2.636 -0.1001  0.0941 -0.2414
 3807SOL    HW123054   2.473   4.492   2.728 -0.6776  0.0827 -0.3816
 3807SOL    HW223055   2.589   4.484   2.646 -0.4647 -0.7681  1.5829
 3808SOL     OW23056   0.791   0.595   8.022  0.6081  0.0873  0.5365
 3808SOL    HW123057   0.721   0.605   7.957  1.1894  2.3260  0.2530
 3808SOL    HW223058   0.780   0.501   8.032 -5.1002  0.5140 -1.8204
 3809SOL     OW23059   3.698   1.328   7.525 -0.0309 -0.0822  0.4626
 3809SOL    HW123060   3.680   1.409   7.574 -0.5130 -0.2104  0.4951
 3809SOL    HW223061   3.790   1.316   7.549  0.9931  1.6905 -2.5847
 3810SOL     OW23062   0.268   1.032   3.205 -0.4401  0.2089 -0.3098
 3810SOL    HW123063   0.189   0.985   3.233  0.2930 -1.5354 -1.1856
 3810SOL    HW223064   0.327   0.967   3.167  0.0158  1.6015 -2.0225
 3811SOL     OW23065   0.547   3.141   6.034 -0.1752 -0.2272  0.5028
 3811SOL    HW123066   0.594   3.223   6.017 -2.5456  1.0269  0.0061
 3811SOL    HW223067   0.464   3.176   6.066 -0.3119 -1.9659  2.0114
 3812SOL     OW23068   2.438   0.665   5.317 -0.1215 -0.0596  0.6565
 3812SOL    HW123069   2.527   0.697   5.328  0.1283 -1.6594  3.1789
 3812SOL    HW223070   2.399   0.714   5.390 -1.7968 -3.4969  2.0487
 3813SOL     OW23071   4.024   4.275   3.907  0.2838  0.3539 -0.1285
 3813SOL    HW123072   3.980   4.295   3.825 -0.4192 -1.9436 -0.3326
 3813SOL    HW223073   3.988   4.342   3.965 -1.6408  0.4545 -1.4538
 3814SOL     OW23074   4.241   0.677   5.559  0.1503 -0.9762  0.4359
 3814SOL    HW123075   4.267   0.664   5.651  0.3928 -1.4500  0.3021
 3814SOL    HW223076   4.250   0.585   5.534 -1.4129 -0.0693 -3.4021
 3815SOL     OW23077   4.248   3.425   7.194  0.3998 -0.1279 -0.1923
 3815SOL    HW123078   4.259   3.514   7.228  0.3504 -0.1216 -0.1938
 3815SOL    HW223079   4.168   3.398   7.238 -0.1979  1.4336 -0.3129
 3816SOL     OW23080   1.290   0.831   8.514  0.2419 -0.4044 -0.1297
 3816SOL    HW123081   1.285   0.856   8.422  1.0622 -2.0062 -0.6172
 3816SOL    HW223082   1.272   0.737   8.517  1.2330 -0.6069 -0.4551
 3817SOL     OW23083   1.298   0.417   1.082  0.5413 -0.1781 -0.2841
 3817SOL    HW123084   1.338   0.489   1.034  2.6918 -1.1279  0.0318
 3817SOL    HW223085   1.343   0.416   1.167  0.5889 -1.7606 -0.3190
 3818SOL     OW23086   0.108   3.823   9.480  0.1529  0.1504  0.6669
 3818SOL    HW123087   0.148   3.757   9.537 -0.9260 -0.7626  0.3769
 3818SOL    HW223088   0.057   3.767   9.421 -1.3748  0.1177  2.0277
 3819SOL     OW23089   4.218   0.827   3.045  0.8135 -0.1288 -0.1891
 3819SOL    HW123090   4.284   0.790   3.103  0.8451 -0.0287 -0.1621
 3819SOL    HW223091   4.215   0.781   2.961  1.6522 -1.9268  0.7784
 3820SOL     OW23092   3.854   1.902   6.436 -0.2677 -0.0670  0.0519
 3820SOL    HW123093   3.825   1.850   6.511  1.4542 -2.4496 -0.9586
 3820SOL    HW223094   3.946   1.878   6.432  0.2327  1.8368  0.2606
 3821SOL     OW23095   0.207   0.161   9.135  0.0513  0.4290  0.0427
 3821SOL    HW123096   0.204   0.103   9.211 -0.4291 -1.7918 -1.6859
 3821SOL    HW223097   0.278   0.219   9.163  1.6656 -0.8097 -1.4224
 3822SOL     OW23098   0.232   4.478  14.088  0.2698  0.2621 -0.3077
 3822SOL    HW123099   0.248   4.522  14.171 -0.1517  0.5654 -0.3914
 3822SOL    HW223100   0.281   4.395  14.094  1.8869  1.1119 -1.9138
 3823SOL     OW23101   1.056   4.305   3.734 -0.6204  0.2051  0.4334
 3823SOL    HW123102   1.138   4.305   3.784  0.9819 -0.6426 -2.2005
 3823SOL    HW223103   1.022   4.231   3.784 -0.1018 -0.0459  0.4155
 3824SOL     OW23104   1.585   2.948  12.136 -0.4448 -0.2431  0.1211
 3824SOL    HW123105   1.633   2.905  12.207  1.1032  0.9580 -0.1927
 3824SOL    HW223106   1.620   2.894  12.065  2.3651  1.7790 -0.0287
 3825SOL     OW23107   3.283   0.693   9.492  0.0727  0.1610 -0.6213
 3825SOL    HW123108   3.349   0.746   9.447 -0.1217 -0.6710 -1.8793
 3825SOL    HW223109   3.223   0.755   9.532 -0.3236 -1.2805  1.0544
 3826SOL     OW23110   2.193   3.909   7.360  0.9084 -0.2691 -0.0310
 3826SOL    HW123111   2.216   3.939   7.273  0.9496  1.4357  0.5619
 3826SOL    HW223112   2.140   3.984   7.389 -0.4346 -1.0946 -0.3184
 3827SOL     OW23113   2.111   1.850  12.102 -0.3383  0.7145 -0.2708
 3827SOL    HW123114   2.202   1.861  12.129 -1.2339  2.0454  2.2346
 3827SOL    HW223115   2.060   1.830  12.181 -0.6238  0.4428 -0.5226
 3828SOL     OW23116   2.056   4.104   3.241  0.6629 -0.1175 -0.0551
 3828SOL    HW123117   2.046   4.199   3.246 -0.6557 -0.1589 -1.6505
 3828SOL    HW223118   2.006   4.078   3.163 -0.3447  0.2536  0.4589
 3829SOL     OW23119   0.634   3.359   1.841 -0.1850  0.1070  0.3688
 3829SOL    HW123120   0.620   3.426   1.909  0.0559  0.7168 -0.1777
 3829SOL    HW223121   0.544   3.328   1.835 -0.1295  0.0838 -0.3615
 3830SOL     OW23122   3.184   0.436   6.209 -0.3009 -0.0383  0.7977
 3830SOL    HW123123   3.222   0.513   6.167  1.2689 -0.6339  1.1514
 3830SOL    HW223124   3.109   0.474   6.256 -1.5406 -1.3655 -0.1003
 3831SOL     OW23125   1.793   3.476   3.839 -0.1974  0.3810 -0.4545
 3831SOL    HW123126   1.855   3.407   3.815 -0.0039 -0.1147  1.4557
 3831SOL    HW223127   1.851   3.550   3.858 -0.1374 -0.0512  1.0904
 3832SOL     OW23128   3.707   2.157   6.853  0.3152 -0.1510 -0.4802
 3832SOL    HW123129   3.743   2.197   6.932  0.5193 -0.6648 -0.3187
 3832SOL    HW223130   3.785   2.112   6.822  1.1819  1.1182 -0.1208
 3833SOL     OW23131   0.662   1.265   7.501 -0.2584 -0.4423  0.3089
 3833SOL    HW123132   0.701   1.247   7.586 -0.6461  1.9574  1.0068
 3833SOL    HW223133   0.733   1.255   7.437  1.3320  2.6311  1.5715
 3834SOL     OW23134   3.328   3.381  15.762 -0.4934  0.8432  0.2907
 3834SOL    HW123135   3.342   3.422  15.676 -0.3653 -1.5034 -0.8074
 3834SOL    HW223136   3.262   3.444  15.792 -1.7898  0.3513 -1.5253
 3835SOL     OW23137   4.029   4.021   3.182  0.2252  0.0498  0.3028
 3835SOL    HW123138   3.994   4.006   3.270 -1.3557  0.1324 -0.3031
 3835SOL    HW223139   4.060   3.936   3.152  2.0532  1.2293 -1.1306
 3836SOL     OW23140   3.631   0.886   9.735  0.3069 -0.3093  0.4569
 3836SOL    HW123141   3.712   0.869   9.688  1.6715  1.0154  2.3396
 3836SOL    HW223142   3.656   0.886   9.827 -0.0928  0.2914  0.5707
 3837SOL     OW23143   4.000   3.368   3.665  0.0253  0.3217  0.3054
 3837SOL    HW123144   3.964   3.296   3.717 -1.0778 -0.7063 -1.8598
 3837SOL    HW223145   4.061   3.313   3.615 -1.0110 -1.0313  0.5203
 3838SOL     OW23146   0.325   0.110   7.847 -0.0134  0.5399  0.2786
 3838SOL    HW123147   0.236   0.076   7.859  0.2477 -0.4074 -0.5037
 3838SOL    HW223148   0.356   0.029   7.807 -0.2996  0.1704  0.8084
 3839SOL     OW23149   1.877   3.909   7.882 -0.6609 -0.0548  0.2385
 3839SOL    HW123150   1.868   3.977   7.815  1.8785  0.1250  0.0873
 3839SOL    HW223151   1.927   3.949   7.953 -0.0362  0.2681 -0.3774
 3840SOL     OW23152   2.654   3.760  10.059  0.1988  0.2400  0.2365
 3840SOL    HW123153   2.592   3.781   9.989  1.1963 -1.8050 -1.2598
 3840SOL    HW223154   2.695   3.847  10.064 -0.7877  0.7326 -0.4141
 3841SOL     OW23155   3.199   3.966  12.141 -0.5137 -0.2788 -0.0533
 3841SOL    HW123156   3.179   3.979  12.234 -0.1728 -1.1510  0.1482
 3841SOL    HW223157   3.169   4.048  12.103 -3.0258 -0.8489  0.7194
 3842SOL     OW23158   0.921   0.742   3.596  0.3012  0.3821  0.4575
 3842SOL    HW123159   0.855   0.765   3.530  1.4023 -0.3786 -0.9160
 3842SOL    HW223160   0.947   0.830   3.621  0.8211  0.3965 -0.1204
 3843SOL     OW23161   1.845   0.465   8.646  0.2261 -0.3262  0.1304
 3843SOL    HW123162   1.813   0.503   8.564 -0.4048 -0.6142  0.2497
 3843SOL    HW223163   1.930   0.507   8.661  0.8919 -1.8559  0.6724
 3844SOL     OW23164   2.575   1.697   9.800 -0.4763  0.9299  0.4080
 3844SOL    HW123165   2.629   1.702   9.722 -0.2750  0.6229  0.5283
 3844SOL    HW223166   2.592   1.770   9.859 -1.1155 -0.2575  2.0845
 3845SOL     OW23167   4.166   2.747   3.945 -0.3406  0.2638  0.0107
 3845SOL    HW123168   4.162   2.658   3.910  1.8779  0.1918 -0.0329
 3845SOL    HW223169   4.233   2.737   4.012  0.4938  0.1396 -0.8311
 3846SOL     OW23170   4.730   0.805  12.994  0.0887 -0.4908 -0.2853
 3846SOL    HW123171   4.732   0.823  12.900  1.4933  0.8217 -0.0084
 3846SOL    HW223172   0.076   0.762  13.008  0.3019 -1.1543 -3.5902
 3847SOL     OW23173   0.032   4.047   4.538 -0.3168  0.0975 -0.2208
 3847SOL    HW123174   0.043   4.034   4.633 -1.8166 -1.0158 -0.2016
 3847SOL    HW223175   4.691   4.100   4.527 -1.8423 -2.3519 -1.1448
 3848SOL     OW23176   0.319   4.202  15.580  0.5507  0.3125  0.3373
 3848SOL    HW123177   0.305   4.257  15.657 -3.2977  0.2383 -0.2936
 3848SOL    HW223178   0.276   4.252  15.511  1.2002  2.5115  1.5458
 3849SOL     OW23179   1.043   3.747   3.727 -0.0831  0.7034 -0.6450
 3849SOL    HW123180   1.070   3.655   3.733  2.2865  1.5747  1.8609
 3849SOL    HW223181   0.992   3.765   3.805  1.5349  1.1690  0.2933
 3850SOL     OW23182   2.804   3.218   5.790  0.5025 -0.0430 -0.2688
 3850SOL    HW123183   2.894   3.234   5.761 -0.7709  2.2266 -2.9724
 3850SOL    HW223184   2.779   3.144   5.735 -0.5306  2.6744 -3.4935
 3851SOL     OW23185   1.561   1.695   0.042  0.1408 -0.4475  0.3389
 3851SOL    HW123186   1.547   1.743  17.712 -0.9429 -0.7427  0.3568
 3851SOL    HW223187   1.655   1.677   0.037  0.6326  2.6336 -1.5399
 3852SOL     OW23188   2.770   4.494   2.731  0.4939 -0.4996  0.2531
 3852SOL    HW123189   2.804   4.445   2.806  0.9710 -0.4054  0.0991
 3852SOL    HW223190   2.844   4.512   2.673  0.4234 -2.6115 -0.4655
 3853SOL     OW23191   3.474   2.129  10.642  0.3748  0.1674 -0.3321
 3853SOL    HW123192   3.554   2.128  10.694 -0.4145  1.5957  0.9211
 3853SOL    HW223193   3.418   2.195  10.683 -0.1286 -1.7998  2.1473
 3854SOL     OW23194   0.846   2.253   7.673  0.0341 -0.1701  0.0642
 3854SOL    HW123195   0.920   2.197   7.651  1.1216  0.6398  1.6137
 3854SOL    HW223196   0.834   2.322   7.608 -0.9800  0.2454  0.6932
 3855SOL     OW23197   3.131   2.822   3.126  0.0196  0.3671  0.5934
 3855SOL    HW123198   3.199   2.851   3.187  0.3275 -0.2511  0.5415
 3855SOL    HW223199   3.074   2.899   3.127 -0.4108  0.0394  1.3134
 3856SOL     OW23200   2.318   2.140   0.995 -0.4782  0.1482 -0.4385
 3856SOL    HW123201   2.332   2.047   1.013 -0.6527 -0.1078 -1.6441
 3856SOL    HW223202   2.231   2.139   0.955 -0.7495 -0.7745  0.1981
 3857SOL     OW23203   0.438   1.134  15.163  0.4991 -0.0986 -0.1049
 3857SOL    HW123204   0.443   1.055  15.110 -1.3580  0.1510 -0.6570
 3857SOL    HW223205   0.419   1.101  15.251 -4.1941  2.2311 -0.2455
 3858SOL     OW23206   1.412   3.963   7.533 -0.1946  0.0407 -0.2226
 3858SOL    HW123207   1.424   3.890   7.594  2.4087  0.8959  0.3109
 3858SOL    HW223208   1.335   4.008   7.567  0.6569  0.7401  0.7969
 3859SOL     OW23209   0.847   4.248   9.260  0.5945  0.0633 -0.7394
 3859SOL    HW123210   0.864   4.307   9.187 -1.3846  0.6336 -0.7440
 3859SOL    HW223211   0.871   4.161   9.228 -1.8588 -1.5432  1.6938
 3860SOL     OW23212   0.812   1.482  16.887  0.5872  0.1157  0.4515
 3860SOL    HW123213   0.849   1.557  16.840  0.7431 -0.7550 -0.8071
 3860SOL    HW223214   0.719   1.502  16.887  0.7436  0.8561  0.3848
 3861SOL     OW23215   0.935   2.768   9.819  0.3409  0.3359 -0.2894
 3861SOL    HW123216   0.946   2.863   9.813 -1.1570  0.2601 -4.1320
 3861SOL    HW223217   0.941   2.745   9.911  0.7562 -0.3156 -0.4789
 3862SOL     OW23218   3.514   1.051   4.614  0.1176 -0.4573 -0.2797
 3862SOL    HW123219   3.444   0.991   4.589  1.1621 -1.3407 -1.1015
 3862SOL    HW223220   3.466   1.103   4.678 -0.0137 -3.4235  1.9848
 3863SOL     OW23221   1.496   2.704   7.952  0.1059  0.6077 -0.2453
 3863SOL    HW123222   1.571   2.758   7.978 -0.5832  1.2659  0.3616
 3863SOL    HW223223   1.425   2.750   7.996  1.0682 -0.0496  2.0160
 3864SOL     OW23224   3.480   2.244   7.087 -0.4090 -0.1116  0.1548
 3864SOL    HW123225   3.475   2.314   7.152 -3.3221  1.0683 -1.3344
 3864SOL    HW223226   3.502   2.295   7.010  0.8379 -1.1752 -0.1882
 3865SOL     OW23227   2.753   1.050   0.258  0.1455  0.1833  0.8442
 3865SOL    HW123228   2.731   0.967   0.216  2.2783 -1.1953  2.4871
 3865SOL    HW223229   2.668   1.093   0.264 -1.2931 -2.8247  1.9968
 3866SOL     OW23230   0.783   4.653   3.229  0.4263  0.3293  0.0019
 3866SOL    HW123231   0.817   4.563   3.225 -2.4032 -0.7574  0.4927
 3866SOL    HW223232   0.702   4.647   3.280 -0.4218  1.4976 -1.2124
 3867SOL     OW23233   3.665   4.142  16.939  0.3497  0.1140 -0.0892
 3867SOL    HW123234   3.599   4.073  16.943  1.1618 -0.6718 -0.3290
 3867SOL    HW223235   3.643   4.178  16.853  1.8199 -0.6616 -0.7943
 3868SOL     OW23236   2.609   2.937  12.155 -0.3523 -0.3107  0.1822
 3868SOL    HW123237   2.656   2.881  12.216 -0.0630 -0.7917 -0.4840
 3868SOL    HW223238   2.559   2.987  12.219  1.1042  1.7481 -0.2682
 3869SOL     OW23239   0.396   3.531   0.957  0.2706  0.0115 -0.6866
 3869SOL    HW123240   0.347   3.599   0.911 -0.8432  0.8051  1.6664
 3869SOL    HW223241   0.348   3.516   1.038  1.0554  2.7476  0.2610
 3870SOL     OW23242   2.702   4.218   8.298  0.1415 -0.1342 -0.1449
 3870SOL    HW123243   2.683   4.125   8.287  3.8648 -1.0245  1.0128
 3870SOL    HW223244   2.761   4.229   8.223  0.2625 -1.8177 -0.2801
 3871SOL     OW23245   0.822   3.558   5.779  0.3840  0.3473 -0.4578
 3871SOL    HW123246   0.884   3.624   5.810  1.3963 -0.4245 -0.8424
 3871SOL    HW223247   0.744   3.611   5.797  0.3839  0.8015 -1.8142
 3872SOL     OW23248   0.095   0.812   9.100 -0.9846 -0.2047 -0.4815
 3872SOL    HW123249   0.044   0.743   9.058 -1.4826 -0.2102  0.1403
 3872SOL    HW223250   0.121   0.855   9.018 -1.4391  1.8302  0.4662
 3873SOL     OW23251   0.828   3.900   3.120  0.0322 -0.2614 -0.3228
 3873SOL    HW123252   0.803   3.988   3.150  0.4094 -0.4476  0.5347
 3873SOL    HW223253   0.849   3.855   3.202 -1.1201 -2.3498 -1.1890
 3874SOL     OW23254   4.492   2.669   3.864 -0.0907  0.4216 -0.4105
 3874SOL    HW123255   4.446   2.654   3.947  0.1669 -1.4512 -0.6161
 3874SOL    HW223256   4.502   2.762   3.844  0.1645  0.6313  0.7134
 3875SOL     OW23257   4.418   1.226  12.459  0.1927 -0.4851 -0.0643
 3875SOL    HW123258   4.505   1.267  12.467  0.0494 -0.5599  1.7784
 3875SOL    HW223259   4.353   1.292  12.481  1.1832 -0.3002  2.3635
 3876SOL     OW23260   4.314   3.097   3.746  0.4358 -0.0583 -0.6787
 3876SOL    HW123261   4.394   3.047   3.738  1.1537  1.1239 -0.9455
 3876SOL    HW223262   4.334   3.155   3.820  1.5927  0.5128 -1.4391
 3877SOL     OW23263   0.565   4.241   7.009 -0.0215 -0.1089  0.4065
 3877SOL    HW123264   0.478   4.265   6.977 -0.4997 -1.5405  0.6286
 3877SOL    HW223265   0.544   4.158   7.052 -0.5244 -0.0314  0.3126
 3878SOL     OW23266   0.833   2.615   4.307  0.4006  0.0773  0.0788
 3878SOL    HW123267   0.889   2.687   4.335  0.0353 -0.2127  1.5127
 3878SOL    HW223268   0.888   2.581   4.237 -0.4664 -0.0946 -0.5262
 3879SOL     OW23269   4.071   0.363   9.852  0.5213  0.6515 -0.1545
 3879SOL    HW123270   4.070   0.450   9.891 -0.5687  0.5088  0.1498
 3879SOL    HW223271   4.141   0.330   9.907 -1.3089 -0.0865  1.7513
 3880SOL     OW23272   1.850   1.007   4.760 -0.3947  0.3356 -0.1338
 3880SOL    HW123273   1.815   0.933   4.711 -2.7538  0.4662  1.3178
 3880SOL    HW223274   1.936   0.977   4.788 -1.2673 -0.0078  2.1817
 3881SOL     OW23275   2.608   3.032   0.453 -0.0146 -0.2846 -0.3176
 3881SOL    HW123276   2.630   3.104   0.512 -0.1851 -1.0292  0.6481
 3881SOL    HW223277   2.517   3.020   0.479 -0.1714  0.8137 -0.3556
 3882SOL     OW23278   2.987   4.041  14.774  0.1029  0.1072  0.1410
 3882SOL    HW123279   2.929   3.973  14.741 -0.2684  0.2475  0.4895
 3882SOL    HW223280   3.030   4.077  14.697  0.1901  1.3942  0.7889
 3883SOL     OW23281   1.633   1.783  12.538 -0.0961 -0.0304  0.2232
 3883SOL    HW123282   1.544   1.758  12.566  0.2506 -0.9717  0.5017
 3883SOL    HW223283   1.642   1.771  12.444  1.2975 -2.2477  0.6287
 3884SOL     OW23284   4.315   2.501   9.141  0.4142 -0.4940  0.0966
 3884SOL    HW123285   4.367   2.423   9.125  1.6653  0.4931 -0.6465
 3884SOL    HW223286   4.387   2.564   9.151  1.1901 -1.4446  0.5959
 3885SOL     OW23287   2.793   3.992   3.221 -0.3540  0.0977 -0.1999
 3885SOL    HW123288   2.727   4.015   3.287  0.2714 -0.0115  0.4646
 3885SOL    HW223289   2.750   3.929   3.163 -1.2782 -1.2532  1.9757
 3886SOL     OW23290   3.822   4.677   8.160 -0.2978 -0.1287  0.0226
 3886SOL    HW123291   3.818   0.003   8.089 -0.8619 -0.7697 -0.5252
 3886SOL    HW223292   3.852   4.724   8.238 -0.1900  0.9412 -0.6520
 3887SOL     OW23293   1.531   1.975  16.420 -0.0903 -0.0627  0.2814
 3887SOL    HW123294   1.443   1.939  16.411  0.5751 -1.9692  1.4906
 3887SOL    HW223295   1.579   1.915  16.363 -0.2310 -0.1661  0.2728
 3888SOL     OW23296   2.475   1.978  16.045  0.1401 -0.4281  0.2319
 3888SOL    HW123297   2.503   1.960  16.134  0.4610 -1.5895 -0.1066
 3888SOL    HW223298   2.457   1.888  16.017 -0.5709  0.2103 -1.3421
 3889SOL     OW23299   1.191   1.025   3.035 -0.1204  0.6138 -1.2577
 3889SOL    HW123300   1.243   1.059   2.962 -1.6661  0.6355 -2.3470
 3889SOL    HW223301   1.257   0.974   3.082  0.5297  1.9009 -0.7696
 3890SOL     OW23302   2.985   2.348   5.083  0.0033  0.0872 -0.7067
 3890SOL    HW123303   2.999   2.393   5.000 -0.1245  1.4166 -0.0183
 3890SOL    HW223304   2.891   2.329   5.079  0.4008 -2.1862  0.9308
 3891SOL     OW23305   3.016   0.785   6.523 -0.1775 -0.6756  0.4469
 3891SOL    HW123306   3.056   0.729   6.591 -2.4667 -3.6469 -0.6459
 3891SOL    HW223307   3.079   0.785   6.451 -1.7446  1.9402 -0.9347
 3892SOL     OW23308   1.688   1.657  12.938 -0.2992  0.0792 -0.3065
 3892SOL    HW123309   1.624   1.587  12.926 -0.9822  0.8032 -0.8649
 3892SOL    HW223310   1.679   1.659  13.034 -0.6144 -3.7657 -0.2548
 3893SOL     OW23311   3.433   0.275   8.563  0.0193  0.5479 -0.6498
 3893SOL    HW123312   3.421   0.368   8.582 -3.1447 -0.1519  0.7851
 3893SOL    HW223313   3.497   0.278   8.492  0.6676 -2.0272 -0.1696
 3894SOL     OW23314   3.283   2.989   3.670  0.7053 -0.4267  0.4910
 3894SOL    HW123315   3.316   3.046   3.601  0.3830  0.2491  0.8985
 3894SOL    HW223316   3.216   3.043   3.711 -0.5338 -0.8917 -0.9081
 3895SOL     OW23317   1.845   2.184   6.625 -0.0765  0.1389  0.2264
 3895SOL    HW123318   1.923   2.181   6.569  0.7252  0.8341  1.3110
 3895SOL    HW223319   1.875   2.244   6.693 -0.7820 -2.4237  2.7906
 3896SOL     OW23320   4.348   3.807   2.983  0.4235  0.2594  0.2448
 3896SOL    HW123321   4.315   3.726   2.943  1.2962  0.2810 -0.5294
 3896SOL    HW223322   4.442   3.792   2.989  0.3911  0.1160  0.4079
 3897SOL     OW23323   0.655   2.180   9.461 -0.9863 -0.3820  0.1030
 3897SOL    HW123324   0.648   2.211   9.371  1.7818 -0.6903 -0.2099
 3897SOL    HW223325   0.744   2.146   9.468 -0.7698  0.2171  0.2156
 3898SOL     OW23326   0.554   0.132   5.564 -0.5820  0.0149  0.0881
 3898SOL    HW123327   0.460   0.119   5.550 -0.5341  0.5283 -0.7173
 3898SOL    HW223328   0.580   0.066   5.628  1.2137  0.0120 -0.6480
 3899SOL     OW23329   3.309   1.221  17.589  0.2792 -0.4898  0.6404
 3899SOL    HW123330   3.401   1.218  17.564 -0.8592  0.0376 -3.6493
 3899SOL    HW223331   3.276   1.294  17.537 -1.1200 -0.1187  2.0322
 3900SOL     OW23332   1.656   1.944   0.233 -0.0313  0.2232  0.8013
 3900SOL    HW123333   1.726   1.934   0.168 -0.8837  0.0187 -0.0805
 3900SOL    HW223334   1.575   1.938   0.183 -1.0652  0.9058  2.3687
 3901SOL     OW23335   4.392   2.777   1.606  0.3188  0.2415  0.1227
 3901SOL    HW123336   4.325   2.748   1.544 -1.4182 -0.9357  2.5565
 3901SOL    HW223337   4.339   2.818   1.675  0.0617  2.1575 -1.2054
 3902SOL     OW23338   0.108   4.026   4.809  0.1039 -0.9111 -0.4390
 3902SOL    HW123339   0.059   3.981   4.878 -0.8696  2.5897  1.1434
 3902SOL    HW223340   0.186   4.047   4.861 -0.3225 -0.9322  0.2068
 3903SOL     OW23341   1.084   3.178   3.598  0.2348 -0.3165  0.0381
 3903SOL    HW123342   1.040   3.219   3.523 -0.5076  0.9899  1.2051
 3903SOL    HW223343   1.015   3.117   3.623 -0.1401 -0.8355 -2.2073
 3904SOL     OW23344   2.746   0.353   7.409  0.4505  0.2446  0.1210
 3904SOL    HW123345   2.701   0.435   7.388 -1.7728 -0.0633  3.7847
 3904SOL    HW223346   2.691   0.288   7.366 -0.0626 -0.5561  1.9916
 3905SOL     OW23347   2.097   2.327   7.377  0.0582  0.0269 -0.4546
 3905SOL    HW123348   2.145   2.406   7.357 -1.3792  1.1262  0.4011
 3905SOL    HW223349   2.045   2.354   7.453 -0.2649  2.0440 -1.4002
 3906SOL     OW23350   1.701   2.286   3.473  0.6015 -0.0510 -0.0335
 3906SOL    HW123351   1.700   2.254   3.563 -0.1804  2.2512  0.7762
 3906SOL    HW223352   1.667   2.374   3.490 -0.3546 -0.7336  1.4811
 3907SOL     OW23353   0.866   4.373   2.943  0.5781 -0.4119 -0.4751
 3907SOL    HW123354   0.902   4.294   2.903 -0.1738 -1.8509  1.7081
 3907SOL    HW223355   0.880   4.366   3.037  1.0529 -0.3666 -0.5420
 3908SOL     OW23356   0.631   4.595   3.675  0.0922  0.2173  0.1484
 3908SOL    HW123357   0.721   4.592   3.707 -0.1293  1.6652  0.9436
 3908SOL    HW223358   0.588   4.644   3.746 -1.3888 -2.8217  1.3297
 3909SOL     OW23359   0.325   2.478   2.257  0.2079 -0.2170  0.0377
 3909SOL    HW123360   0.419   2.495   2.263  0.0906 -0.0788  1.3883
 3909SOL    HW223361   0.303   2.538   2.328  0.6064 -1.7569  1.4684
 3910SOL     OW23362   4.705   0.524   8.349  0.4968 -0.0974 -0.7419
 3910SOL    HW123363   0.046   0.526   8.403  1.0903 -3.2339 -1.4633
 3910SOL    HW223364   4.689   0.615   8.327 -0.6984  0.2906  1.7714
 3911SOL     OW23365   4.577   3.382   7.848  0.0030  0.2653 -0.3397
 3911SOL    HW123366   4.565   3.293   7.815  0.9115 -0.0789  0.2517
 3911SOL    HW223367   4.671   3.373   7.865 -0.4460 -0.1935  1.7954
 3912SOL     OW23368   2.405   2.338   7.309 -0.1126  0.5350 -0.3904
 3912SOL    HW123369   2.496   2.368   7.311  0.2006 -0.4708  0.1518
 3912SOL    HW223370   2.360   2.404   7.257  0.1551  0.5648 -0.5867
 3913SOL     OW23371   0.955   0.142  13.387 -0.6894 -0.1364 -0.2450
 3913SOL    HW123372   0.958   0.233  13.417  1.6009  0.1939 -1.4563
 3913SOL    HW223373   0.991   0.144  13.298  0.0264  0.7365  0.0665
 3914SOL     OW23374   4.137   3.705   4.881  0.4447 -0.5961  0.4976
 3914SOL    HW123375   4.115   3.697   4.788  0.7612 -1.7507  0.5283
 3914SOL    HW223376   4.183   3.789   4.885 -0.4546  0.0616 -3.2690
 3915SOL     OW23377   0.730   1.601   7.389 -0.5513 -0.7961 -0.2328
 3915SOL    HW123378   0.818   1.634   7.368 -2.2528  3.3173 -0.7943
 3915SOL    HW223379   0.759   1.509   7.383  0.7497 -0.3243 -1.1860
 3916SOL     OW23380   0.801   3.174  11.086 -0.4750 -0.2188  0.0828
 3916SOL    HW123381   0.836   3.147  11.001 -0.7402  2.0246 -0.7372
 3916SOL    HW223382   0.875   3.173  11.147  1.0387 -0.6088 -1.7531
 3917SOL     OW23383   1.685   0.106   7.750 -0.3203  0.1232 -0.8313
 3917SOL    HW123384   1.610   0.152   7.788  0.7996 -0.3628  1.9950
 3917SOL    HW223385   1.668   0.026   7.800 -1.7682  1.0852  0.1969
 3918SOL     OW23386   1.958   2.944  12.451  0.2844  0.0032 -0.8725
 3918SOL    HW123387   1.998   2.866  12.490 -0.0560 -0.5901 -1.7122
 3918SOL    HW223388   1.873   2.912  12.421  0.5362 -1.3235 -0.1458
 3919SOL     OW23389   3.418   0.116  14.874 -0.1908  0.6012 -0.6526
 3919SOL    HW123390   3.461   0.094  14.791  0.1855 -2.2906  0.3107
 3919SOL    HW223391   3.351   0.048  14.872  0.5447 -0.1066 -0.8489
 3920SOL     OW23392   3.063   1.175   5.681 -0.7116 -0.0901  0.0872
 3920SOL    HW123393   3.107   1.223   5.751 -2.3180  1.7141 -0.1169
 3920SOL    HW223394   2.974   1.195   5.711 -0.5541 -1.0479  1.2050
 3921SOL     OW23395   4.619   3.728   4.193 -0.3911 -0.3825  0.0986
 3921SOL    HW123396   4.622   3.822   4.173  2.5076 -0.3211  0.8144
 3921SOL    HW223397   4.618   3.700   4.101 -0.7110 -1.7421  0.5198
 3922SOL     OW23398   1.660   2.135   8.326  0.4564  0.2934  0.4302
 3922SOL    HW123399   1.617   2.171   8.404  1.0081 -2.6971  2.1155
 3922SOL    HW223400   1.609   2.175   8.256  1.7778 -1.2222 -1.4039
 3923SOL     OW23401   4.121   1.598  17.126  0.5766 -0.2656 -0.5006
 3923SOL    HW123402   4.134   1.572  17.217 -1.9673  1.8194  0.4470
 3923SOL    HW223403   4.064   1.528  17.094  1.8201 -0.5371 -2.1421
 3924SOL     OW23404   1.738   3.458  17.343 -0.3042 -0.0686 -1.0680
 3924SOL    HW123405   1.771   3.370  17.321 -2.1636 -0.8310 -0.7535
 3924SOL    HW223406   1.808   3.491  17.400 -0.3464 -0.5452 -0.7367
 3925SOL     OW23407   3.130   0.430   9.068 -0.2147 -0.2921 -0.0564
 3925SOL    HW123408   3.143   0.367   8.996  0.5096  1.5504 -1.5209
 3925SOL    HW223409   3.048   0.471   9.041 -0.0546  1.6025  2.4663
 3926SOL     OW23410   0.216   3.044  15.333 -0.5631 -0.4235 -0.5005
 3926SOL    HW123411   0.260   3.021  15.415 -1.0876 -0.8646 -0.3458
 3926SOL    HW223412   0.166   2.964  15.318  1.1068 -1.2830 -1.6032
 3927SOL     OW23413   1.891   0.345   8.084 -0.2118 -0.6897 -0.4518
 3927SOL    HW123414   1.956   0.381   8.023 -1.4913  0.8707 -0.9064
 3927SOL    HW223415   1.815   0.395   8.053  0.9364  1.3173 -0.0876
 3928SOL     OW23416   3.739   3.023   8.177 -0.0940  0.9285  0.1706
 3928SOL    HW123417   3.688   3.098   8.148  0.3346  1.4200  0.6755
 3928SOL    HW223418   3.736   3.030   8.273 -0.9195  2.6366  0.0254
 3929SOL     OW23419   1.959   3.374   9.432 -0.1971  0.5321 -0.9667
 3929SOL    HW123420   1.931   3.466   9.436 -0.3496  0.5326 -2.0618
 3929SOL    HW223421   2.026   3.367   9.500 -0.8374  0.9124 -0.2858
 3930SOL     OW23422   3.578   0.375   9.271  0.4306 -0.0082 -0.3077
 3930SOL    HW123423   3.527   0.332   9.340  2.3861  0.0846  1.2071
 3930SOL    HW223424   3.641   0.309   9.242  1.1629  1.5183 -2.2021
 3931SOL     OW23425   1.912   3.493   4.366 -0.7374  0.0683  0.0240
 3931SOL    HW123426   1.977   3.489   4.436  0.4105 -0.0376 -1.0288
 3931SOL    HW223427   1.966   3.477   4.288  1.0742  1.9690  0.8950
 3932SOL     OW23428   0.466   0.422   5.614 -0.6453 -0.2109 -0.3308
 3932SOL    HW123429   0.435   0.332   5.628 -1.0072 -0.7626 -4.5004
 3932SOL    HW223430   0.562   0.413   5.613 -0.6703 -0.4808 -0.2683
 3933SOL     OW23431   4.487   4.693   7.375  0.1588  0.2994 -0.5124
 3933SOL    HW123432   4.528   0.039   7.354  1.2039  0.5239  2.3823
 3933SOL    HW223433   4.507   4.649   7.293 -0.0201 -2.6104  1.0079
 3934SOL     OW23434   3.007   2.012   7.806 -0.2539 -0.0543 -0.3385
 3934SOL    HW123435   2.988   1.953   7.733 -2.2282 -1.1402  1.0562
 3934SOL    HW223436   2.923   2.031   7.848  0.6559  0.0370  1.4764
 3935SOL     OW23437   2.587   4.539   3.726  0.0941 -0.4157 -0.2015
 3935SOL    HW123438   2.601   4.448   3.754 -1.0623 -0.7521 -0.7154
 3935SOL    HW223439   2.652   4.576   3.785 -0.8301 -2.5616  2.1831
 3936SOL     OW23440   4.115   1.744   3.211 -0.3147 -0.3094 -0.3256
 3936SOL    HW123441   4.198   1.734   3.165  0.0628 -0.4041  0.3655
 3936SOL    HW223442   4.094   1.835   3.193  2.4885 -0.1101 -2.5479
 3937SOL     OW23443   2.103   2.866   8.251 -0.5497  0.3691 -0.2763
 3937SOL    HW123444   2.116   2.784   8.298  0.4480  0.3508 -0.5961
 3937SOL    HW223445   2.018   2.842   8.215 -1.0298 -0.0768  1.1434
 3938SOL     OW23446   4.214   1.839  16.928  0.0638 -0.4235  0.4575
 3938SOL    HW123447   4.136   1.879  16.966  0.9146 -1.0586  2.8910
 3938SOL    HW223448   4.197   1.746  16.916 -2.0462 -0.1553  1.5061
 3939SOL     OW23449   2.848   4.468   9.760 -0.1209 -0.1633 -0.4824
 3939SOL    HW123450   2.910   4.520   9.811 -0.1378 -1.4131  0.8299
 3939SOL    HW223451   2.833   4.387   9.810  2.2852  2.0523  3.7899
 3940SOL     OW23452   2.994   2.180  14.056  0.1277  0.1408 -0.1775
 3940SOL    HW123453   3.037   2.209  14.137  2.0943 -1.1550 -0.7758
 3940SOL    HW223454   2.972   2.090  14.083  0.1042 -0.0717 -0.9161
 3941SOL     OW23455   2.340   1.170  13.862  0.0641  0.6449 -0.5642
 3941SOL    HW123456   2.377   1.225  13.793  0.2246 -1.0956 -1.8502
 3941SOL    HW223457   2.401   1.181  13.935 -1.5900 -1.2115  1.1156
 3942SOL     OW23458   3.231   3.633  13.075  0.3563  0.2405 -0.1258
 3942SOL    HW123459   3.188   3.635  12.990  0.3341 -0.4994 -0.1355
 3942SOL    HW223460   3.195   3.554  13.116 -0.4193  0.2402 -0.8125
 3943SOL     OW23461   2.828   3.424   7.867 -0.3549 -0.4311  0.3219
 3943SOL    HW123462   2.824   3.329   7.858 -0.3396 -0.5749  1.8267
 3943SOL    HW223463   2.913   3.438   7.824 -0.5907 -1.3686 -0.4450
 3944SOL     OW23464   3.827   3.575   9.215 -0.0775  0.2421  0.0092
 3944SOL    HW123465   3.915   3.607   9.196  0.2209 -1.1682 -0.9717
 3944SOL    HW223466   3.778   3.657   9.225  0.9735  0.9020 -0.2871
 3945SOL     OW23467   2.974   0.151  15.121  0.0332  0.2628  0.2844
 3945SOL    HW123468   2.994   0.161  15.028 -0.7072  1.9965  0.2932
 3945SOL    HW223469   2.901   0.089  15.117  1.2632 -1.1879  0.3309
 3946SOL     OW23470   4.406   4.111   4.882  0.0162  0.4631 -0.4561
 3946SOL    HW123471   4.349   4.168   4.830 -0.8727 -0.7609 -0.8066
 3946SOL    HW223472   4.342   4.098   4.952 -0.4671  0.2907 -0.9348
 3947SOL     OW23473   1.254   1.356   7.803  0.7664 -0.2248 -0.7294
 3947SOL    HW123474   1.299   1.335   7.721 -2.7370 -3.8548 -1.6896
 3947SOL    HW223475   1.245   1.450   7.784  0.4331 -0.1610 -0.2411
 3948SOL     OW23476   0.306   3.244  10.039  0.0736  0.1067 -1.0286
 3948SOL    HW123477   0.388   3.224   9.994  1.5553  0.7050  1.4728
 3948SOL    HW223478   0.298   3.180  10.109 -0.7686  0.3188 -0.9293
 3949SOL     OW23479   4.237   0.424   4.631 -0.1808 -0.2797  0.7499
 3949SOL    HW123480   4.203   0.390   4.548 -1.7029 -1.7220  1.9642
 3949SOL    HW223481   4.157   0.468   4.659 -1.0608 -0.8536 -0.8924
 3950SOL     OW23482   1.450   0.186   5.937  0.4873 -0.5146 -0.7646
 3950SOL    HW123483   1.533   0.223   5.909  1.4397 -2.4224 -0.4840
 3950SOL    HW223484   1.482   0.130   6.008 -2.9271  1.2711  2.1808
 3951SOL     OW23485   3.072   3.634   8.438 -0.6099  0.5759 -0.0551
 3951SOL    HW123486   2.998   3.668   8.389 -0.0398  2.1773  0.2162
 3951SOL    HW223487   3.064   3.696   8.510  1.0829 -0.4506  1.0368
 3952SOL     OW23488   4.553   4.249   2.891  0.1983 -0.0583  0.6666
 3952SOL    HW123489   4.534   4.314   2.959 -2.7650  0.7191 -0.8778
 3952SOL    HW223490   4.620   4.197   2.935 -0.1830  1.2097  2.7607
 3953SOL     OW23491   3.800   0.267   2.877  0.2340  0.5266 -0.0034
 3953SOL    HW123492   3.735   0.332   2.903 -1.4043 -1.5270  0.9755
 3953SOL    HW223493   3.829   0.233   2.962  0.3700  0.3120 -0.1337
 3954SOL     OW23494   1.158   4.537   7.352  0.2918 -0.8391 -0.7508
 3954SOL    HW123495   1.128   4.549   7.262  1.7593  3.9227 -0.6261
 3954SOL    HW223496   1.079   4.505   7.395 -0.2495 -2.0699 -2.6442
 3955SOL     OW23497   0.720   4.544   0.772 -0.1030 -0.1806 -0.2073
 3955SOL    HW123498   0.782   4.478   0.742  1.5706  1.4958 -0.4921
 3955SOL    HW223499   0.754   4.615   0.716 -0.2467  0.0632  0.0144
 3956SOL     OW23500   2.370   1.956   1.299  0.1373  0.0973 -0.3410
 3956SOL    HW123501   2.395   2.049   1.305  0.6041 -0.0985  0.8613
 3956SOL    HW223502   2.428   1.913   1.362  1.2534  0.7107 -0.9488
 3957SOL     OW23503   2.122   0.722  17.689 -0.1382 -0.0153 -0.3317
 3957SOL    HW123504   2.170   0.757  17.615  0.6753  0.2186  0.3004
 3957SOL    HW223505   2.094   0.799  17.740 -2.7114 -0.7296 -0.6966
 3958SOL     OW23506   1.445   4.475   8.263  0.2984 -0.6187  0.8415
 3958SOL    HW123507   1.523   4.506   8.216 -0.0543 -2.6105 -1.0887
 3958SOL    HW223508   1.410   4.554   8.303  1.6087 -0.3511  1.4514
 3959SOL     OW23509   2.233   1.006  14.064 -0.1128  0.0270  0.0756
 3959SOL    HW123510   2.226   1.064  13.988 -2.9308 -3.4100 -2.3113
 3959SOL    HW223511   2.263   0.922  14.027 -0.4571 -0.6359  1.3020
 3960SOL     OW23512   4.737   4.578   5.977 -0.1316  0.2112  0.3375
 3960SOL    HW123513   0.073   4.608   6.030 -0.3905  0.6257  0.4672
 3960SOL    HW223514   4.723   4.645   5.909 -1.2858  0.8068  1.1556
 3961SOL     OW23515   3.873   1.843   7.744  0.3918  0.2353 -0.2771
 3961SOL    HW123516   3.903   1.808   7.828 -0.0289  1.4268  0.3750
 3961SOL    HW223517   3.857   1.936   7.759  0.1390 -0.3401  3.0549
 3962SOL     OW23518   1.728   1.492  10.982  0.5259  0.1965  0.3362
 3962SOL    HW123519   1.735   1.501  10.887 -0.4132  1.5502  0.3922
 3962SOL    HW223520   1.727   1.585  11.002 -2.3752  0.6638 -1.9339
 3963SOL     OW23521   4.550   0.526   6.993 -0.3925 -0.0786  0.0529
 3963SOL    HW123522   4.533   0.469   7.068 -0.9980 -1.7928 -1.4034
 3963SOL    HW223523   4.601   0.597   7.032  1.3335 -0.8613 -0.7955
 3964SOL     OW23524   3.762   0.359   5.604 -0.0767  0.2080 -0.3135
 3964SOL    HW123525   3.780   0.374   5.696 -1.8905 -2.1718  0.4161
 3964SOL    HW223526   3.668   0.343   5.607  0.1540 -1.3344 -0.9866
 3965SOL     OW23527   0.423   3.659   1.815  0.1796 -0.3284  0.0766
 3965SOL    HW123528   0.472   3.693   1.741 -0.1393  3.2626  1.5053
 3965SOL    HW223529   0.416   3.738   1.869 -1.0109 -0.2354 -0.2053
 3966SOL     OW23530   0.652   2.704   9.858 -0.6009  0.1683 -0.5650
 3966SOL    HW123531   0.689   2.780   9.903 -0.9329  0.6928 -1.1742
 3966SOL    HW223532   0.723   2.642   9.873 -0.5295  0.5236  0.5685
 3967SOL     OW23533   3.691   0.438  14.974  0.6753  0.3636 -1.1611
 3967SOL    HW123534   3.729   0.520  15.006 -1.1274  0.2800  1.1767
 3967SOL    HW223535   3.745   0.382  15.030  0.7710  2.0536  0.4356
 3968SOL     OW23536   0.347   3.933   8.598 -0.3263 -0.5727 -0.7513
 3968SOL    HW123537   0.442   3.918   8.590 -0.4072 -1.4861 -0.0765
 3968SOL    HW223538   0.356   4.020   8.636  1.1426 -2.0067  2.2494
 3969SOL     OW23539   4.673   3.167   6.882  0.3471 -0.1096  0.5976
 3969SOL    HW123540   4.718   3.241   6.923 -1.3229  0.3022  1.7442
 3969SOL    HW223541   4.643   3.207   6.800 -0.1371 -1.2515  0.2230
 3970SOL     OW23542   1.778   1.975   8.019 -0.0391  0.1382 -0.5312
 3970SOL    HW123543   1.742   1.972   8.108  0.7958  1.0706 -0.1682
 3970SOL    HW223544   1.870   1.984   8.042 -0.4184  1.9899  0.2204
 3971SOL     OW23545   2.659   0.468   7.778 -0.7010  0.7038 -0.1671
 3971SOL    HW123546   2.637   0.543   7.834 -2.0390  0.7646 -0.7733
 3971SOL    HW223547   2.570   0.444   7.752 -0.4395  0.8442 -1.1796
 3972SOL     OW23548   2.077   4.605   6.788 -0.6779  0.0055 -0.1982
 3972SOL    HW123549   2.021   4.631   6.715 -0.4393  0.0396 -0.3652
 3972SOL    HW223550   2.046   4.661   6.860  1.0980  0.4739  0.1990
 3973SOL     OW23551   0.318   1.595   9.250  0.2987 -0.1025 -0.4998
 3973SOL    HW123552   0.406   1.587   9.215  0.2952  1.5602 -0.8731
 3973SOL    HW223553   0.278   1.632   9.172  0.4724  1.0944 -0.0116
 3974SOL     OW23554   1.919   3.236  17.424  0.5234 -0.6970  0.1727
 3974SOL    HW123555   2.006   3.204  17.399 -0.3522 -2.9322 -0.0343
 3974SOL    HW223556   1.946   3.252  17.514 -2.3945  1.6905  0.6118
 3975SOL     OW23557   4.699   3.666   3.220 -0.2800 -0.7632 -0.4493
 3975SOL    HW123558   4.718   3.692   3.310 -0.7803 -0.6509 -0.3760
 3975SOL    HW223559   4.685   3.573   3.240  1.4161 -1.1065 -0.8119
 3976SOL     OW23560   1.437   2.979   2.570  0.8902 -0.3926 -0.6276
 3976SOL    HW123561   1.392   3.005   2.650  2.2234 -2.0415  0.6829
 3976SOL    HW223562   1.358   2.958   2.520  0.8788 -0.4535 -0.5851
 3977SOL     OW23563   0.760   3.612   4.724  0.6826  0.3282 -0.8713
 3977SOL    HW123564   0.681   3.576   4.684  1.2919 -1.9676  0.0104
 3977SOL    HW223565   0.823   3.540   4.730  0.4409  0.1928 -0.0884
 3978SOL     OW23566   4.408   2.250   2.850  0.0043  0.0774  0.0015
 3978SOL    HW123567   4.471   2.251   2.922 -0.4976  0.0642  0.4481
 3978SOL    HW223568   4.369   2.337   2.852 -0.6626 -0.3076  4.0848
 3979SOL     OW23569   1.420   1.274   5.549  0.5441  0.8501  0.2366
 3979SOL    HW123570   1.333   1.253   5.583  0.2957 -0.0589 -0.9806
 3979SOL    HW223571   1.440   1.184   5.524 -0.9041  0.9600 -1.3213
 3980SOL     OW23572   0.140   1.912   4.301  0.2646  0.0159  0.5171
 3980SOL    HW123573   0.103   1.889   4.386 -0.1327 -1.3367 -0.0256
 3980SOL    HW223574   0.067   1.899   4.240  1.0381  0.7653 -0.5800
 3981SOL     OW23575   4.357   0.566   6.155  0.6003  0.3159  0.3292
 3981SOL    HW123576   4.309   0.525   6.082 -0.0148  1.2129  0.2339
 3981SOL    HW223577   4.330   0.657   6.151 -0.4693 -0.0809 -1.7724
 3982SOL     OW23578   1.760   3.724  10.778  0.2175 -0.0608 -0.7343
 3982SOL    HW123579   1.789   3.674  10.702 -0.2836 -0.4862 -0.6476
 3982SOL    HW223580   1.777   3.648  10.833  1.0408  0.4794 -0.2563
 3983SOL     OW23581   2.334   0.950   8.415  0.1281 -0.1426 -0.4910
 3983SOL    HW123582   2.375   0.962   8.329  0.1187 -0.2748 -0.5152
 3983SOL    HW223583   2.305   1.039   8.432 -3.9032 -1.4384 -0.5976
 3984SOL     OW23584   1.291   4.124   4.978  0.5905  0.0636 -0.1983
 3984SOL    HW123585   1.296   4.045   5.032  3.0824  0.2004 -0.2346
 3984SOL    HW223586   1.351   4.103   4.907 -0.6531 -0.5347 -1.0712
 3985SOL     OW23587   0.887   3.629   6.963 -0.2198  0.4315 -0.3034
 3985SOL    HW123588   0.948   3.680   6.910  0.1874 -0.4330 -0.6749
 3985SOL    HW223589   0.834   3.701   6.994 -1.8692 -0.2844 -1.4443
 3986SOL     OW23590   2.180   1.599  13.154 -0.0553 -0.0768  0.3235
 3986SOL    HW123591   2.099   1.623  13.199 -0.0410 -0.1355  0.3809
 3986SOL    HW223592   2.190   1.505  13.171 -0.7912  0.2674  2.7144
 3987SOL     OW23593   4.150   1.490  11.820  0.0661 -0.0977 -0.0044
 3987SOL    HW123594   4.144   1.510  11.913 -1.0422 -1.4973  0.2291
 3987SOL    HW223595   4.060   1.457  11.813 -0.3461  0.6745  1.7786
 3988SOL     OW23596   0.488   3.537   4.672  0.2624  0.0348 -0.0219
 3988SOL    HW123597   0.439   3.578   4.600  0.1216  0.3211  0.2360
 3988SOL    HW223598   0.493   3.445   4.646 -0.2611 -0.2265  0.8175
 3989SOL     OW23599   3.052   1.346   1.234 -0.0457  0.0378 -0.1496
 3989SOL    HW123600   3.070   1.393   1.152  0.1465 -0.6705 -0.5183
 3989SOL    HW223601   3.111   1.396   1.290  1.7677 -0.2162 -1.8179
 3990SOL     OW23602   1.947   0.248   2.646  0.2435 -0.1477  0.5717
 3990SOL    HW123603   1.882   0.230   2.578  0.9606  0.3625 -0.2468
 3990SOL    HW223604   1.950   0.162   2.689  1.6642 -0.1594  0.4714
 3991SOL     OW23605   0.196   2.461   1.432  1.1761  0.1729 -0.7250
 3991SOL    HW123606   0.259   2.447   1.503 -3.3487 -4.3967  2.3316
 3991SOL    HW223607   0.136   2.387   1.442  3.9704 -1.5732  3.4185
 3992SOL     OW23608   2.152   0.263   7.914  0.0666  0.2177  0.2493
 3992SOL    HW123609   2.162   0.189   7.973  0.1020  0.5263  0.6272
 3992SOL    HW223610   2.084   0.234   7.853  2.0932  0.0823 -1.9136
 3993SOL     OW23611   0.678   4.062   8.106 -0.0381  0.2218 -0.0287
 3993SOL    HW123612   0.743   4.131   8.092 -1.5411  1.9022  1.1667
 3993SOL    HW223613   0.731   4.002   8.159 -0.5887  2.2239  2.8076
 3994SOL     OW23614   0.286   1.036   7.673 -0.3334  0.2044 -0.1845
 3994SOL    HW123615   0.311   1.080   7.592 -0.4222 -0.2157 -0.4442
 3994SOL    HW223616   0.302   1.109   7.732  2.3744 -0.1893 -0.4497
 3995SOL     OW23617   4.687   4.316   5.891 -0.4238 -0.3401  0.2850
 3995SOL    HW123618   4.719   4.387   5.946  1.0059 -0.6647 -0.1323
 3995SOL    HW223619   4.597   4.335   5.864 -0.8559 -3.0372 -0.2356
 3996SOL     OW23620   0.400   0.668   2.587  0.8603  0.3736  0.4261
 3996SOL    HW123621   0.345   0.610   2.534  1.6449 -1.7518  1.9373
 3996SOL    HW223622   0.411   0.598   2.651  1.1172  1.4273  1.5334
 3997SOL     OW23623   3.809   4.209   1.898  0.3629 -0.0370 -0.2396
 3997SOL    HW123624   3.798   4.288   1.951 -1.3200 -0.0293 -0.5736
 3997SOL    HW223625   3.716   4.184   1.894  0.1294  0.9398 -1.1561
 3998SOL     OW23626   1.482   3.504  17.209 -0.5648  0.3588 -0.3535
 3998SOL    HW123627   1.573   3.504  17.240 -0.2078  1.4354 -1.3886
 3998SOL    HW223628   1.502   3.467  17.123  0.6077  0.9653 -0.3498
 3999SOL     OW23629   1.188   4.075   6.155 -0.4823 -0.2352  0.5752
 3999SOL    HW123630   1.132   4.010   6.196 -2.0521  1.7351  1.5856
 3999SOL    HW223631   1.204   4.116   6.240 -0.4091  2.3597 -0.6741
 4000SOL     OW23632   3.182   0.343  12.039 -0.4321  0.0826  0.5578
 4000SOL    HW123633   3.099   0.377  12.004 -0.9577 -1.5709  0.1976
 4000SOL    HW223634   3.227   0.421  12.072  1.4435 -0.7049 -0.1864
 4001SOL     OW23635   4.531   0.425   8.847  0.0059  0.1220  0.6684
 4001SOL    HW123636   4.453   0.462   8.887  0.5622  1.1594  0.7831
 4001SOL    HW223637   4.484   0.347   8.818  1.1204  0.4145 -1.9520
 4002SOL     OW23638   1.482   0.097   0.352  0.2090 -0.1283 -0.0548
 4002SOL    HW123639   1.539   0.174   0.352 -0.2482  0.2138  0.3115
 4002SOL    HW223640   1.551   0.036   0.328  0.6845 -0.2092  1.5410
 4003SOL     OW23641   0.383   4.574   4.380 -0.5059  0.2511  0.0420
 4003SOL    HW123642   0.442   4.499   4.371 -0.7465 -0.0434  0.8436
 4003SOL    HW223643   0.455   4.637   4.378  0.1411 -0.5435 -1.2114
 4004SOL     OW23644   1.685   2.046   2.368 -0.0181 -0.3784  0.3437
 4004SOL    HW123645   1.676   2.084   2.456 -1.5344 -1.2600  0.5575
 4004SOL    HW223646   1.623   2.097   2.316  0.1613 -0.1085  0.3910
 4005SOL     OW23647   3.822   2.216   3.411 -0.1161 -0.3861  0.1408
 4005SOL    HW123648   3.795   2.282   3.347 -0.1050 -0.5411 -0.0236
 4005SOL    HW223649   3.917   2.211   3.399 -0.0823  0.9144 -0.1382
 4006SOL     OW23650   3.340   3.138  13.309  0.0236 -0.4301 -0.1716
 4006SOL    HW123651   3.432   3.150  13.333 -0.3993  0.3329  1.1042
 4006SOL    HW223652   3.347   3.065  13.247 -0.5209  1.4953 -2.4608
 4007SOL     OW23653   0.430   2.865   1.388 -0.4916 -0.5506  0.1384
 4007SOL    HW123654   0.432   2.847   1.482 -1.3005  0.9822  0.4516
 4007SOL    HW223655   0.422   2.960   1.391 -0.0336 -0.4782 -0.8504
 4008SOL     OW23656   3.346   3.326   4.317  0.7425 -0.0626  0.0135
 4008SOL    HW123657   3.377   3.409   4.281 -2.2739  0.5950 -1.0562
 4008SOL    HW223658   3.314   3.351   4.403 -4.1656 -1.0119 -1.5497
 4009SOL     OW23659   3.638   0.886   9.111 -0.3841  0.4167  0.2263
 4009SOL    HW123660   3.701   0.957   9.119 -0.7657  0.8704 -0.8180
 4009SOL    HW223661   3.698   0.813   9.097  2.2247  2.6804 -0.4863
 4010SOL     OW23662   0.026   0.666   8.013 -0.4819 -0.0768 -0.6663
 4010SOL    HW123663   0.025   0.736   8.078  1.5087  0.6715 -1.4215
 4010SOL    HW223664   4.695   0.611   8.049  0.8906 -1.4924 -0.1774
 4011SOL     OW23665   1.305   2.208  14.295  0.5043  0.2070 -0.3419
 4011SOL    HW123666   1.269   2.142  14.236  2.1893 -0.7616 -0.2783
 4011SOL    HW223667   1.328   2.159  14.374 -1.5186 -2.0336 -1.1776
 4012SOL     OW23668   2.173   1.201   7.504 -0.0644  0.2763 -0.1037
 4012SOL    HW123669   2.143   1.159   7.424 -0.8466  1.3418 -0.3733
 4012SOL    HW223670   2.219   1.127   7.544 -0.5811  0.3269  0.5956
 4013SOL     OW23671   0.836   4.094  14.282 -0.0278  0.4915  0.5351
 4013SOL    HW123672   0.919   4.141  14.284  0.2353 -0.0269  1.8770
 4013SOL    HW223673   0.828   4.083  14.377  1.1813 -0.3649  0.5382
 4014SOL     OW23674   0.496   0.203  16.881 -0.0151  0.2227 -0.3175
 4014SOL    HW123675   0.491   0.257  16.960 -1.6454  0.0227 -0.2861
 4014SOL    HW223676   0.409   0.163  16.885  0.0563  0.0319 -0.7614
 4015SOL     OW23677   1.876   1.077   8.439  0.3578  0.0780  0.3379
 4015SOL    HW123678   1.810   1.084   8.509  0.9527 -0.4025  0.9409
 4015SOL    HW223679   1.939   1.016   8.476  0.1261  0.9165  2.1189
 4016SOL     OW23680   2.790   0.115   4.226 -0.2132  0.7378  0.2417
 4016SOL    HW123681   2.806   0.166   4.147 -1.0460  1.6638  0.6743
 4016SOL    HW223682   2.846   0.159   4.290 -3.4595  1.9229  2.2764
 4017SOL     OW23683   0.727   2.885   5.241  0.0068 -0.0409 -0.2271
 4017SOL    HW123684   0.811   2.918   5.209 -0.0422 -2.1188 -2.5181
 4017SOL    HW223685   0.665   2.928   5.182 -1.0216 -0.5989  0.4437
 4018SOL     OW23686   3.497   3.918   3.455  0.2213  0.0852  0.2793
 4018SOL    HW123687   3.403   3.931   3.468  0.3452 -1.0418  2.4153
 4018SOL    HW223688   3.519   3.932   3.547  2.2693  1.6874 -0.4523
 4019SOL     OW23689   1.783   1.281  12.952 -0.2866  0.2605  0.4736
 4019SOL    HW123690   1.879   1.271  12.957 -0.2815  0.2544  0.3437
 4019SOL    HW223691   1.765   1.337  13.028 -1.6868  1.6885 -0.9301
 4020SOL     OW23692   4.121   3.242   6.811 -0.4863 -0.2071 -0.3995
 4020SOL    HW123693   4.187   3.306   6.784 -1.8829  1.6812  0.6018
 4020SOL    HW223694   4.133   3.170   6.750 -0.6434 -1.7008  1.3314
 4021SOL     OW23695   1.656   4.400  11.638  0.5062  0.5931  0.2937
 4021SOL    HW123696   1.719   4.472  11.637  3.1711 -1.7409 -1.3000
 4021SOL    HW223697   1.611   4.435  11.714 -0.5473  0.4689 -0.2613
 4022SOL     OW23698   2.690   4.425  17.233 -0.4090  0.0597  0.3444
 4022SOL    HW123699   2.651   4.480  17.301  0.0857 -1.7188  2.0679
 4022SOL    HW223700   2.662   4.467  17.152  1.4339  0.3499 -0.1460
 4023SOL     OW23701   3.878   2.973   1.463 -0.5316  0.3135  0.0724
 4023SOL    HW123702   3.854   2.886   1.432  0.1003  0.4059 -0.6813
 4023SOL    HW223703   3.800   3.007   1.507 -0.4736  0.6540 -0.0877
 4024SOL     OW23704   1.773   3.328  11.470 -0.5017 -0.2519 -0.4592
 4024SOL    HW123705   1.752   3.272  11.545 -1.3576  0.8128  0.0943
 4024SOL    HW223706   1.862   3.358  11.487 -0.5571 -1.7613  2.6737
 4025SOL     OW23707   2.243   1.734  10.445  0.7750 -0.5396 -0.0441
 4025SOL    HW123708   2.260   1.825  10.419 -0.3207 -0.2735  0.1755
 4025SOL    HW223709   2.156   1.723  10.406  0.4928 -1.9738  0.9900
 4026SOL     OW23710   2.244   1.043   5.348  0.1461  0.0093  0.4198
 4026SOL    HW123711   2.310   1.090   5.398  0.5763 -1.2465  1.0363
 4026SOL    HW223712   2.277   0.956   5.369 -2.0297 -1.3131 -1.6178
 4027SOL     OW23713   3.874   4.683   2.421  0.7932  0.3477  0.5664
 4027SOL    HW123714   3.779   4.690   2.431  0.8720  2.3878 -0.1662
 4027SOL    HW223715   3.882   4.592   2.451 -0.5674 -0.3217 -1.1020
 4028SOL     OW23716   0.848   3.055   5.013  0.3486  0.1731  0.2478
 4028SOL    HW123717   0.900   2.978   4.987  1.1487 -0.0331  2.4595
 4028SOL    HW223718   0.913   3.096   5.069 -0.7524 -1.4941  2.7515
 4029SOL     OW23719   0.269   0.208   2.477 -0.6808 -0.4945  0.3702
 4029SOL    HW123720   0.210   0.195   2.551  0.2743  0.9239  1.3773
 4029SOL    HW223721   0.245   0.140   2.415  1.2329 -0.4708 -0.3844
 4030SOL     OW23722   4.562   0.419   7.271 -0.0374  0.4492  0.8442
 4030SOL    HW123723   4.496   0.353   7.250  1.6207 -1.3291  1.1642
 4030SOL    HW223724   4.556   0.427   7.366 -0.7849 -0.3243  0.8612
 4031SOL     OW23725   0.713   1.446   4.414  0.3099  0.4027 -0.7526
 4031SOL    HW123726   0.748   1.356   4.411  1.9633  0.9839  1.1556
 4031SOL    HW223727   0.622   1.425   4.432  0.0776 -0.2329 -2.6803
 4032SOL     OW23728   0.173   0.392   3.904 -0.2561  0.0987  0.2115
 4032SOL    HW123729   0.155   0.300   3.883  0.1236 -0.2706  1.5443
 4032SOL    HW223730   0.125   0.410   3.984  1.6351  1.5007  1.0114
 4033SOL     OW23731   2.666   3.024   8.971 -0.0598 -0.5644 -0.6398
 4033SOL    HW123732   2.671   3.009   8.876 -1.7223  0.0195 -0.8137
 4033SOL    HW223733   2.687   3.117   8.966  0.3328 -0.6799 -1.1471
 4034SOL     OW23734   2.041   0.804   0.317 -0.2030  0.2570 -0.0673
 4034SOL    HW123735   2.090   0.863   0.374 -0.8795 -0.8869  1.7251
 4034SOL    HW223736   2.023   0.731   0.376 -3.0797  1.7552  0.9068
 4035SOL     OW23737   4.642   4.578  15.718  0.6242 -0.0116  0.1378
 4035SOL    HW123738   4.646   4.493  15.674 -0.4302  0.2056 -0.3574
 4035SOL    HW223739   4.603   4.626  15.645 -0.5339  2.0264  2.1017
 4036SOL     OW23740   1.902   1.938   0.049 -0.0647  0.1005  0.0609
 4036SOL    HW123741   1.963   1.947   0.122  0.2646  0.2670 -0.2270
 4036SOL    HW223742   1.925   2.008  17.739  2.1584  0.0142  0.7916
 4037SOL     OW23743   1.944   1.684   1.105 -0.5273 -0.1822  0.1717
 4037SOL    HW123744   1.921   1.770   1.068  0.7823 -0.7575 -1.9447
 4037SOL    HW223745   1.947   1.624   1.031  0.4531  1.3086 -0.9917
 4038SOL     OW23746   0.677   3.163   5.334 -0.0309 -0.2163  0.2683
 4038SOL    HW123747   0.601   3.104   5.328  0.5729 -0.8301 -1.3950
 4038SOL    HW223748   0.660   3.199   5.247  1.5040 -1.4206 -0.5367
 4039SOL     OW23749   2.114   2.579   1.192 -0.1259 -0.4860 -0.0163
 4039SOL    HW123750   2.111   2.595   1.286 -0.1269  0.7924 -0.2273
 4039SOL    HW223751   2.199   2.618   1.172 -0.7169  1.5550  1.3588
 4040SOL     OW23752   4.417   1.368   6.040 -0.1010 -0.1709 -0.6227
 4040SOL    HW123753   4.502   1.354   6.081 -0.6410  1.7624  1.1461
 4040SOL    HW223754   4.363   1.351   6.118 -1.0318  2.3870 -0.7370
 4041SOL     OW23755   4.119   2.718   7.096  0.2054 -0.2469 -0.0412
 4041SOL    HW123756   4.208   2.723   7.130 -0.1329  1.6694  0.5730
 4041SOL    HW223757   4.128   2.748   7.005 -2.3371 -0.6208 -0.4206
 4042SOL     OW23758   2.888   3.938  16.868 -0.1982 -0.4810  0.0481
 4042SOL    HW123759   2.928   3.859  16.905  1.0966 -0.6993 -1.8347
 4042SOL    HW223760   2.948   3.946  16.794  0.6300  1.5708  0.9418
 4043SOL     OW23761   3.385   0.764  10.316 -0.3470  0.1056  0.0058
 4043SOL    HW123762   3.368   0.855  10.292  0.2207  0.3053  0.3448
 4043SOL    HW223763   3.330   0.720  10.251 -0.9025 -0.9957  1.2303
 4044SOL     OW23764   3.209   4.075  12.774  0.7853  0.1676  0.3856
 4044SOL    HW123765   3.242   4.157  12.811  1.5319  0.4420 -0.8897
 4044SOL    HW223766   3.294   4.032  12.763 -0.0964 -1.4552 -0.1142
 4045SOL     OW23767   3.776   4.027  15.487  0.0885 -0.0816 -0.0689
 4045SOL    HW123768   3.805   4.050  15.576 -0.1921 -0.9229  0.2398
 4045SOL    HW223769   3.682   4.018  15.505 -0.0073  2.9041  0.9861
 4046SOL     OW23770   1.434   0.842  11.299 -0.8412 -0.4881 -0.4733
 4046SOL    HW123771   1.452   0.875  11.387  1.4319 -1.6129 -0.5115
 4046SOL    HW223772   1.421   0.923  11.249  0.8250  0.6451  0.9257
 4047SOL     OW23773   3.655   3.676   3.043 -0.2906 -0.2463  0.6220
 4047SOL    HW123774   3.644   3.727   3.123  0.4546  1.4664 -0.3817
 4047SOL    HW223775   3.741   3.708   3.019 -0.2727 -0.4132  0.4625
 4048SOL     OW23776   2.179   2.478  13.264 -0.2604  0.0819  0.2820
 4048SOL    HW123777   2.099   2.445  13.223  2.2169 -2.3331 -2.5828
 4048SOL    HW223778   2.185   2.553  13.204 -1.9197  0.0614  0.0921
 4049SOL     OW23779   1.996   4.260   9.900 -0.0487  0.4607 -0.2003
 4049SOL    HW123780   1.993   4.247   9.995  1.4029  2.1979  0.0917
 4049SOL    HW223781   1.931   4.196   9.874 -1.1129  2.1308 -1.6353
 4050SOL     OW23782   2.066   2.895   0.418 -0.0443 -0.3677 -0.8034
 4050SOL    HW123783   2.040   2.877   0.509  0.8434  2.2029 -0.0221
 4050SOL    HW223784   2.120   2.819   0.398  0.3915  0.3823 -2.4716
 4051SOL     OW23785   0.899   1.639   4.374 -0.2047 -0.3563  0.0511
 4051SOL    HW123786   0.910   1.619   4.281 -0.3867  1.6507 -0.3918
 4051SOL    HW223787   0.811   1.604   4.386  1.5584 -4.4321  1.0469
 4052SOL     OW23788   3.636   0.680  11.796  0.0941  0.2550 -0.0622
 4052SOL    HW123789   3.635   0.585  11.784  1.6789  0.3741 -1.1984
 4052SOL    HW223790   3.644   0.703  11.703 -0.0140 -1.5799 -0.5169
 4053SOL     OW23791   4.514   4.399   1.688 -0.6264 -0.8378 -0.6102
 4053SOL    HW123792   4.464   4.427   1.765 -1.4395  0.5612 -1.6641
 4053SOL    HW223793   4.451   4.384   1.618 -1.6488 -0.2694  0.1976
 4054SOL     OW23794   2.694   0.612   5.638  0.5098 -0.3367  0.7575
 4054SOL    HW123795   2.700   0.523   5.673 -1.8028 -1.7053 -2.3917
 4054SOL    HW223796   2.782   0.618   5.601  0.5815  1.1980  1.1856
 4055SOL     OW23797   0.220   1.050   9.345  0.2031  0.0935  0.3522
 4055SOL    HW123798   0.253   1.076   9.260 -1.2642  0.1879 -0.1912
 4055SOL    HW223799   0.136   1.095   9.335  0.7361  1.4136  1.7614
 4056SOL     OW23800   0.896   0.353   3.238 -0.2757  0.4826  0.2084
 4056SOL    HW123801   0.864   0.356   3.328  0.3812 -0.1974  0.4608
 4056SOL    HW223802   0.967   0.417   3.251 -2.6121  3.4440 -1.6994
 4057SOL     OW23803   4.735   1.247  13.989  0.4525 -0.2385  0.3508
 4057SOL    HW123804   0.058   1.188  13.945  2.1588  1.9117 -0.1405
 4057SOL    HW223805   0.046   1.327  13.970 -0.6400 -0.1653 -2.1007
 4058SOL     OW23806   2.255   1.469   0.879 -0.5772  0.0979 -0.4500
 4058SOL    HW123807   2.342   1.431   0.867 -2.0574 -3.4489  0.0472
 4058SOL    HW223808   2.194   1.399   0.905  1.0464 -0.8672  0.7605
 4059SOL     OW23809   4.242   3.864   7.959 -0.4360 -0.1458  0.7620
 4059SOL    HW123810   4.224   3.940   8.014  0.8103  1.4999 -1.1005
 4059SOL    HW223811   4.335   3.884   7.946 -0.4524 -0.1888  0.5801
 4060SOL     OW23812   3.903   3.582   4.698  0.1561  0.2065 -0.3685
 4060SOL    HW123813   3.865   3.539   4.621 -0.3888 -1.3999  0.8021
 4060SOL    HW223814   3.955   3.504   4.718  1.0278  1.0060  0.4543
 4061SOL     OW23815   4.363   0.560   1.595  0.5976 -0.4314  0.4565
 4061SOL    HW123816   4.317   0.613   1.660  1.7054  1.2345 -0.1161
 4061SOL    HW223817   4.298   0.494   1.569  0.6668 -0.6126  0.7445
 4062SOL     OW23818   2.493   0.468   2.701 -0.5608  0.1263 -0.1526
 4062SOL    HW123819   2.448   0.513   2.630  0.0676  1.6880  0.4451
 4062SOL    HW223820   2.528   0.394   2.651 -3.0601 -0.5410 -0.9086
 4063SOL     OW23821   3.915   0.066   6.307  0.5436 -0.1233 -0.5012
 4063SOL    HW123822   3.889   0.020   6.227  1.1770 -1.2628 -0.0481
 4063SOL    HW223823   3.979   0.130   6.278  0.3140  0.5400  0.4402
 4064SOL     OW23824   2.490   2.631   2.810  0.3631 -0.8151 -0.4531
 4064SOL    HW123825   2.549   2.681   2.754  0.3830 -1.6032 -1.1393
 4064SOL    HW223826   2.458   2.692   2.877  1.7901  1.5160 -1.8877
 4065SOL     OW23827   1.593   2.270   8.569  0.2331  0.1598 -0.3162
 4065SOL    HW123828   1.643   2.319   8.634 -2.8830  0.5123  1.8511
 4065SOL    HW223829   1.566   2.192   8.618 -0.8455  0.2096 -0.8165
 4066SOL     OW23830   3.200   1.913  15.796 -0.2730 -0.1217 -0.1960
 4066SOL    HW123831   3.160   1.904  15.882 -1.5982 -0.3837 -0.8364
 4066SOL    HW223832   3.196   2.007  15.780 -1.4483 -0.0866  0.2777
 4067SOL     OW23833   3.138   2.681  14.509  0.0412  0.3949 -0.1286
 4067SOL    HW123834   3.109   2.594  14.536  1.4555 -0.0086  0.1033
 4067SOL    HW223835   3.172   2.713  14.592 -1.8191 -0.6453  1.0465
 4068SOL     OW23836   0.851   1.936  14.932 -0.1969 -0.3307 -0.1157
 4068SOL    HW123837   0.799   2.015  14.926 -1.2106 -0.9611  0.3790
 4068SOL    HW223838   0.931   1.954  14.882 -0.2310  0.5101  0.1448
 4069SOL     OW23839   4.002   2.481  10.666  0.5807 -0.1512  0.0932
 4069SOL    HW123840   4.028   2.551  10.726 -0.1423  1.1717 -1.1523
 4069SOL    HW223841   3.912   2.496  10.638  0.8266  1.9577  0.4663
 4070SOL     OW23842   1.840   4.078   7.636  0.3014  0.4671  0.4510
 4070SOL    HW123843   1.775   4.078   7.566  1.6433 -3.8166 -0.7634
 4070SOL    HW223844   1.788   4.119   7.706  0.1489  2.5863 -0.8892
 4071SOL     OW23845   4.068   1.020   5.092 -0.0458 -0.0614  0.2676
 4071SOL    HW123846   4.114   1.081   5.035 -2.5761 -0.5960 -2.3222
 4071SOL    HW223847   4.126   0.944   5.095 -0.9913 -0.8317 -0.8914
 4072SOL     OW23848   4.508   2.697  13.440  0.1142 -0.1173  0.9264
 4072SOL    HW123849   4.483   2.670  13.528 -1.1881 -0.7452  0.3667
 4072SOL    HW223850   4.581   2.756  13.457  0.8023 -0.9222  0.7494
 4073SOL     OW23851   2.665   3.327   5.445 -0.2586 -0.2645  0.3761
 4073SOL    HW123852   2.624   3.354   5.527  0.0209  0.7809  0.1724
 4073SOL    HW223853   2.756   3.331   5.477  0.5982  0.0301 -2.0807
 4074SOL     OW23854   0.813   1.161   4.520  0.2086  0.3123  0.1540
 4074SOL    HW123855   0.892   1.137   4.569 -0.0002  0.0266  0.3486
 4074SOL    HW223856   0.756   1.194   4.589  0.0028  3.1581 -1.3638
 4075SOL     OW23857   2.912   0.299   3.166  0.0157 -0.2218 -0.4354
 4075SOL    HW123858   2.818   0.313   3.159  0.0827  0.9059  1.0467
 4075SOL    HW223859   2.935   0.319   3.257 -0.3202 -2.3840  0.1181
 4076SOL     OW23860   1.652   2.317   7.392 -0.5721 -0.1157 -0.2351
 4076SOL    HW123861   1.676   2.371   7.467 -0.1230  1.9818 -1.9048
 4076SOL    HW223862   1.594   2.256   7.437 -1.4739  0.6645 -0.3530
 4077SOL     OW23863   0.682   2.494  11.549  0.4851 -0.1505  0.1687
 4077SOL    HW123864   0.633   2.573  11.526  1.3949  0.3166 -0.1662
 4077SOL    HW223865   0.649   2.466  11.634 -1.4632  0.6277 -0.3477
 4078SOL     OW23866   3.009   2.161   3.401  0.0999 -0.4912 -0.0900
 4078SOL    HW123867   2.968   2.245   3.421 -1.5437 -1.1287 -0.8017
 4078SOL    HW223868   2.950   2.121   3.337 -0.8331  3.9219 -2.0012
 4079SOL     OW23869   3.202   1.108   0.720 -0.1546  0.2181  0.3700
 4079SOL    HW123870   3.131   1.158   0.762 -0.2643 -0.1940  0.6724
 4079SOL    HW223871   3.217   1.168   0.647 -0.4708  0.5948  0.6114
 4080SOL     OW23872   2.105   0.265   8.945  0.2236 -0.4195  0.3143
 4080SOL    HW123873   2.070   0.176   8.940  0.2130 -0.3172 -1.5078
 4080SOL    HW223874   2.156   0.256   9.025  0.7809 -1.7286 -0.1839
 4081SOL     OW23875   2.969   1.522   2.654  0.3158 -0.1951  0.0850
 4081SOL    HW123876   2.988   1.527   2.748 -1.7098  4.0446  0.2641
 4081SOL    HW223877   2.997   1.430   2.648 -0.5368 -0.2510 -2.8298
 4082SOL     OW23878   4.538   4.445   3.785 -0.2688 -0.2140 -0.2620
 4082SOL    HW123879   4.506   4.418   3.699 -2.9268 -0.5829  0.8624
 4082SOL    HW223880   4.484   4.522   3.798  0.1802 -0.1059  0.9788
 4083SOL     OW23881   4.717   0.274   1.174  0.2082  0.3269  0.0979
 4083SOL    HW123882   0.061   0.287   1.223 -0.2628 -1.6523  1.4087
 4083SOL    HW223883   4.653   0.312   1.234  0.1368  0.5891 -0.1486
 4084SOL     OW23884   3.545   1.103   2.136  0.0670  0.4664 -0.2542
 4084SOL    HW123885   3.608   1.050   2.087  2.4841  4.1259 -1.1265
 4084SOL    HW223886   3.595   1.158   2.197  1.1586 -1.0818  0.2502
 4085SOL     OW23887   3.554   0.453  10.529  1.0562  0.4554 -0.4019
 4085SOL    HW123888   3.602   0.526  10.488  2.0459  0.0622  0.0607
 4085SOL    HW223889   3.615   0.418  10.594  2.2465  1.0856 -1.1735
 4086SOL     OW23890   4.166   3.252   8.146 -0.2106 -0.1113 -0.0738
 4086SOL    HW123891   4.221   3.325   8.116 -1.9453  1.1887 -0.1167
 4086SOL    HW223892   4.188   3.181   8.085 -1.3014 -2.1176  1.8685
 4087SOL     OW23893   1.357   4.552   2.214 -0.2957  0.0778  0.5804
 4087SOL    HW123894   1.303   4.617   2.258  1.6390  1.6197  0.6598
 4087SOL    HW223895   1.360   4.592   2.127 -1.5289  1.0949  1.0113
 4088SOL     OW23896   3.233   4.707   9.594 -0.1205  0.0817 -0.1679
 4088SOL    HW123897   3.194   4.726   9.508 -1.8857  0.1909  0.6460
 4088SOL    HW223898   3.298   0.038   9.598 -1.6018  1.5414 -1.2328
 4089SOL     OW23899   4.678   3.748   2.048  0.0120  0.0463 -0.2794
 4089SOL    HW123900   4.680   3.655   2.027  1.1295 -0.0417  0.2212
 4089SOL    HW223901   0.001   3.754   2.121 -1.5845 -1.8441  1.1872
 4090SOL     OW23902   2.040   2.439   5.109  0.7270  0.1031 -0.4970
 4090SOL    HW123903   2.128   2.407   5.129  0.1459 -1.2405 -0.1393
 4090SOL    HW223904   2.006   2.356   5.075  0.5448 -0.1429  0.2930
 4091SOL     OW23905   0.235   2.537   4.237 -0.7637  0.3802  0.1253
 4091SOL    HW123906   0.284   2.607   4.281 -1.3094  0.3225  0.8282
 4091SOL    HW223907   0.173   2.586   4.184  1.3378  0.1462 -2.5610
 4092SOL     OW23908   4.526   1.287   8.845 -0.0317  0.1771  0.1274
 4092SOL    HW123909   4.496   1.376   8.863  0.0447  0.3620 -0.6482
 4092SOL    HW223910   4.609   1.289   8.892 -0.3755 -0.0034  0.7360
 4093SOL     OW23911   1.487   3.575  13.700  0.0749 -0.0701  0.7123
 4093SOL    HW123912   1.463   3.561  13.608 -0.0068  0.4144  0.6584
 4093SOL    HW223913   1.429   3.650  13.715  0.0942  0.2919 -0.9653
 4094SOL     OW23914   3.841   3.479  14.719  0.0950  0.3540 -0.7005
 4094SOL    HW123915   3.812   3.532  14.794 -1.5346  1.4843 -2.1408
 4094SOL    HW223916   3.896   3.411  14.759  0.8810  1.2442 -0.2448
 4095SOL     OW23917   4.421   0.026  15.891 -0.5443  0.4648 -0.2802
 4095SOL    HW123918   4.460   0.062  15.970  0.3652  0.7786 -0.8739
 4095SOL    HW223919   4.497   4.737  15.839 -2.6389 -0.6955 -2.7289
 4096SOL     OW23920   1.334   3.048  13.261  0.4339 -0.0184 -0.4976
 4096SOL    HW123921   1.355   3.021  13.350  0.1347  1.8488  0.1354
 4096SOL    HW223922   1.340   2.968  13.210 -1.0518 -0.5891  0.2238
 4097SOL     OW23923   0.184   1.501   5.227 -0.3487 -0.1046  1.0272
 4097SOL    HW123924   0.124   1.427   5.216 -0.8094  0.3754  0.2608
 4097SOL    HW223925   0.240   1.502   5.149 -1.8524  1.0741 -0.0554
 4098SOL     OW23926   1.203   4.181   7.655  0.8034  0.1861  0.2811
 4098SOL    HW123927   1.123   4.233   7.654  1.4692  1.2458  1.7914
 4098SOL    HW223928   1.235   4.191   7.745  1.7269  1.5981 -0.2016
 4099SOL     OW23929   1.352   0.163   5.389  0.3639  0.0468 -0.6570
 4099SOL    HW123930   1.352   0.257   5.370 -0.7209 -0.0783 -1.2864
 4099SOL    HW223931   1.396   0.123   5.314  2.2380  0.3752  0.2523
 4100SOL     OW23932   4.278   0.528   7.073 -0.2340  0.6272 -0.1199
 4100SOL    HW123933   4.342   0.553   7.008 -0.6401  0.8473 -0.4364
 4100SOL    HW223934   4.313   0.573   7.150 -1.0851  0.7476  0.2001
 4101SOL     OW23935   1.854   0.279  16.894 -0.2619  0.1501  0.5793
 4101SOL    HW123936   1.815   0.193  16.876  0.0365  0.9861 -4.2017
 4101SOL    HW223937   1.820   0.288  16.983 -1.4026 -0.0485  0.1704
 4102SOL     OW23938   2.964   3.544   8.064  0.4225 -0.0181  0.2718
 4102SOL    HW123939   3.000   3.455   8.070 -0.5309 -0.2888  2.0431
 4102SOL    HW223940   2.909   3.524   7.988 -0.6068  0.6172  0.8440
 4103SOL     OW23941   1.186   4.621  10.350 -0.0732 -0.5068  0.0342
 4103SOL    HW123942   1.096   4.604  10.378 -0.3946 -0.8630 -1.2383
 4103SOL    HW223943   1.208   4.543  10.299 -1.2388 -0.9176  0.1545
 4104SOL     OW23944   0.095   2.298  11.232  0.4711 -0.1875  0.6001
 4104SOL    HW123945   0.146   2.223  11.263 -0.3545 -0.1407  2.0579
 4104SOL    HW223946   0.170   2.355  11.213  0.3451 -0.6516 -1.2576
 4105SOL     OW23947   2.841   1.141   7.208 -0.5481 -0.2535  0.3959
 4105SOL    HW123948   2.763   1.197   7.209 -0.0422  0.4897 -1.6263
 4105SOL    HW223949   2.856   1.127   7.301  0.1969  2.7075  0.7037
 4106SOL     OW23950   4.554   2.633   1.775 -0.0998 -0.1952 -0.1458
 4106SOL    HW123951   4.519   2.672   1.695  1.3058  0.1405 -0.5930
 4106SOL    HW223952   4.643   2.608   1.748 -0.3250  1.3463 -2.2788
 4107SOL     OW23953   0.923   4.716  14.007  0.1991 -0.4660  0.7145
 4107SOL    HW123954   0.934   0.063  13.964  0.5068 -0.2918  1.1446
 4107SOL    HW223955   0.829   4.695  14.006  0.1059 -0.0101 -1.1342
 4108SOL     OW23956   2.789   1.466   5.488  0.0348 -0.3314  0.2125
 4108SOL    HW123957   2.834   1.522   5.425  0.7266 -1.6113 -0.4421
 4108SOL    HW223958   2.738   1.411   5.429 -0.2580  1.5933 -1.3058
 4109SOL     OW23959   0.767   0.972   1.896  0.1352 -0.6539  0.7263
 4109SOL    HW123960   0.674   0.978   1.879  0.0960 -1.2555  0.7062
 4109SOL    HW223961   0.793   1.060   1.921  0.1393  0.3064 -2.6908
 4110SOL     OW23962   4.432   4.430   2.022 -0.1470 -0.7201 -0.0351
 4110SOL    HW123963   4.477   4.354   2.059  1.2433 -0.0065 -0.2493
 4110SOL    HW223964   4.380   4.385   1.956 -0.3689 -0.0607 -0.3061
 4111SOL     OW23965   3.361   3.555   4.199 -0.2096 -0.5087 -0.2066
 4111SOL    HW123966   3.307   3.607   4.140  3.0819 -0.0317 -2.8106
 4111SOL    HW223967   3.396   3.618   4.262 -0.4451 -0.8961  0.3067
 4112SOL     OW23968   4.149   0.287  16.419 -0.3977  0.0605  0.0254
 4112SOL    HW123969   4.170   0.300  16.327  0.3964  2.4551  0.5599
 4112SOL    HW223970   4.210   0.347  16.461  1.5065 -2.4970  0.9001
 4113SOL     OW23971   0.685   0.703  15.527  0.8735  0.1304 -0.2715
 4113SOL    HW123972   0.719   0.791  15.544  1.8441 -0.2081 -0.4669
 4113SOL    HW223973   0.649   0.705  15.439 -1.1554 -1.5840  0.5349
 4114SOL     OW23974   1.985   0.769   2.995 -0.2238  0.3976  0.4684
 4114SOL    HW123975   1.911   0.818   2.960  0.3758  1.1463  0.2338
 4114SOL    HW223976   1.944   0.685   3.015  1.4672 -0.3347  0.8860
 4115SOL     OW23977   0.662   2.762  11.498 -0.0243 -0.1001  0.4480
 4115SOL    HW123978   0.697   2.756  11.409  0.1059  1.1368  0.4157
 4115SOL    HW223979   0.695   2.850  11.515 -2.1051  0.1597  3.1828
 4116SOL     OW23980   3.395   4.587  14.236 -0.2436 -0.3061 -0.0173
 4116SOL    HW123981   3.373   4.582  14.329 -0.9461 -0.5686 -0.1979
 4116SOL    HW223982   3.344   4.666  14.219  1.2441  0.4543 -0.9366
 4117SOL     OW23983   2.684   4.200   5.538  0.3868 -0.2940  0.4610
 4117SOL    HW123984   2.597   4.231   5.512  1.0625  0.3663 -1.0232
 4117SOL    HW223985   2.687   4.104   5.533 -2.1607 -0.3135 -0.4473
 4118SOL     OW23986   2.546   4.649   4.671 -0.1141  0.0008  0.6236
 4118SOL    HW123987   2.506   4.734   4.657 -0.2448 -0.0054  0.9608
 4118SOL    HW223988   2.473   4.595   4.640 -0.3464  0.4470  0.4021
 4119SOL     OW23989   0.165   1.286   2.605  0.7129  0.6004 -0.4714
 4119SOL    HW123990   0.115   1.336   2.540 -1.8448  0.7302  1.6216
 4119SOL    HW223991   0.223   1.243   2.542  0.4111  0.7822 -0.8745
 4120SOL     OW23992   3.037   2.614   3.417  0.2255  0.2461 -0.3921
 4120SOL    HW123993   3.072   2.675   3.483  0.8978 -0.1957 -0.3446
 4120SOL    HW223994   3.122   2.583   3.385 -0.9532 -2.1406 -1.1826
 4121SOL     OW23995   3.745   1.329  11.553  0.2851 -0.3644 -0.0470
 4121SOL    HW123996   3.720   1.348  11.462  1.6850 -0.8813 -0.5415
 4121SOL    HW223997   3.838   1.310  11.543  0.0464 -1.5796 -0.0115
 4122SOL     OW23998   1.290   3.709   8.093  0.1173 -0.0887  0.0359
 4122SOL    HW123999   1.358   3.671   8.037  0.2500 -1.5598  1.1923
 4122SOL    HW224000   1.245   3.628   8.118 -2.7800  1.1503 -1.2150
 4123SOL     OW24001   4.414   2.346   8.622  0.2795  0.1005 -0.1794
 4123SOL    HW124002   4.324   2.363   8.595  1.6614  3.9986 -2.3129
 4123SOL    HW224003   4.467   2.349   8.542 -1.2174  2.2002 -1.0896
 4124SOL     OW24004   3.537   4.684  10.439  0.0770 -0.1610  0.4689
 4124SOL    HW124005   3.509   0.011  10.503 -0.7859 -0.0768 -0.0073
 4124SOL    HW224006   3.633   4.691  10.444  0.2571 -1.4467 -1.4669
 4125SOL     OW24007   0.022   4.057   2.477  0.5284  0.1921  1.0700
 4125SOL    HW124008   0.060   3.996   2.540  1.4421  0.7951  1.0909
 4125SOL    HW224009   4.714   4.114   2.537  1.7493  0.7604  1.4649
 4126SOL     OW24010   1.978   3.769   6.710 -0.1671 -0.5748  0.4369
 4126SOL    HW124011   1.897   3.774   6.659 -0.8661 -1.2323  1.5017
 4126SOL    HW224012   1.979   3.676   6.733 -2.0547 -0.5682  0.5253
 4127SOL     OW24013   3.434   4.405   2.560  0.6824  0.0195  0.9378
 4127SOL    HW124014   3.428   4.500   2.556  0.6778 -0.0556 -1.2835
 4127SOL    HW224015   3.349   4.375   2.593  1.4299 -1.8301  1.1681
 4128SOL     OW24016   1.843   1.468   0.157 -0.0064 -0.1575 -0.0300
 4128SOL    HW124017   1.854   1.517   0.075 -1.7820  1.4062  0.6924
 4128SOL    HW224018   1.884   1.523   0.223 -0.0752  1.3739 -1.2608
 4129SOL     OW24019   1.569   0.153  10.090  0.7676 -0.1596  0.1461
 4129SOL    HW124020   1.491   0.198  10.122  1.3825 -0.0279  1.4530
 4129SOL    HW224021   1.629   0.227  10.082 -0.7638  1.0641 -0.0517
 4130SOL     OW24022   4.130   3.871   9.632 -0.0238 -0.3646 -0.4152
 4130SOL    HW124023   4.119   3.941   9.569 -1.3129  0.7000  0.9845
 4130SOL    HW224024   4.203   3.823   9.593  0.6651  0.1579  0.2289
 4131SOL     OW24025   1.590   2.531   3.571  0.3496  0.5675  0.0193
 4131SOL    HW124026   1.569   2.607   3.517 -0.5602  0.9631  0.9358
 4131SOL    HW224027   1.511   2.519   3.623 -0.9092  1.8418 -1.6383
 4132SOL     OW24028   4.007   0.457   6.345  0.9395 -0.1370  0.1522
 4132SOL    HW124029   3.923   0.411   6.345 -0.0409  1.6587  0.6367
 4132SOL    HW224030   4.064   0.384   6.369  0.4870 -0.2212  0.9605
 4133SOL     OW24031   2.217   0.123  10.100  0.2074  0.0813 -0.1544
 4133SOL    HW124032   2.271   0.202  10.108  0.4423  0.0790 -1.6422
 4133SOL    HW224033   2.197   0.127  10.006 -0.6260  2.1806  0.0967
 4134SOL     OW24034   3.551   4.572   9.962 -0.5733  0.2936 -0.3506
 4134SOL    HW124035   3.515   4.597  10.047  1.1484  3.1412 -0.4340
 4134SOL    HW224036   3.636   4.538   9.988 -1.3388 -1.5982 -0.3560
 4135SOL     OW24037   0.373   1.432  11.896 -0.4277  0.2617 -0.0091
 4135SOL    HW124038   0.305   1.456  11.959  1.5831  1.1547  1.8472
 4135SOL    HW224039   0.329   1.366  11.843  2.1994 -1.2959 -0.2772
 4136SOL     OW24040   3.817   0.198   3.469 -0.1112 -0.4391  0.2354
 4136SOL    HW124041   3.901   0.184   3.425 -0.4944 -4.3524  0.7788
 4136SOL    HW224042   3.848   0.218   3.558  3.5652  3.2233 -1.8933
 4137SOL     OW24043   3.371   3.962   7.607  0.1571 -0.5737 -0.2472
 4137SOL    HW124044   3.289   3.916   7.586  0.5675 -1.6156  0.4355
 4137SOL    HW224045   3.392   3.985   7.517  2.1926 -1.4369  0.0265
 4138SOL     OW24046   4.235   2.034   2.880  0.0848  0.2361  0.0158
 4138SOL    HW124047   4.282   1.961   2.921 -0.5528 -1.5055 -2.3137
 4138SOL    HW224048   4.309   2.094   2.879  0.8728 -0.7181  1.1124
 4139SOL     OW24049   1.536   4.009   3.022  0.4837  0.1091 -0.7276
 4139SOL    HW124050   1.449   4.039   2.994  0.1498  0.5839  0.7882
 4139SOL    HW224051   1.533   4.046   3.111 -0.0191 -1.9096  0.0842
 4140SOL     OW24052   2.481   3.691   7.546  0.2756 -0.1568 -0.5307
 4140SOL    HW124053   2.564   3.719   7.507  1.2943  0.4846  2.0688
 4140SOL    HW224054   2.497   3.729   7.633 -2.5679  0.5130 -0.2919
 4141SOL     OW24055   0.526   1.050   5.105  0.2464 -0.1516 -0.6528
 4141SOL    HW124056   0.620   1.036   5.093  0.2911  0.5597 -1.0924
 4141SOL    HW224057   0.531   1.062   5.200 -2.4534 -0.6159 -0.4523
 4142SOL     OW24058   3.971   2.802   6.249  0.0988 -0.2563 -0.7278
 4142SOL    HW124059   4.039   2.819   6.313 -0.7180 -0.4492  0.1807
 4142SOL    HW224060   3.931   2.724   6.287 -1.8343  0.9165 -0.3590
 4143SOL     OW24061   3.919   2.079   6.644 -0.6616  0.5846 -0.0858
 4143SOL    HW124062   3.909   2.008   6.707 -1.6342 -1.1618 -2.2466
 4143SOL    HW224063   3.926   2.028   6.563  1.3997  0.0715  0.4144
 4144SOL     OW24064   0.205   3.299  13.253 -0.3662  0.2650 -0.1670
 4144SOL    HW124065   0.130   3.240  13.247  0.4792 -0.8028 -0.1428
 4144SOL    HW224066   0.165   3.386  13.258 -1.2188 -0.1108 -0.4738
 4145SOL     OW24067   1.812   3.609   7.122  0.0460  0.0568 -0.6579
 4145SOL    HW124068   1.868   3.562   7.183  1.1819  1.3030 -0.7216
 4145SOL    HW224069   1.808   3.693   7.169  0.3144 -0.4764  0.3185
 4146SOL     OW24070   3.996   2.317   6.503  0.0149  0.2540  0.3189
 4146SOL    HW124071   3.908   2.348   6.479 -0.5020  0.3723  2.3725
 4146SOL    HW224072   3.972   2.247   6.563 -0.7076 -1.7851 -2.3648
 4147SOL     OW24073   1.659   2.105  11.797 -0.0197  0.2167  0.2177
 4147SOL    HW124074   1.605   2.182  11.816 -0.3802 -0.3994  1.6745
 4147SOL    HW224075   1.727   2.111  11.865  1.3078 -0.4405 -1.0526
 4148SOL     OW24076   4.330   0.436   3.753  0.5604 -0.2710 -0.1569
 4148SOL    HW124077   4.337   0.445   3.658  0.1697  0.0998 -0.1503
 4148SOL    HW224078   4.298   0.524   3.772 -0.6801 -0.5606 -0.8732
 4149SOL     OW24079   4.570   0.148  16.112 -0.5752 -0.0718 -0.5524
 4149SOL    HW124080   4.621   0.219  16.074 -0.6203 -0.0260 -0.5268
 4149SOL    HW224081   4.551   0.190  16.196  0.8373 -1.8123  0.6481
 4150SOL     OW24082   0.078   3.843   2.314  0.0599 -0.4177  0.0648
 4150SOL    HW124083   0.060   3.928   2.354  1.6740 -0.6315  1.2763
 4150SOL    HW224084   0.067   3.873   2.224  0.0534 -0.4133  0.0672
 4151SOL     OW24085   0.957   2.593   8.962  0.0006  0.5758 -0.1648
 4151SOL    HW124086   0.931   2.684   8.946  0.7118  1.1828  2.2077
 4151SOL    HW224087   0.995   2.572   8.876  2.2717  2.7274  0.3233
 4152SOL     OW24088   0.992   4.146   2.832  0.2578  0.3226  0.3371
 4152SOL    HW124089   0.975   4.053   2.846 -0.7023  0.6764  1.5822
 4152SOL    HW224090   0.991   4.164   2.738 -1.1145  0.8045  0.4449
 4153SOL     OW24091   4.257   3.781  13.911 -0.3540  0.0611 -0.0063
 4153SOL    HW124092   4.272   3.713  13.978 -0.9592 -0.9743 -0.9167
 4153SOL    HW224093   4.303   3.745  13.835  0.6651  1.7342 -0.1860
 4154SOL     OW24094   2.634   3.636   8.575  0.1224 -0.2608  0.4056
 4154SOL    HW124095   2.686   3.687   8.637 -0.9190  1.1615  0.0999
 4154SOL    HW224096   2.553   3.686   8.562  0.9870  1.0221  0.0229
 4155SOL     OW24097   4.085   3.562   3.485 -0.2393  0.1461  0.3308
 4155SOL    HW124098   4.049   3.551   3.573 -0.4012  2.5944  0.5854
 4155SOL    HW224099   4.120   3.474   3.470 -3.0032 -1.2378  2.1049
 4156SOL     OW24100   1.295   4.115  11.004  0.0174 -0.1111 -0.1880
 4156SOL    HW124101   1.239   4.194  11.003  1.3963  0.8717  2.2142
 4156SOL    HW224102   1.234   4.059  11.051 -1.3893  1.4106 -0.1710
 4157SOL     OW24103   3.380   1.348  14.302  0.1343  0.0509 -0.1438
 4157SOL    HW124104   3.414   1.434  14.278 -1.2376  1.3429  2.5785
 4157SOL    HW224105   3.422   1.291  14.237  1.4833 -0.0364  0.8095
 4158SOL     OW24106   0.644   1.527  10.198  0.3784  0.3493  0.0541
 4158SOL    HW124107   0.627   1.534  10.104  3.2233 -1.9129 -0.6348
 4158SOL    HW224108   0.555   1.514  10.230  0.8390 -0.6091  0.9265
 4159SOL     OW24109   0.340   1.384  15.401  0.5566  0.1501  0.3147
 4159SOL    HW124110   0.389   1.380  15.319 -0.9839  2.5160 -0.7215
 4159SOL    HW224111   0.262   1.434  15.376  0.4706 -0.3448 -0.3980
 4160SOL     OW24112   2.081   0.185   2.326 -0.1780 -0.2620 -0.0204
 4160SOL    HW124113   2.107   0.167   2.417  1.6301  3.0505  0.1017
 4160SOL    HW224114   2.125   0.115   2.277  0.4350 -0.4318  0.7587
 4161SOL     OW24115   0.244   1.695   7.617  0.3150 -0.1494  0.2079
 4161SOL    HW124116   0.150   1.690   7.598  0.7853  0.5967 -2.3741
 4161SOL    HW224117   0.258   1.789   7.601 -1.9492  0.3638  1.1781
 4162SOL     OW24118   1.917   1.624  11.223  0.5105  0.8033  0.2297
 4162SOL    HW124119   1.928   1.702  11.277 -0.0749 -0.1696  1.7573
 4162SOL    HW224120   1.836   1.587  11.259  0.8058  0.4908  0.5734
 4163SOL     OW24121   4.295   4.187  14.774  0.8088  0.4090  0.0286
 4163SOL    HW124122   4.249   4.170  14.692  1.2542  0.3475 -0.2068
 4163SOL    HW224123   4.278   4.281  14.784 -2.8079 -0.6259  3.3669
 4164SOL     OW24124   0.594   3.386   0.414  0.1135 -0.0572  0.0969
 4164SOL    HW124125   0.556   3.461   0.368  0.2707  0.5729  0.9871
 4164SOL    HW224126   0.598   3.415   0.505  1.8207  0.6469 -0.2199
 4165SOL     OW24127   3.231   4.437   4.507  1.2310  0.7073 -0.3941
 4165SOL    HW124128   3.284   4.515   4.521  1.1217  0.2964  2.3849
 4165SOL    HW224129   3.151   4.464   4.553  0.9550  0.1054 -0.5144
 4166SOL     OW24130   1.356   2.408   1.108 -0.9030  0.0618 -0.6320
 4166SOL    HW124131   1.358   2.347   1.035 -1.1860 -0.9842  0.2336
 4166SOL    HW224132   1.342   2.343   1.177 -0.1540  0.3435 -0.2188
 4167SOL     OW24133   3.853   3.238   9.365 -0.1561 -0.2068  0.1371
 4167SOL    HW124134   3.935   3.269   9.324  0.3203 -2.2280 -0.4302
 4167SOL    HW224135   3.789   3.245   9.294  2.7801 -3.0159 -2.7709
 4168SOL     OW24136   0.160   1.633   3.108 -0.3659  0.3863  0.3244
 4168SOL    HW124137   0.239   1.599   3.150 -0.2191  0.6492  0.2646
 4168SOL    HW224138   0.082   1.588   3.141 -1.1689  0.1890 -1.7953
 4169SOL     OW24139   0.442   1.640   2.754 -0.1718  0.4556  0.0804
 4169SOL    HW124140   0.396   1.608   2.831  1.5757  0.4905  1.1440
 4169SOL    HW224141   0.378   1.656   2.685 -1.3539  0.0193  1.0897
 4170SOL     OW24142   0.934   4.171   2.102 -0.2490 -0.1833  0.0947
 4170SOL    HW124143   0.952   4.123   2.182 -1.2345  2.0492  1.6456
 4170SOL    HW224144   0.978   4.114   2.039 -0.8391  0.1142 -0.5862
 4171SOL     OW24145   1.354   2.610   0.455  0.5882 -0.4401 -0.0791
 4171SOL    HW124146   1.388   2.553   0.385  0.8681  0.0058 -0.3063
 4171SOL    HW224147   1.422   2.676   0.450  0.9104 -0.5945  2.5906
 4172SOL     OW24148   0.348   0.829   7.293 -0.4613  0.1417  0.0692
 4172SOL    HW124149   0.292   0.795   7.364 -1.1278 -0.0262 -0.5343
 4172SOL    HW224150   0.297   0.903   7.261  0.9175  0.8730 -0.4058
 4173SOL     OW24151   4.124   3.831   4.616  0.4461 -0.2102 -0.0242
 4173SOL    HW124152   4.089   3.784   4.540 -2.5724  3.3415 -0.8287
 4173SOL    HW224153   4.215   3.856   4.598  0.0167  1.5578  0.2888
 4174SOL     OW24154   3.394   1.929   7.502  0.2672  0.1115  0.0668
 4174SOL    HW124155   3.418   1.934   7.410 -0.8136 -0.8338 -0.2655
 4174SOL    HW224156   3.481   1.933   7.542 -1.5008 -1.1599  4.0670
 4175SOL     OW24157   0.644   3.748   2.980  0.0466  0.0243  0.0361
 4175SOL    HW124158   0.677   3.809   2.914  2.1211  0.0856  1.1356
 4175SOL    HW224159   0.695   3.780   3.055  1.3582 -0.9454 -0.4387
 4176SOL     OW24160   0.989   2.463   4.108  0.0962 -0.0101  0.1313
 4176SOL    HW124161   1.043   2.498   4.037 -0.4019 -0.0757 -0.2844
 4176SOL    HW224162   0.906   2.450   4.061 -0.2378 -1.7248  1.2028
 4177SOL     OW24163   1.518   3.168   0.824  0.1128  0.5086 -0.3518
 4177SOL    HW124164   1.479   3.080   0.828  0.0494  0.6293  1.3215
 4177SOL    HW224165   1.538   3.178   0.731  0.2616  0.0460 -0.3720
 4178SOL     OW24166   2.273   3.431   4.792  0.4642  0.2867 -0.2318
 4178SOL    HW124167   2.356   3.448   4.838  0.1266  2.1166 -0.2897
 4178SOL    HW224168   2.246   3.352   4.840 -0.0942  0.5091 -0.1830
 4179SOL     OW24169   1.554   2.005   3.501 -0.2816  0.2044 -0.1392
 4179SOL    HW124170   1.604   1.988   3.422 -2.3418  0.1727 -1.4328
 4179SOL    HW224171   1.624   2.022   3.564 -1.3870  1.6697  0.6973
 4180SOL     OW24172   0.700   3.085  10.100 -0.0254 -0.3304 -0.1279
 4180SOL    HW124173   0.655   3.158  10.142 -1.5184 -0.1546 -2.0349
 4180SOL    HW224174   0.782   3.129  10.075 -1.3937  0.5729 -3.0627
 4181SOL     OW24175   3.413   3.210   7.167 -0.1475  0.0674 -0.0310
 4181SOL    HW124176   3.407   3.220   7.072 -0.1013  0.0605 -0.0347
 4181SOL    HW224177   3.324   3.237   7.188  1.4006  3.3595  2.4887
 4182SOL     OW24178   0.177   0.007   9.374  0.2706  0.0507 -0.7452
 4182SOL    HW124179   0.104   0.044   9.423  0.8242 -0.7299  0.6810
 4182SOL    HW224180   0.181   4.658   9.413  0.0988  0.7866  0.8878
 4183SOL     OW24181   1.606   3.821   4.064 -0.5496 -0.2994 -0.3615
 4183SOL    HW124182   1.557   3.766   4.125 -1.0298  1.9696  1.3300
 4183SOL    HW224183   1.592   3.781   3.978  0.4528 -0.7715 -0.3030
 4184SOL     OW24184   0.292   3.260   7.743 -0.2670 -0.2288 -0.1057
 4184SOL    HW124185   0.228   3.292   7.679 -1.6096  0.1652  1.4479
 4184SOL    HW224186   0.342   3.191   7.700 -0.2197 -0.9192  1.0706
 4185SOL     OW24187   4.356   1.138   8.676  0.2565 -0.1595  0.2697
 4185SOL    HW124188   4.427   1.190   8.715  1.1393 -1.3599  0.2979
 4185SOL    HW224189   4.320   1.111   8.761 -0.2912  0.7674  0.3263
 4186SOL     OW24190   4.645   0.785   8.806  0.2417  0.7684  0.1611
 4186SOL    HW124191   4.550   0.778   8.800  0.2115  1.6772 -0.3236
 4186SOL    HW224192   4.668   0.719   8.872 -2.1024  0.4725  0.6936
 4187SOL     OW24193   0.213   2.223   7.955 -0.1589  0.5152 -0.3412
 4187SOL    HW124194   0.288   2.168   7.930 -0.8479 -0.7913  0.4185
 4187SOL    HW224195   0.154   2.153   7.984  1.3345 -0.5370  0.1727
 4188SOL     OW24196   1.503   2.424   0.767  0.1921  0.2683  0.2925
 4188SOL    HW124197   1.505   2.342   0.717  0.1360  3.0774 -4.2670
 4188SOL    HW224198   1.559   2.407   0.843  0.3029  0.6174  0.2862
 4189SOL     OW24199   3.458   3.425   3.079  0.3850  0.1255 -0.1278
 4189SOL    HW124200   3.517   3.497   3.102  0.9241 -1.1286  2.5022
 4189SOL    HW224201   3.398   3.422   3.154 -0.6221 -0.9678 -0.9876
 4190SOL     OW24202   1.762   1.305   3.045  0.4838  0.0893  0.0707
 4190SOL    HW124203   1.737   1.316   2.954  1.0120 -0.5035 -0.1529
 4190SOL    HW224204   1.787   1.394   3.069  0.3721  0.9761 -3.1199
 4191SOL     OW24205   1.488   1.110   6.293 -0.0132 -0.0431 -0.4380
 4191SOL    HW124206   1.511   1.147   6.208  3.3316 -2.3479 -0.5344
 4191SOL    HW224207   1.409   1.058   6.276  1.1427 -2.3416  1.2500
 4192SOL     OW24208   4.022   3.820   9.250 -0.1101 -0.6468  0.4093
 4192SOL    HW124209   4.057   3.821   9.161  0.7701 -0.1181  0.7619
 4192SOL    HW224210   4.069   3.741   9.278 -1.1370 -1.6568 -0.7445
 4193SOL     OW24211   2.359   2.915   6.171 -0.2574 -0.2618 -0.2354
 4193SOL    HW124212   2.293   2.976   6.204 -0.1387  0.5566 -1.5206
 4193SOL    HW224213   2.375   2.955   6.086 -1.9639  0.4413 -0.2183
 4194SOL     OW24214   4.284   4.451   2.326  1.0839 -0.2392 -0.4473
 4194SOL    HW124215   4.357   4.403   2.365  0.7706 -0.4250 -0.0944
 4194SOL    HW224216   4.243   4.384   2.271 -0.2464  0.7181 -0.6139
 4195SOL     OW24217   2.319   0.876   5.963 -0.0901 -0.1445 -0.0206
 4195SOL    HW124218   2.313   0.871   5.868 -1.5840  0.7473  0.0226
 4195SOL    HW224219   2.372   0.798   5.978 -1.3508 -1.3131 -1.5909
 4196SOL     OW24220   1.177   0.035   5.534 -0.0086 -0.2864  0.1957
 4196SOL    HW124221   1.230   0.083   5.472 -2.3175 -0.7729 -2.1447
 4196SOL    HW224222   1.234   0.009   5.607 -0.0927 -1.9289 -0.3358
 4197SOL     OW24223   2.214   1.287  16.286  0.0744 -0.4442  0.0032
 4197SOL    HW124224   2.281   1.260  16.222  0.6040 -0.2746  0.4802
 4197SOL    HW224225   2.183   1.202  16.315 -0.9648 -0.6206 -1.6353
 4198SOL     OW24226   2.248   4.640   5.698 -0.3095  0.4356 -0.2390
 4198SOL    HW124227   2.195   4.581   5.644  1.6108 -0.4655 -1.1274
 4198SOL    HW224228   2.332   4.596   5.687 -0.8357 -0.9799  1.6434
 4199SOL     OW24229   3.852   2.681   3.179  0.5134  0.0826 -0.1574
 4199SOL    HW124230   3.805   2.663   3.260 -0.2181  1.6137 -0.2551
 4199SOL    HW224231   3.920   2.740   3.211  1.9644 -2.1517  0.9052
 4200SOL     OW24232   0.478   0.234   4.605 -0.3669 -0.5943 -0.7992
 4200SOL    HW124233   0.555   0.224   4.549  1.0005  2.0784  0.5754
 4200SOL    HW224234   0.492   0.327   4.625  1.2939 -0.3526 -3.0231
 4201SOL     OW24235   3.403   2.348   5.159 -0.5930 -0.2468 -0.3504
 4201SOL    HW124236   3.449   2.398   5.092 -0.3772  2.1124  1.5537
 4201SOL    HW224237   3.445   2.262   5.156  3.7090  1.7760  1.8791
 4202SOL     OW24238   4.335   3.516   3.169  0.3444  0.0801  0.3023
 4202SOL    HW124239   4.336   3.596   3.221  0.1531 -0.6848  1.4767
 4202SOL    HW224240   4.249   3.538   3.132 -0.5508 -0.9533  1.7609
 4203SOL     OW24241   2.741   2.569   4.685 -0.2337  0.1224 -0.1721
 4203SOL    HW124242   2.750   2.641   4.747  2.6657  0.5415 -1.0749
 4203SOL    HW224243   2.673   2.517   4.727 -1.0212  1.2700 -0.0524
 4204SOL     OW24244   0.016   3.506  13.290 -0.2442 -0.0344  0.6248
 4204SOL    HW124245   4.700   3.557  13.351 -1.8351  1.5191 -2.0865
 4204SOL    HW224246   0.006   3.556  13.209 -1.6729 -1.0982  0.1332
 4205SOL     OW24247   2.017   0.922   5.435  0.0344 -0.5091  0.0662
 4205SOL    HW124248   2.101   0.967   5.419 -0.2158 -0.4858 -1.1858
 4205SOL    HW224249   2.046   0.831   5.436 -0.5983 -0.7156 -0.6187
 4206SOL     OW24250   0.056   0.275   8.934 -0.2057  0.2860  0.3034
 4206SOL    HW124251   0.090   0.223   9.006  0.2106  0.9344  0.5734
 4206SOL    HW224252   4.713   0.298   8.979 -0.2227  0.0087  0.4118
 4207SOL     OW24253   0.452   1.576  14.122  0.1315  0.0487 -0.0790
 4207SOL    HW124254   0.417   1.492  14.093 -1.6668  0.5022  0.7545
 4207SOL    HW224255   0.533   1.579  14.072 -0.9246 -0.8770 -1.8825
 4208SOL     OW24256   3.079   3.353   5.759  0.0319 -0.5422 -0.3343
 4208SOL    HW124257   3.099   3.285   5.823 -0.3664 -0.9614 -0.6544
 4208SOL    HW224258   3.162   3.379   5.719  0.1856  1.8177  1.5500
 4209SOL     OW24259   2.083   0.757  11.055  0.6594  0.6469  0.1367
 4209SOL    HW124260   1.999   0.782  11.016  1.4808  3.2641  0.0231
 4209SOL    HW224261   2.090   0.809  11.135 -1.2506 -0.3369  0.9387
 4210SOL     OW24262   1.855   4.728   5.138 -0.0592  0.5277  0.2725
 4210SOL    HW124263   1.810   4.658   5.092 -0.4919  1.6018 -0.9241
 4210SOL    HW224264   1.945   4.718   5.108 -1.3016 -2.7809 -2.2853
 4211SOL     OW24265   2.525   4.416   9.636 -0.0837 -0.1522  0.7183
 4211SOL    HW124266   2.505   4.336   9.684 -1.7273 -0.5405 -0.6222
 4211SOL    HW224267   2.529   4.474   9.712  0.0503  3.2490 -1.8759
 4212SOL     OW24268   4.643   0.740  11.866  0.3951  0.1146 -0.1179
 4212SOL    HW124269   4.702   0.672  11.898 -0.9526 -0.7949  0.4486
 4212SOL    HW224270   4.592   0.680  11.812 -2.0183  0.1639  2.0738
 4213SOL     OW24271   1.969   4.148   2.382 -0.1084  0.3961 -0.0900
 4213SOL    HW124272   1.953   4.062   2.343 -1.3526  1.0770 -1.0608
 4213SOL    HW224273   1.992   4.203   2.307  2.2634  1.4560  1.4045
 4214SOL     OW24274   0.116   0.959   4.294  0.5784  0.0410  0.9075
 4214SOL    HW124275   0.025   0.934   4.306  1.3098 -2.6489  0.7591
 4214SOL    HW224276   0.165   0.881   4.319 -1.1135 -1.6781 -1.1863
 4215SOL     OW24277   2.687   2.082   6.120 -0.2113  0.1099 -0.3258
 4215SOL    HW124278   2.618   2.148   6.112  0.7097  1.2604  1.0428
 4215SOL    HW224279   2.682   2.060   6.213 -0.8713 -3.5725 -1.2341
 4216SOL     OW24280   1.199   2.283   6.436 -0.7716 -0.4923  0.6538
 4216SOL    HW124281   1.174   2.262   6.347 -4.1238 -0.5691  1.6270
 4216SOL    HW224282   1.263   2.355   6.429 -2.8198  1.3391  0.6793
 4217SOL     OW24283   2.768   0.021   3.570  0.2043  0.0066  0.7072
 4217SOL    HW124284   2.807   0.018   3.657  1.6673 -0.3876  0.0369
 4217SOL    HW224285   2.690   4.706   3.587 -0.0223 -0.7211 -2.6953
 4218SOL     OW24286   4.584   0.543   3.320 -0.2750  0.4476 -0.2836
 4218SOL    HW124287   4.612   0.457   3.350 -0.1009  0.5948 -0.0182
 4218SOL    HW224288   4.625   0.598   3.387 -1.6861 -1.1106  1.8710
 4219SOL     OW24289   3.423   1.640   7.293  0.0935  0.4095  0.4259
 4219SOL    HW124290   3.470   1.681   7.220 -0.5371  0.2650 -0.0684
 4219SOL    HW224291   3.354   1.588   7.251 -0.0018  0.7653  0.1293
 4220SOL     OW24292   0.114   4.002   2.085 -0.2673  0.7419 -0.1947
 4220SOL    HW124293   0.177   4.067   2.116 -1.5243  2.2640 -0.8736
 4220SOL    HW224294   0.106   4.024   1.993 -0.8502  1.9706  0.1543
 4221SOL     OW24295   4.113   2.192   2.663  0.3509  0.7111  0.1875
 4221SOL    HW124296   4.124   2.140   2.743  1.1195  0.5719 -0.0087
 4221SOL    HW224297   4.169   2.270   2.672 -0.7840  1.4689  0.6513
 4222SOL     OW24298   4.648   2.304  15.455  0.1510 -0.0416 -0.2637
 4222SOL    HW124299   4.592   2.256  15.393 -0.3567 -0.6925  0.6775
 4222SOL    HW224300   4.606   2.268  15.533  0.1715  0.7718  0.1215
 4223SOL     OW24301   2.055   3.169  11.218  0.3253  0.0985 -0.1038
 4223SOL    HW124302   2.094   3.152  11.132  1.7192 -0.6248  0.6710
 4223SOL    HW224303   2.125   3.138  11.275  1.6645 -0.2141 -1.9010
 4224SOL     OW24304   0.601   1.784   2.974 -0.4739 -0.1352  0.1488
 4224SOL    HW124305   0.586   1.876   2.950  1.5467  0.1827  0.0791
 4224SOL    HW224306   0.552   1.753   2.898  2.2903 -0.1430 -1.6293
 4225SOL     OW24307   2.940   1.592  11.705  0.0104 -0.4708 -0.2194
 4225SOL    HW124308   2.862   1.641  11.731  1.1255  0.3164  1.5427
 4225SOL    HW224309   2.904   1.503  11.693 -2.0609  0.4324 -0.7792
 4226SOL     OW24310   4.073   1.014   8.501 -0.1857  0.2342 -0.2080
 4226SOL    HW124311   4.123   0.960   8.563  0.5166  2.4121  1.1315
 4226SOL    HW224312   4.075   1.096   8.551 -2.3795 -2.2842  4.0892
 4227SOL     OW24313   2.486   1.860   6.145 -0.3551  0.0821 -0.3241
 4227SOL    HW124314   2.578   1.887   6.142 -0.5269  0.6905 -0.0270
 4227SOL    HW224315   2.501   1.766   6.154 -1.0525  0.0262  0.1999
 4228SOL     OW24316   2.806   2.795   7.958  0.0857 -0.4801  0.4101
 4228SOL    HW124317   2.711   2.803   7.959  0.1785  0.8725 -1.2643
 4228SOL    HW224318   2.812   2.712   8.005 -0.0062 -0.5441  0.3097
 4229SOL     OW24319   0.107   3.101  13.560  0.2941 -0.4556 -0.3314
 4229SOL    HW124320   0.130   3.051  13.638 -1.9201  4.2258  3.2259
 4229SOL    HW224321   0.191   3.145  13.546  1.2785 -1.4754  2.4038
 4230SOL     OW24322   1.128   3.267   7.013  0.2204 -0.5595  0.2092
 4230SOL    HW124323   1.094   3.234   6.930  1.8699 -2.0285  0.1104
 4230SOL    HW224324   1.220   3.239   7.013  0.8474  1.4789  0.6363
 4231SOL     OW24325   0.299   3.491   5.620  0.0045 -0.4227 -0.0982
 4231SOL    HW124326   0.373   3.524   5.569 -0.1647  0.1172  0.0085
 4231SOL    HW224327   0.310   3.396   5.623  1.0194 -0.4088 -3.4714
 4232SOL     OW24328   1.105   4.652  10.653 -0.1653  0.1738 -0.8721
 4232SOL    HW124329   1.155   4.573  10.635  0.2293  0.1048  0.5566
 4232SOL    HW224330   1.123   4.670  10.745  2.2974 -1.9836 -0.9254
 4233SOL     OW24331   3.367   1.257  12.321 -0.3749  0.1550 -0.0067
 4233SOL    HW124332   3.428   1.274  12.394 -0.5557 -0.7809  0.3621
 4233SOL    HW224333   3.364   1.162  12.335  0.3391  0.2431  0.8228
 4234SOL     OW24334   2.188   4.280  15.358  0.1654 -0.9036 -0.3678
 4234SOL    HW124335   2.228   4.264  15.443 -2.3526  1.5696  1.3052
 4234SOL    HW224336   2.271   4.283  15.310  0.3294  0.7732  0.0287
 4235SOL     OW24337   0.856   4.348   7.152  0.0948 -0.6013 -0.0950
 4235SOL    HW124338   0.822   4.423   7.103 -1.0213 -0.6647  0.5732
 4235SOL    HW224339   0.925   4.319   7.091  2.0035  0.1199  1.7261
 4236SOL     OW24340   2.304   3.022   5.597  0.1048 -0.1924 -0.6225
 4236SOL    HW124341   2.244   3.005   5.670  0.3608 -0.8897 -0.5766
 4236SOL    HW224342   2.350   3.101   5.627 -0.7858  0.3624 -0.6980
 4237SOL     OW24343   4.683   2.776   8.147  0.5545  0.0110 -0.5290
 4237SOL    HW124344   0.008   2.827   8.096 -0.0119  2.2239  0.9556
 4237SOL    HW224345   0.003   2.725   8.202  0.4030 -0.3738 -0.7294
 4238SOL     OW24346   3.616   4.024   3.015 -0.1004  0.6739  0.1870
 4238SOL    HW124347   3.622   4.119   3.013  1.9553  0.5678  1.0541
 4238SOL    HW224348   3.708   4.001   2.999 -0.6545 -2.1116  0.8647
 4239SOL     OW24349   3.174   1.782   6.738 -0.2008 -0.5468  0.5095
 4239SOL    HW124350   3.123   1.831   6.673  1.3507 -0.6039 -0.7469
 4239SOL    HW224351   3.209   1.711   6.684  2.0592  1.1645 -0.3217
 4240SOL     OW24352   3.891   2.453   7.303 -0.1855  0.1795  0.1711
 4240SOL    HW124353   3.858   2.522   7.245 -1.7629 -0.4336  0.3466
 4240SOL    HW224354   3.826   2.461   7.373  0.2039 -0.7053  0.6346
 4241SOL     OW24355   0.403   2.345   5.979 -0.3138  0.1927 -0.2236
 4241SOL    HW124356   0.382   2.394   5.900 -3.7127 -0.1765  0.4733
 4241SOL    HW224357   0.376   2.414   6.041  0.7622  0.4024  0.0145
 4242SOL     OW24358   4.649   2.219   4.524 -0.1186  0.4283 -0.2780
 4242SOL    HW124359   4.727   2.275   4.512  0.3120  0.0587  0.7783
 4242SOL    HW224360   4.673   2.178   4.607  0.2120 -0.3762 -0.7766
 4243SOL     OW24361   4.240   1.741   7.855 -0.1691  0.6116 -0.4238
 4243SOL    HW124362   4.308   1.803   7.831 -0.1500  0.9495  0.4807
 4243SOL    HW224363   4.229   1.765   7.947 -2.2888  0.6303 -0.6794
 4244SOL     OW24364   1.009   3.573   8.498 -0.1576  0.2708  0.1978
 4244SOL    HW124365   0.965   3.499   8.456  1.0608 -0.9527  1.0866
 4244SOL    HW224366   0.959   3.577   8.579  0.1727  0.0141  0.4135
 4245SOL     OW24367   2.325   2.268   7.555 -0.1689 -0.5743  0.4244
 4245SOL    HW124368   2.239   2.227   7.548  1.1443 -3.9078  3.4760
 4245SOL    HW224369   2.340   2.275   7.461 -1.9394  1.9302  0.3517
 4246SOL     OW24370   3.270   0.892  14.303 -0.3246  0.2496  0.4001
 4246SOL    HW124371   3.182   0.854  14.293  0.3723 -1.0503 -0.8205
 4246SOL    HW224372   3.295   0.900  14.211  1.3297 -0.6685  0.7833
 4247SOL     OW24373   2.817   3.682   6.352 -0.0318  0.3339 -0.2582
 4247SOL    HW124374   2.785   3.594   6.368  0.1486 -0.0242 -1.8866
 4247SOL    HW224375   2.780   3.723   6.431  0.6168  0.5542 -0.0595
 4248SOL     OW24376   4.476   1.272  11.987  0.5668  0.6916  0.6208
 4248SOL    HW124377   4.446   1.339  11.925 -0.8028  0.0945  0.6310
 4248SOL    HW224378   4.568   1.286  11.968  0.6086 -0.3605  0.0603
 4249SOL     OW24379   1.976   3.114  16.563  0.6554  0.2817  0.2017
 4249SOL    HW124380   1.903   3.092  16.505  1.3617 -0.0954 -0.5439
 4249SOL    HW224381   2.025   3.032  16.569  0.8263  0.5534  2.7302
 4250SOL     OW24382   0.476   2.789   8.433  0.1388 -0.5944  0.3860
 4250SOL    HW124383   0.469   2.695   8.420  0.4613 -0.6171  0.3942
 4250SOL    HW224384   0.427   2.779   8.515 -0.6467  1.0711  0.1329
 4251SOL     OW24385   0.548   3.661  16.004 -0.6764  0.2861  0.2448
 4251SOL    HW124386   0.480   3.620  16.058  0.7866 -2.5024 -0.0683
 4251SOL    HW224387   0.622   3.601  16.010 -0.4824  0.4774 -0.2971
 4252SOL     OW24388   3.827   0.907   5.026 -0.0565  0.3612 -0.7238
 4252SOL    HW124389   3.778   0.989   5.026 -0.4831  0.1247 -3.2677
 4252SOL    HW224390   3.915   0.937   5.050 -0.5826  1.2967  0.0274
 4253SOL     OW24391   3.473   1.045   7.772  0.0608  0.5254 -0.8083
 4253SOL    HW124392   3.447   1.035   7.680 -2.2078 -1.3174  0.0269
 4253SOL    HW224393   3.559   1.084   7.761  0.3686 -0.7074 -2.7805
 4254SOL     OW24394   1.069   4.284   6.673 -0.1899  0.4267  0.1962
 4254SOL    HW124395   0.998   4.286   6.738  2.3779 -0.8751  3.0347
 4254SOL    HW224396   1.040   4.227   6.602  0.8814  0.4511 -0.2516
 4255SOL     OW24397   1.730   0.284   9.116 -0.0236  0.2458  0.1489
 4255SOL    HW124398   1.719   0.334   9.196 -0.7380  3.7277 -2.1075
 4255SOL    HW224399   1.806   0.333   9.083  0.0977 -0.0506 -0.0177
 4256SOL     OW24400   3.555   4.058  11.847  0.2514 -0.0071  0.0341
 4256SOL    HW124401   3.473   4.066  11.799  0.2299  2.0148  0.4204
 4256SOL    HW224402   3.532   4.093  11.933 -1.4390 -0.9686 -0.0260
 4257SOL     OW24403   3.638   0.363   6.021 -0.3957  0.1539  0.1017
 4257SOL    HW124404   3.722   0.380   5.978 -1.5351  0.6782 -1.9133
 4257SOL    HW224405   3.638   0.423   6.095  2.8977  1.1904 -0.7184
 4258SOL     OW24406   3.442   4.542   5.513 -0.6365  0.2725 -0.1077
 4258SOL    HW124407   3.362   4.505   5.551 -0.2554 -0.5389 -0.0843
 4258SOL    HW224408   3.479   4.582   5.591 -2.7689 -1.3369  1.7276
 4259SOL     OW24409   2.358   3.322   0.891  0.0645  0.4834  0.5496
 4259SOL    HW124410   2.403   3.268   0.956  1.0039 -0.3258 -0.7741
 4259SOL    HW224411   2.270   3.334   0.925 -0.0246 -3.0151  1.5190
 4260SOL     OW24412   1.937   1.542   0.866  0.2936 -0.0831 -0.2475
 4260SOL    HW124413   1.854   1.545   0.819  1.5657 -0.6152 -2.5112
 4260SOL    HW224414   1.947   1.447   0.875  0.5603 -0.1976 -1.8492
 4261SOL     OW24415   0.380   1.061   6.925 -0.2825 -0.5403  0.5497
 4261SOL    HW124416   0.394   1.006   6.848  2.4986  0.7206  0.1461
 4261SOL    HW224417   0.314   1.008   6.970 -0.2233  0.7652  2.2115
 4262SOL     OW24418   1.341   2.034  15.059 -0.2862  0.3349  0.5602
 4262SOL    HW124419   1.272   2.061  15.119 -1.3722  0.4120 -0.7306
 4262SOL    HW224420   1.338   2.091  14.982  1.9110 -1.2889 -0.7265
 4263SOL     OW24421   3.420   3.583   9.757  0.4590  0.0752  0.1068
 4263SOL    HW124422   3.516   3.575   9.749  0.5377  1.7180 -0.5936
 4263SOL    HW224423   3.420   3.499   9.802 -1.5965 -1.2772 -2.4546
 4264SOL     OW24424   2.399   3.598   5.456 -0.1811 -0.2397  0.4225
 4264SOL    HW124425   2.318   3.555   5.484 -0.3663  0.0575  0.3466
 4264SOL    HW224426   2.372   3.637   5.373  1.4969 -1.2969 -0.6251
 4265SOL     OW24427   0.268   1.479   6.755  0.4962 -0.0048 -0.1042
 4265SOL    HW124428   0.306   1.510   6.837  2.4440 -0.4282 -0.8347
 4265SOL    HW224429   0.349   1.497   6.707  0.6352  0.0749  0.1597
 4266SOL     OW24430   3.449   0.145   7.052  0.1617  0.7421 -0.0555
 4266SOL    HW124431   3.398   0.226   7.056  1.0062  1.3054 -0.6082
 4266SOL    HW224432   3.486   0.153   7.140 -0.3729  1.6211  0.0957
 4267SOL     OW24433   4.279   2.756   3.576 -0.1538 -0.1224  0.2419
 4267SOL    HW124434   4.347   2.806   3.531  1.4448 -2.6365 -0.1608
 4267SOL    HW224435   4.320   2.676   3.612 -0.1277  0.3025  1.1496
 4268SOL     OW24436   2.053   4.379  12.702  0.2264  0.6045 -0.0928
 4268SOL    HW124437   2.092   4.417  12.622 -0.5684 -0.4434 -0.9710
 4268SOL    HW224438   2.105   4.299  12.712 -1.1100 -0.4095 -1.3638
 4269SOL     OW24439   3.102   2.951  14.589  0.1831  1.3271 -0.0029
 4269SOL    HW124440   3.071   2.902  14.666  1.4261 -0.5596 -0.6921
 4269SOL    HW224441   3.134   2.887  14.525 -0.7071 -0.2510  1.1274
 4270SOL     OW24442   4.594   2.999  16.724  0.0731 -0.2465  0.1533
 4270SOL    HW124443   4.657   2.930  16.708  0.4903 -0.1366  1.3034
 4270SOL    HW224444   4.516   2.944  16.733  0.7681 -2.0790 -5.0515
 4271SOL     OW24445   1.532   3.867   7.214 -0.0382 -0.1269  0.0787
 4271SOL    HW124446   1.502   3.776   7.213 -1.5524  0.3509  1.2391
 4271SOL    HW224447   1.594   3.876   7.287 -0.3716  0.7086  0.2637
 4272SOL     OW24448   4.060   4.218   4.210 -0.0449 -0.6363  0.1901
 4272SOL    HW124449   4.024   4.134   4.238 -0.5574  0.2624  2.2272
 4272SOL    HW224450   4.061   4.203   4.115 -0.8273 -0.7927  0.2071
 4273SOL     OW24451   2.881   2.882   7.484 -0.0002 -0.1917 -0.1498
 4273SOL    HW124452   2.913   2.868   7.573  2.6623 -0.2369 -1.0891
 4273SOL    HW224453   2.791   2.914   7.490 -0.1088 -1.0292  2.7163
 4274SOL     OW24454   1.483   0.855   9.540  0.0181 -0.2956 -0.9133
 4274SOL    HW124455   1.498   0.761   9.527  1.0063 -0.3029  0.2861
 4274SOL    HW224456   1.404   0.879   9.491 -0.2795  1.2156  0.3494
 4275SOL     OW24457   2.155   4.454   5.278 -0.2071 -0.0596  0.2996
 4275SOL    HW124458   2.177   4.540   5.313  0.1301 -0.5515  1.3115
 4275SOL    HW224459   2.132   4.476   5.188  0.5794  0.4295  0.2266
 4276SOL     OW24460   4.003   3.166   3.036 -0.0037  0.0179 -0.3698
 4276SOL    HW124461   3.998   3.070   3.034 -2.0890  0.0665  2.0418
 4276SOL    HW224462   3.976   3.185   3.125  0.8184  1.5716 -0.4583
 4277SOL     OW24463   2.745   0.957   8.284 -0.2437 -0.3633 -0.6350
 4277SOL    HW124464   2.834   0.968   8.251  0.0048  0.2202  0.2352
 4277SOL    HW224465   2.696   0.983   8.206  0.7358 -0.7843 -1.3888
 4278SOL     OW24466   3.992   3.698   3.234  0.5931  0.3346 -0.3264
 4278SOL    HW124467   4.020   3.653   3.314 -0.3653 -2.5531 -1.5999
 4278SOL    HW224468   4.008   3.627   3.171  0.0130  0.1715 -0.2862
 4279SOL     OW24469   2.578   0.437   6.135  0.3762 -0.5009 -0.3893
 4279SOL    HW124470   2.520   0.361   6.146 -0.5230  0.1681 -0.4838
 4279SOL    HW224471   2.658   0.404   6.176 -0.0764  0.1321  0.9968
 4280SOL     OW24472   3.101   1.862  16.059  0.1554 -0.0256 -0.0780
 4280SOL    HW124473   3.026   1.910  16.095  1.5182  0.9804  1.4325
 4280SOL    HW224474   3.178   1.913  16.083 -0.6954  0.2403  2.1541
 4281SOL     OW24475   3.926   2.733  16.732  0.7356  0.9693 -0.1781
 4281SOL    HW124476   3.989   2.802  16.713  1.7883  0.2471  0.6836
 4281SOL    HW224477   3.981   2.674  16.784 -1.1387  0.6666  1.4707
 4282SOL     OW24478   4.644   1.096   0.560 -0.0165  0.0320 -0.1653
 4282SOL    HW124479   4.602   1.182   0.554 -0.9373 -0.2084  2.5334
 4282SOL    HW224480   4.619   1.080   0.651  0.9040  3.6629  0.7181
 4283SOL     OW24481   4.006   2.594   1.029 -0.4488 -0.1848  0.0909
 4283SOL    HW124482   4.081   2.538   1.007 -0.0028  0.4393  0.0317
 4283SOL    HW224483   4.012   2.590   1.124 -2.9333 -2.9024  0.1328
 4284SOL     OW24484   2.199   0.908   7.923  0.1015 -0.0972 -0.1196
 4284SOL    HW124485   2.128   0.971   7.915 -0.3628 -0.2953  2.4481
 4284SOL    HW224486   2.255   0.945   7.854  1.8766 -1.0446  0.8053
 4285SOL     OW24487   1.998   0.646   3.293 -0.0454  0.4347 -0.3430
 4285SOL    HW124488   1.952   0.730   3.288  0.4105  0.6893 -0.3112
 4285SOL    HW224489   1.930   0.583   3.268  0.5671 -0.6768  0.7841
 4286SOL     OW24490   0.013   2.903   4.952  0.2013 -0.2395 -0.6620
 4286SOL    HW124491   4.701   2.944   4.881  1.5272  2.7957  0.1270
 4286SOL    HW224492   0.033   2.817   4.915 -0.3841  0.7792 -3.3361
 4287SOL     OW24493   0.208   0.515   9.428 -0.0639 -0.2684 -0.3664
 4287SOL    HW124494   0.281   0.513   9.489 -0.1455 -0.1243 -0.2636
 4287SOL    HW224495   0.207   0.606   9.396  1.3882  0.5678  1.9738
 4288SOL     OW24496   4.720   1.734   7.600 -0.9233  0.0442  0.0955
 4288SOL    HW124497   4.709   1.676   7.524 -1.1383  2.7347 -1.9190
 4288SOL    HW224498   4.723   1.824   7.567 -0.0153  0.1428  0.4438
 4289SOL     OW24499   3.849   2.375   6.217 -0.3283  0.3071 -0.4052
 4289SOL    HW124500   3.816   2.309   6.277  1.8499 -1.3525 -1.0155
 4289SOL    HW224501   3.785   2.380   6.146  0.2458  0.9817 -0.8766
 4290SOL     OW24502   0.776   0.139   4.552  0.2353  0.4053  0.0452
 4290SOL    HW124503   0.786   0.228   4.519  1.0240  1.0158  1.8953
 4290SOL    HW224504   0.813   0.147   4.640  0.9347 -0.8338 -0.1369
 4291SOL     OW24505   0.996   0.934   0.781 -0.0061  0.3059 -0.2949
 4291SOL    HW124506   0.968   0.879   0.854  0.1959  0.9420  0.2650
 4291SOL    HW224507   0.940   0.898   0.713  1.6257 -0.0443 -1.4524
 4292SOL     OW24508   3.576   1.139  15.205 -0.7909 -0.2632 -0.3758
 4292SOL    HW124509   3.583   1.051  15.170 -1.6130 -0.7026  0.5546
 4292SOL    HW224510   3.581   1.122  15.299  0.3765  0.1058 -0.3697
 4293SOL     OW24511   3.130   2.474   0.506 -0.0963  0.2755 -0.5952
 4293SOL    HW124512   3.046   2.519   0.513 -0.1551  0.2171 -0.9021
 4293SOL    HW224513   3.131   2.426   0.589 -2.1853  1.6393  0.2087
 4294SOL     OW24514   1.648   0.860   2.030  0.4603 -0.9027  0.4055
 4294SOL    HW124515   1.733   0.894   2.004  1.4790 -2.8255  1.2135
 4294SOL    HW224516   1.674   0.776   2.070 -0.4548 -1.6901 -0.6497
 4295SOL     OW24517   0.839   0.111   1.910  0.0068  0.0093 -0.2299
 4295SOL    HW124518   0.924   0.127   1.870 -0.1571  0.8879 -0.2377
 4295SOL    HW224519   0.783   0.088   1.835 -0.7419 -1.9356  0.9318
 4296SOL     OW24520   0.149   4.095   7.111  0.0235  1.0368  0.0471
 4296SOL    HW124521   0.116   4.024   7.055 -1.7476  0.3076  2.0395
 4296SOL    HW224522   0.079   4.110   7.173 -1.3118 -0.0755 -1.1935
 4297SOL     OW24523   4.434   4.617   8.113  0.1107 -0.2793 -0.4711
 4297SOL    HW124524   4.475   4.590   8.195 -0.5754  2.7464  0.8517
 4297SOL    HW224525   4.415   4.707   8.138 -1.0160 -0.5100 -0.4989
 4298SOL     OW24526   1.451   4.037   4.157  0.0354 -1.2047 -0.4585
 4298SOL    HW124527   1.369   3.989   4.166 -1.3026  1.3413  0.8402
 4298SOL    HW224528   1.519   3.970   4.157  0.3760 -0.8598  2.2535
 4299SOL     OW24529   0.368   0.440   5.067 -0.2716  0.0792  0.5687
 4299SOL    HW124530   0.442   0.478   5.115 -0.8457  3.9807 -1.6165
 4299SOL    HW224531   0.325   0.521   5.040 -1.8128 -1.3168 -1.2363
 4300SOL     OW24532   0.207   2.528  12.864 -0.5053 -0.0193 -0.6517
 4300SOL    HW124533   0.238   2.534  12.955  2.1336 -0.9218 -1.4865
 4300SOL    HW224534   0.113   2.532  12.879 -0.2093  0.6997  1.0840
 4301SOL     OW24535   2.413   1.362   0.521 -0.1522  0.0023  0.0079
 4301SOL    HW124536   2.446   1.392   0.436 -1.4618 -1.7265 -1.1087
 4301SOL    HW224537   2.368   1.442   0.548 -1.2167 -0.2648 -1.0003
 4302SOL     OW24538   2.013   2.704   0.961 -0.4583 -0.3248  0.5213
 4302SOL    HW124539   1.934   2.757   0.970 -0.1642 -0.1501  2.0119
 4302SOL    HW224540   2.034   2.673   1.049  2.2139 -1.8924 -0.6760
 4303SOL     OW24541   1.330   4.639   2.681  0.2222  0.3297  0.0740
 4303SOL    HW124542   1.237   4.662   2.675 -0.4334 -2.5235 -0.8843
 4303SOL    HW224543   1.335   4.586   2.761  0.6367  1.0745  0.5444
 4304SOL     OW24544   2.583   3.700   5.637 -0.3839 -0.9105  0.0665
 4304SOL    HW124545   2.547   3.683   5.724 -0.3263  1.9678  0.6726
 4304SOL    HW224546   2.517   3.660   5.581 -0.0007 -2.2731  0.5935
 4305SOL     OW24547   2.973   3.260   4.974 -0.2741 -0.2408 -0.0532
 4305SOL    HW124548   2.918   3.234   5.047  0.4087  0.0840  0.5694
 4305SOL    HW224549   3.042   3.300   5.026  1.7547 -3.2475 -0.4355
 4306SOL     OW24550   2.685   1.546   8.082 -0.0833  0.1038 -0.1953
 4306SOL    HW124551   2.654   1.577   8.167 -0.4721  0.9321 -0.6297
 4306SOL    HW224552   2.759   1.604   8.062 -0.7882  0.9732 -0.2944
 4307SOL     OW24553   0.398   2.174   1.018  0.1335 -0.7849 -0.5606
 4307SOL    HW124554   0.340   2.217   1.081  0.5253  0.4474 -1.0505
 4307SOL    HW224555   0.342   2.108   0.977  0.7257 -1.8976  0.4020
 4308SOL     OW24556   3.623   2.697   3.035 -0.2797 -0.4967  0.4265
 4308SOL    HW124557   3.715   2.685   3.056  0.1249  2.5233  0.3502
 4308SOL    HW224558   3.621   2.791   3.051 -1.1806  0.1007 -3.2167
 4309SOL     OW24559   2.610   0.458   7.096  0.1171  0.3451 -0.0617
 4309SOL    HW124560   2.634   0.420   7.012  1.3172  0.8947  0.0339
 4309SOL    HW224561   2.560   0.383   7.130 -1.1345  1.1603 -0.0875
 4310SOL     OW24562   0.914   3.439   8.861 -0.3718 -0.2843  0.1615
 4310SOL    HW124563   0.871   3.444   8.947 -0.8917 -1.0461 -0.0571
 4310SOL    HW224564   1.004   3.429   8.891  0.0930 -0.0797 -1.1680
 4311SOL     OW24565   4.603   3.064  16.388 -0.4475  0.6870 -0.4779
 4311SOL    HW124566   4.694   3.078  16.413 -0.1714 -0.8495 -0.6184
 4311SOL    HW224567   4.618   3.090  16.298  0.8442 -0.4078 -0.5752
 4312SOL     OW24568   1.870   3.531   6.854 -0.3732 -0.1230 -0.7923
 4312SOL    HW124569   1.851   3.561   6.943  0.2259 -0.2745 -0.6146
 4312SOL    HW224570   1.922   3.455   6.879  0.3090  0.8245  0.6878
 4313SOL     OW24571   1.455   1.772   6.043 -0.3927  0.2950 -0.6968
 4313SOL    HW124572   1.441   1.743   5.953 -1.9196 -1.6767  0.1630
 4313SOL    HW224573   1.401   1.712   6.096 -2.1156  3.2580  0.9517
 4314SOL     OW24574   2.302   3.459   4.072  0.5731  0.1396 -0.2394
 4314SOL    HW124575   2.346   3.440   4.155  2.2728 -0.8975 -1.3953
 4314SOL    HW224576   2.214   3.423   4.085 -0.6240  3.3389  0.4466
 4315SOL     OW24577   3.214   3.199   5.290 -0.1661  0.1641 -0.6559
 4315SOL    HW124578   3.191   3.250   5.214 -2.1153  0.8868  0.4354
 4315SOL    HW224579   3.275   3.253   5.341 -0.0533 -0.6109  0.0431
 4316SOL     OW24580   2.610   2.433  14.766  0.2500 -0.1682 -0.0856
 4316SOL    HW124581   2.699   2.422  14.799  0.1611  0.0063  0.2157
 4316SOL    HW224582   2.563   2.356  14.798 -1.9830  0.9939 -0.5976
 4317SOL     OW24583   0.889   4.016  17.315  0.0152  0.4164  0.3359
 4317SOL    HW124584   0.930   4.084  17.262  0.2350  0.3648  0.4408
 4317SOL    HW224585   0.829   4.070  17.367 -2.0701 -0.6131 -0.9810
 4318SOL     OW24586   1.330   1.676   8.829 -0.2097  0.0514 -0.4521
 4318SOL    HW124587   1.239   1.654   8.809 -0.7255  0.9790  0.8789
 4318SOL    HW224588   1.361   1.743   8.768 -0.5801  1.7278  1.1897
 4319SOL     OW24589   3.683   4.078   5.962  0.2527  0.3307 -0.5114
 4319SOL    HW124590   3.629   4.053   6.037  1.5930 -1.5445 -0.1673
 4319SOL    HW224591   3.765   4.031   5.979  1.2419  2.4664  0.5660
 4320SOL     OW24592   4.412   3.478  11.470  0.9993 -0.0985  0.4414
 4320SOL    HW124593   4.390   3.511  11.557 -1.6981 -2.3014  0.5811
 4320SOL    HW224594   4.489   3.534  11.457  0.3638  0.5512 -0.5929
 4321SOL     OW24595   1.563   0.532   0.109  0.4798 -0.2576  0.1657
 4321SOL    HW124596   1.582   0.581   0.029  0.9698 -0.1735  0.3379
 4321SOL    HW224597   1.520   0.599   0.162  2.1901  1.9138 -1.2269
 4322SOL     OW24598   3.880   1.026   0.738  0.1595  0.2839 -0.2992
 4322SOL    HW124599   3.865   1.106   0.789 -1.6553  0.9729 -1.9254
 4322SOL    HW224600   3.954   1.048   0.682  0.4788 -0.6896 -0.2509
 4323SOL     OW24601   1.285   2.243  12.017 -0.2449  0.4666 -0.0647
 4323SOL    HW124602   1.367   2.290  12.036  0.7362 -0.0675 -3.0937
 4323SOL    HW224603   1.301   2.223  11.925  0.5809 -0.3392  0.2482
 4324SOL     OW24604   2.964   0.656   5.628 -0.0944 -0.2379  0.5182
 4324SOL    HW124605   2.968   0.752   5.621  0.9981 -0.1404  2.6496
 4324SOL    HW224606   3.008   0.637   5.545  1.6433  1.5995  1.0178
 4325SOL     OW24607   4.188   1.715   1.079 -0.0804 -0.2037 -0.5321
 4325SOL    HW124608   4.270   1.715   1.128 -0.7452 -3.3633  0.5586
 4325SOL    HW224609   4.231   1.719   0.993 -0.1274  0.6624 -0.5193
 4326SOL     OW24610   4.019   1.476   9.129  0.2696 -0.8700 -0.3457
 4326SOL    HW124611   3.949   1.526   9.087  0.5699  0.3331  0.5920
 4326SOL    HW224612   4.011   1.487   9.224  0.0307 -0.9651 -0.3553
 4327SOL     OW24613   2.760   2.342  15.021  0.5252  0.4357 -0.5177
 4327SOL    HW124614   2.670   2.313  15.009  1.4212 -2.7014  0.1203
 4327SOL    HW224615   2.793   2.308  15.105 -0.3813 -1.5440 -0.9518
 4328SOL     OW24616   0.358   1.710  12.118 -0.7798 -0.0457 -0.2162
 4328SOL    HW124617   0.441   1.676  12.151  0.8949  2.5445 -1.8343
 4328SOL    HW224618   0.313   1.639  12.071 -1.8542 -0.4330  1.3934
 4329SOL     OW24619   0.699   1.241   2.113 -0.0931 -0.3829  0.0707
 4329SOL    HW124620   0.777   1.254   2.059  0.2795 -1.3046  0.3887
 4329SOL    HW224621   0.651   1.323   2.104 -0.6162 -0.7513 -0.5193
 4330SOL     OW24622   0.918   2.405   7.056  0.5515 -0.0788  0.0284
 4330SOL    HW124623   0.951   2.338   6.996 -2.2293 -1.9034  0.5593
 4330SOL    HW224624   0.881   2.346   7.122  1.8038  0.7864  1.5163
 4331SOL     OW24625   1.496   1.853   5.439 -0.4611 -0.2595 -0.2087
 4331SOL    HW124626   1.429   1.905   5.484 -0.9937  1.9854 -3.6090
 4331SOL    HW224627   1.512   1.777   5.494 -1.4018  0.2825  0.8091
 4332SOL     OW24628   0.057   3.735   6.049  0.4390 -0.3300  0.5952
 4332SOL    HW124629   0.147   3.738   6.019 -0.8642 -0.5922 -3.3384
 4332SOL    HW224630   0.016   3.786   5.980  2.5447 -0.7819 -0.9651
 4333SOL     OW24631   1.522   1.499   8.920  0.4184 -0.1315 -0.1740
 4333SOL    HW124632   1.500   1.495   9.013  1.7598  2.2139  0.2348
 4333SOL    HW224633   1.455   1.564   8.895  1.4461  0.3602 -1.6249
 4334SOL     OW24634   1.956   1.688  16.605  0.6942  0.4701 -0.0430
 4334SOL    HW124635   1.971   1.731  16.521  1.1012 -0.3129 -0.3799
 4334SOL    HW224636   1.929   1.601  16.576  1.8432  0.5138 -1.2658
 4335SOL     OW24637   3.305   1.243  15.212 -0.1654  0.2272  0.0988
 4335SOL    HW124638   3.275   1.156  15.238  1.8810 -0.7790 -0.8824
 4335SOL    HW224639   3.397   1.215  15.215 -1.0612 -3.0584 -2.3838
 4336SOL     OW24640   3.065   0.751  12.291  0.1138  0.2286 -0.0001
 4336SOL    HW124641   3.063   0.657  12.275 -1.4686 -0.1856  2.6286
 4336SOL    HW224642   3.139   0.757  12.352 -0.3663 -1.6547  0.7803
 4337SOL     OW24643   3.986   1.221   8.671  1.0330 -0.0381 -1.1305
 4337SOL    HW124644   3.967   1.269   8.751 -1.7873 -1.6594 -0.8493
 4337SOL    HW224645   3.956   1.276   8.598 -0.7307  0.5100  0.0363
 4338SOL     OW24646   0.516   2.183   1.560 -0.0158 -0.1042  0.6311
 4338SOL    HW124647   0.449   2.150   1.500  1.6234  0.2278 -1.3407
 4338SOL    HW224648   0.527   2.115   1.627 -0.5660  0.7631  1.5974
 4339SOL     OW24649   1.214   4.260   1.538 -0.0398  0.7739 -0.1185
 4339SOL    HW124650   1.269   4.292   1.610 -1.2247 -1.8949  1.9992
 4339SOL    HW224651   1.162   4.339   1.523 -1.4064  0.0772  0.9388
 4340SOL     OW24652   3.586   0.730  12.850  0.7567 -0.3769 -0.0184
 4340SOL    HW124653   3.668   0.780  12.860  0.5614  0.2653 -1.5079
 4340SOL    HW224654   3.595   0.661  12.915 -2.8115  0.6492  1.5190
 4341SOL     OW24655   1.374   0.301   9.451 -0.2007 -0.4766  0.6029
 4341SOL    HW124656   1.457   0.274   9.411 -0.6162 -3.1668  1.5574
 4341SOL    HW224657   1.397   0.394   9.457  1.2558 -0.7576 -0.5446
 4342SOL     OW24658   0.683   0.393  13.220 -0.9693  0.9081 -0.6285
 4342SOL    HW124659   0.611   0.436  13.175  0.8107  1.5955 -2.8234
 4342SOL    HW224660   0.695   0.313  13.168  1.2017  0.4432  0.5915
 4343SOL     OW24661   0.932   4.043   5.849  0.6119  0.3426 -0.1335
 4343SOL    HW124662   0.875   4.076   5.918  0.5042  1.1634 -0.6021
 4343SOL    HW224663   0.920   3.950   5.864  2.2581  0.6326  2.8242
 4344SOL     OW24664   2.046   0.917   6.062 -0.0056 -0.3271  0.3295
 4344SOL    HW124665   2.106   0.876   6.000 -0.2680 -0.7437  0.3543
 4344SOL    HW224666   2.074   1.008   6.074  2.0743 -0.8169 -0.7481
 4345SOL     OW24667   2.396   4.340  12.883 -0.4116  0.2530  0.1356
 4345SOL    HW124668   2.473   4.371  12.930 -0.7472  0.8471  0.2980
 4345SOL    HW224669   2.417   4.363  12.793  0.0080 -1.7175 -0.2750
 4346SOL     OW24670   1.373   3.664  12.399  0.2846 -0.2143 -0.1372
 4346SOL    HW124671   1.460   3.630  12.421  1.0970  2.0265  0.0742
 4346SOL    HW224672   1.367   3.613  12.318 -0.9650 -0.2298 -0.0332
 4347SOL     OW24673   2.306   1.594   0.631  0.0255 -0.0953 -0.4440
 4347SOL    HW124674   2.244   1.642   0.576 -1.6154 -1.2145  0.4354
 4347SOL    HW224675   2.256   1.563   0.707  0.8753 -0.2381  0.0590
 4348SOL     OW24676   3.955   0.379   5.154  0.6572  0.3287 -0.4886
 4348SOL    HW124677   3.971   0.415   5.241  0.0043 -0.4327 -0.0515
 4348SOL    HW224678   4.005   0.438   5.098  3.8227  1.1950  3.3059
 4349SOL     OW24679   3.551   4.065  12.384  0.7538  0.0276  0.2691
 4349SOL    HW124680   3.544   4.126  12.457  1.0481  0.7218 -0.2827
 4349SOL    HW224681   3.637   4.031  12.405  1.0261  0.9533  0.6513
 4350SOL     OW24682   0.200   2.809   7.976 -0.0585 -0.0274  0.2524
 4350SOL    HW124683   0.249   2.839   8.052  0.9900 -0.6744 -0.1505
 4350SOL    HW224684   0.174   2.891   7.934 -2.0675 -0.7113  0.1649
 4351SOL     OW24685   2.782   0.709   4.953  0.1063  0.2174  0.6209
 4351SOL    HW124686   2.760   0.684   4.863 -0.6316  2.3593  0.2201
 4351SOL    HW224687   2.707   0.763   4.977 -0.5840 -0.8876  0.9584
 4352SOL     OW24688   1.569   1.461   2.144 -0.6642  0.3965 -0.1287
 4352SOL    HW124689   1.597   1.386   2.091  0.8196 -0.7867  2.3579
 4352SOL    HW224690   1.521   1.416   2.213 -0.3192  0.2628  0.0255
 4353SOL     OW24691   1.074   0.111   1.741 -0.4918 -0.4591  0.7145
 4353SOL    HW124692   1.052   0.169   1.668 -0.7118 -1.8369 -0.3311
 4353SOL    HW224693   1.027   0.031   1.719  0.6694 -0.6849 -0.9624
 4354SOL     OW24694   1.464   4.286   7.672 -0.1024 -0.1904  0.1030
 4354SOL    HW124695   1.402   4.256   7.605 -1.1155  1.8341  0.1475
 4354SOL    HW224696   1.418   4.355   7.720 -1.2734 -1.7542  1.2298
 4355SOL     OW24697   4.198   2.361   0.466 -0.0420  0.5912  0.3012
 4355SOL    HW124698   4.286   2.344   0.502  0.0722  0.2517 -0.1408
 4355SOL    HW224699   4.140   2.310   0.522 -0.8962  0.0628 -1.0967
 4356SOL     OW24700   3.582   0.342   2.223 -0.0098 -0.5392  0.2658
 4356SOL    HW124701   3.542   0.256   2.236 -0.6006  0.0621  2.4106
 4356SOL    HW224702   3.593   0.383   2.308  0.2712 -0.0449 -0.0068
 4357SOL     OW24703   3.409   0.540   8.559 -0.4614 -0.1702  0.1733
 4357SOL    HW124704   3.336   0.552   8.620  2.6762  0.3527  3.8894
 4357SOL    HW224705   3.485   0.554   8.616  0.3641  2.3314 -1.5800
 4358SOL     OW24706   3.757   4.058   2.191  0.1943  0.4872 -0.4792
 4358SOL    HW124707   3.701   4.059   2.114 -0.7156 -0.1607  0.1748
 4358SOL    HW224708   3.700   4.046   2.268  0.3659  0.0867 -0.4103
 4359SOL     OW24709   3.615   0.193   3.310  0.3369 -0.6953 -0.4376
 4359SOL    HW124710   3.682   0.179   3.377 -0.4851 -0.3646  0.4563
 4359SOL    HW224711   3.543   0.141   3.347 -1.0945  2.6320  1.4721
 4360SOL     OW24712   1.327   2.440   6.031 -0.1962  0.9488  0.2760
 4360SOL    HW124713   1.241   2.409   6.061 -0.3147 -0.2641 -1.3525
 4360SOL    HW224714   1.336   2.390   5.950 -2.7352 -1.9602  1.7869
 4361SOL     OW24715   2.539   0.585   3.249 -0.2728  0.4328  0.4537
 4361SOL    HW124716   2.477   0.607   3.179 -2.2481 -1.7003  1.5353
 4361SOL    HW224717   2.609   0.557   3.190  0.3809  0.8533  1.0354
 4362SOL     OW24718   3.307   4.146  11.380  0.9639  0.0632 -0.1690
 4362SOL    HW124719   3.270   4.112  11.298  0.4576 -0.7632  0.4061
 4362SOL    HW224720   3.328   4.232  11.343 -0.9507  1.4292  1.9099
 4363SOL     OW24721   3.917   1.852   2.790  0.5959 -0.1243 -0.0150
 4363SOL    HW124722   3.975   1.806   2.850 -2.7526 -3.1465  0.9004
 4363SOL    HW224723   3.968   1.842   2.710 -0.2262 -1.2147 -0.4041
 4364SOL     OW24724   4.674   3.182   3.280  0.2199  0.0171  0.1584
 4364SOL    HW124725   0.022   3.183   3.237 -0.9048 -1.1981 -2.1074
 4364SOL    HW224726   4.615   3.193   3.206  0.3132  0.2497  0.1165
 4365SOL     OW24727   2.365   2.718  17.018 -0.1231 -0.1599 -0.4363
 4365SOL    HW124728   2.373   2.755  17.106 -1.1869 -3.3353  0.9774
 4365SOL    HW224729   2.446   2.742  16.973  0.1982 -0.7681 -0.1803
 4366SOL     OW24730   1.199   1.207  15.541 -0.2626 -0.5054  0.4630
 4366SOL    HW124731   1.228   1.151  15.613 -0.2694 -0.9469  0.1226
 4366SOL    HW224732   1.282   1.227  15.496 -0.6966  0.8418  0.2675
 4367SOL     OW24733   4.245   3.095   9.049 -0.1354 -0.5218  0.3488
 4367SOL    HW124734   4.231   3.002   9.030  2.5473 -0.5052 -1.8632
 4367SOL    HW224735   4.341   3.100   9.057  0.0471 -2.0604 -0.9308
 4368SOL     OW24736   3.846   0.777   9.589 -0.8029  0.2270  0.1837
 4368SOL    HW124737   3.870   0.707   9.650  0.1515 -0.7216 -1.2842
 4368SOL    HW224738   3.806   0.729   9.517 -0.9904  0.9383 -0.1873
 4369SOL     OW24739   3.102   0.354   5.524 -0.0724 -0.2383 -0.6783
 4369SOL    HW124740   3.169   0.287   5.538  0.5838 -0.0078 -2.6588
 4369SOL    HW224741   3.107   0.412   5.600 -3.2152 -1.6829  0.5952
 4370SOL     OW24742   2.669   1.018   7.849  0.6394 -1.1238  0.2068
 4370SOL    HW124743   2.726   0.957   7.897  0.3093 -3.2253 -2.1078
 4370SOL    HW224744   2.716   1.101   7.856  0.4299 -1.0958  1.2910
 4371SOL     OW24745   3.666   3.083   6.587  0.0628  0.2267 -0.3671
 4371SOL    HW124746   3.585   3.095   6.537  0.1297  1.5003 -0.1598
 4371SOL    HW224747   3.696   3.174   6.586 -3.0038  1.2889  2.2363
 4372SOL     OW24748   3.511   0.613   4.271  0.5936  0.1807 -0.4645
 4372SOL    HW124749   3.532   0.580   4.358 -0.5330  0.8799  0.0840
 4372SOL    HW224750   3.560   0.696   4.265  1.5284  0.1423  5.9333
 4373SOL     OW24751   1.976   2.109   1.288  0.3356  0.2065 -0.0281
 4373SOL    HW124752   1.885   2.082   1.282  0.3148  0.6818 -1.8810
 4373SOL    HW224753   1.981   2.122   1.383  2.8629  0.5452 -0.1935
 4374SOL     OW24754   1.075   0.121  11.058  0.2797 -0.1852  0.0879
 4374SOL    HW124755   1.160   0.105  11.098  0.4295 -1.8518 -0.8736
 4374SOL    HW224756   1.090   0.202  11.010 -2.2731  1.9897  2.9962
 4375SOL     OW24757   1.125   3.952   9.324 -0.0150 -0.2439  0.1494
 4375SOL    HW124758   1.152   4.041   9.348  0.6734 -0.5289  0.4202
 4375SOL    HW224759   1.082   3.923   9.404  0.2309 -0.3448  0.2451
 4376SOL     OW24760   3.011   1.165   8.442 -0.0495  0.2433 -0.7496
 4376SOL    HW124761   3.103   1.189   8.441  0.1061 -0.3304 -0.2349
 4376SOL    HW224762   3.006   1.089   8.384  1.6832 -0.9792  0.7171
 4377SOL     OW24763   4.415   4.360   5.869  0.0403  0.2890  0.9627
 4377SOL    HW124764   4.342   4.384   5.812  0.8392 -1.5825 -0.8522
 4377SOL    HW224765   4.367   4.349   5.952 -0.1181  1.7909  1.0539
 4378SOL     OW24766   1.404   2.538  14.307  0.0528  0.2833 -0.0890
 4378SOL    HW124767   1.471   2.601  14.336  1.7483 -0.7742 -1.6872
 4378SOL    HW224768   1.454   2.490  14.241  0.5770  1.6491 -0.6834
 4379SOL     OW24769   0.389   1.089   3.899 -0.1633 -0.2571 -0.1873
 4379SOL    HW124770   0.302   1.063   3.930 -0.6487  3.0386  1.2464
 4379SOL    HW224771   0.433   1.108   3.982  1.7995  1.5850 -1.6372
 4380SOL     OW24772   2.850   3.795  16.564  0.4616 -0.2769  0.0050
 4380SOL    HW124773   2.910   3.844  16.507  0.0998 -0.7405 -0.7626
 4380SOL    HW224774   2.874   3.712  16.523  1.4768  0.2636 -0.5153
 4381SOL     OW24775   1.161   4.728   6.839 -0.1398  0.2524  0.0256
 4381SOL    HW124776   1.222   0.057   6.811 -0.1603  0.7537  1.1725
 4381SOL    HW224777   1.181   4.647   6.793  1.1911  0.5072  0.1596
 4382SOL     OW24778   3.053   1.113   7.471  0.1149 -0.2051  0.0739
 4382SOL    HW124779   3.126   1.156   7.426 -0.1672  1.5616  1.3098
 4382SOL    HW224780   2.985   1.179   7.473 -0.9042 -1.2702  0.3487
 4383SOL     OW24781   2.275   3.545   2.979 -0.2238 -0.1093  0.0199
 4383SOL    HW124782   2.292   3.567   3.071 -0.7502  3.9714 -0.8623
 4383SOL    HW224783   2.272   3.627   2.930 -0.8586 -0.7092 -0.9376
 4384SOL     OW24784   3.615   0.996  14.892 -0.4456 -0.6187  0.1290
 4384SOL    HW124785   3.550   1.064  14.876 -0.7858 -0.9684  0.0390
 4384SOL    HW224786   3.637   0.971  14.802  1.0300  1.3112 -0.0673
 4385SOL     OW24787   1.753   2.713   4.971  0.0965  0.1412  0.1201
 4385SOL    HW124788   1.831   2.764   4.952 -0.0652  0.0847 -0.6831
 4385SOL    HW224789   1.741   2.727   5.065  1.4714  1.2532  0.1263
 4386SOL     OW24790   2.332   2.585   8.428 -0.4690  0.2164  1.2607
 4386SOL    HW124791   2.291   2.563   8.344  2.0138 -0.3821  0.2181
 4386SOL    HW224792   2.255   2.623   8.471 -1.9011 -2.6145  1.1975
 4387SOL     OW24793   0.718   0.182   8.584  0.0280 -0.8380 -0.3122
 4387SOL    HW124794   0.736   0.246   8.652  0.0439 -2.0445  0.8197
 4387SOL    HW224795   0.623   0.178   8.593  0.0444  2.0531  0.9657
 4388SOL     OW24796   2.769   2.449   8.485 -1.0093  0.1781  0.5883
 4388SOL    HW124797   2.739   2.383   8.423  2.7009 -1.1543  0.2032
 4388SOL    HW224798   2.702   2.516   8.473  0.2297  1.0786 -1.3030
 4389SOL     OW24799   3.199   3.835   6.427  0.5865 -1.0152 -0.2413
 4389SOL    HW124800   3.135   3.872   6.366 -0.2891  2.1819  2.6283
 4389SOL    HW224801   3.201   3.745   6.395  0.4152 -1.1315  0.0796
 4390SOL     OW24802   2.986   0.533  14.467  0.1008 -0.0621 -0.1641
 4390SOL    HW124803   2.980   0.598  14.396  1.0337 -0.0848 -0.2656
 4390SOL    HW224804   3.054   0.480  14.425  0.6187 -0.6576  1.4348
 4391SOL     OW24805   2.575   3.997   5.740 -0.7078  0.1077 -0.4662
 4391SOL    HW124806   2.531   3.957   5.665 -1.4876 -2.1178  1.1714
 4391SOL    HW224807   2.498   4.041   5.775  0.5088  4.1534 -2.8468
 4392SOL     OW24808   4.231   3.363   0.146 -0.0333 -0.5286  0.2676
 4392SOL    HW124809   4.327   3.368   0.140 -0.1704 -0.5145 -2.2847
 4392SOL    HW224810   4.203   3.278   0.113 -0.1182  0.7317 -2.9434
 4393SOL     OW24811   0.993   3.342   2.682  0.3563  0.2163  0.6729
 4393SOL    HW124812   1.075   3.385   2.658  0.9579 -0.7414  1.0392
 4393SOL    HW224813   0.938   3.408   2.640  1.0245  1.4243  1.6881
 4394SOL     OW24814   0.584   1.190   8.024  0.1452 -0.0126 -0.3497
 4394SOL    HW124815   0.642   1.248   8.074  1.9685 -3.8547  1.9468
 4394SOL    HW224816   0.640   1.182   7.946  0.2904  3.5855 -0.6533
 4395SOL     OW24817   2.771   2.993  14.045  0.0692 -0.6769 -0.7267
 4395SOL    HW124818   2.692   3.035  14.079  1.8206  0.9200  1.3987
 4395SOL    HW224819   2.831   3.059  14.008  0.0339  1.6458  3.3100
 4396SOL     OW24820   0.524   1.972   1.815  0.2862  0.3170  0.0907
 4396SOL    HW124821   0.468   1.935   1.883 -2.2378 -0.9453 -2.6521
 4396SOL    HW224822   0.590   2.009   1.873 -0.6475  1.0019  0.7244
 4397SOL     OW24823   3.868   4.141   1.625  0.7902 -0.2007 -0.4831
 4397SOL    HW124824   3.862   4.134   1.720  0.9956 -0.2881 -0.4749
 4397SOL    HW224825   3.860   4.234   1.605  0.4511  0.2880  1.9363
 4398SOL     OW24826   0.491   4.581   5.587 -0.4045 -0.0163  0.1535
 4398SOL    HW124827   0.491   4.593   5.682 -2.4187  0.5279  0.0935
 4398SOL    HW224828   0.416   4.521   5.590  1.1395 -1.9201  0.2378
 4399SOL     OW24829   1.417   1.573   2.455 -0.2120 -0.4485 -0.2812
 4399SOL    HW124830   1.384   1.614   2.375 -0.4142  1.4341  0.7804
 4399SOL    HW224831   1.377   1.630   2.520  1.5584  0.2931  0.1544
 4400SOL     OW24832   1.899   0.914  14.068 -0.1332 -0.0211  0.1428
 4400SOL    HW124833   1.964   0.868  14.015  0.1796  1.3485 -0.6805
 4400SOL    HW224834   1.906   0.881  14.158  0.2112 -0.1410  0.0733
 4401SOL     OW24835   0.208   1.231   4.277  0.2741  0.1868 -0.3572
 4401SOL    HW124836   0.284   1.202   4.327 -0.8989 -1.7214  0.2757
 4401SOL    HW224837   0.172   1.143   4.274  1.3821 -0.2649 -0.3174
 4402SOL     OW24838   3.438   1.920  15.528 -0.7557 -0.0300  0.3727
 4402SOL    HW124839   3.508   1.978  15.557  0.4377 -1.3273  0.1422
 4402SOL    HW224840   3.396   1.974  15.460 -0.3189 -0.5477 -0.3176
 4403SOL     OW24841   1.925   1.502   6.475 -0.2347 -0.7037  0.6226
 4403SOL    HW124842   1.897   1.434   6.414 -2.3321 -0.9530  1.8586
 4403SOL    HW224843   1.849   1.509   6.533 -0.5583  0.9583  0.0072
 4404SOL     OW24844   3.315   4.691   4.522  0.0705  0.1330 -0.2601
 4404SOL    HW124845   3.290   0.042   4.548 -0.0715 -0.1927  0.7430
 4404SOL    HW224846   3.399   4.701   4.479 -0.1618  1.3571 -0.4374
 4405SOL     OW24847   0.350   1.816  12.796 -0.4148 -0.1478 -0.2117
 4405SOL    HW124848   0.305   1.843  12.876  1.3192  1.5975  0.1675
 4405SOL    HW224849   0.280   1.814  12.731  1.8198 -1.7043 -2.5586
 4406SOL     OW24850   2.325   2.130  11.381  0.0388  0.0487  0.2098
 4406SOL    HW124851   2.369   2.074  11.445 -1.7640 -1.4685  0.1145
 4406SOL    HW224852   2.357   2.108  11.294  0.5290 -1.3269  0.7412
 4407SOL     OW24853   0.042   4.387   9.860  0.4325 -0.2656  0.6101
 4407SOL    HW124854   0.118   4.332   9.881  2.6266  1.5132 -2.6836
 4407SOL    HW224855   0.090   4.448   9.804 -1.0398  0.2825 -0.0501
 4408SOL     OW24856   2.230   1.702   7.364 -0.4786  0.2636 -0.7184
 4408SOL    HW124857   2.156   1.749   7.325 -1.0161  0.3483  0.4092
 4408SOL    HW224858   2.186   1.620   7.388 -1.3413  1.0381  0.3261
 4409SOL     OW24859   1.417   2.908   0.839 -0.5262  0.1708 -0.4144
 4409SOL    HW124860   1.343   2.955   0.801  1.0564  2.6609 -0.3969
 4409SOL    HW224861   1.392   2.822   0.805 -2.8006 -0.4673  2.8088
 4410SOL     OW24862   3.639   1.657   2.115 -0.0555  0.4861 -0.0607
 4410SOL    HW124863   3.700   1.633   2.044  0.7904 -0.5836  1.0192
 4410SOL    HW224864   3.683   1.738   2.140  1.0844 -0.9483  2.5104
 4411SOL     OW24865   1.101   3.603   4.693  0.1247 -0.0044 -0.0740
 4411SOL    HW124866   1.066   3.592   4.605  2.4541  0.3556 -1.0444
 4411SOL    HW224867   1.103   3.513   4.724 -2.5748  0.5982  1.8441
 4412SOL     OW24868   0.656   0.001   2.826  0.2652 -0.2811 -0.0472
 4412SOL    HW124869   0.634   4.735   2.919 -0.4486 -1.2649 -0.2483
 4412SOL    HW224870   0.571   4.717   2.787  0.0077  1.1384 -0.2633
 4413SOL     OW24871   3.139   3.624   8.862 -0.3426  0.7186 -0.0409
 4413SOL    HW124872   3.194   3.556   8.822  1.0543  1.8872 -0.1339
 4413SOL    HW224873   3.177   3.639   8.949 -1.9703 -0.2942  0.8365
 4414SOL     OW24874   4.089   1.866   8.169  0.7142  0.3374  0.2894
 4414SOL    HW124875   4.040   1.804   8.223 -0.0885 -0.4379 -1.3193
 4414SOL    HW224876   4.155   1.806   8.132 -0.7913 -2.4512  2.0928
 4415SOL     OW24877   2.919   0.113   6.654  0.1505 -0.1537 -0.2756
 4415SOL    HW124878   3.007   0.078   6.648 -0.2575 -1.5984  2.3541
 4415SOL    HW224879   2.914   0.126   6.749  0.7776 -3.1341  0.1524
 4416SOL     OW24880   1.261   3.897   3.398  0.2660  0.4966  0.4554
 4416SOL    HW124881   1.187   3.887   3.457 -0.0966 -1.6074 -0.3802
 4416SOL    HW224882   1.216   3.955   3.337  0.9658  1.2331  0.6321
 4417SOL     OW24883   4.523   0.881  12.139  0.1355  0.2007 -0.0313
 4417SOL    HW124884   4.442   0.893  12.190 -0.4651 -0.9003 -0.7253
 4417SOL    HW224885   4.526   0.786  12.132  0.8590  0.1737  0.6574
 4418SOL     OW24886   0.482   0.775  15.334 -0.1610  0.0031 -0.2583
 4418SOL    HW124887   0.435   0.798  15.414  1.8324  0.7617  0.7180
 4418SOL    HW224888   0.528   0.854  15.307  0.8936 -0.8131 -0.9019
 4419SOL     OW24889   3.289   1.241   0.520 -0.0943 -0.5644  0.3385
 4419SOL    HW124890   3.262   1.305   0.455 -0.6114 -1.9432 -0.8014
 4419SOL    HW224891   3.306   1.159   0.474  0.0143  0.4667 -1.4341
 4420SOL     OW24892   1.906   3.088  13.995 -0.0239  0.2520 -0.1342
 4420SOL    HW124893   1.817   3.123  13.999  0.3890  1.2332  0.5248
 4420SOL    HW224894   1.920   3.076  14.089  0.3856 -0.7616 -0.3265
 4421SOL     OW24895   2.731   0.036  15.295  0.1802 -0.0258  0.1725
 4421SOL    HW124896   2.659   0.004  15.349  0.4620 -0.3067  0.3785
 4421SOL    HW224897   2.766   0.111  15.343  2.8901 -2.6762  2.3598
 4422SOL     OW24898   2.502   2.129   2.114  0.1980 -0.0721  0.5031
 4422SOL    HW124899   2.457   2.150   2.195 -0.0049 -0.8181  0.5845
 4422SOL    HW224900   2.441   2.161   2.047  1.0808  0.3187 -0.1283
 4423SOL     OW24901   1.665   3.333   8.105 -0.2357  0.6435 -0.3422
 4423SOL    HW124902   1.597   3.391   8.072 -1.5582 -0.9996 -0.4462
 4423SOL    HW224903   1.645   3.345   8.198 -0.5531 -1.4927 -0.1580
 4424SOL     OW24904   2.151   1.342  13.158 -0.1842 -0.3066  0.0681
 4424SOL    HW124905   2.160   1.302  13.071 -0.8690  1.1172 -0.6639
 4424SOL    HW224906   2.131   1.265  13.210  1.4716 -0.2916  0.7275
 4425SOL     OW24907   0.596   4.249   2.627  0.0283 -0.3340  0.6175
 4425SOL    HW124908   0.514   4.277   2.586  0.0118  0.7700  1.4089
 4425SOL    HW224909   0.655   4.238   2.552 -1.0353  1.5135 -0.4849
 4426SOL     OW24910   4.137   4.035   8.146 -0.4099  0.0393  0.1164
 4426SOL    HW124911   4.186   4.117   8.152 -1.5873  0.7327  0.2970
 4426SOL    HW224912   4.055   4.084   8.152 -0.0233  0.9333 -2.0401
 4427SOL     OW24913   1.093   2.227  14.578 -0.1209 -0.1139  0.1555
 4427SOL    HW124914   1.150   2.157  14.544 -1.2467 -1.0372  0.1351
 4427SOL    HW224915   1.137   2.305  14.545  0.7928 -0.3584  0.7915
 4428SOL     OW24916   1.315   1.248  10.280  0.8994  0.3774 -0.1015
 4428SOL    HW124917   1.256   1.301  10.334  1.4535  0.4531  0.4353
 4428SOL    HW224918   1.306   1.283  10.192 -0.1987  1.5017  0.4531
 4429SOL     OW24919   0.817   0.528   4.304 -0.8120  0.7731  0.1894
 4429SOL    HW124920   0.838   0.600   4.245  1.1180  0.2785  0.2641
 4429SOL    HW224921   0.732   0.500   4.270  0.3786  0.2926 -2.3462
 4430SOL     OW24922   2.956   1.901   3.749 -0.4068  0.0188  0.3533
 4430SOL    HW124923   3.039   1.899   3.702 -0.2947 -1.3965  0.6102
 4430SOL    HW224924   2.938   1.806   3.748 -2.4674  0.4287 -1.4052
 4431SOL     OW24925   1.757   1.428   7.070 -0.8069 -0.0651  0.3820
 4431SOL    HW124926   1.666   1.440   7.100 -0.7143 -2.6336  1.6427
 4431SOL    HW224927   1.738   1.396   6.982  0.8202 -0.6294  0.2339
 4432SOL     OW24928   0.007   4.516   1.618 -0.3556  0.2417  0.0978
 4432SOL    HW124929   4.664   4.495   1.664 -0.1002 -0.3679  0.2622
 4432SOL    HW224930   4.734   4.504   1.524 -2.3436 -1.0265  0.4980
 4433SOL     OW24931   3.065   1.540   5.233  0.5647 -0.0737  0.2079
 4433SOL    HW124932   3.014   1.584   5.164  1.9032  1.6219  0.3024
 4433SOL    HW224933   3.099   1.465   5.185  0.4824 -0.0093  0.0443
 4434SOL     OW24934   3.118   2.226   7.333  0.2483 -0.0022  0.1904
 4434SOL    HW124935   3.146   2.165   7.266  0.4593  0.1782  0.1138
 4434SOL    HW224936   3.173   2.205   7.408 -0.3271 -0.5471  0.4565
 4435SOL     OW24937   0.779   2.337   4.714  0.2590 -0.5874  0.1970
 4435SOL    HW124938   0.784   2.330   4.619 -0.3818  0.7950  0.0634
 4435SOL    HW224939   0.818   2.423   4.729 -1.4293 -0.0554  1.5414
 4436SOL     OW24940   2.225   1.616  10.710 -0.3295 -0.1629 -0.2329
 4436SOL    HW124941   2.220   1.522  10.699 -0.4474  0.0894 -2.3459
 4436SOL    HW224942   2.257   1.648  10.625 -0.4493 -0.0631 -0.2395
 4437SOL     OW24943   2.783   1.030  15.170  0.6669 -0.1551 -0.5356
 4437SOL    HW124944   2.796   1.111  15.120  0.6633 -1.4576 -2.6905
 4437SOL    HW224945   2.707   1.053  15.222  0.8277  2.1774 -1.3067
 4438SOL     OW24946   0.851   1.151   9.532  0.8559 -0.1786 -0.5298
 4438SOL    HW124947   0.807   1.089   9.474 -1.6341  2.1004 -1.1037
 4438SOL    HW224948   0.882   1.212   9.465 -2.9517  1.0032 -1.2262
 4439SOL     OW24949   0.151   3.800   7.179  0.3138 -0.0832  0.0414
 4439SOL    HW124950   0.170   3.707   7.188  0.7767  0.0700  0.6850
 4439SOL    HW224951   0.114   3.817   7.266  0.1557  0.5155 -0.1382
 4440SOL     OW24952   4.546   0.358   1.847 -0.4455  0.5696 -0.3866
 4440SOL    HW124953   4.489   0.325   1.777 -1.4227 -0.0834  0.7302
 4440SOL    HW224954   4.511   0.444   1.866 -0.2165  0.9232 -1.5391
 4441SOL     OW24955   3.539   2.055  11.006  0.5357 -0.2177  0.2120
 4441SOL    HW124956   3.445   2.067  10.999  0.3022 -1.7506  0.7104
 4441SOL    HW224957   3.561   2.140  11.045 -1.3370  0.1151  0.5150
 4442SOL     OW24958   2.839   1.544  14.121 -0.4862  0.2551  0.5060
 4442SOL    HW124959   2.839   1.463  14.069 -1.0171  0.2370  0.5350
 4442SOL    HW224960   2.902   1.603  14.079 -0.1453  0.4202  1.2544
 4443SOL     OW24961   3.146   3.221   6.244 -0.1623 -0.0739 -0.0324
 4443SOL    HW124962   3.136   3.275   6.323  0.0649  0.0103 -0.0638
 4443SOL    HW224963   3.082   3.155   6.271  1.0092 -1.9215 -1.8016
 4444SOL     OW24964   3.577   0.675   7.379  0.2969  0.2050 -0.4738
 4444SOL    HW124965   3.564   0.739   7.310  0.6404 -0.2099 -0.9244
 4444SOL    HW224966   3.516   0.605   7.357  0.7336  0.4888 -2.5551
 4445SOL     OW24967   1.234   0.090   0.497  0.3269 -0.6903 -0.2625
 4445SOL    HW124968   1.232   0.156   0.567 -2.7053 -0.6661 -0.3822
 4445SOL    HW224969   1.329   0.078   0.490  0.3689 -0.6447  0.1924
 4446SOL     OW24970   1.898   4.638   8.671 -0.4801  0.1332  0.3012
 4446SOL    HW124971   1.837   4.613   8.602 -1.5528  2.1806  0.5273
 4446SOL    HW224972   1.912   4.732   8.671 -0.0579  0.0720  0.1892
 4447SOL     OW24973   3.092   4.486   2.171  0.0116 -0.2526  0.2451
 4447SOL    HW124974   3.149   4.560   2.151  1.1488 -1.8040 -2.2320
 4447SOL    HW224975   3.102   4.501   2.265  0.4302 -1.0676  0.3329
 4448SOL     OW24976   3.680   3.068   4.865  0.4852  0.1295  0.0766
 4448SOL    HW124977   3.707   3.153   4.831 -0.6599  0.4963  0.0755
 4448SOL    HW224978   3.630   3.039   4.789  1.8251  2.9245 -1.8587
 4449SOL     OW24979   2.623   2.838   3.051 -0.3464  0.1902  0.5103
 4449SOL    HW124980   2.537   2.796   3.055  1.3614 -3.4303 -1.0792
 4449SOL    HW224981   2.667   2.800   3.127 -1.3648 -1.4771  0.2725
 4450SOL     OW24982   2.736   2.027   4.982 -0.0430  0.0790  0.2574
 4450SOL    HW124983   2.736   2.114   5.024  1.6604 -0.5473  1.5599
 4450SOL    HW224984   2.778   2.051   4.900 -2.5255 -0.1402 -1.0694
 4451SOL     OW24985   3.258   3.729  11.704  0.1901 -0.5296  0.0365
 4451SOL    HW124986   3.286   3.769  11.786 -0.2101 -1.8997  0.8338
 4451SOL    HW224987   3.183   3.780  11.674 -0.0607 -0.9855 -0.1082
 4452SOL     OW24988   3.414   2.410   7.289 -0.0075  0.1709 -0.0862
 4452SOL    HW124989   3.405   2.505   7.288 -0.9371  0.1109  2.8829
 4452SOL    HW224990   3.322   2.385   7.303  0.0550  0.0862  0.1768
 4453SOL     OW24991   1.342   3.793   9.296  0.3325 -0.1798 -0.0811
 4453SOL    HW124992   1.256   3.826   9.322  1.1868 -0.1694  2.6799
 4453SOL    HW224993   1.372   3.866   9.242  1.8052 -0.2069  0.7254
 4454SOL     OW24994   0.469   2.587   6.419 -0.1402  0.3330 -0.3784
 4454SOL    HW124995   0.436   2.670   6.453 -0.5116 -0.4579  1.2384
 4454SOL    HW224996   0.540   2.569   6.481 -0.7898  3.4242  1.2741
 4455SOL     OW24997   3.727   4.132   4.389 -0.2931 -0.1902  0.2068
 4455SOL    HW124998   3.782   4.207   4.368 -1.3079  0.9144  1.4780
 4455SOL    HW224999   3.704   4.146   4.481 -0.8512 -0.0977  0.0501
 4456SOL     OW25000   4.220   1.320   8.391  0.5176 -0.4820 -0.0428
 4456SOL    HW125001   4.279   1.372   8.446  0.3904 -0.1216 -0.2495
 4456SOL    HW225002   4.275   1.248   8.360  1.4809  0.4354 -0.4911
 4457SOL     OW25003   0.967   1.068  15.396 -0.2404  0.0772  0.4534
 4457SOL    HW125004   0.904   1.048  15.466 -2.1576  1.6454 -0.8379
 4457SOL    HW225005   1.040   1.113  15.439  0.7507 -0.1447 -1.0283
 4458SOL     OW25006   1.642   1.536   6.010 -0.6468 -0.0817  0.0916
 4458SOL    HW125007   1.665   1.540   5.917  1.1729  1.2339  0.5963
 4458SOL    HW225008   1.684   1.610   6.054 -2.0913  0.9263 -0.2107
 4459SOL     OW25009   2.206   3.119   6.236  0.1095 -0.0465  0.6292
 4459SOL    HW125010   2.112   3.135   6.233  0.2657  0.9553  0.7350
 4459SOL    HW225011   2.229   3.201   6.282 -0.3895  0.3142  0.2353
 4460SOL     OW25012   0.026   4.336   4.380 -0.5501  0.8915 -0.0826
 4460SOL    HW125013   0.065   4.289   4.306 -2.4148  0.6415 -0.9162
 4460SOL    HW225014   4.678   4.368   4.354 -1.0380 -0.5016 -0.2247
 4461SOL     OW25015   4.514   3.641   6.311  0.6489 -0.2489 -0.1593
 4461SOL    HW125016   4.600   3.656   6.350  0.7264  1.5019 -0.9691
 4461SOL    HW225017   4.472   3.723   6.338 -2.6904 -2.3850  1.1483
 4462SOL     OW25018   3.393   4.611  14.521 -0.3921 -0.5938 -0.3895
 4462SOL    HW125019   3.379   4.588  14.613 -1.6014  1.4643 -0.0479
 4462SOL    HW225020   3.450   4.687  14.533  1.4879 -1.8627 -1.4392
 4463SOL     OW25021   1.470   2.983   6.536 -0.3431 -0.5594  0.0228
 4463SOL    HW125022   1.379   2.981   6.506  0.3007  0.2231 -1.9860
 4463SOL    HW225023   1.474   2.921   6.608 -0.6982 -1.6125 -0.8657
 4464SOL     OW25024   1.768   0.039  14.406 -0.0296  0.5093 -0.0959
 4464SOL    HW125025   1.716   4.703  14.377 -0.8583  0.9642  0.2035
 4464SOL    HW225026   1.704   0.105  14.431 -0.2606  0.5360 -0.7587
 4465SOL     OW25027   4.518   0.504   8.094 -0.4069 -0.0909  0.1136
 4465SOL    HW125028   4.556   0.488   8.180 -0.8614 -1.1859  0.1163
 4465SOL    HW225029   4.496   0.417   8.059  2.4137 -1.3295  1.4852
 4466SOL     OW25030   4.020   1.792   2.073 -0.4520 -0.4418  0.2736
 4466SOL    HW125031   4.089   1.753   2.019 -0.4061  0.4973 -0.3455
 4466SOL    HW225032   4.064   1.877   2.084 -0.8832 -0.2276  0.3297
 4467SOL     OW25033   1.960   2.087   7.639 -0.2928  0.3225 -0.3060
 4467SOL    HW125034   1.920   2.016   7.588 -0.0708  1.2976 -1.8141
 4467SOL    HW225035   1.930   2.169   7.601 -0.0417 -0.3823 -2.0430
 4468SOL     OW25036   2.723   1.002   2.611  0.4091 -0.1385 -0.7596
 4468SOL    HW125037   2.666   1.056   2.665  1.1903  0.1275 -0.2027
 4468SOL    HW225038   2.674   0.923   2.586  2.1295 -0.7788 -2.1226
 4469SOL     OW25039   4.736   4.467   6.368  0.5932 -0.4456  0.0257
 4469SOL    HW125040   0.030   4.553   6.341  0.4282 -0.5516 -0.5002
 4469SOL    HW225041   4.646   4.486   6.391  0.4296 -0.3410 -0.7071
 4470SOL     OW25042   1.078   4.276   3.435 -0.1731  0.1619  0.6737
 4470SOL    HW125043   1.147   4.341   3.450 -0.0577 -0.3278  2.3080
 4470SOL    HW225044   1.059   4.251   3.526 -0.7323 -0.1542  0.4707
 4471SOL     OW25045   2.175   3.415   7.001 -0.0071  0.0133 -0.3773
 4471SOL    HW125046   2.088   3.375   6.994 -0.5459  1.1744 -0.3812
 4471SOL    HW225047   2.225   3.358   7.059 -0.0510 -0.1361 -0.4871
 4472SOL     OW25048   3.606   2.471   8.401  0.4150  0.2050  0.0904
 4472SOL    HW125049   3.651   2.522   8.469 -0.3385 -1.3382  1.7433
 4472SOL    HW225050   3.660   2.393   8.387  1.9792  1.0675  1.3119
 4473SOL     OW25051   3.479   2.420   5.441  0.2331  0.1309  0.0822
 4473SOL    HW125052   3.386   2.402   5.458 -0.2301 -2.4674 -4.9047
 4473SOL    HW225053   3.471   2.422   5.345 -1.0594  1.0675  0.2138
 4474SOL     OW25054   1.251   4.442   4.113 -0.3714 -0.3278 -0.0832
 4474SOL    HW125055   1.263   4.536   4.129 -2.1451 -0.4693  2.0050
 4474SOL    HW225056   1.315   4.396   4.168 -0.0232 -1.0940 -1.1196
 4475SOL     OW25057   3.020   4.618   6.392 -0.1255  0.1218 -0.1605
 4475SOL    HW125058   3.018   4.527   6.424  0.0643  0.0167 -0.4394
 4475SOL    HW225059   3.105   4.650   6.423 -0.1355  0.2600 -0.2817
 4476SOL     OW25060   0.553   2.070   4.774 -0.0573 -0.2944  0.1322
 4476SOL    HW125061   0.646   2.052   4.793  0.1662 -0.6547 -1.3322
 4476SOL    HW225062   0.527   1.987   4.734  1.5501 -0.9421  0.4316
 4477SOL     OW25063   2.399   1.142   4.192  0.4117 -0.1455 -0.3184
 4477SOL    HW125064   2.482   1.176   4.223  1.5287 -0.4347 -3.0389
 4477SOL    HW225065   2.349   1.184   4.262  1.8196  2.6683 -1.0026
 4478SOL     OW25066   2.323   1.735   3.532 -0.2617 -0.1186  0.4479
 4478SOL    HW125067   2.338   1.641   3.540 -0.9968 -0.2558  0.2392
 4478SOL    HW225068   2.268   1.749   3.609  0.5835 -0.7464  1.1655
 4479SOL     OW25069   0.899   4.503   8.390 -0.5552 -0.7088 -0.6302
 4479SOL    HW125070   0.913   4.583   8.441  1.3301 -0.3456 -1.6948
 4479SOL    HW225071   0.808   4.485   8.411 -0.6313  2.6279  1.9228
 4480SOL     OW25072   3.460   1.835  11.150  0.4461  0.2694  0.2609
 4480SOL    HW125073   3.507   1.834  11.233  0.2320 -2.2210  0.3623
 4480SOL    HW225074   3.496   1.914  11.109  0.7327  0.7586  1.4485
 4481SOL     OW25075   2.099   3.796   1.178 -0.5175 -0.0930  0.4217
 4481SOL    HW125076   2.007   3.794   1.152 -0.4055  1.0199 -0.0629
 4481SOL    HW225077   2.127   3.873   1.127 -1.7525  0.7478  1.0126
 4482SOL     OW25078   0.200   0.905   6.345  0.0996  0.3772 -0.2172
 4482SOL    HW125079   0.176   0.888   6.254 -0.5692  0.0395  0.0301
 4482SOL    HW225080   0.270   0.840   6.345 -0.3199 -0.0553  2.4944
 4483SOL     OW25081   3.311   1.638   4.533  0.1410 -0.1296  0.0477
 4483SOL    HW125082   3.249   1.667   4.599 -0.2087 -1.5068  0.3355
 4483SOL    HW225083   3.253   1.608   4.463  0.1026 -1.2614  0.5575
 4484SOL     OW25084   0.225   1.459  14.484  0.2222  0.0746 -0.2543
 4484SOL    HW125085   0.199   1.547  14.456 -0.1931  0.0075 -0.0794
 4484SOL    HW225086   0.143   1.414  14.464  0.1115 -1.3404  3.3726
 4485SOL     OW25087   2.922   4.221   2.444  0.3890 -0.1010 -0.0344
 4485SOL    HW125088   2.904   4.127   2.443  0.5097 -0.1233 -0.0740
 4485SOL    HW225089   3.017   4.218   2.433  0.6344 -1.5504  2.3108
 4486SOL     OW25090   1.904   3.197  10.802 -0.0405 -0.2304  0.4509
 4486SOL    HW125091   1.932   3.267  10.742  0.4048 -1.4630 -0.7855
 4486SOL    HW225092   1.858   3.151  10.731  0.2746  1.5266 -0.9120
 4487SOL     OW25093   3.467   4.041   8.492 -0.0162  0.5316 -0.2874
 4487SOL    HW125094   3.453   4.054   8.399 -0.4168 -0.9310 -0.4363
 4487SOL    HW225095   3.381   4.004   8.513 -0.0972 -0.5977 -2.6409
 4488SOL     OW25096   0.901   1.371   6.876  0.0327  0.3628  0.2110
 4488SOL    HW125097   0.915   1.392   6.784  0.5587  0.8949  0.4096
 4488SOL    HW225098   0.810   1.399   6.884 -0.2979 -0.8003  0.4994
 4489SOL     OW25099   4.065   0.345   8.065  0.0435  0.3247  0.5776
 4489SOL    HW125100   4.103   0.354   8.152  0.2022 -1.1758  0.6641
 4489SOL    HW225101   3.975   0.356   8.096 -0.3892 -0.4234 -0.3944
 4490SOL     OW25102   1.282   1.938   7.813 -0.0421  0.1922  0.0773
 4490SOL    HW125103   1.353   1.997   7.788  0.9062  0.1068  2.4869
 4490SOL    HW225104   1.234   2.000   7.868 -1.0209 -0.2789 -0.2512
 4491SOL     OW25105   2.981   0.540   6.371  0.3923 -0.1014  0.4143
 4491SOL    HW125106   2.958   0.615   6.426 -1.4395  0.2837 -0.8787
 4491SOL    HW225107   2.893   0.520   6.337  1.1869 -1.1709 -1.0280
 4492SOL     OW25108   3.402   2.027   9.993  0.3293 -0.8523  0.3578
 4492SOL    HW125109   3.371   1.946   9.954 -1.9440  1.7030 -3.1717
 4492SOL    HW225110   3.334   2.086   9.959  1.7888  1.5404  1.5877
 4493SOL     OW25111   0.308   1.947  15.912 -0.3615 -0.2283  0.1271
 4493SOL    HW125112   0.222   1.905  15.904  0.0507 -1.2791  1.3232
 4493SOL    HW225113   0.301   2.028  15.861  0.4097  1.6796  3.0843
 4494SOL     OW25114   3.870   4.189   3.017  0.8287 -0.8469  0.0686
 4494SOL    HW125115   3.867   4.238   3.099 -0.9593  1.2322 -1.2476
 4494SOL    HW225116   3.924   4.114   3.043 -0.7884 -1.4152  1.7822
 4495SOL     OW25117   4.399   0.216   9.215 -0.6539  0.1125  0.5758
 4495SOL    HW125118   4.340   0.238   9.143 -0.0740  1.1824  0.4311
 4495SOL    HW225119   4.345   0.158   9.268  0.0599 -1.1244 -0.0476
 4496SOL     OW25120   0.827   0.734   2.377 -0.0336 -0.0975  0.0670
 4496SOL    HW125121   0.807   0.645   2.347  0.8898 -0.8570  1.7242
 4496SOL    HW225122   0.865   0.772   2.298 -0.4466  1.6605  0.7256
 4497SOL     OW25123   3.123   3.845   6.758  0.7812  0.1355  0.1133
 4497SOL    HW125124   3.061   3.847   6.831  2.0177 -0.0876  1.1634
 4497SOL    HW225125   3.060   3.849   6.686  1.0275  2.2097  0.0203
 4498SOL     OW25126   4.705   0.330  11.857 -0.8331  0.0638  0.3697
 4498SOL    HW125127   4.709   0.373  11.772  1.2483 -1.0810 -0.1169
 4498SOL    HW225128   0.018   0.386  11.915  2.1982 -0.5532 -1.7181
 4499SOL     OW25129   2.357   0.982   2.946 -0.2802  0.2246  0.1252
 4499SOL    HW125130   2.354   0.903   2.891 -2.4860 -0.2727  0.9201
 4499SOL    HW225131   2.330   0.942   3.029  1.7468 -0.3321  0.4957
 4500SOL     OW25132   3.388   2.787   9.676  0.7712 -0.3051  0.3190
 4500SOL    HW125133   3.365   2.873   9.712 -1.9246 -0.2208 -1.6051
 4500SOL    HW225134   3.484   2.790   9.679  0.7833 -0.1498 -0.1257
 4501SOL     OW25135   1.957   0.563  11.409 -0.2718 -0.5392  0.7926
 4501SOL    HW125136   1.975   0.657  11.422 -1.7667 -0.2512  0.8210
 4501SOL    HW225137   2.003   0.516  11.478 -3.0901 -1.0149  2.3415
 4502SOL     OW25138   2.360   2.966   3.805 -0.3746 -0.4666 -0.4652
 4502SOL    HW125139   2.364   3.049   3.853 -0.4427  0.5271 -2.1380
 4502SOL    HW225140   2.442   2.971   3.755 -0.0625 -0.9898  0.0070
 4503SOL     OW25141   3.848   0.904   3.479  0.1729 -0.2458 -0.5323
 4503SOL    HW125142   3.846   0.993   3.446  2.1922 -0.2656 -0.6793
 4503SOL    HW225143   3.876   0.922   3.569 -1.2488 -0.8689  0.0335
 4504SOL     OW25144   2.523   3.509  10.001  0.0456 -0.9196  0.2920
 4504SOL    HW125145   2.543   3.560  10.079  0.7908 -2.0738  0.8455
 4504SOL    HW225146   2.554   3.423  10.030 -0.9288 -2.3493 -2.9321
 4505SOL     OW25147   3.413   3.533   6.448 -0.3579 -0.0402 -0.5974
 4505SOL    HW125148   3.388   3.574   6.531  2.3683 -1.1537  0.7779
 4505SOL    HW225149   3.354   3.457   6.441 -0.6953  0.0864  0.7247
 4506SOL     OW25150   3.193   1.925   3.127  0.4407 -0.0512  0.4710
 4506SOL    HW125151   3.197   1.928   3.032  3.0775 -0.1476  0.5652
 4506SOL    HW225152   3.127   1.860   3.152  0.4843  0.2031  1.2505
 4507SOL     OW25153   0.784   2.248   7.239 -0.4856  0.2133 -0.3512
 4507SOL    HW125154   0.690   2.235   7.251 -0.3453 -1.3600 -0.9020
 4507SOL    HW225155   0.817   2.162   7.265 -1.6126 -1.1397 -3.4329
 4508SOL     OW25156   0.401   0.438   1.479 -0.0273 -0.0668  0.3895
 4508SOL    HW125157   0.487   0.478   1.495 -0.8075  1.6114  0.3249
 4508SOL    HW225158   0.382   0.392   1.561  0.3510 -1.7017 -0.4271
 4509SOL     OW25159   3.947   0.539   6.819 -0.6727 -0.0608  0.2233
 4509SOL    HW125160   3.900   0.486   6.755  1.4390  1.0376 -2.2691
 4509SOL    HW225161   4.037   0.525   6.789 -0.4037 -0.9611  1.4667
 4510SOL     OW25162   2.899   3.731   4.178 -0.0557 -0.0414  0.1439
 4510SOL    HW125163   2.923   3.647   4.217  1.0016 -0.5592 -1.6168
 4510SOL    HW225164   2.903   3.722   4.083 -2.6839 -0.2897  0.0500
 4511SOL     OW25165   3.086   1.655   6.962 -0.2575 -0.7458  0.4821
 4511SOL    HW125166   3.122   1.693   6.882 -1.0414  0.3562  0.6577
 4511SOL    HW225167   3.115   1.705   7.038 -2.1732  0.9721  0.0760
 4512SOL     OW25168   2.370   2.653  10.335 -0.0338  0.2412 -0.3663
 4512SOL    HW125169   2.320   2.714  10.281 -0.1681  0.2144 -0.2718
 4512SOL    HW225170   2.434   2.715  10.369 -0.9752  1.0215 -0.0144
 4513SOL     OW25171   2.210   2.720   2.638 -0.3698  0.1793 -0.1417
 4513SOL    HW125172   2.266   2.774   2.584 -0.8132  2.7152  1.9594
 4513SOL    HW225173   2.190   2.790   2.700 -0.3575 -0.0868  0.1656
 4514SOL     OW25174   4.678   4.541   3.311  0.5943 -0.2758 -0.3096
 4514SOL    HW125175   4.694   4.621   3.362 -1.3197  1.5305 -2.5415
 4514SOL    HW225176   4.591   4.563   3.278  0.8584  1.7759  0.3503
 4515SOL     OW25177   3.050   3.406   9.084  0.2000 -0.5900  0.2783
 4515SOL    HW125178   3.083   3.366   9.165 -0.4936  1.7133  1.6836
 4515SOL    HW225179   3.021   3.490   9.118  0.0912  0.3215 -2.1177
 4516SOL     OW25180   4.423   0.782   6.464 -0.1080 -0.1681 -0.3994
 4516SOL    HW125181   4.482   0.723   6.417 -1.1648 -3.4547  2.4442
 4516SOL    HW225182   4.412   0.850   6.397  2.4259 -1.7226 -2.4046
 4517SOL     OW25183   3.065   4.198   2.838  0.4838  0.0368  0.2199
 4517SOL    HW125184   2.972   4.177   2.832  0.1807  1.0544  1.4243
 4517SOL    HW225185   3.088   4.153   2.919 -0.6091 -1.6549 -0.4194
 4518SOL     OW25186   3.339   1.004  12.401  0.1426  0.1545  0.5552
 4518SOL    HW125187   3.385   0.998  12.484 -0.0808 -0.3295  0.6431
 4518SOL    HW225188   3.307   0.914  12.400  0.9564 -0.1331  0.4755
 4519SOL     OW25189   1.301   2.525   4.864  0.3594  0.4312  0.1278
 4519SOL    HW125190   1.294   2.620   4.864 -0.5411  0.3566 -0.9274
 4519SOL    HW225191   1.345   2.517   4.779  0.3413  1.3985  0.0348
 4520SOL     OW25192   3.464   2.583  14.042  0.0931  0.0299 -0.9949
 4520SOL    HW125193   3.447   2.663  13.992 -1.7919  1.3943  1.8574
 4520SOL    HW225194   3.377   2.563  14.076  0.6578  0.3166  0.6028
 4521SOL     OW25195   3.806   2.573   8.563 -0.2139 -0.2934  0.1473
 4521SOL    HW125196   3.901   2.564   8.559 -0.2276  0.2385 -1.5385
 4521SOL    HW225197   3.793   2.592   8.656  2.7649  3.5385 -0.2133
 4522SOL     OW25198   1.486   1.962   3.889  0.6549  0.0139  0.1146
 4522SOL    HW125199   1.565   2.014   3.907  0.1042  1.3857 -1.4272
 4522SOL    HW225200   1.474   1.919   3.973 -0.7145 -0.1915 -0.1877
 4523SOL     OW25201   2.496   1.792   6.531 -0.2428  0.3316  0.4735
 4523SOL    HW125202   2.530   1.709   6.497 -0.7323  0.4463 -0.2875
 4523SOL    HW225203   2.440   1.761   6.602  0.2162  2.8624  1.9601
 4524SOL     OW25204   2.470   3.465   6.789  0.0017 -0.3941  0.0136
 4524SOL    HW125205   2.524   3.426   6.858  1.3426  1.8775  0.2653
 4524SOL    HW225206   2.422   3.390   6.753  1.0876 -0.8977 -0.3676
 4525SOL     OW25207   2.388   3.443   2.666  0.2129  0.1730 -0.3825
 4525SOL    HW125208   2.341   3.488   2.736  0.3726 -0.5255  0.1762
 4525SOL    HW225209   2.340   3.360   2.664  0.1231  0.1502  2.2867
 4526SOL     OW25210   3.752   0.858  14.265 -0.1725  0.1806 -0.3037
 4526SOL    HW125211   3.664   0.845  14.299 -1.4435  1.2094 -3.1664
 4526SOL    HW225212   3.803   0.782  14.293  0.5774  0.4004 -1.0633
 4527SOL     OW25213   4.057   1.123   2.348 -0.2576 -0.0256  0.0238
 4527SOL    HW125214   4.019   1.072   2.276  3.0427 -0.4276 -1.4276
 4527SOL    HW225215   4.138   1.073   2.351 -1.8083 -2.5204  1.3418
 4528SOL     OW25216   1.773   3.294  10.545 -0.2510  0.3488  0.2561
 4528SOL    HW125217   1.770   3.389  10.534  0.7000  0.1626 -1.6516
 4528SOL    HW225218   1.680   3.276  10.532 -0.3717  2.3425 -1.4788
 4529SOL     OW25219   1.156   2.187   7.475  0.6174  0.2549 -0.6921
 4529SOL    HW125220   1.128   2.259   7.419  0.3236 -0.0256 -0.9094
 4529SOL    HW225221   1.153   2.111   7.417  4.0278  1.4367 -2.4128
 4530SOL     OW25222   2.314   0.074   3.888 -0.4357  0.1846 -0.2884
 4530SOL    HW125223   2.240   0.097   3.833 -0.2877 -0.0598 -0.5837
 4530SOL    HW225224   2.284   4.729   3.925  1.8870 -0.2378  0.6983
 4531SOL     OW25225   1.905   2.716   4.635 -0.0052  0.1796 -0.0227
 4531SOL    HW125226   1.867   2.633   4.661  0.2197 -0.4510 -1.6665
 4531SOL    HW225227   1.825   2.753   4.597 -0.4083 -0.2739  0.3869
 4532SOL     OW25228   0.437   2.335   4.730 -0.1650 -0.0439 -0.5138
 4532SOL    HW125229   0.492   2.369   4.801 -0.8470  0.1660 -0.0876
 4532SOL    HW225230   0.439   2.239   4.741  0.7846  0.0410  0.0672
 4533SOL     OW25231   2.042   2.620   3.940  0.5900 -0.0123  0.5806
 4533SOL    HW125232   2.122   2.660   3.905 -0.7196  0.0943 -2.3220
 4533SOL    HW225233   2.072   2.568   4.014 -1.9252 -2.7792 -0.3349
 4534SOL     OW25234   1.845   2.077   1.810  0.1442 -0.6826 -0.5385
 4534SOL    HW125235   1.893   2.066   1.728  1.8103 -0.3755  0.4049
 4534SOL    HW225236   1.760   2.076   1.767  0.1594 -0.2879 -0.5771
 4535SOL     OW25237   2.397   3.217   3.903 -0.0534 -0.3891 -0.4543
 4535SOL    HW125238   2.483   3.196   3.939  0.6252  0.3240 -1.6676
 4535SOL    HW225239   2.373   3.292   3.958  3.5110 -1.8266  3.0427
 4536SOL     OW25240   0.451   4.286   3.109  0.2990 -0.3302  0.0384
 4536SOL    HW125241   0.511   4.297   3.035 -0.0366 -0.0683 -0.1896
 4536SOL    HW225242   0.463   4.369   3.157  2.8967  0.3567 -1.7761
 4537SOL     OW25243   2.255   2.773   6.606 -0.0407  0.2874 -0.1100
 4537SOL    HW125244   2.224   2.725   6.683  0.1156  1.2722  0.5613
 4537SOL    HW225245   2.277   2.700   6.549  1.4567 -0.1389  1.0137
 4538SOL     OW25246   3.887   4.015   8.529  0.5253 -0.2499  0.5701
 4538SOL    HW125247   3.951   3.984   8.465  0.0501  0.7324 -0.3893
 4538SOL    HW225248   3.926   4.100   8.551  2.5556 -1.0159 -0.0716
 4539SOL     OW25249   2.237   2.276   6.882 -0.4014  0.3658  0.1814
 4539SOL    HW125250   2.270   2.245   6.798 -1.2128  3.8867 -1.4376
 4539SOL    HW225251   2.312   2.330   6.909 -0.7932  0.4012  1.2015
 4540SOL     OW25252   1.251   1.913   0.895 -0.0922 -0.0062 -0.2946
 4540SOL    HW125253   1.321   1.862   0.855 -0.1961 -0.0885 -0.3700
 4540SOL    HW225254   1.172   1.876   0.856  0.2226 -1.5089  0.5009
 4541SOL     OW25255   3.174   0.359   8.334 -0.2881 -0.0953 -0.2184
 4541SOL    HW125256   3.195   0.267   8.319  0.8670 -0.2304  2.2628
 4541SOL    HW225257   3.079   0.357   8.321 -0.2384  1.1357 -0.7851
 4542SOL     OW25258   0.513   0.898  14.565 -0.2667 -0.5429 -0.4095
 4542SOL    HW125259   0.575   0.967  14.588 -1.6453 -0.2621  2.4118
 4542SOL    HW225260   0.545   0.868  14.480  2.0000 -0.3419  0.3770
 4543SOL     OW25261   4.731   1.543   8.615 -0.8295  0.3065 -0.5302
 4543SOL    HW125262   4.647   1.588   8.613 -1.6980 -1.3038 -0.5290
 4543SOL    HW225263   0.035   1.588   8.542 -0.3938  2.9646  1.3687
 4544SOL     OW25264   0.765   2.960   2.163  0.0411 -0.4835  0.3086
 4544SOL    HW125265   0.849   2.917   2.178  1.1894  1.8838  0.6593
 4544SOL    HW225266   0.785   2.988   2.074  0.1544 -2.4350 -0.2893
 4545SOL     OW25267   2.761   4.696   6.455  0.2968  0.0713  0.0194
 4545SOL    HW125268   2.813   0.014   6.512 -0.4627 -1.2596  2.0057
 4545SOL    HW225269   2.827   4.659   6.396  0.5407 -0.1799  0.4509
 4546SOL     OW25270   1.161   1.554   2.726  0.2272 -0.1725  0.0064
 4546SOL    HW125271   1.206   1.605   2.659  1.7067 -1.7891 -0.2284
 4546SOL    HW225272   1.072   1.589   2.720  0.2924  0.3567  1.9701
 4547SOL     OW25273   3.588   2.410   2.596  0.5575  0.0242  0.1611
 4547SOL    HW125274   3.575   2.462   2.676  0.7367  3.9523 -2.4003
 4547SOL    HW225275   3.637   2.340   2.640  0.2864 -0.3948 -0.2056
 4548SOL     OW25276   4.458   0.716   4.924  0.8186 -0.8560 -0.1410
 4548SOL    HW125277   4.525   0.699   4.990  0.6382 -0.5648  0.1147
 4548SOL    HW225278   4.501   0.693   4.841 -1.2219 -1.3530 -1.0542
 4549SOL     OW25279   3.037   3.950   9.999  0.5666 -0.0630 -0.0596
 4549SOL    HW125280   3.045   3.855  10.002  1.1503 -0.0110 -0.0350
 4549SOL    HW225281   3.053   3.970  10.091 -0.0128  0.0299  0.0178
 4550SOL     OW25282   1.582   0.282   8.359  0.3133  0.1353 -0.1973
 4550SOL    HW125283   1.506   0.262   8.305 -0.5024  2.5565  0.0271
 4550SOL    HW225284   1.557   0.251   8.445  1.1672 -1.5710 -0.5799
 4551SOL     OW25285   0.966   1.569   5.608 -0.1332 -0.0288  0.4571
 4551SOL    HW125286   1.042   1.555   5.552 -0.0100  0.8377  0.4182
 4551SOL    HW225287   0.911   1.633   5.563 -1.6226 -1.1895  0.6156
 4552SOL     OW25288   3.206   3.606   3.967  0.1692 -0.6741 -0.2197
 4552SOL    HW125289   3.234   3.685   3.919  0.0307 -1.2662 -1.2748
 4552SOL    HW225290   3.148   3.564   3.904  1.2810 -1.5991 -0.6232
 4553SOL     OW25291   3.444   0.502   8.283 -0.5192 -0.2458  0.2652
 4553SOL    HW125292   3.387   0.530   8.355  0.6002 -2.5567  2.0648
 4553SOL    HW225293   3.485   0.423   8.319 -0.3268  0.6655  2.0350
 4554SOL     OW25294   2.203   0.474   1.512  0.0126 -0.2560  0.4267
 4554SOL    HW125295   2.263   0.548   1.526  0.2386 -0.1471 -1.0798
 4554SOL    HW225296   2.232   0.411   1.577  0.7241  0.7929  1.1229
 4555SOL     OW25297   4.214   2.013   5.839  0.3375  0.4353 -0.3840
 4555SOL    HW125298   4.181   2.079   5.900  1.2550  0.1899  0.3894
 4555SOL    HW225299   4.221   1.936   5.895  2.6813  1.3198  0.5362
 4556SOL     OW25300   1.560   0.524   6.382 -0.0582 -0.1267 -0.1259
 4556SOL    HW125301   1.604   0.598   6.423  0.0130 -1.2256  1.8258
 4556SOL    HW225302   1.491   0.507   6.446 -0.5689 -0.7852 -0.8422
 4557SOL     OW25303   2.453   1.386   1.643  0.2663  0.5125 -0.5704
 4557SOL    HW125304   2.461   1.475   1.609  2.5642 -0.8927 -3.7918
 4557SOL    HW225305   2.366   1.365   1.611  0.1080 -1.6825  1.3087
 4558SOL     OW25306   3.669   0.096   4.860  0.3558  0.3202 -0.6069
 4558SOL    HW125307   3.580   0.116   4.888  0.1356  0.0175 -1.0716
 4558SOL    HW225308   3.698   0.031   4.924 -1.3103  2.5838  2.4361
 4559SOL     OW25309   0.856   2.608   1.102 -0.1592  0.4542  0.1901
 4559SOL    HW125310   0.791   2.538   1.101 -0.4384  0.7225 -0.7416
 4559SOL    HW225311   0.802   2.681   1.133 -1.8074 -1.1585  1.1076
 4560SOL     OW25312   4.306   4.392   6.120 -0.1839 -0.0993 -0.1256
 4560SOL    HW125313   4.345   4.383   6.207  0.5801 -2.0001 -0.6517
 4560SOL    HW225314   4.228   4.343   6.145  0.4865 -1.4344 -0.6059
 4561SOL     OW25315   3.424   0.666   6.958  0.2842  0.2327  0.2794
 4561SOL    HW125316   3.453   0.756   6.973  4.2419 -1.1415  0.8568
 4561SOL    HW225317   3.488   0.632   7.021 -0.2886  2.2069  1.9513
 4562SOL     OW25318   1.502   3.915  16.338 -0.8597  0.2856 -0.2499
 4562SOL    HW125319   1.466   3.867  16.412  1.5911  0.9831  1.4002
 4562SOL    HW225320   1.522   3.996  16.384  0.0015 -0.2910  0.3987
 4563SOL     OW25321   1.933   1.270   4.645 -0.2659 -0.4855 -1.3907
 4563SOL    HW125322   1.903   1.181   4.660  0.3333 -0.4993 -0.2406
 4563SOL    HW225323   2.003   1.292   4.707 -1.8154 -0.5244  0.3505
 4564SOL     OW25324   0.731   0.201   3.775 -0.8487  0.2629 -0.1615
 4564SOL    HW125325   0.671   0.212   3.850  1.4374  2.6898  1.3071
 4564SOL    HW225326   0.763   0.291   3.773  0.0503 -0.0710 -0.7982
 4565SOL     OW25327   0.113   2.498  10.439  0.1909 -0.6022  0.3762
 4565SOL    HW125328   0.116   2.458  10.352  1.4438 -1.5190  0.8427
 4565SOL    HW225329   0.028   2.462  10.466  0.3371 -0.9960  0.3076
 4566SOL     OW25330   0.810   1.382  15.910 -0.2505  0.4642 -0.4153
 4566SOL    HW125331   0.770   1.397  15.824 -1.6251  0.9846  0.3098
 4566SOL    HW225332   0.760   1.444  15.964 -0.0279 -0.4183  0.8055
 4567SOL     OW25333   2.998   3.060   2.567 -0.2261 -0.0325 -0.0840
 4567SOL    HW125334   3.057   3.105   2.628 -0.0521 -0.1960 -0.1313
 4567SOL    HW225335   3.026   2.969   2.576 -0.7456 -0.0468  1.4926
 4568SOL     OW25336   2.831   2.076   8.154  0.3445 -0.0989 -0.5775
 4568SOL    HW125337   2.769   2.010   8.185 -1.1650  0.5860 -2.1134
 4568SOL    HW225338   2.824   2.057   8.060 -0.1583 -1.6552 -0.2113
 4569SOL     OW25339   3.617   4.133   5.706 -0.0059  0.8057  0.4273
 4569SOL    HW125340   3.652   4.122   5.795  0.1161 -1.2958  0.1118
 4569SOL    HW225341   3.531   4.165   5.732 -0.8846 -0.0989 -1.3923
 4570SOL     OW25342   0.262   2.941  12.942  0.6197 -0.8988  0.0965
 4570SOL    HW125343   0.208   2.956  12.865 -1.1423  1.5961  1.7917
 4570SOL    HW225344   0.212   2.877  12.993  2.4607 -1.3019  1.4092
 4571SOL     OW25345   1.109   1.894  16.931  0.3925 -0.1014  0.2994
 4571SOL    HW125346   1.092   1.981  16.968 -1.9719 -0.6212  0.4341
 4571SOL    HW225347   1.022   1.865  16.903 -0.5855  0.0462  3.1536
 4572SOL     OW25348   1.578   1.343  16.497  0.3061  0.0097 -0.4870
 4572SOL    HW125349   1.529   1.285  16.555 -0.2332 -0.4074 -1.3591
 4572SOL    HW225350   1.513   1.413  16.489  1.9736  1.5576 -0.3217
 4573SOL     OW25351   3.863   1.603   6.503 -0.0960  0.0055 -0.4369
 4573SOL    HW125352   3.842   1.588   6.595 -0.5623  1.1116 -0.3570
 4573SOL    HW225353   3.780   1.566   6.472  0.2455 -2.8304  2.0826
 4574SOL     OW25354   0.679   3.411   3.425  0.3614 -0.5609  0.6289
 4574SOL    HW125355   0.609   3.437   3.365  0.4373 -0.5210  0.5583
 4574SOL    HW225356   0.631   3.422   3.507  0.5475  1.9986  0.4037
 4575SOL     OW25357   2.622   1.445   2.758 -0.0934  0.0283  0.4394
 4575SOL    HW125358   2.621   1.511   2.689  3.6114 -0.6617 -0.2571
 4575SOL    HW225359   2.624   1.364   2.707  1.6485 -0.3552  1.1034
 4576SOL     OW25360   2.444   0.641   9.901  0.1516  0.1708 -0.8032
 4576SOL    HW125361   2.434   0.676   9.813  0.6292  0.2149 -0.8420
 4576SOL    HW225362   2.479   0.553   9.884  0.4807  0.5341 -2.0029
 4577SOL     OW25363   3.576   2.444   6.246 -0.2118  0.0881  0.0998
 4577SOL    HW125364   3.556   2.487   6.163 -3.3149  1.6585  1.6303
 4577SOL    HW225365   3.514   2.372   6.257 -0.1410 -0.1179 -0.8597
 4578SOL     OW25366   1.831   0.757   5.800 -0.0804 -0.1685 -0.1441
 4578SOL    HW125367   1.738   0.738   5.803 -0.0205 -0.4692 -0.1327
 4578SOL    HW225368   1.858   0.718   5.883  1.8740 -0.4177 -0.8830
 4579SOL     OW25369   1.182   1.559   5.459  0.4217  0.2283  0.1131
 4579SOL    HW125370   1.258   1.602   5.498  0.6767  0.2671 -0.4146
 4579SOL    HW225371   1.220   1.484   5.411 -0.1139 -0.8547  1.3922
 4580SOL     OW25372   1.884   3.634   9.060 -0.2222  0.2896  0.0906
 4580SOL    HW125373   1.856   3.689   8.986 -0.4064  0.0187 -0.0418
 4580SOL    HW225374   1.971   3.669   9.082  0.4043  1.7872 -4.5644
 4581SOL     OW25375   0.708   3.456  16.877 -0.0986 -0.2037 -0.7783
 4581SOL    HW125376   0.661   3.482  16.798 -0.9041 -1.0261 -0.5619
 4581SOL    HW225377   0.659   3.501  16.946  0.1446  0.3001 -0.9290
 4582SOL     OW25378   3.205   3.892   5.935  0.7440  0.5758  0.3409
 4582SOL    HW125379   3.222   3.985   5.948 -1.7610  1.1094 -0.3552
 4582SOL    HW225380   3.231   3.886   5.843  1.0808  0.7449  0.4239
 4583SOL     OW25381   1.568   2.488   0.262  0.2167 -0.8133 -0.0196
 4583SOL    HW125382   1.627   2.412   0.261  0.4102 -0.6889  1.4831
 4583SOL    HW225383   1.620   2.562   0.231 -0.0071 -0.9341 -0.6767
 4584SOL     OW25384   1.179   1.072   8.295  0.1240  0.0741 -0.2128
 4584SOL    HW125385   1.237   1.132   8.250 -0.4598  0.2417 -0.7411
 4584SOL    HW225386   1.239   1.001   8.318 -0.6302 -0.5676 -0.2336
 4585SOL     OW25387   0.126   4.557   1.350 -0.0873  0.1970  0.0034
 4585SOL    HW125388   0.217   4.546   1.323 -0.5343 -0.2047 -1.3229
 4585SOL    HW225389   0.094   4.632   1.301  1.1461  1.4338  1.0910
 4586SOL     OW25390   3.000   2.015   2.830  0.0366 -0.0494  0.4905
 4586SOL    HW125391   3.087   1.977   2.835 -1.2155 -3.0629 -0.9953
 4586SOL    HW225392   2.947   1.947   2.870 -0.3844  0.2348  0.4212
 4587SOL     OW25393   1.420   4.227   6.766  0.0792  0.2235 -0.3468
 4587SOL    HW125394   1.395   4.199   6.854 -0.1911 -1.1421 -0.8481
 4587SOL    HW225395   1.483   4.156   6.749  0.6572  1.3426 -2.8890
 4588SOL     OW25396   0.076   4.555   3.800 -0.2999 -0.1902 -0.3749
 4588SOL    HW125397   0.008   4.488   3.792  0.8891 -1.6548  2.0320
 4588SOL    HW225398   0.101   4.539   3.891 -1.5300 -0.3487 -0.0604
 4589SOL     OW25399   1.744   1.398   5.091 -0.2536  0.7062 -0.2403
 4589SOL    HW125400   1.788   1.363   5.014  1.9588 -0.3508  1.5201
 4589SOL    HW225401   1.807   1.462   5.125  1.0769 -1.1884  0.8534
 4590SOL     OW25402   0.063   3.555  15.016 -0.1157  0.1337  0.4351
 4590SOL    HW125403   0.100   3.643  15.007  0.1248 -0.0148 -0.0375
 4590SOL    HW225404   0.063   3.554  15.112 -0.8853 -0.6741  0.4333
 4591SOL     OW25405   2.086   4.073  10.851 -0.1891 -0.7537 -0.1594
 4591SOL    HW125406   2.004   4.050  10.809 -0.4481 -1.4514  0.7321
 4591SOL    HW225407   2.071   4.041  10.940  0.1924  1.8382  0.8580
 4592SOL     OW25408   2.226   4.342   5.717  0.0815 -0.3289  0.0070
 4592SOL    HW125409   2.187   4.267   5.672 -0.3306  0.4730 -0.9500
 4592SOL    HW225410   2.157   4.352   5.782  0.3582  1.1542  0.0756
 4593SOL     OW25411   1.192   4.650   8.553 -0.1536 -0.6540  0.4171
 4593SOL    HW125412   1.151   4.708   8.618 -0.1271  0.9398 -1.0035
 4593SOL    HW225413   1.163   4.565   8.587  1.4722 -1.7151 -0.8815
 4594SOL     OW25414   0.570   2.403   5.663  0.4094  0.0978  0.0083
 4594SOL    HW125415   0.513   2.474   5.691 -0.1403 -0.9951  1.6709
 4594SOL    HW225416   0.600   2.351   5.738 -0.8060 -2.4044 -1.2196
 4595SOL     OW25417   3.199   3.445   9.401 -0.1283 -0.4091 -0.1313
 4595SOL    HW125418   3.187   3.353   9.376 -2.0705 -0.6474  1.6470
 4595SOL    HW225419   3.108   3.462   9.428 -1.0156 -3.6520 -1.0107
 4596SOL     OW25420   0.615   1.626   4.144 -1.0348  0.3172 -0.6269
 4596SOL    HW125421   0.628   1.644   4.237  2.8809  0.1844 -1.1247
 4596SOL    HW225422   0.705   1.604   4.119 -0.6198  2.1021 -0.7248
 4597SOL     OW25423   2.448   4.730   7.110  0.2908  0.0744  0.2056
 4597SOL    HW125424   2.513   4.661   7.126  1.0653  0.5527 -0.8438
 4597SOL    HW225425   2.434   4.733   7.015 -1.9196 -0.6121  0.5139
 4598SOL     OW25426   2.634   1.085  12.954 -0.2829 -0.0084 -0.2939
 4598SOL    HW125427   2.553   1.097  13.003 -0.3831  1.2234 -0.7612
 4598SOL    HW225428   2.600   1.089  12.865 -0.5687 -0.2327 -0.1944
 4599SOL     OW25429   2.977   1.250   1.553  0.0262  0.4932 -0.0059
 4599SOL    HW125430   2.885   1.277   1.561 -0.1027  0.9157 -3.0417
 4599SOL    HW225431   3.009   1.308   1.623  1.6789 -2.1962  1.4623
 4600SOL     OW25432   1.466   3.047  14.456 -0.3934 -0.3739  0.8617
 4600SOL    HW125433   1.383   3.094  14.453  0.5340  1.1468 -0.6149
 4600SOL    HW225434   1.507   3.074  14.374 -1.6945 -1.8775 -0.2677
 4601SOL     OW25435   2.939   3.622   9.203 -0.1652  0.6476  0.2223
 4601SOL    HW125436   2.972   3.687   9.265  1.8696 -1.2360  1.1068
 4601SOL    HW225437   2.905   3.555   9.262  0.6013 -0.7818 -0.9586
 4602SOL     OW25438   0.295   1.026  12.952  0.3119 -0.0604  0.0479
 4602SOL    HW125439   0.231   1.015  12.881  1.0228  0.9240 -0.7416
 4602SOL    HW225440   0.336   1.108  12.925  2.8577 -2.1249 -2.3163
 4603SOL     OW25441   3.701   4.105   7.040  0.2639  0.2144  0.2182
 4603SOL    HW125442   3.771   4.092   6.976  0.2003 -0.7735  0.3407
 4603SOL    HW225443   3.629   4.144   6.992  0.2776 -0.0214  0.0062
 4604SOL     OW25444   2.607   2.178  16.542  0.2295 -0.0616  0.2495
 4604SOL    HW125445   2.550   2.175  16.619  0.7256 -0.4624  0.5978
 4604SOL    HW225446   2.691   2.216  16.566  0.9812  0.1231 -2.6311
 4605SOL     OW25447   2.144   0.635   3.870  0.3980 -0.6982 -0.1837
 4605SOL    HW125448   2.128   0.541   3.879  1.3853 -0.8238  0.3121
 4605SOL    HW225449   2.066   0.676   3.834  1.0673 -1.5898 -2.6302
 4606SOL     OW25450   0.942   3.603  15.158 -0.0945  0.1821  0.8435
 4606SOL    HW125451   0.920   3.567  15.072  0.2644  0.2612  0.7231
 4606SOL    HW225452   0.902   3.690  15.160 -0.8512 -0.0968 -2.6291
 4607SOL     OW25453   4.438   1.734  12.218  0.2570 -0.4252  0.5855
 4607SOL    HW125454   4.452   1.815  12.168 -2.1593  0.6783  1.7316
 4607SOL    HW225455   4.350   1.703  12.197  1.2758 -1.3052 -2.4121
 4608SOL     OW25456   2.476   3.778   7.117  0.0298  0.1404 -0.1484
 4608SOL    HW125457   2.424   3.722   7.175  0.4294  1.4464  1.4795
 4608SOL    HW225458   2.423   3.778   7.037 -0.9024  0.4605  0.4640
 4609SOL     OW25459   1.168   2.972   0.690  0.1293  0.0837 -0.5606
 4609SOL    HW125460   1.085   3.009   0.658 -0.0512 -0.7738 -1.0986
 4609SOL    HW225461   1.164   2.888   0.644  0.8211 -0.8797  1.1479
 4610SOL     OW25462   1.990   3.800   4.526  0.1174  0.2767  0.2100
 4610SOL    HW125463   2.076   3.801   4.483  0.4687  0.2047  0.9093
 4610SOL    HW225464   2.012   3.735   4.593 -1.5703 -1.8573 -1.2991
 4611SOL     OW25465   0.315   1.816   6.308  0.3635  0.0576  0.5265
 4611SOL    HW125466   0.235   1.788   6.264  0.3953  0.0811  0.4545
 4611SOL    HW225467   0.339   1.729   6.341 -1.6259 -0.7878 -0.2581
 4612SOL     OW25468   1.941   1.650   8.975 -0.6263  0.5572  0.2629
 4612SOL    HW125469   1.872   1.674   9.037  1.4760  1.9723  2.0618
 4612SOL    HW225470   1.894   1.601   8.908  2.2229 -0.7455 -0.7866
 4613SOL     OW25471   1.645   0.424  16.758 -0.1609 -0.2313  0.4586
 4613SOL    HW125472   1.555   0.404  16.730 -0.8149  1.1542  1.6182
 4613SOL    HW225473   1.658   0.345  16.810  0.1337  0.9054  2.0911
 4614SOL     OW25474   2.791   3.405   9.752  0.2001  0.4400  0.0818
 4614SOL    HW125475   2.877   3.377   9.721 -0.3130 -1.4750  0.4230
 4614SOL    HW225476   2.801   3.401   9.847  0.1350 -2.3640 -0.0476
 4615SOL     OW25477   0.492   4.094   8.757 -1.1176 -0.1406 -0.1071
 4615SOL    HW125478   0.532   4.162   8.810 -2.8330  0.8270 -0.0302
 4615SOL    HW225479   0.565   4.055   8.709 -0.6546 -1.0646  1.3782
 4616SOL     OW25480   0.181   3.861   7.501 -0.4331  0.2661 -0.3874
 4616SOL    HW125481   0.266   3.844   7.544 -1.6178 -1.4368  1.2708
 4616SOL    HW225482   0.196   3.954   7.483  0.4734  0.5307  1.6341
 4617SOL     OW25483   3.550   0.567   9.095 -0.0735 -0.4785  0.3428
 4617SOL    HW125484   3.571   0.488   9.146  0.7461 -0.0037  0.7585
 4617SOL    HW225485   3.475   0.609   9.138  0.8605  1.7062 -0.1363
 4618SOL     OW25486   3.598   4.693   5.350  0.5028 -0.0937  0.0845
 4618SOL    HW125487   3.562   4.616   5.393 -0.2043  1.1026  1.6097
 4618SOL    HW225488   3.519   4.729   5.309  1.6808 -0.4716 -2.4955
 4619SOL     OW25489   3.442   1.226   8.011  0.0004  0.2471  0.1951
 4619SOL    HW125490   3.398   1.287   8.070  2.1096 -0.0005  2.0011
 4619SOL    HW225491   3.508   1.197   8.073  1.6093 -1.9251 -2.5070
 4620SOL     OW25492   2.868   1.166   8.010 -0.0787 -0.6296 -0.2310
 4620SOL    HW125493   2.910   1.225   8.072 -2.1637 -0.6474  1.1781
 4620SOL    HW225494   2.946   1.114   7.990 -0.1690 -0.5400 -0.8368
 4621SOL     OW25495   0.104   1.538   8.097 -0.6463 -0.4097  0.2435
 4621SOL    HW125496   0.072   1.453   8.068 -2.5556 -0.1051  1.4897
 4621SOL    HW225497   0.125   1.581   8.013 -1.0201 -0.0347  0.3402
 4622SOL     OW25498   2.377   2.980  15.996 -0.2752 -0.7040 -0.0590
 4622SOL    HW125499   2.324   2.940  15.927 -0.3640 -2.4475  1.0324
 4622SOL    HW225500   2.334   3.060  16.025 -0.6104 -0.5590 -0.9342
 4623SOL     OW25501   0.221   0.532   5.505  0.3689 -0.2139 -0.0997
 4623SOL    HW125502   0.219   0.480   5.425 -1.9275 -1.6905  0.9147
 4623SOL    HW225503   0.315   0.538   5.521  0.8257 -0.7691 -2.5213
 4624SOL     OW25504   1.699   1.255   2.525 -0.3158 -0.0425 -0.0138
 4624SOL    HW125505   1.688   1.160   2.535 -0.5253  0.1475  1.5826
 4624SOL    HW225506   1.770   1.254   2.460 -0.0254 -0.7910  0.3101
 4625SOL     OW25507   2.184   1.523   4.932  1.0044 -0.3884  0.1073
 4625SOL    HW125508   2.193   1.438   4.890 -2.7305 -0.1520 -1.2536
 4625SOL    HW225509   2.124   1.509   5.005 -0.0766  0.9212 -0.5123
 4626SOL     OW25510   1.085   0.929  16.703  0.2571 -0.5185  0.6164
 4626SOL    HW125511   1.145   0.906  16.633  0.0389  1.2018 -0.1338
 4626SOL    HW225512   1.024   0.978  16.648  1.8174 -1.1154 -1.6436
 4627SOL     OW25513   4.489   3.470   2.137 -0.1579  0.0570  0.0213
 4627SOL    HW125514   4.580   3.476   2.109 -0.7352  1.0305 -1.6387
 4627SOL    HW225515   4.442   3.526   2.075 -1.2618  0.6228  1.3622
 4628SOL     OW25516   0.464   0.860   8.466  0.4989 -0.0130  0.1915
 4628SOL    HW125517   0.468   0.827   8.376 -0.0384  1.1076 -0.2420
 4628SOL    HW225518   0.395   0.813   8.512  0.0694 -0.0619 -0.5010
 4629SOL     OW25519   2.287   1.611   6.037 -0.5482  0.5694  0.7874
 4629SOL    HW125520   2.289   1.707   6.029 -2.8796  0.6935  1.5362
 4629SOL    HW225521   2.363   1.594   6.092 -0.2349  0.7510  0.4128
 4630SOL     OW25522   4.424   1.755   3.736 -0.7068 -0.0854  0.1699
 4630SOL    HW125523   4.345   1.728   3.782 -1.1657 -0.7584 -1.0060
 4630SOL    HW225524   4.484   1.694   3.779 -2.3267 -1.1039  1.0108
 4631SOL     OW25525   4.193   4.389   5.733 -0.0844 -0.2464 -0.1377
 4631SOL    HW125526   4.131   4.316   5.741  0.2560 -0.2001  2.6796
 4631SOL    HW225527   4.136   4.462   5.707  0.1925  0.3195  0.8520
 4632SOL     OW25528   4.315   1.120   6.969 -0.3170 -0.3525 -0.6380
 4632SOL    HW125529   4.265   1.098   7.047  0.3858 -4.0191 -1.1890
 4632SOL    HW225530   4.391   1.171   6.998  0.6853 -0.5018 -2.9350
 4633SOL     OW25531   4.105   3.332   5.548 -0.2833 -0.0260  0.1743
 4633SOL    HW125532   4.071   3.249   5.580 -0.2008  0.4348  1.4243
 4633SOL    HW225533   4.164   3.313   5.474  2.3298  0.3622  2.1651
 4634SOL     OW25534   4.057   3.969   0.919  0.4208  0.4177  0.1464
 4634SOL    HW125535   4.051   4.043   0.859  0.6308  1.1473  1.0243
 4634SOL    HW225536   4.117   3.909   0.876 -1.5969 -0.6202 -1.2277
 4635SOL     OW25537   1.479   3.424  16.339  0.2237 -0.4620 -0.3144
 4635SOL    HW125538   1.496   3.500  16.285 -0.2008  0.6432  1.1060
 4635SOL    HW225539   1.535   3.446  16.414 -1.2905 -1.0330  0.9978
 4636SOL     OW25540   2.042   3.168   3.781  0.4759 -0.1785  0.1231
 4636SOL    HW125541   2.070   3.118   3.858  1.3813  2.9171  1.8207
 4636SOL    HW225542   1.954   3.133   3.766 -1.0095  2.8290  1.9642
 4637SOL     OW25543   1.069   4.120  15.290  0.3146 -0.2111  0.2773
 4637SOL    HW125544   0.987   4.106  15.337 -1.6891 -2.4284 -3.9153
 4637SOL    HW225545   1.108   4.037  15.318  0.5292 -0.2968 -0.2691
 4638SOL     OW25546   2.355   4.375   9.395  0.4681  0.5461 -0.9422
 4638SOL    HW125547   2.383   4.424   9.472 -0.2211  1.5871 -1.3468
 4638SOL    HW225548   2.433   4.325   9.374  0.5928 -0.2753  1.5200
 4639SOL     OW25549   3.674   3.915  13.620  0.0050  0.0531 -0.1026
 4639SOL    HW125550   3.768   3.903  13.616  0.0572  0.1680  0.8376
 4639SOL    HW225551   3.666   4.006  13.648 -0.4817 -0.1116  0.3056
 4640SOL     OW25552   2.239   3.030  17.478 -0.5539 -0.7029 -1.1177
 4640SOL    HW125553   2.329   3.058  17.461  0.1741 -3.2689 -1.5024
 4640SOL    HW225554   2.205   3.108  17.522  1.3300  0.8373 -2.3467
 4641SOL     OW25555   0.681   1.753  11.993 -0.1937 -0.1902  0.0168
 4641SOL    HW125556   0.728   1.836  11.984 -0.3763 -0.1147 -0.2480
 4641SOL    HW225557   0.748   1.694  11.959 -0.3927 -0.1988 -0.3575
 4642SOL     OW25558   0.336   2.723   7.589  0.0518 -0.0342  0.7469
 4642SOL    HW125559   0.406   2.787   7.602 -1.0615  1.4404 -0.5014
 4642SOL    HW225560   0.290   2.742   7.508 -0.4785  0.3772  1.1415
 4643SOL     OW25561   0.062   2.968   5.733 -0.1658  0.1487 -0.3987
 4643SOL    HW125562   0.037   2.919   5.812 -2.3327 -1.2038 -1.9251
 4643SOL    HW225563   0.055   3.058   5.766  1.5035 -0.5617  1.9448
 4644SOL     OW25564   4.222   4.221  16.363 -0.6983  0.0365 -0.1340
 4644SOL    HW125565   4.194   4.207  16.453  0.1207 -0.0492  0.1102
 4644SOL    HW225566   4.301   4.274  16.376 -0.7209  0.5717 -2.1751
 4645SOL     OW25567   0.564   2.735  16.025  0.0631 -0.0967 -0.5185
 4645SOL    HW125568   0.542   2.660  15.970 -1.0006 -0.9019  1.0224
 4645SOL    HW225569   0.615   2.792  15.968  0.9830 -0.3605  0.0277
 4646SOL     OW25570   1.681   4.105   4.366 -0.4264  0.0833  0.2365
 4646SOL    HW125571   1.716   4.041   4.428  0.7658  0.0266 -0.5026
 4646SOL    HW225572   1.593   4.066   4.363 -0.0294 -0.7200 -0.9025
 4647SOL     OW25573   2.184   2.067  17.711  0.4834 -0.1482  0.1873
 4647SOL    HW125574   2.185   2.132  17.642  1.9443 -1.7386 -1.2739
 4647SOL    HW225575   2.147   2.004  17.649 -1.5513  1.7021 -0.4754
 4648SOL     OW25576   4.535   4.486   4.338 -0.3783  0.2377  0.5253
 4648SOL    HW125577   4.467   4.421   4.349 -1.0862  0.6449 -1.5595
 4648SOL    HW225578   4.536   4.498   4.243 -2.2096 -0.9725  0.3781
 4649SOL     OW25579   0.460   3.115  15.182  0.2089  0.4918 -0.4092
 4649SOL    HW125580   0.522   3.042  15.187 -0.3065  0.0897  0.2113
 4649SOL    HW225581   0.371   3.082  15.199 -0.6408  2.3824 -1.2534
 4650SOL     OW25582   4.384   1.963   8.550  0.0093  0.6597  0.2150
 4650SOL    HW125583   4.439   2.028   8.507  1.1362 -1.1123 -1.0118
 4650SOL    HW225584   4.295   1.996   8.533 -0.5414 -2.9139 -3.9459
 4651SOL     OW25585   2.875   4.496   8.397  0.0183 -0.1310  0.7974
 4651SOL    HW125586   2.968   4.476   8.389 -0.3004 -1.9527  1.8422
 4651SOL    HW225587   2.845   4.448   8.320  1.7575 -2.0498  1.3510
 4652SOL     OW25588   1.119   4.163   8.234 -0.2105 -0.1957  0.1127
 4652SOL    HW125589   1.127   4.073   8.265 -0.5883  0.1620  1.2349
 4652SOL    HW225590   1.114   4.220   8.311 -0.7132 -0.5526  0.3390
 4653SOL     OW25591   4.266   2.649   5.291  0.9252 -0.0448 -0.1063
 4653SOL    HW125592   4.233   2.732   5.257  0.3696  1.1272  3.2747
 4653SOL    HW225593   4.321   2.622   5.217  1.1226  2.7330 -0.9744
 4654SOL     OW25594   1.339   1.686   3.022 -0.1111 -0.0896 -0.2582
 4654SOL    HW125595   1.409   1.682   2.956  0.5085 -0.3559  0.4127
 4654SOL    HW225596   1.276   1.630   2.977 -1.3640  0.7085  0.5147
 4655SOL     OW25597   1.268   3.610   3.891 -0.2573  0.3303 -0.4687
 4655SOL    HW125598   1.265   3.534   3.833  1.3837 -0.2304  0.1666
 4655SOL    HW225599   1.363   3.619   3.897 -0.2715  0.8966 -1.0569
 4656SOL     OW25600   1.904   0.541   9.687 -0.1465 -0.0113 -0.4593
 4656SOL    HW125601   1.933   0.465   9.637 -1.0669  0.1131 -1.1809
 4656SOL    HW225602   1.867   0.591   9.614 -1.1163 -0.2032 -0.1007
 4657SOL     OW25603   0.658   4.435   7.823  0.2382 -0.2342 -0.0290
 4657SOL    HW125604   0.707   4.492   7.883  0.5250 -0.3776 -0.1243
 4657SOL    HW225605   0.628   4.364   7.879  0.1134  0.0786  0.3033
 4658SOL     OW25606   1.701   0.429  12.728  0.4288  0.1657  0.3155
 4658SOL    HW125607   1.781   0.386  12.697  0.6014  1.6915 -1.3071
 4658SOL    HW225608   1.730   0.516  12.754  2.6165 -0.2808 -0.6435
 4659SOL     OW25609   4.375   2.616   5.569 -0.5939 -0.2662 -0.0077
 4659SOL    HW125610   4.343   2.615   5.479  1.4335  2.6875 -0.7920
 4659SOL    HW225611   4.438   2.689   5.573 -0.7410 -0.0312 -2.4005
 4660SOL     OW25612   4.688   0.996   2.898  0.2944 -0.5415  0.0535
 4660SOL    HW125613   4.629   1.060   2.937 -0.6482 -0.3794 -1.6291
 4660SOL    HW225614   4.640   0.919   2.928 -1.4489 -0.2155 -1.9365
 4661SOL     OW25615   2.086   1.859   1.691  0.0197 -0.4146 -0.5252
 4661SOL    HW125616   2.010   1.880   1.638 -0.4191  1.0222  0.6916
 4661SOL    HW225617   2.148   1.823   1.627  0.5972 -0.3172 -0.0211
 4662SOL     OW25618   0.107   0.346   6.482  0.1736 -0.0266  0.0663
 4662SOL    HW125619   0.197   0.314   6.479 -0.3037 -1.5824  1.8392
 4662SOL    HW225620   0.056   0.264   6.482  1.6936 -0.9707 -2.0460
 4663SOL     OW25621   3.664   3.710  14.096 -0.4129  0.3044  0.4590
 4663SOL    HW125622   3.582   3.711  14.047 -0.6151 -0.5375  0.7855
 4663SOL    HW225623   3.723   3.719  14.020 -0.6108  0.3794  0.3136
 4664SOL     OW25624   2.378   0.373   2.927  0.4781 -0.1958  0.3099
 4664SOL    HW125625   2.343   0.450   2.972  1.4659  1.3841 -1.6376
 4664SOL    HW225626   2.421   0.411   2.851 -2.6531  0.3347 -1.1627
 4665SOL     OW25627   0.795   1.661   6.776 -0.4664 -0.7948 -0.6049
 4665SOL    HW125628   0.816   1.653   6.683  0.8669  1.8375 -0.5176
 4665SOL    HW225629   0.772   1.753   6.783  1.0771 -0.3215 -1.8955
 4666SOL     OW25630   4.175   1.398   2.303 -0.7393 -0.9870 -0.0430
 4666SOL    HW125631   4.083   1.409   2.328 -0.8323  1.0397 -1.2834
 4666SOL    HW225632   4.177   1.303   2.299  0.5074 -0.9695  0.3659
 4667SOL     OW25633   3.215   1.108   9.017  0.1631 -0.2514 -0.0153
 4667SOL    HW125634   3.176   1.183   9.062  0.6293 -0.5149  0.8269
 4667SOL    HW225635   3.307   1.130   9.029  0.0578  1.0915 -1.8272
 4668SOL     OW25636   1.281   2.440  14.526 -0.3602 -0.2781 -0.2417
 4668SOL    HW125637   1.272   2.534  14.541 -2.4428 -0.0765 -2.6677
 4668SOL    HW225638   1.312   2.448  14.436  1.6071 -2.4354  0.2570
 4669SOL     OW25639   3.693   3.444   9.428  0.3144  0.4784 -0.0413
 4669SOL    HW125640   3.757   3.381   9.395  1.2004  0.7867  1.0963
 4669SOL    HW225641   3.735   3.520   9.388 -1.5391  0.7145 -1.5515
 4670SOL     OW25642   1.814   1.733   6.036 -0.1004 -0.4915 -0.3207
 4670SOL    HW125643   1.820   1.764   5.945 -0.2807  0.1810 -0.1063
 4670SOL    HW225644   1.908   1.728   6.056 -0.5470 -1.5598  1.5127
 4671SOL     OW25645   1.443   2.821   2.835 -0.0896  0.0174 -0.9573
 4671SOL    HW125646   1.530   2.840   2.799  1.2040 -1.8569  1.1860
 4671SOL    HW225647   1.459   2.729   2.854  1.5743  0.7382  1.1368
 4672SOL     OW25648   0.081   2.528   3.255  0.1318  0.3206 -0.3912
 4672SOL    HW125649   0.169   2.492   3.243  0.6053  1.0959  0.7159
 4672SOL    HW225650   0.102   2.612   3.296  3.5597 -1.5185  1.6372
 4673SOL     OW25651   2.171   0.148   9.829  0.3356 -0.5850  0.4384
 4673SOL    HW125652   2.218   0.206   9.769 -0.3220 -0.4498  0.0544
 4673SOL    HW225653   2.159   0.067   9.780 -3.1748 -0.0722  0.4432
 4674SOL     OW25654   3.385   1.893   1.130  0.6608 -0.3652  0.2470
 4674SOL    HW125655   3.362   1.805   1.100 -0.0994  0.0364 -0.3557
 4674SOL    HW225656   3.397   1.936   1.045 -1.0233  1.0781  0.7573
 4675SOL     OW25657   3.441   0.194   4.963  0.4916 -0.1434 -0.0031
 4675SOL    HW125658   3.401   0.274   4.996 -1.6653 -2.1462  2.2554
 4675SOL    HW225659   3.365   0.136   4.957  1.0782 -1.0229  1.0487
 4676SOL     OW25660   0.825   1.145  13.396 -0.4646 -0.1234 -0.0525
 4676SOL    HW125661   0.907   1.098  13.413 -0.8640 -1.2563 -1.2350
 4676SOL    HW225662   0.837   1.181  13.309 -0.2378 -0.6994 -0.2617
 4677SOL     OW25663   0.275   3.278   3.708  0.0417  0.2704  0.1620
 4677SOL    HW125664   0.330   3.307   3.635 -0.3931  0.7985  0.0510
 4677SOL    HW225665   0.205   3.229   3.665  0.1189  0.7352 -0.5012
 4678SOL     OW25666   2.625   4.242  16.493 -0.7046  0.3595  0.2248
 4678SOL    HW125667   2.607   4.163  16.543  0.4332 -0.5313 -0.7510
 4678SOL    HW225668   2.586   4.217  16.409 -0.7683 -0.0980  0.3884
 4679SOL     OW25669   4.482   0.271   4.010  0.5330 -0.3632 -0.1820
 4679SOL    HW125670   4.459   0.354   4.052  3.2401  0.1488  0.2873
 4679SOL    HW225671   4.485   0.290   3.917 -2.9621  1.1092  0.0060
 4680SOL     OW25672   4.661   0.756  10.837 -0.1975 -0.4092  0.5342
 4680SOL    HW125673   4.643   0.671  10.876  1.7309 -0.8681  0.4261
 4680SOL    HW225674   4.699   0.809  10.907  0.0956  0.7843 -0.5308
 4681SOL     OW25675   1.457   1.150   5.808 -0.4103 -0.3443  0.2504
 4681SOL    HW125676   1.443   1.193   5.723  0.7084  0.3633  0.4236
 4681SOL    HW225677   1.440   1.216   5.875 -0.7698 -0.6398  0.4499
 4682SOL     OW25678   1.049   1.601   5.126 -0.3951 -0.2115  0.3767
 4682SOL    HW125679   0.956   1.626   5.124 -0.5423 -0.8061 -0.3617
 4682SOL    HW225680   1.087   1.634   5.207 -0.8541 -0.6855  0.7891
 4683SOL     OW25681   3.291   0.683   9.145 -0.3537  0.4629  0.1431
 4683SOL    HW125682   3.242   0.602   9.134 -0.5810  0.6853 -0.4819
 4683SOL    HW225683   3.222   0.745   9.120  0.0580  0.8303 -0.0872
 4684SOL     OW25684   0.251   2.874  13.348  0.9607  0.0955  0.2779
 4684SOL    HW125685   0.299   2.877  13.266  0.8615 -0.2999  0.2039
 4684SOL    HW225686   0.234   2.962  13.379 -1.3565  0.4175 -1.9153
 4685SOL     OW25687   3.787   2.512  17.535  0.3209  0.2972 -0.3086
 4685SOL    HW125688   3.770   2.548  17.447 -0.3330  0.9870  0.1040
 4685SOL    HW225689   3.836   2.436  17.503  1.0597  1.2352 -1.4117
 4686SOL     OW25690   4.330   0.479   5.140 -0.4081 -0.3998  0.3417
 4686SOL    HW125691   4.320   0.391   5.105  3.6135 -0.8668  0.3724
 4686SOL    HW225692   4.422   0.502   5.123 -0.3556  1.2085  2.7620
 4687SOL     OW25693   3.049   0.332   8.056  0.7742 -0.3313 -0.4840
 4687SOL    HW125694   3.116   0.269   8.082  0.0820 -0.3460  1.3235
 4687SOL    HW225695   3.062   0.325   7.962  3.7122 -1.0962 -0.0354
 4688SOL     OW25696   3.488   2.421   3.099 -0.2741  0.6186  0.2688
 4688SOL    HW125697   3.417   2.371   3.139  0.9646 -1.2054  0.2223
 4688SOL    HW225698   3.483   2.396   3.007  1.4565 -0.2489  0.4086
 4689SOL     OW25699   0.884   2.806   9.555  0.2407  0.0761 -0.1736
 4689SOL    HW125700   0.915   2.797   9.645 -1.0659  0.6358  0.3340
 4689SOL    HW225701   0.879   2.712   9.539  0.1577  0.2163 -0.9349
 4690SOL     OW25702   3.300   0.050   8.637 -0.0343  0.1585  0.1661
 4690SOL    HW125703   3.335   0.130   8.597  2.8863 -1.1493  0.0738
 4690SOL    HW225704   3.370   0.010   8.688 -1.1321  1.6790  2.8543
 4691SOL     OW25705   3.934   4.635  12.424 -0.1217  0.0023  0.6530
 4691SOL    HW125706   3.904   4.699  12.488  0.5024  0.2983  0.6548
 4691SOL    HW225707   4.003   4.587  12.470  0.9234 -0.6632 -1.5505
 4692SOL     OW25708   3.614   2.856   9.938  0.1269  0.2242 -0.0669
 4692SOL    HW125709   3.610   2.923  10.007  2.1096  0.1153  0.1668
 4692SOL    HW225710   3.632   2.915   9.865  3.9141 -1.8076 -0.7637
 4693SOL     OW25711   2.745   1.766  11.759  0.5449 -0.3149 -0.1550
 4693SOL    HW125712   2.796   1.797  11.834 -0.7953  0.1612  0.5515
 4693SOL    HW225713   2.669   1.824  11.763 -0.2933 -1.3843 -0.3807
 4694SOL     OW25714   4.541   3.789   8.376  0.5249  0.2114  0.7559
 4694SOL    HW125715   4.546   3.826   8.464  0.1911  2.5625 -0.2160
 4694SOL    HW225716   4.634   3.790   8.351  0.6603  2.3034  1.3462
 4695SOL     OW25717   0.638   1.036   3.742  0.3515  0.1935 -0.1612
 4695SOL    HW125718   0.684   0.967   3.789  0.2204 -0.7589 -1.4159
 4695SOL    HW225719   0.638   1.100   3.812  2.3853 -0.7963  0.7435
 4696SOL     OW25720   3.195   0.216   5.822  0.6027 -0.1972  0.3200
 4696SOL    HW125721   3.122   0.274   5.802  0.8410 -0.1104 -0.3009
 4696SOL    HW225722   3.272   0.273   5.832 -0.1028  0.7886  0.0961
 4697SOL     OW25723   1.741   3.726  11.491  0.3325 -0.4184 -0.0439
 4697SOL    HW125724   1.761   3.749  11.400  3.4186  0.0495  0.7731
 4697SOL    HW225725   1.757   3.807  11.539 -0.5019 -0.7299  0.7707
 4698SOL     OW25726   0.465   1.893   5.661 -0.1905 -0.1603  0.7674
 4698SOL    HW125727   0.472   1.837   5.738  1.5236 -0.5961  0.2853
 4698SOL    HW225728   0.448   1.979   5.699 -1.3758  0.8112 -1.8992
 4699SOL     OW25729   2.916   4.604  15.972  0.1212 -0.0875  0.7807
 4699SOL    HW125730   2.867   4.630  16.050 -1.3985 -0.3403 -0.1008
 4699SOL    HW225731   2.961   4.524  16.000  0.8805 -0.2996 -1.0522
 4700SOL     OW25732   2.617   2.020  17.336  0.2352  0.6072 -0.6704
 4700SOL    HW125733   2.554   2.030  17.265 -0.2813  1.0925 -0.1454
 4700SOL    HW225734   2.641   2.112  17.351  1.4006  0.4507 -1.5613
 4701SOL     OW25735   2.297   0.267   4.055 -0.0345  0.6595  0.1449
 4701SOL    HW125736   2.285   0.186   4.006 -0.7018  0.4371  0.6806
 4701SOL    HW225737   2.248   0.327   3.998  1.1474  0.8633 -0.6735
 4702SOL     OW25738   1.580   3.365   7.436 -0.1476 -0.6975 -0.1589
 4702SOL    HW125739   1.497   3.381   7.481 -0.5984 -0.8022 -0.9520
 4702SOL    HW225740   1.637   3.390   7.508 -0.8207  0.3697 -0.0065
 4703SOL     OW25741   4.288   0.829   6.039  0.1017  0.3138 -0.0076
 4703SOL    HW125742   4.294   0.911   5.989  1.5227  0.8813  1.0970
 4703SOL    HW225743   4.202   0.834   6.081  1.7106  3.0414  2.9419
 4704SOL     OW25744   4.496   3.720   5.031  0.1646 -0.2698 -0.0204
 4704SOL    HW125745   4.586   3.707   5.002  0.1751 -0.6898  0.1909
 4704SOL    HW225746   4.452   3.756   4.954 -0.0336  2.1756  1.2245
 4705SOL     OW25747   1.088   2.651   7.709  0.4070 -0.4794 -0.0464
 4705SOL    HW125748   1.010   2.652   7.653  0.3079  0.0650  0.1063
 4705SOL    HW225749   1.159   2.665   7.647  0.2965  2.8110  0.5780
 4706SOL     OW25750   2.983   0.923  15.302 -0.7321  0.4996  0.2386
 4706SOL    HW125751   2.939   0.935  15.387  0.3580  0.5411  0.7942
 4706SOL    HW225752   2.911   0.942  15.242  0.7508 -1.1188 -2.0372
 4707SOL     OW25753   3.407   4.241   7.909  0.0876  0.0791 -0.3196
 4707SOL    HW125754   3.449   4.165   7.871  0.0559  1.3297 -2.8380
 4707SOL    HW225755   3.353   4.181   7.960  1.8359 -0.8024  0.4749
 4708SOL     OW25756   1.642   2.077   0.925  0.4354  0.2213 -0.0569
 4708SOL    HW125757   1.654   2.168   0.951  0.0190  0.8791 -2.2025
 4708SOL    HW225758   1.619   2.086   0.833 -0.1512 -1.4521 -0.0692
 4709SOL     OW25759   1.819   1.489   1.767 -0.1328  0.1733  0.1352
 4709SOL    HW125760   1.857   1.517   1.684  0.3234 -1.5897 -0.2328
 4709SOL    HW225761   1.770   1.409   1.749  1.4560 -1.2041  1.9326
 4710SOL     OW25762   4.594   2.376   9.146  0.2302  0.2289 -0.1994
 4710SOL    HW125763   4.672   2.413   9.188  1.5080 -1.7776 -0.7892
 4710SOL    HW225764   4.605   2.283   9.166 -0.8718  0.5189  1.7874
 4711SOL     OW25765   2.023   0.208  16.510 -0.0499  0.0690  0.5912
 4711SOL    HW125766   1.947   0.266  16.514 -0.5147 -0.6684  2.7745
 4711SOL    HW225767   2.094   0.271  16.514 -2.0659  2.4388 -1.2327
 4712SOL     OW25768   0.963   2.756   7.965  0.1374  0.1346  0.2210
 4712SOL    HW125769   1.021   2.796   7.901  0.8976 -0.8103  0.3130
 4712SOL    HW225770   1.000   2.671   7.991 -0.8859 -0.7495 -1.2285
 4713SOL     OW25771   3.101   4.698   5.409 -0.4046 -0.5406 -0.1025
 4713SOL    HW125772   3.094   0.024   5.338 -0.0436 -2.3367 -1.7817
 4713SOL    HW225773   3.018   4.653   5.397 -1.7171  1.1758  2.6314
 4714SOL     OW25774   2.852   3.227   5.214  0.3529 -0.0762 -0.4541
 4714SOL    HW125775   2.791   3.292   5.249  2.3327  1.0919  0.8048
 4714SOL    HW225776   2.881   3.185   5.295 -0.7538 -2.7411 -1.4224
 4715SOL     OW25777   0.400   0.321   1.734 -0.1759  0.5803 -0.6412
 4715SOL    HW125778   0.356   0.368   1.804  0.1064  0.0966 -0.1425
 4715SOL    HW225779   0.345   0.243   1.721 -0.3080  0.2490  1.9535
 4716SOL     OW25780   3.561   1.961   6.946  1.0005  0.2880 -0.6866
 4716SOL    HW125781   3.471   1.983   6.923  0.4431  0.2254  1.4627
 4716SOL    HW225782   3.608   2.041   6.923  3.1574 -0.3987  1.3061
 4717SOL     OW25783   4.135   0.264   2.077  0.0529 -0.2555 -0.2705
 4717SOL    HW125784   4.217   0.309   2.099  0.0669 -0.8646  0.9297
 4717SOL    HW225785   4.074   0.314   2.132 -0.9072 -0.6714 -0.9733
 4718SOL     OW25786   2.588   2.404  13.758 -0.1980  0.0295 -0.4097
 4718SOL    HW125787   2.633   2.341  13.701  2.3289  0.4502  1.0896
 4718SOL    HW225788   2.636   2.401  13.841 -1.8236  2.1246  0.5868
 4719SOL     OW25789   3.894   4.321   2.323 -0.6422 -0.2328 -0.2114
 4719SOL    HW125790   3.817   4.287   2.279 -0.4091 -0.1170 -0.7088
 4719SOL    HW225791   3.941   4.364   2.251 -1.4683 -2.5263 -2.0971
 4720SOL     OW25792   3.389   1.546   3.901  0.1341 -0.5845  0.1297
 4720SOL    HW125793   3.333   1.505   3.835 -0.2311  0.6039 -0.2972
 4720SOL    HW225794   3.421   1.623   3.853 -0.5994  0.0846  0.7111
 4721SOL     OW25795   3.706   3.811   7.752  0.0684 -0.0584  0.3740
 4721SOL    HW125796   3.673   3.811   7.842  0.9164  0.0941  0.6855
 4721SOL    HW225797   3.660   3.742   7.703  0.8343  0.5258 -1.1758
 4722SOL     OW25798   1.224   1.960  14.181 -0.1012  0.7954  0.0771
 4722SOL    HW125799   1.293   1.910  14.226 -1.1231 -0.6151  0.0771
 4722SOL    HW225800   1.157   1.892  14.171 -1.9960  3.1816 -3.3816
 4723SOL     OW25801   0.209   2.692   1.846  0.3029  0.1220  0.0916
 4723SOL    HW125802   0.288   2.640   1.860 -0.5642 -1.5995 -1.5244
 4723SOL    HW225803   0.175   2.718   1.932 -1.4571 -0.1748 -0.5208
 4724SOL     OW25804   2.015   3.859   6.957  0.3794  0.3749 -0.0904
 4724SOL    HW125805   1.980   3.836   6.872  1.1301  0.2252 -0.3586
 4724SOL    HW225806   2.062   3.781   6.986  1.0474 -0.3104 -3.0511
 4725SOL     OW25807   4.329   4.389   9.554  0.0553  0.1417 -0.3024
 4725SOL    HW125808   4.259   4.377   9.619  0.8045  1.4501  0.7676
 4725SOL    HW225809   4.357   4.478   9.578  2.9674 -0.5839 -1.0132
 4726SOL     OW25810   4.190   4.416   7.198  0.5190  0.2606  0.3202
 4726SOL    HW125811   4.239   4.427   7.116  0.9032  1.1859  0.6773
 4726SOL    HW225812   4.194   4.505   7.234 -1.2736  0.4857 -0.0447
 4727SOL     OW25813   0.012   4.719   7.780  0.4285  0.1510  0.2107
 4727SOL    HW125814   0.081   4.684   7.837 -2.5516 -2.4549  2.2011
 4727SOL    HW225815   4.670   4.702   7.830 -0.6900  0.4489 -1.4923
 4728SOL     OW25816   1.250   0.226   4.086  0.0559 -0.4565  0.1582
 4728SOL    HW125817   1.189   0.296   4.110  0.1902 -0.0081 -0.8262
 4728SOL    HW225818   1.220   0.205   3.997  0.3365  2.0290 -0.5200
 4729SOL     OW25819   1.078   4.542   9.485 -0.2250 -1.0179 -1.1416
 4729SOL    HW125820   1.013   4.480   9.519 -0.1161 -0.0154  0.8923
 4729SOL    HW225821   1.029   4.603   9.431 -1.4708 -1.9443 -1.0623
 4730SOL     OW25822   0.860   1.455   1.728 -0.5402 -0.1784 -0.0823
 4730SOL    HW125823   0.917   1.522   1.763 -0.7940 -0.1636  0.3019
 4730SOL    HW225824   0.769   1.485   1.739 -1.2192 -2.6613  1.0747
 4731SOL     OW25825   3.223   2.354   4.167 -0.0502 -0.1855 -0.2364
 4731SOL    HW125826   3.245   2.277   4.220 -0.4798  0.4932  0.9218
 4731SOL    HW225827   3.305   2.357   4.118 -0.6430  0.1110 -1.2102
 4732SOL     OW25828   3.573   2.813   4.347  0.0217  0.4435 -0.0099
 4732SOL    HW125829   3.587   2.846   4.258 -1.1001 -1.3332 -0.8255
 4732SOL    HW225830   3.514   2.883   4.375  0.1868  0.3300  0.6112
 4733SOL     OW25831   3.033   2.844   5.217 -0.1140  0.4167  0.2494
 4733SOL    HW125832   3.057   2.767   5.269 -0.2683  0.3240  0.1821
 4733SOL    HW225833   3.093   2.830   5.144  1.0033  5.5173  0.1992
 4734SOL     OW25834   3.447   1.875   5.996  0.6835 -0.2981  0.6912
 4734SOL    HW125835   3.449   1.835   6.082 -0.5592  0.6102  1.1434
 4734SOL    HW225836   3.520   1.937   6.006  0.5248 -0.0377  0.2324
 4735SOL     OW25837   4.206   4.480   6.607  0.0150  0.8638  0.0172
 4735SOL    HW125838   4.124   4.437   6.583  0.9989 -0.2429 -1.3289
 4735SOL    HW225839   4.225   4.447   6.694  0.9795  0.5936 -0.3003
 4736SOL     OW25840   3.271   4.598  10.710 -0.1139  0.1614  0.0847
 4736SOL    HW125841   3.324   4.625  10.785  0.8446 -0.9740 -0.1873
 4736SOL    HW225842   3.332   4.574  10.641 -2.1913 -3.5352 -0.4575
 4737SOL     OW25843   1.602   1.007   2.282  0.5401 -0.4106  0.0063
 4737SOL    HW125844   1.616   0.933   2.223  1.9443 -1.1092  1.1798
 4737SOL    HW225845   1.681   1.061   2.280  0.4575 -0.4267 -2.6375
 4738SOL     OW25846   4.410   4.385   7.799 -0.6169 -0.1892  0.0202
 4738SOL    HW125847   4.332   4.329   7.792  0.1596 -1.3341  0.4443
 4738SOL    HW225848   4.378   4.463   7.754 -1.5923 -0.6784 -0.1354
 4739SOL     OW25849   0.796   0.253   7.349  0.6197  0.0064 -0.1144
 4739SOL    HW125850   0.800   0.173   7.401  1.5558 -0.0661 -0.2849
 4739SOL    HW225851   0.821   0.216   7.264  0.9402  1.1284 -0.5180
 4740SOL     OW25852   4.170   3.984   6.152  0.0136  0.2297 -1.2605
 4740SOL    HW125853   4.264   3.989   6.133  0.1170 -0.6033 -0.9682
 4740SOL    HW225854   4.160   4.074   6.183 -1.2008  0.4454 -2.2649
 4741SOL     OW25855   1.280   2.865   4.149 -0.0912  0.2483 -0.5185
 4741SOL    HW125856   1.244   2.942   4.193 -1.7390 -0.9390  0.1900
 4741SOL    HW225857   1.281   2.885   4.055 -2.8868 -0.6277 -0.7393
 4742SOL     OW25858   2.291   2.125   1.573  0.0565  0.4467  0.9885
 4742SOL    HW125859   2.322   2.096   1.659  1.7983  1.2818  0.6445
 4742SOL    HW225860   2.329   2.065   1.508 -2.1931  1.4270 -1.2294
 4743SOL     OW25861   4.651   2.879   7.327 -0.2391 -0.7622 -0.4580
 4743SOL    HW125862   4.642   2.961   7.279 -0.7898 -1.7356 -1.9917
 4743SOL    HW225863   4.566   2.880   7.371  1.0955 -2.0506  2.1504
 4744SOL     OW25864   2.614   3.550   9.637 -0.0876 -0.1358 -0.4500
 4744SOL    HW125865   2.615   3.495   9.559  0.4631 -0.3651 -0.2837
 4744SOL    HW225866   2.678   3.502   9.690  1.7916  1.3794 -1.3521
 4745SOL     OW25867   4.146   2.352  17.631 -0.3702 -0.0453 -0.4295
 4745SOL    HW125868   4.218   2.369  17.691  0.1412 -0.8203 -0.8267
 4745SOL    HW225869   4.169   2.268  17.592  0.2165 -1.3925  2.8773
 4746SOL     OW25870   1.937   2.431   3.776  0.4180  0.3906  0.4523
 4746SOL    HW125871   1.927   2.498   3.709 -0.6841 -1.1340 -0.9098
 4746SOL    HW225872   1.973   2.471   3.855 -0.8292  1.5342  0.4534
 4747SOL     OW25873   0.910   0.927   3.154  0.3035 -0.5943 -0.1430
 4747SOL    HW125874   0.878   0.894   3.071  0.8089  1.0780 -1.0090
 4747SOL    HW225875   0.989   0.966   3.116 -0.7041  1.8177  0.1879
 4748SOL     OW25876   2.310   1.620   8.028  0.3944  0.2068  0.0271
 4748SOL    HW125877   2.383   1.624   7.966  0.1305  2.3755 -0.1197
 4748SOL    HW225878   2.275   1.708   8.023 -0.0201  0.0550  0.2945
 4749SOL     OW25879   4.389   3.957   1.178  0.2448 -0.0226  0.2624
 4749SOL    HW125880   4.322   4.003   1.127 -1.1446 -1.1425  1.0712
 4749SOL    HW225881   4.331   3.934   1.250 -0.0911  2.1477  0.6942
 4750SOL     OW25882   4.548   3.544  16.573  0.5360 -0.5292  0.0013
 4750SOL    HW125883   4.572   3.558  16.482  1.0649  1.7807  0.4931
 4750SOL    HW225884   4.554   3.449  16.585  1.9246 -0.2086  1.8927
 4751SOL     OW25885   0.230   1.512  15.791  0.4813  0.1235 -0.3466
 4751SOL    HW125886   0.208   1.574  15.721 -2.3774 -1.3284 -0.7503
 4751SOL    HW225887   0.228   1.560  15.874 -2.8853  0.2491 -0.4939
 4752SOL     OW25888   2.675   0.429  17.237  1.0224 -0.8703 -0.0264
 4752SOL    HW125889   2.598   0.433  17.294  0.5766 -1.6378 -0.5921
 4752SOL    HW225890   2.735   0.488  17.282 -0.4022 -0.3497  1.2041
 4753SOL     OW25891   1.770   3.879   4.806  0.9341 -0.5974 -0.1909
 4753SOL    HW125892   1.776   3.794   4.849 -0.8394 -0.9595 -0.6570
 4753SOL    HW225893   1.816   3.935   4.868  0.4256 -0.8335  0.4044
 4754SOL     OW25894   0.671   2.638   7.254  0.0330 -0.7473 -0.0496
 4754SOL    HW125895   0.582   2.608   7.273 -0.3115  0.6855  0.5740
 4754SOL    HW225896   0.716   2.554   7.259 -2.0493 -1.8180  1.1785
 4755SOL     OW25897   3.000   3.152  17.360  0.5078  0.9378 -0.0789
 4755SOL    HW125898   3.094   3.161  17.375  0.3337 -1.2893  2.4247
 4755SOL    HW225899   2.997   3.154  17.264 -0.5933  1.5961 -0.0257
 4756SOL     OW25900   3.788   0.065  11.529 -0.4677  0.2477  0.7028
 4756SOL    HW125901   3.867   0.086  11.578 -1.3016  2.2745  1.1914
 4756SOL    HW225902   3.830   0.020  11.456  0.0928 -0.0444  1.2084
 4757SOL     OW25903   3.982   2.872   2.915 -0.3164  0.4422  0.1172
 4757SOL    HW125904   3.918   2.804   2.939  1.4329 -1.2365  0.0344
 4757SOL    HW225905   4.055   2.818   2.886 -0.2727  1.7951 -2.2654
 4758SOL     OW25906   0.885   0.244   9.749  0.2547  0.0659  0.3556
 4758SOL    HW125907   0.955   0.259   9.812  0.5721 -2.6171  0.6291
 4758SOL    HW225908   0.938   0.268   9.672  0.4480 -1.0803  0.1420
 4759SOL     OW25909   4.511   1.148   6.459 -0.1682  0.2117 -0.2114
 4759SOL    HW125910   4.553   1.075   6.413 -0.6554 -0.8529  1.0339
 4759SOL    HW225911   4.564   1.138   6.538 -0.0664  2.4658 -0.0120
 4760SOL     OW25912   3.526   0.430   1.014 -0.3248 -0.2890  0.0624
 4760SOL    HW125913   3.438   0.451   0.982  1.0008  1.2506 -2.5766
 4760SOL    HW225914   3.551   0.516   1.048 -0.0515 -0.2576 -0.2211
 4761SOL     OW25915   1.732   2.324   6.181 -0.3196  0.0910  0.8710
 4761SOL    HW125916   1.656   2.330   6.239 -0.3004  0.6127  0.8425
 4761SOL    HW225917   1.724   2.234   6.149  0.6984  1.1522 -2.3360
 4762SOL     OW25918   1.704   2.536   7.574  0.4728 -0.1737 -0.1062
 4762SOL    HW125919   1.620   2.560   7.612  1.0213 -0.1389  1.0955
 4762SOL    HW225920   1.751   2.619   7.567 -1.5979  1.0130  0.1608
 4763SOL     OW25921   0.125   2.164  10.067 -0.3009 -0.2385 -0.2403
 4763SOL    HW125922   0.080   2.240  10.105 -0.6185  0.1273 -1.3622
 4763SOL    HW225923   0.072   2.096  10.109  1.2703  0.1322  2.3533
 4764SOL     OW25924   4.055   0.169   2.381  0.0026 -0.0746 -0.2592
 4764SOL    HW125925   3.983   0.106   2.376 -0.6067  0.5790  0.1829
 4764SOL    HW225926   4.123   0.107   2.407 -0.3370  1.5243  4.5051
 4765SOL     OW25927   4.599   2.703  10.336 -0.5216  0.4922 -0.0121
 4765SOL    HW125928   4.522   2.650  10.357 -0.1010 -0.7449 -1.5545
 4765SOL    HW225929   4.671   2.640  10.342  0.3197  1.3743 -0.8496
 4766SOL     OW25930   1.625   2.985   3.184 -0.0661  0.4520 -0.0573
 4766SOL    HW125931   1.712   2.951   3.203 -1.6684 -2.0111  2.9879
 4766SOL    HW225932   1.636   3.080   3.192  0.5245  0.3641  0.1751
 4767SOL     OW25933   0.078   4.276   3.609  0.0892  0.1464  0.5127
 4767SOL    HW125934   0.149   4.311   3.556 -1.7387  1.4915 -1.0325
 4767SOL    HW225935   0.006   4.262   3.548  0.6504  0.9864 -0.3346
 4768SOL     OW25936   0.752   2.880   6.489 -0.8060 -0.0871  0.2946
 4768SOL    HW125937   0.746   2.973   6.467  1.8979 -0.0140 -0.1273
 4768SOL    HW225938   0.786   2.846   6.406 -1.7666  0.9397 -0.5253
 4769SOL     OW25939   3.455   3.604   8.763 -0.2306 -0.2244 -0.0547
 4769SOL    HW125940   3.453   3.694   8.794 -0.1949 -0.1824 -0.1753
 4769SOL    HW225941   3.545   3.599   8.733  0.1299  0.4668  0.9075
 4770SOL     OW25942   1.657   2.325   2.108  0.0339 -0.1145  0.1944
 4770SOL    HW125943   1.615   2.411   2.115 -1.0849 -0.4865 -1.8670
 4770SOL    HW225944   1.721   2.344   2.040  0.7448 -5.0979 -0.5424
 4771SOL     OW25945   1.964   0.820   2.170 -0.5032 -0.1323  0.7312
 4771SOL    HW125946   1.952   0.832   2.076  0.7284  0.0908  0.5933
 4771SOL    HW225947   1.988   0.728   2.160 -0.6769 -0.3696  2.4794
 4772SOL     OW25948   1.177   3.097   4.643  0.1197 -0.6481 -0.1132
 4772SOL    HW125949   1.267   3.066   4.635 -0.1747 -1.4705 -0.3363
 4772SOL    HW225950   1.171   3.122   4.735 -0.6445 -1.5595  0.0867
 4773SOL     OW25951   0.212   0.837  14.942  0.2416  0.4816 -0.1992
 4773SOL    HW125952   0.197   0.841  14.848 -1.0337 -1.4337 -0.0688
 4773SOL    HW225953   0.297   0.880  14.947 -0.0152  0.8840  0.7626
 4774SOL     OW25954   1.747   3.249   0.526  0.5060  1.1218 -0.3698
 4774SOL    HW125955   1.838   3.263   0.554 -0.0400 -0.0156  1.9758
 4774SOL    HW225956   1.708   3.323   0.572  2.3135  0.9349  1.4609
 4775SOL     OW25957   2.851   3.305   8.344 -0.4061  0.6546 -0.3680
 4775SOL    HW125958   2.892   3.287   8.259  0.9091  2.1969 -0.0560
 4775SOL    HW225959   2.763   3.271   8.330  0.2437 -1.7375  1.2818
 4776SOL     OW25960   1.010   1.307   2.202  0.1987 -0.0320  0.0413
 4776SOL    HW125961   0.957   1.274   2.275  1.1058  1.6440  1.4757
 4776SOL    HW225962   0.966   1.387   2.173 -0.9173 -1.2356 -1.5077
 4777SOL     OW25963   2.439   0.083   1.744 -0.1135 -0.4119 -0.3645
 4777SOL    HW125964   2.502   0.064   1.674  1.1761  0.7521  0.4907
 4777SOL    HW225965   2.448   0.011   1.807  1.4974 -0.4739 -0.6610
 4778SOL     OW25966   3.554   2.095   2.172 -0.6292 -0.0259 -0.8199
 4778SOL    HW125967   3.606   2.153   2.227 -1.2916 -1.8750  1.7650
 4778SOL    HW225968   3.574   2.129   2.084 -2.8459  0.8096 -1.0065
 4779SOL     OW25969   0.821   2.264  11.220  0.1901  0.0522  0.2701
 4779SOL    HW125970   0.777   2.348  11.239  0.9649  0.9403 -1.9383
 4779SOL    HW225971   0.877   2.281  11.145  0.1911 -1.3706 -0.0358
 4780SOL     OW25972   0.466   1.086   8.595  0.3764  0.0823 -0.0230
 4780SOL    HW125973   0.460   1.144   8.519 -1.3519 -0.3462 -0.2161
 4780SOL    HW225974   0.469   1.001   8.552  1.0058  0.3218 -0.4465
 4781SOL     OW25975   1.899   3.657   8.575  0.2138  0.4129  0.4643
 4781SOL    HW125976   1.856   3.595   8.516  1.8676 -0.1201 -0.1868
 4781SOL    HW225977   1.933   3.589   8.634  2.0438  0.0180 -1.0473
 4782SOL     OW25978   2.107   2.727   8.504  0.7517 -0.0224 -0.1345
 4782SOL    HW125979   2.124   2.767   8.589  0.6289  2.0431 -1.0900
 4782SOL    HW225980   2.037   2.668   8.531 -0.7333  1.6226 -0.4307
 4783SOL     OW25981   2.305   2.484   1.700 -0.3623  0.2148 -0.6419
 4783SOL    HW125982   2.323   2.449   1.613  2.6068 -2.0687  0.8960
 4783SOL    HW225983   2.216   2.450   1.716  0.3270 -0.0837  2.6373
 4784SOL     OW25984   2.468   0.249   5.606 -0.1412 -0.0708  0.1887
 4784SOL    HW125985   2.430   0.306   5.538  0.2889 -1.1489 -0.9595
 4784SOL    HW225986   2.395   0.192   5.631  1.5384 -3.0590 -1.6722
 4785SOL     OW25987   3.674   4.015  10.786 -0.4638  0.0357 -0.0836
 4785SOL    HW125988   3.642   4.100  10.813  1.4802  0.9768 -0.7346
 4785SOL    HW225989   3.664   3.960  10.864 -1.3914 -0.1824 -0.3635
 4786SOL     OW25990   4.481   2.656   8.890 -0.2138  0.3632  0.0995
 4786SOL    HW125991   4.575   2.664   8.874  0.0622  1.4950  2.2080
 4786SOL    HW225992   4.457   2.748   8.901 -1.2006  0.0331  0.6768
 4787SOL     OW25993   1.536   4.146  15.993 -0.4799  0.4146  0.4338
 4787SOL    HW125994   1.546   4.183  15.905  0.5692 -0.2514  0.2755
 4787SOL    HW225995   1.629   4.136  16.012 -0.4027  0.5983  0.1540
 4788SOL     OW25996   3.804   1.253  17.430  0.0991  0.6406 -0.6343
 4788SOL    HW125997   3.730   1.270  17.488 -0.8339 -2.0741 -1.0262
 4788SOL    HW225998   3.789   1.315  17.359 -0.0329 -0.6177 -1.7118
 4789SOL     OW25999   0.896   3.563   9.551 -0.5959 -0.2196  0.6594
 4789SOL    HW126000   0.875   3.518   9.632 -0.7530  1.1869  1.3913
 4789SOL    HW226001   0.941   3.498   9.496  0.6905  1.3036 -0.0863
 4790SOL     OW26002   1.546   3.563   3.849 -0.1307  0.2785 -0.1981
 4790SOL    HW126003   1.639   3.542   3.858 -0.3326 -0.1815  0.8795
 4790SOL    HW226004   1.536   3.533   3.759  1.1711 -0.7777 -0.0019
 4791SOL     OW26005   3.021   0.274   7.365 -0.4269 -0.5549 -0.3743
 4791SOL    HW126006   2.954   0.308   7.423  0.5216  0.5451  0.0587
 4791SOL    HW226007   2.977   0.295   7.282  0.1495 -0.0612 -0.5580
 4792SOL     OW26008   0.356   0.900   8.102  1.0006  0.9494 -0.4182
 4792SOL    HW126009   0.370   0.927   8.011 -0.8780  0.8912 -0.7263
 4792SOL    HW226010   0.285   0.955   8.134  0.0096 -1.0809  0.8317
 4793SOL     OW26011   3.533   4.265   8.623 -0.3382  0.5062 -0.3183
 4793SOL    HW126012   3.518   4.189   8.566  0.0404 -0.1536  0.4696
 4793SOL    HW226013   3.579   4.230   8.699 -0.4790 -1.7217 -1.2693
 4794SOL     OW26014   0.577   3.996  16.349 -0.2988  0.5235 -0.5348
 4794SOL    HW126015   0.622   4.053  16.411  2.6027  1.9464 -3.9394
 4794SOL    HW226016   0.484   4.017  16.355  0.4392  2.3047  4.3297
 4795SOL     OW26017   4.454   2.961   8.181 -0.2246  0.2723 -0.0695
 4795SOL    HW126018   4.414   2.998   8.102 -1.8480 -0.7770  0.2441
 4795SOL    HW226019   4.513   2.895   8.144 -0.1868 -0.7248  1.7784
 4796SOL     OW26020   1.911   3.222   6.153  0.2937 -0.4329 -0.1289
 4796SOL    HW126021   1.927   3.289   6.219 -3.3512  0.1689  0.1538
 4796SOL    HW226022   1.952   3.257   6.074  3.1038  0.4286  1.7338
 4797SOL     OW26023   4.014   1.727   6.151  0.4657  0.1502 -0.6098
 4797SOL    HW126024   3.990   1.634   6.151  0.1244  0.2298  3.0595
 4797SOL    HW226025   3.927   1.764   6.166  0.6676  0.6263 -0.6364
 4798SOL     OW26026   4.654   2.812   7.651 -0.3528  0.0472  0.5094
 4798SOL    HW126027   4.716   2.851   7.589 -0.9393  0.3045  0.0895
 4798SOL    HW226028   4.568   2.828   7.613 -0.4101  1.9138  1.3953
 4799SOL     OW26029   0.787   3.080   2.567  0.0421  0.0043 -0.3112
 4799SOL    HW126030   0.869   3.044   2.602  0.7593  2.4147  0.4798
 4799SOL    HW226031   0.822   3.099   2.480  0.9953  1.8907  0.4653
 4800SOL     OW26032   3.431   3.166   3.209 -0.7806  0.3400 -0.0291
 4800SOL    HW126033   3.432   3.154   3.114  0.9524 -0.5236  0.1128
 4800SOL    HW226034   3.339   3.193   3.214 -1.3920 -1.6991 -0.5425
 4801SOL     OW26035   4.275   3.365  15.304  0.4977  0.4803 -0.6658
 4801SOL    HW126036   4.244   3.432  15.365 -1.8886 -0.7216 -0.5871
 4801SOL    HW226037   4.367   3.389  15.311  1.3765 -3.5008  1.0423
 4802SOL     OW26038   3.417   3.139   3.483  0.6194  0.0596  0.3836
 4802SOL    HW126039   3.431   3.135   3.388  0.0428  2.1915  0.1990
 4802SOL    HW226040   3.400   3.233   3.493 -0.6307 -0.1081 -0.1948
 4803SOL     OW26041   0.786   0.674   5.646 -0.1552 -0.0868  0.3992
 4803SOL    HW126042   0.842   0.702   5.719  0.0280  0.0377  0.2096
 4803SOL    HW226043   0.833   0.704   5.569 -0.5188  0.0337  0.2223
 4804SOL     OW26044   2.632   2.402   3.046  0.3574  0.3893 -0.5784
 4804SOL    HW126045   2.662   2.459   2.975  0.8306 -1.1022 -1.5741
 4804SOL    HW226046   2.639   2.315   3.007 -2.3932  0.4942 -1.3093
 4805SOL     OW26047   2.694   2.460  16.352  0.4577  0.1684  0.2912
 4805SOL    HW126048   2.754   2.505  16.412 -0.4422  1.9527 -0.1437
 4805SOL    HW226049   2.763   2.427  16.294 -1.0120 -1.4310 -0.5657
 4806SOL     OW26050   2.661   3.099   8.717 -0.3533 -0.1992  0.1876
 4806SOL    HW126051   2.578   3.096   8.669 -0.4445  0.4345  0.3091
 4806SOL    HW226052   2.725   3.140   8.659 -1.3501  1.4504  0.2660
 4807SOL     OW26053   3.045   3.249  12.245 -0.1948 -0.2271  0.1242
 4807SOL    HW126054   3.028   3.343  12.249  2.5327  0.3162 -0.9273
 4807SOL    HW226055   3.084   3.235  12.331  0.1059  0.8459  0.1574
 4808SOL     OW26056   3.585   1.135   6.457  0.1692 -0.0011  0.5226
 4808SOL    HW126057   3.624   1.051   6.435 -1.4350 -0.1999 -1.5308
 4808SOL    HW226058   3.649   1.198   6.423 -0.4030  0.1448 -0.2821
 4809SOL     OW26059   0.341   4.316   6.429 -0.3223 -0.7233 -0.4638
 4809SOL    HW126060   0.363   4.407   6.450  1.2311 -1.2188  0.0810
 4809SOL    HW226061   0.299   4.327   6.344  1.0944  1.7021 -0.8493
 4810SOL     OW26062   1.096   1.520   7.339 -0.3716 -0.0501  0.1575
 4810SOL    HW126063   1.095   1.465   7.261 -2.7282 -0.5089  0.5259
 4810SOL    HW226064   1.191   1.534   7.337 -0.2730 -0.8498 -0.4668
 4811SOL     OW26065   1.070   0.938   4.873  0.4538 -0.2296 -0.9050
 4811SOL    HW126066   1.079   1.030   4.895 -1.8328 -0.2872  0.2654
 4811SOL    HW226067   1.114   0.884   4.939 -1.3267 -2.1315 -1.2501
 4812SOL     OW26068   3.342   2.627   8.061 -0.1246 -0.0748 -0.3708
 4812SOL    HW126069   3.314   2.680   8.137  1.3610 -1.9805  1.4999
 4812SOL    HW226070   3.264   2.572   8.070  1.2410 -1.4297  3.2796
 4813SOL     OW26071   3.083   0.144  14.469  0.0218  0.1073 -0.2156
 4813SOL    HW126072   3.000   0.095  14.470  0.7335 -1.1167 -1.1433
 4813SOL    HW226073   3.083   0.177  14.559  1.1777  0.7948 -0.4701
 4814SOL     OW26074   3.170   3.217   2.720 -0.3356 -0.7159 -0.1867
 4814SOL    HW126075   3.249   3.163   2.723 -0.1132 -0.3471  0.4934
 4814SOL    HW226076   3.194   3.284   2.656 -2.0916  0.2333  0.1327
 4815SOL     OW26077   1.302   0.462   7.829  0.2172 -0.4876 -0.1362
 4815SOL    HW126078   1.316   0.375   7.867 -0.0823  0.2201  1.5741
 4815SOL    HW226079   1.232   0.497   7.884  2.0008  0.5714  1.4447
 4816SOL     OW26080   4.191   2.333   6.300 -0.6598  0.0214  0.4980
 4816SOL    HW126081   4.138   2.327   6.380  0.6016  1.0680  1.4288
 4816SOL    HW226082   4.180   2.243   6.269  0.6307 -0.1777  0.6075
 4817SOL     OW26083   0.628   1.476   4.977 -0.1794  0.0974  0.0896
 4817SOL    HW126084   0.682   1.400   4.996  0.0459  0.9901  3.0425
 4817SOL    HW226085   0.660   1.540   5.040  0.6868 -0.6396  0.3965
 4818SOL     OW26086   3.515   3.738   8.240  0.4790 -0.0264  0.6329
 4818SOL    HW126087   3.588   3.764   8.296 -0.1932  0.7879  1.1177
 4818SOL    HW226088   3.452   3.693   8.295 -0.6176  1.7136  0.8002
 4819SOL     OW26089   0.475   3.271  11.771  0.9715  0.2995  0.5717
 4819SOL    HW126090   0.509   3.359  11.784 -0.2282  0.7286  0.8009
 4819SOL    HW226091   0.414   3.274  11.845  0.0082 -0.5802 -0.1858
 4820SOL     OW26092   2.023   3.642   7.744 -0.3473  0.0993 -0.2988
 4820SOL    HW126093   2.018   3.708   7.813  0.7363  0.8211 -0.8986
 4820SOL    HW226094   2.013   3.695   7.665 -0.0972  1.6613  0.7177
 4821SOL     OW26095   0.289   1.129   5.817 -0.6670  0.3195  1.0214
 4821SOL    HW126096   0.319   1.093   5.734 -3.5724 -0.5344  0.3256
 4821SOL    HW226097   0.255   1.214   5.789  2.8965  0.7717 -1.8477
 4822SOL     OW26098   4.383   3.554   4.681  0.0989 -0.2268  0.8116
 4822SOL    HW126099   4.392   3.547   4.586  1.0792 -1.9601  1.0345
 4822SOL    HW226100   4.321   3.625   4.690  0.2944  0.1253 -0.5514
 4823SOL     OW26101   0.898   3.542   2.484 -0.0691 -0.6542 -0.2731
 4823SOL    HW126102   0.836   3.503   2.423  0.0661  0.0098 -0.8469
 4823SOL    HW226103   0.915   3.625   2.440 -2.4435  0.1921  0.4221
 4824SOL     OW26104   1.515   2.959   8.575  0.0139  0.2300 -0.1685
 4824SOL    HW126105   1.517   2.864   8.563  2.3651  0.1454  0.7548
 4824SOL    HW226106   1.563   2.964   8.658 -1.8028  0.5250  0.8443
 4825SOL     OW26107   3.471   4.204   6.198 -0.2513 -0.2796  0.5288
 4825SOL    HW126108   3.389   4.201   6.148  0.1727 -1.5049 -0.0813
 4825SOL    HW226109   3.480   4.111   6.219 -1.1695 -0.4079  0.3794
 4826SOL     OW26110   3.457   4.406   3.488 -0.1826  0.0859 -0.1925
 4826SOL    HW126111   3.509   4.330   3.460  0.8565  0.5881  0.3732
 4826SOL    HW226112   3.516   4.464   3.440 -0.7074  0.3412 -0.5317
 4827SOL     OW26113   0.973   0.445   7.443  0.0439 -0.2369  0.1227
 4827SOL    HW126114   0.903   0.384   7.422  0.6313 -1.1017  0.6906
 4827SOL    HW226115   1.000   0.423   7.532  0.7379  0.4442  0.0881
 4828SOL     OW26116   2.151   4.055   7.072  0.6109  0.0227  0.1332
 4828SOL    HW126117   2.106   3.995   7.012 -0.9468  1.2202  0.1026
 4828SOL    HW226118   2.079   4.100   7.116 -0.1170 -1.1761  0.1895
 4829SOL     OW26119   3.053   0.647   8.112  0.0488  0.1906  0.2045
 4829SOL    HW126120   2.974   0.632   8.165  1.1795  1.1850  2.2002
 4829SOL    HW226121   3.065   0.557   8.082  0.9827 -0.0813  1.3876
 4830SOL     OW26122   3.403   0.228   2.031  0.1747 -0.2041  0.3332
 4830SOL    HW126123   3.333   0.291   2.014 -0.4871 -0.9134  0.4273
 4830SOL    HW226124   3.472   0.293   2.040  0.5105 -0.2901 -1.6113
 4831SOL     OW26125   3.811   1.372   7.833 -0.1112  0.0102 -0.6009
 4831SOL    HW126126   3.863   1.397   7.910 -0.0133  1.0588 -1.0083
 4831SOL    HW226127   3.774   1.452   7.796 -1.4386 -1.1661 -1.8308
 4832SOL     OW26128   2.153   1.399   5.951 -0.4020 -0.3724 -0.0860
 4832SOL    HW126129   2.204   1.470   5.992 -0.3568 -0.5501  0.1655
 4832SOL    HW226130   2.173   1.432   5.863 -0.8542  1.9614  0.6741
 4833SOL     OW26131   0.474   4.346   9.803  0.0387  0.2988 -0.1904
 4833SOL    HW126132   0.400   4.308   9.850  1.5284  0.6196  2.4653
 4833SOL    HW226133   0.471   4.432   9.844  0.1349 -0.5584  1.6426
 4834SOL     OW26134   1.363   0.490  17.381  0.9374 -0.2338  0.0074
 4834SOL    HW126135   1.306   0.419  17.352  0.5655  0.0038  0.1626
 4834SOL    HW226136   1.312   0.548  17.437  4.4192  1.7485  1.1207
 4835SOL     OW26137   2.207   2.745   5.157 -0.3125  0.5352  0.0992
 4835SOL    HW126138   2.250   2.753   5.242 -2.5842  0.5495  1.2410
 4835SOL    HW226139   2.119   2.719   5.184  0.0252  0.0403  0.7109
 4836SOL     OW26140   3.373   1.834   4.344 -0.5016  0.2895  0.0281
 4836SOL    HW126141   3.350   1.831   4.437 -0.6380  0.4045 -0.0012
 4836SOL    HW226142   3.465   1.809   4.343 -0.4018  0.6687 -0.0608
 4837SOL     OW26143   4.506   0.906   5.566 -0.6269  0.2619  0.2268
 4837SOL    HW126144   4.582   0.934   5.618 -0.7921 -0.4085  0.8315
 4837SOL    HW226145   4.491   0.824   5.613 -2.6635  0.9465  0.7755
 4838SOL     OW26146   1.275   3.888  10.496 -0.1432 -0.6324  0.6730
 4838SOL    HW126147   1.356   3.935  10.480 -0.8554 -0.0711 -1.2358
 4838SOL    HW226148   1.237   3.943  10.564  2.0331  0.0540  1.3095
 4839SOL     OW26149   1.713   2.723   9.274  0.3452  0.5470 -0.5459
 4839SOL    HW126150   1.745   2.705   9.362  1.4581  0.8961 -0.8721
 4839SOL    HW226151   1.706   2.818   9.281  1.5119  0.4616  1.6777
 4840SOL     OW26152   0.616   2.614  12.250 -0.3982  0.0099  0.6726
 4840SOL    HW126153   0.645   2.704  12.234 -0.9117  0.0632  0.0876
 4840SOL    HW226154   0.529   2.616  12.210 -0.6170 -0.4926  1.1371
 4841SOL     OW26155   1.868   3.223  16.765 -0.1943 -0.4687 -0.4129
 4841SOL    HW126156   1.937   3.198  16.704  0.2311 -0.2804 -0.0054
 4841SOL    HW226157   1.797   3.197  16.706 -1.7342  2.5596  0.1097
 4842SOL     OW26158   1.659   1.718   1.190  0.9806 -0.2576  0.5556
 4842SOL    HW126159   1.641   1.655   1.259  0.4941  0.9163  1.5097
 4842SOL    HW226160   1.739   1.694   1.143 -0.4908 -0.4842 -1.8678
 4843SOL     OW26161   1.148   0.780   0.478  0.3210  0.0221  0.3426
 4843SOL    HW126162   1.181   0.828   0.554 -3.0261 -3.3230  3.8952
 4843SOL    HW226163   1.153   0.835   0.400 -0.0471  0.6097  0.7331
 4844SOL     OW26164   0.165   2.635  10.058 -0.4682  0.0815  0.1088
 4844SOL    HW126165   0.082   2.680  10.047 -1.7228 -1.6382  2.6788
 4844SOL    HW226166   0.181   2.608   9.967 -0.3690 -1.9004  0.7166
 4845SOL     OW26167   2.209   0.224   8.531 -0.2135  0.1097  0.4932
 4845SOL    HW126168   2.180   0.295   8.473  0.9893  0.9481  0.9222
 4845SOL    HW226169   2.289   0.193   8.489 -0.5714 -0.6995  0.4083
 4846SOL     OW26170   1.407   2.778   5.776  0.7520 -0.0530  0.1643
 4846SOL    HW126171   1.408   2.730   5.859 -0.5771  2.2670  1.4909
 4846SOL    HW226172   1.471   2.731   5.722 -0.9113 -2.7262  0.5163
 4847SOL     OW26173   4.401   3.060   4.467 -0.1328  0.6885 -0.1849
 4847SOL    HW126174   4.412   3.101   4.553 -3.7529  0.7522  0.2591
 4847SOL    HW226175   4.390   2.972   4.504  0.6244  0.5053 -0.4098
 4848SOL     OW26176   3.347   1.629   8.378 -0.7003  0.5798  0.0369
 4848SOL    HW126177   3.428   1.649   8.424 -0.6202  0.1020  0.1001
 4848SOL    HW226178   3.285   1.635   8.451  0.5612  0.2790  1.1355
 4849SOL     OW26179   3.859   2.037   8.598  0.2858 -0.2505  0.2693
 4849SOL    HW126180   3.944   2.030   8.554 -0.0728 -1.9546 -0.1465
 4849SOL    HW226181   3.868   2.055   8.691 -0.8751 -0.4873  0.4279
 4850SOL     OW26182   2.173   4.330   6.875 -0.3434  0.0966 -0.1183
 4850SOL    HW126183   2.150   4.423   6.876 -0.1662  0.1418 -0.6867
 4850SOL    HW226184   2.098   4.299   6.825  0.4696  0.7688 -1.7253
 4851SOL     OW26185   1.724   4.203   6.016  0.4823  0.1451  0.0060
 4851SOL    HW126186   1.789   4.241   6.076 -0.7070  0.5246  1.0516
 4851SOL    HW226187   1.689   4.127   6.062  1.6207  0.4964  1.4425
 4852SOL     OW26188   2.466   0.198   2.657  0.2087 -0.7697 -0.0689
 4852SOL    HW126189   2.480   0.110   2.621 -2.0651 -1.2123  0.1156
 4852SOL    HW226190   2.394   0.182   2.718  0.4352 -3.0289 -0.4074
 4853SOL     OW26191   1.086   1.610   8.725  0.6164 -1.0920 -0.4828
 4853SOL    HW126192   1.020   1.645   8.784  0.8898  0.2623 -0.9630
 4853SOL    HW226193   1.053   1.637   8.639  1.8835 -0.4321 -0.7725
 4854SOL     OW26194   1.042   3.902   6.260 -0.1700 -0.1927  0.1037
 4854SOL    HW126195   1.055   3.817   6.218 -0.2699 -0.5054  0.7093
 4854SOL    HW226196   0.990   3.876   6.337  3.8645 -1.0693  2.5074
 4855SOL     OW26197   4.082   0.239   9.368  0.2144  0.0254  0.8445
 4855SOL    HW126198   4.125   0.317   9.403 -2.6050  1.6806  0.6209
 4855SOL    HW226199   4.086   0.194   9.452 -0.9055 -2.2643 -0.3200
 4856SOL     OW26200   1.062   2.962  12.158  0.4037  0.5190  0.4454
 4856SOL    HW126201   1.151   2.949  12.127  0.9927  1.4838  1.7607
 4856SOL    HW226202   1.027   2.873  12.169 -0.4326  0.8381  0.4132
 4857SOL     OW26203   0.013   0.316   5.704  0.3400 -0.2101 -0.1309
 4857SOL    HW126204   4.726   0.323   5.612 -0.8208  0.7597  0.2655
 4857SOL    HW226205   4.671   0.310   5.755  0.9661 -0.9015  0.7853
 4858SOL     OW26206   4.715   2.777   5.237 -0.3370  0.3986  0.2883
 4858SOL    HW126207   4.715   2.866   5.273  0.6787  0.7386 -0.5893
 4858SOL    HW226208   4.671   2.786   5.152 -0.2558  0.5290  0.2602
 4859SOL     OW26209   3.687   0.751   5.689  0.9138  0.0878 -0.4265
 4859SOL    HW126210   3.620   0.819   5.681 -0.0435 -0.9289 -1.0439
 4859SOL    HW226211   3.712   0.768   5.780 -0.8695  0.4688 -0.0180
 4860SOL     OW26212   1.081   3.566   3.340  0.0664  0.0020  0.1648
 4860SOL    HW126213   1.051   3.656   3.345  2.3368  0.6737  1.6195
 4860SOL    HW226214   1.032   3.520   3.271 -0.0850  0.2816  0.0885
 4861SOL     OW26215   3.955   4.354   5.930  0.3839 -0.6350  0.6851
 4861SOL    HW126216   3.901   4.315   5.999 -3.0615  1.8635 -0.5856
 4861SOL    HW226217   3.960   4.276   5.874 -1.4793  0.3028 -0.7888
 4862SOL     OW26218   1.375   2.959   1.452  0.0637 -0.1422 -0.4101
 4862SOL    HW126219   1.422   2.898   1.395 -0.0716 -0.6184 -0.0101
 4862SOL    HW226220   1.434   3.032   1.434  3.3929 -2.9088 -0.6625
 4863SOL     OW26221   0.300   0.037   5.127 -0.3541 -0.4222 -0.2301
 4863SOL    HW126222   0.234   0.017   5.193  1.4525 -0.2938  1.6344
 4863SOL    HW226223   0.372   4.734   5.174 -2.2351 -3.0305  0.3233
 4864SOL     OW26224   3.138   3.309   4.010 -0.5174  0.3601 -0.0595
 4864SOL    HW126225   3.215   3.347   3.967 -0.3200  1.5733  1.3707
 4864SOL    HW226226   3.134   3.376   4.078  1.2169  0.7461 -0.3227
 4865SOL     OW26227   0.447   1.412  14.610  0.5071 -0.1702  0.1511
 4865SOL    HW126228   0.358   1.428  14.578  1.5775  2.6478 -1.4484
 4865SOL    HW226229   0.474   1.500  14.638  3.1685 -0.7504 -0.5860
 4866SOL     OW26230   4.075   4.158   2.429  0.0535 -0.6945  0.1796
 4866SOL    HW126231   4.036   4.085   2.382 -2.4122  1.4190 -1.0499
 4866SOL    HW226232   4.011   4.224   2.402 -1.8539 -3.3451 -1.7054
 4867SOL     OW26233   2.891   4.390   8.134 -0.3367  0.0816 -0.7106
 4867SOL    HW126234   2.955   4.325   8.104  0.7666  1.2586 -0.9062
 4867SOL    HW226235   2.939   4.469   8.110  1.1709 -0.5028  0.4042
 4868SOL     OW26236   0.361   3.302   6.843 -0.2645  0.1653  0.2146
 4868SOL    HW126237   0.395   3.329   6.758 -1.6056 -1.1620 -0.7244
 4868SOL    HW226238   0.372   3.380   6.898  2.5232 -0.3689  0.4286
 4869SOL     OW26239   2.299   2.049   6.198  0.0458 -0.2180  0.2196
 4869SOL    HW126240   2.231   1.982   6.189 -1.6722  1.1539  2.8960
 4869SOL    HW226241   2.382   2.004   6.184  0.5223  0.8645 -0.4896
 4870SOL     OW26242   3.380   1.741   8.954 -0.1196  0.1092 -0.0156
 4870SOL    HW126243   3.356   1.650   8.937 -0.2706 -0.1819  1.7986
 4870SOL    HW226244   3.365   1.785   8.871 -0.7174 -1.0312 -0.5139
 4871SOL     OW26245   3.047   1.539   2.146  0.5639 -0.0542  0.1602
 4871SOL    HW126246   3.007   1.625   2.152  2.2326  0.6865  0.7175
 4871SOL    HW226247   3.139   1.566   2.146  0.8736 -1.0849  1.8395
 4872SOL     OW26248   4.242   2.726  13.343 -0.0829 -0.1739 -0.5375
 4872SOL    HW126249   4.336   2.708  13.338 -0.4064 -1.4811 -1.8542
 4872SOL    HW226250   4.239   2.813  13.382 -0.6382 -0.0253 -0.9160
 4873SOL     OW26251   4.372   4.641   9.630  0.3550 -0.0397  0.1807
 4873SOL    HW126252   4.446   4.678   9.677  1.1944  0.6263 -1.6772
 4873SOL    HW226253   4.300   4.660   9.690 -0.5963  4.2694 -2.3382
 4874SOL     OW26254   1.073   4.330   5.507 -0.4852  0.0888  0.3384
 4874SOL    HW126255   1.083   4.410   5.456  0.0749  0.5597  1.1906
 4874SOL    HW226256   1.014   4.363   5.575  1.1241  4.4534 -0.3856
 4875SOL     OW26257   4.280   3.590  13.690  0.0155 -0.5412  0.1043
 4875SOL    HW126258   4.347   3.543  13.640 -0.8147 -0.9210 -0.6583
 4875SOL    HW226259   4.232   3.631  13.618  0.0164 -0.2744  0.2552
 4876SOL     OW26260   0.404   1.661   8.407  0.2937 -0.3013 -0.5682
 4876SOL    HW126261   0.333   1.626   8.460  0.9177 -0.7291 -0.0202
 4876SOL    HW226262   0.457   1.701   8.476 -2.1763 -1.8381  2.2213
 4877SOL     OW26263   0.339   0.781   4.324 -0.1425 -0.4554  0.7999
 4877SOL    HW126264   0.376   0.817   4.244  1.0942 -1.5016  0.9014
 4877SOL    HW226265   0.337   0.687   4.305 -1.1063 -0.3553  0.4241
 4878SOL     OW26266   4.612   1.570   2.686 -0.2188  0.6277  0.0283
 4878SOL    HW126267   4.593   1.542   2.596  0.6092  0.5268 -0.1139
 4878SOL    HW226268   4.700   1.608   2.678  0.1109 -0.2329 -0.5270
 4879SOL     OW26269   3.058   1.954  12.163 -0.0674  0.0301 -0.0609
 4879SOL    HW126270   3.041   1.883  12.225  1.2405 -2.4986 -2.5641
 4879SOL    HW226271   3.146   1.984  12.186  1.2251 -2.8794 -1.1504
 4880SOL     OW26272   4.303   2.488   2.892  0.0522 -0.1211  0.1068
 4880SOL    HW126273   4.296   2.569   2.840  0.7186  0.3894  0.8079
 4880SOL    HW226274   4.251   2.504   2.970 -0.1624  2.0998 -0.4674
 4881SOL     OW26275   1.802   4.207   4.919 -0.1488 -0.0641 -0.3384
 4881SOL    HW126276   1.839   4.119   4.921 -1.1889 -0.4656  1.6149
 4881SOL    HW226277   1.789   4.222   5.013 -1.8536  5.9668 -1.5151
 4882SOL     OW26278   3.619   0.197   3.948 -0.0214 -0.2895  0.3545
 4882SOL    HW126279   3.697   0.252   3.958 -0.6751  1.2503 -2.6723
 4882SOL    HW226280   3.557   0.238   4.009  0.7394  1.0039  0.2536
 4883SOL     OW26281   1.741   3.274   7.095  0.5636 -0.0491  0.0077
 4883SOL    HW126282   1.783   3.320   7.168 -0.7787  1.9639 -0.5041
 4883SOL    HW226283   1.668   3.238   7.146  0.7104 -0.7902 -0.3020
 4884SOL     OW26284   4.557   3.839   6.628 -0.0624 -0.3976  0.6294
 4884SOL    HW126285   4.578   3.931   6.642  0.8485 -0.4050 -0.6577
 4884SOL    HW226286   4.587   3.803   6.712  1.1035 -0.6541  0.1083
 4885SOL     OW26287   0.926   1.003   2.566 -0.1630 -0.5142  0.1140
 4885SOL    HW126288   0.900   1.018   2.475  0.7956  0.2150 -0.0371
 4885SOL    HW226289   0.854   0.942   2.585  0.3227 -0.8121  0.9526
 4886SOL     OW26290   0.700   2.521  11.198  0.1027  0.6821 -0.3891
 4886SOL    HW126291   0.615   2.550  11.230 -0.2690 -2.1223  1.1384
 4886SOL    HW226292   0.746   2.602  11.221  1.2522  0.0880 -0.5903
 4887SOL     OW26293   4.291   2.494   1.778  0.2617 -0.4812 -0.6975
 4887SOL    HW126294   4.294   2.431   1.706  0.0641 -0.9105 -0.3369
 4887SOL    HW226295   4.381   2.526   1.778 -0.3254  1.1601 -1.7593
 4888SOL     OW26296   0.517   4.160   6.049  0.0710  0.4219  0.1652
 4888SOL    HW126297   0.600   4.114   6.057 -0.9739 -1.4617  0.1943
 4888SOL    HW226298   0.544   4.236   6.101 -0.2547 -0.7510  2.0406
 4889SOL     OW26299   0.185   4.110   5.106 -0.3897 -0.2980 -0.3985
 4889SOL    HW126300   0.242   4.034   5.115  2.0106  1.4021 -1.2799
 4889SOL    HW226301   0.099   4.069   5.117 -0.8966  0.5241 -1.2831
 4890SOL     OW26302   3.101   0.896   5.317  0.1663  0.0049  0.1243
 4890SOL    HW126303   3.189   0.859   5.311  0.2748  0.4516 -0.9436
 4890SOL    HW226304   3.048   0.842   5.258  0.4923 -1.1392  0.8840
 4891SOL     OW26305   1.493   0.266   5.598  0.2171 -0.1010  0.0287
 4891SOL    HW126306   1.530   0.185   5.634  0.6397 -0.5840 -1.4714
 4891SOL    HW226307   1.443   0.230   5.525  0.8614  3.3630 -2.1337
 4892SOL     OW26308   1.022   2.322   1.791  0.6623 -0.0789 -0.2501
 4892SOL    HW126309   1.024   2.409   1.830 -2.4023  0.5066 -1.4708
 4892SOL    HW226310   1.068   2.346   1.711 -0.2824 -0.1779 -0.8163
 4893SOL     OW26311   4.404   3.061   5.353  0.0209  0.9637  0.1713
 4893SOL    HW126312   4.342   3.130   5.331 -0.5162  0.0356 -1.2434
 4893SOL    HW226313   4.367   3.031   5.437 -0.4810 -1.1603 -0.7992
 4894SOL     OW26314   0.365   3.326   1.828  0.6222 -0.2452 -0.2645
 4894SOL    HW126315   0.292   3.295   1.775 -1.1495  1.3182  1.2606
 4894SOL    HW226316   0.320   3.382   1.892  1.4463  1.0459 -0.8033
 4895SOL     OW26317   0.837   3.513   0.312 -0.1457  0.3523 -0.0806
 4895SOL    HW126318   0.805   3.601   0.332  2.5980  1.3462  0.0589
 4895SOL    HW226319   0.779   3.456   0.362  2.8092 -2.0768  0.6408
 4896SOL     OW26320   2.967   1.927   5.424 -0.2058  0.4627  0.2857
 4896SOL    HW126321   2.984   2.015   5.388 -0.9637  0.7164  0.5610
 4896SOL    HW226322   2.874   1.934   5.442 -0.9561 -0.7037 -3.1489
 4897SOL     OW26323   3.725   0.442   6.391 -0.5778  0.0284  0.0363
 4897SOL    HW126324   3.728   0.368   6.452  2.0881  1.7085  1.9604
 4897SOL    HW226325   3.637   0.442   6.354  0.1007  1.4457 -1.5791
 4898SOL     OW26326   1.979   0.408   5.598 -0.0215 -0.4065 -0.3759
 4898SOL    HW126327   2.028   0.390   5.678 -0.1333  1.8555  0.2188
 4898SOL    HW226328   1.894   0.436   5.633 -0.2474  1.1132 -2.1285
 4899SOL     OW26329   0.854   4.369   3.225 -0.0200 -0.3310  0.3434
 4899SOL    HW126330   0.870   4.295   3.283 -0.0325 -1.5251 -1.1950
 4899SOL    HW226331   0.945   4.399   3.231 -0.1979  0.0352  1.1250
 4900SOL     OW26332   1.767   2.769   6.449 -0.5412 -1.0799  0.8524
 4900SOL    HW126333   1.749   2.846   6.395  1.0239 -1.8384 -0.7758
 4900SOL    HW226334   1.819   2.822   6.510  1.2558 -1.3279 -0.4633
 4901SOL     OW26335   1.630   4.689   3.205 -0.3738  0.2930 -0.1314
 4901SOL    HW126336   1.581   4.672   3.124 -2.1513  1.6289  0.6537
 4901SOL    HW226337   1.561   4.721   3.263  0.2447 -0.7100  1.1417
 4902SOL     OW26338   4.665   2.759  11.701  0.0813  0.4523 -0.0984
 4902SOL    HW126339   4.592   2.798  11.653  0.5575 -0.0721 -1.2418
 4902SOL    HW226340   4.662   2.674  11.658 -1.3424 -0.5284  1.9320
 4903SOL     OW26341   4.038   2.509   5.379  0.5348  0.2180 -0.0879
 4903SOL    HW126342   4.117   2.544   5.339 -0.4376  1.8000 -0.6231
 4903SOL    HW226343   3.990   2.462   5.310 -0.0618  1.0814 -0.2602
 4904SOL     OW26344   0.012   1.180   0.234  0.2322 -0.5227  0.5276
 4904SOL    HW126345   4.659   1.155   0.217  1.0903 -1.8398 -2.0383
 4904SOL    HW226346   0.012   1.275   0.246 -1.2976 -0.5091  0.3953
 4905SOL     OW26347   3.668   3.196   2.615  0.1651 -0.6594 -0.0695
 4905SOL    HW126348   3.640   3.273   2.564  0.3379 -1.1805 -0.9563
 4905SOL    HW226349   3.693   3.243   2.694 -2.0211  0.8906 -0.2858
 4906SOL     OW26350   1.606   4.524   4.985  0.2448 -0.2379  0.1110
 4906SOL    HW126351   1.512   4.544   4.986  0.9646  3.0864  1.7216
 4906SOL    HW226352   1.640   4.586   4.921  0.9838 -1.6085 -0.8211
 4907SOL     OW26353   2.574   2.133   0.946 -0.5034  0.2093 -0.1464
 4907SOL    HW126354   2.497   2.166   0.991 -0.2852 -1.0619  1.1415
 4907SOL    HW226355   2.534   2.088   0.871 -0.6627  0.7061 -0.3542
 4908SOL     OW26356   2.763   0.850   4.033 -0.1666 -0.6968  0.3259
 4908SOL    HW126357   2.817   0.924   4.064  0.0726 -1.5203  1.9024
 4908SOL    HW226358   2.679   0.895   4.029 -0.0013 -0.3758  0.4366
 4909SOL     OW26359   3.301   1.508   2.635  0.3533  0.0170 -0.9110
 4909SOL    HW126360   3.267   1.428   2.674  0.6231  1.4370  2.1992
 4909SOL    HW226361   3.307   1.569   2.708 -0.1244  1.8915 -2.4336
 4910SOL     OW26362   2.234   1.695   1.075 -0.6405 -0.2868  0.0454
 4910SOL    HW126363   2.144   1.728   1.076 -0.9554 -1.2021  0.9042
 4910SOL    HW226364   2.237   1.675   0.982  3.4603 -0.6545  0.2717
 4911SOL     OW26365   4.112   3.389  15.634 -0.5028 -0.2208  0.3539
 4911SOL    HW126366   4.132   3.310  15.584 -0.6192  1.0063 -1.6131
 4911SOL    HW226367   4.034   3.358  15.681 -1.3412  0.1615 -0.7797
 4912SOL     OW26368   1.938   0.060  16.716  0.5968 -0.4368  0.2578
 4912SOL    HW126369   1.998   0.124  16.754  0.8177 -0.7213  0.3884
 4912SOL    HW226370   1.956   0.064  16.622  2.2998 -2.7567  0.4806
 4913SOL     OW26371   3.238   1.006  10.212 -0.0641 -0.2670 -0.5376
 4913SOL    HW126372   3.174   0.937  10.229  0.8739 -1.1957 -0.8208
 4913SOL    HW226373   3.245   1.010  10.117  2.7987  1.9404 -0.2160
 4914SOL     OW26374   4.063   2.924  13.672 -0.5305  0.1846  0.9229
 4914SOL    HW126375   3.976   2.948  13.639  0.5798  0.4333 -1.8377
 4914SOL    HW226376   4.049   2.922  13.767  1.5688  1.1719  1.2452
 4915SOL     OW26377   2.906   3.425  15.199 -0.1024  0.2085 -0.9891
 4915SOL    HW126378   2.941   3.341  15.170 -0.1724  0.1546 -0.9202
 4915SOL    HW226379   2.824   3.434  15.151  0.1409 -1.3319 -1.6741
 4916SOL     OW26380   3.526   3.622  17.278  0.3827 -0.5390  0.3347
 4916SOL    HW126381   3.584   3.603  17.351  1.2402  1.7838  0.2325
 4916SOL    HW226382   3.546   3.714  17.264 -1.1518 -0.1859  0.4903
 4917SOL     OW26383   2.602   4.381   7.040  0.0352 -0.2700  0.0618
 4917SOL    HW126384   2.519   4.334   7.036 -1.0403  1.5306  1.0341
 4917SOL    HW226385   2.632   4.379   6.949  0.6768  0.1843  0.2642
 4918SOL     OW26386   1.230   1.615   7.732  0.0837  0.0032 -0.1266
 4918SOL    HW126387   1.157   1.677   7.720  0.7892  1.1718  1.5413
 4918SOL    HW226388   1.268   1.628   7.646 -0.4941 -2.1244 -0.6979
 4919SOL     OW26389   2.594   4.494   6.493 -0.2948 -1.0535  0.0565
 4919SOL    HW126390   2.659   4.560   6.469 -0.2501 -1.3616 -0.6892
 4919SOL    HW226391   2.517   4.551   6.496  1.4925  1.4310 -1.1020
 4920SOL     OW26392   2.210   3.682   2.741  0.7614  0.1317 -0.0523
 4920SOL    HW126393   2.231   3.756   2.685 -1.5874 -1.4168 -2.9378
 4920SOL    HW226394   2.118   3.703   2.755  0.5182  0.0052 -1.5509
 4921SOL     OW26395   2.062   1.730   6.576 -0.0182 -0.6097  0.3014
 4921SOL    HW126396   1.984   1.769   6.616 -0.9188 -2.5833  0.4324
 4921SOL    HW226397   2.029   1.645   6.549 -0.5554 -0.2893 -0.0522
 4922SOL     OW26398   2.070   1.563   1.828  0.2935  0.2311  0.3192
 4922SOL    HW126399   1.985   1.527   1.804 -0.1519  0.3969  1.6383
 4922SOL    HW226400   2.077   1.650   1.790  0.3993  0.7697  1.5559
 4923SOL     OW26401   3.564   3.906   5.289  0.2567  0.1095  0.0615
 4923SOL    HW126402   3.619   3.940   5.360 -0.5926  1.6068  0.0155
 4923SOL    HW226403   3.497   3.974   5.278  0.1546 -0.0865 -0.4977
 4924SOL     OW26404   0.965   3.472   0.056  0.6918  0.2569 -0.0881
 4924SOL    HW126405   0.943   3.490   0.148 -1.1027  2.4419 -0.9526
 4924SOL    HW226406   0.957   3.555   0.010  3.3636  0.0652 -0.9399
 4925SOL     OW26407   2.404   1.636   3.798 -0.2273  0.2433  0.1468
 4925SOL    HW126408   2.494   1.606   3.784 -1.2210 -1.5358 -2.2982
 4925SOL    HW226409   2.350   1.575   3.748 -0.6757 -0.0158  0.9428
 4926SOL     OW26410   2.273   3.280   3.655 -0.2017  0.4063 -0.0377
 4926SOL    HW126411   2.319   3.274   3.739 -0.7921 -2.5866  0.0583
 4926SOL    HW226412   2.181   3.277   3.683 -0.4681  0.2268 -0.9453
 4927SOL     OW26413   2.515   1.508   5.793 -0.2041 -0.0989 -0.4036
 4927SOL    HW126414   2.610   1.524   5.789 -0.2020  0.2684  1.2521
 4927SOL    HW226415   2.508   1.483   5.885  0.8794  0.2092 -0.2346
 4928SOL     OW26416   1.298   0.254  17.002  0.1720 -0.5123 -0.5296
 4928SOL    HW126417   1.365   0.204  16.955  1.6875  0.9003  0.1483
 4928SOL    HW226418   1.263   0.315  16.937  0.0476  0.8495  0.8349
 4929SOL     OW26419   0.119   4.501   1.062 -0.2244 -0.9338 -0.5588
 4929SOL    HW126420   0.090   4.423   1.109 -1.0793  0.6033  1.4406
 4929SOL    HW226421   0.046   4.562   1.064  0.8485  0.2222  3.0003
 4930SOL     OW26422   1.549   3.162   7.262  0.3236  0.5218  0.0858
 4930SOL    HW126423   1.597   3.095   7.310 -1.7709 -1.3263 -0.3443
 4930SOL    HW226424   1.572   3.233   7.320 -0.8665 -0.0197  1.2292
 4931SOL     OW26425   0.230   4.679  15.589 -0.4255  0.0159 -0.4070
 4931SOL    HW126426   0.301   4.655  15.529  0.6035  0.1230  0.7848
 4931SOL    HW226427   0.217   0.032  15.562  0.2830  0.5334  1.0334
 4932SOL     OW26428   0.272   0.194   7.203  0.1490  0.4127 -0.3352
 4932SOL    HW126429   0.320   0.192   7.286  0.4291  1.6875 -0.4648
 4932SOL    HW226430   0.177   0.185   7.216  0.0199  1.8083 -0.3387
 4933SOL     OW26431   4.690   3.127   6.266  0.5092 -0.0694 -0.3309
 4933SOL    HW126432   0.004   3.164   6.337 -0.6587  0.2523  0.3639
 4933SOL    HW226433   4.667   3.044   6.307  1.2399 -1.7238 -3.2305
 4934SOL     OW26434   0.789   1.606   6.028  0.0007  0.1280  0.1878
 4934SOL    HW126435   0.695   1.623   6.024  0.1220  0.7257 -0.0609
 4934SOL    HW226436   0.810   1.547   5.955 -2.4668  0.3759 -0.7235
 4935SOL     OW26437   1.727   4.722  13.005 -0.0972 -0.4613 -0.4815
 4935SOL    HW126438   1.814   4.723  12.966 -0.6708 -0.7881 -1.7581
 4935SOL    HW226439   1.735   4.646  13.063  0.0805 -1.3938 -1.7447
 4936SOL     OW26440   1.245   0.311   1.921  0.0500  0.3701  0.0912
 4936SOL    HW126441   1.198   0.264   1.851 -0.4588  0.9023  0.0823
 4936SOL    HW226442   1.186   0.385   1.934  0.5956  0.3134  2.8003
 4937SOL     OW26443   1.191   1.052   2.480  0.0345  0.4400 -0.0485
 4937SOL    HW126444   1.101   1.049   2.513 -0.4171 -0.7582 -1.4236
 4937SOL    HW226445   1.240   1.093   2.552  0.4865 -0.0813 -0.0541
 4938SOL     OW26446   2.361   4.243  17.609 -0.0972  0.0471 -0.1900
 4938SOL    HW126447   2.315   4.159  17.620  1.3292 -0.8723 -1.3005
 4938SOL    HW226448   2.414   4.228  17.531  0.7905  0.8717  0.2582
 4939SOL     OW26449   3.622   0.307   8.375  0.5997  0.5096 -0.0390
 4939SOL    HW126450   3.701   0.357   8.392  1.1295  0.5693 -2.6210
 4939SOL    HW226451   3.636   0.284   8.283 -0.4194 -2.3090  0.5078
 4940SOL     OW26452   0.998   2.798   4.933 -0.0330  0.7135  0.1813
 4940SOL    HW126453   1.085   2.822   4.900 -0.1450  0.7376 -0.0989
 4940SOL    HW226454   1.006   2.703   4.944 -3.2019  0.1339 -2.3554
 4941SOL     OW26455   4.231   0.819   5.039  0.7092 -0.5743 -0.2885
 4941SOL    HW126456   4.264   0.822   5.129  0.4552 -3.1106 -0.0970
 4941SOL    HW226457   4.307   0.785   4.992  1.8357  1.0694  0.3375
 4942SOL     OW26458   4.627   0.335   3.752  0.0052 -0.0944 -0.6538
 4942SOL    HW126459   4.646   0.417   3.798 -2.2093  0.0634 -0.0338
 4942SOL    HW226460   4.691   0.340   3.680 -0.3012 -1.7246 -1.0465
 4943SOL     OW26461   3.424   3.781   3.853  0.0377  0.2074 -0.0069
 4943SOL    HW126462   3.434   3.846   3.783  1.5342 -1.2525 -1.1456
 4943SOL    HW226463   3.500   3.724   3.844 -0.0902  0.1561 -0.7396
 4944SOL     OW26464   4.203   0.254   5.006  0.1682  0.3171 -0.2416
 4944SOL    HW126465   4.136   0.209   4.956 -0.7567 -1.3116  2.4345
 4944SOL    HW226466   4.241   0.307   4.936 -1.2869 -0.4239 -1.5781
 4945SOL     OW26467   1.246   0.125  10.623 -0.3706  0.1128 -0.2381
 4945SOL    HW126468   1.188   0.050  10.635  0.5424 -0.1745  2.4868
 4945SOL    HW226469   1.324   0.084  10.587 -0.4903 -0.0769 -0.2827
 4946SOL     OW26470   0.272   0.190   4.305 -0.1071 -0.2556 -0.0210
 4946SOL    HW126471   0.232   0.275   4.325  1.8580  0.3610  1.2289
 4946SOL    HW226472   0.292   0.202   4.213  0.5187 -2.3210 -0.1685
 4947SOL     OW26473   3.853   0.092   7.927  0.6247  0.2284  0.7101
 4947SOL    HW126474   3.847   0.034   7.851 -0.3121  0.6530  0.4509
 4947SOL    HW226475   3.932   0.141   7.905  1.1115 -1.3770 -1.1028
 4948SOL     OW26476   4.663   4.275   2.656  0.1264 -0.4718  0.5325
 4948SOL    HW126477   4.629   4.267   2.745 -0.4377  0.1386  0.3709
 4948SOL    HW226478   0.008   4.323   2.663  0.6390 -1.3213  0.2044
 4949SOL     OW26479   3.602   1.657  14.749  0.0583  0.4208 -0.1792
 4949SOL    HW126480   3.660   1.696  14.814 -1.2037  0.6767  0.7999
 4949SOL    HW226481   3.656   1.661  14.670  0.4068 -0.1212  0.0374
 4950SOL     OW26482   4.225   4.371   5.213 -0.3401  0.2266 -0.1556
 4950SOL    HW126483   4.188   4.447   5.258 -1.4646  0.0501 -0.7847
 4950SOL    HW226484   4.253   4.414   5.132  0.1356  1.4560  0.6504
 4951SOL     OW26485   3.803   4.457   5.686  0.3231  0.0530  0.4166
 4951SOL    HW126486   3.715   4.489   5.709  0.2343 -0.1004  0.2856
 4951SOL    HW226487   3.808   4.368   5.720 -1.0236  0.7385  2.4414
 4952SOL     OW26488   3.817   3.232   1.323 -0.4436 -0.0071 -0.6695
 4952SOL    HW126489   3.832   3.273   1.239 -0.6024 -1.2742 -1.3165
 4952SOL    HW226490   3.882   3.162   1.332 -0.5699 -0.2408 -1.5891
 4953SOL     OW26491   3.886   1.426   9.855  0.1822  0.1804 -0.4256
 4953SOL    HW126492   3.973   1.387   9.866  0.5469  1.0283 -0.3693
 4953SOL    HW226493   3.826   1.351   9.861 -0.8206  0.9201 -1.2912
 4954SOL     OW26494   2.353   2.703   6.340  0.2760  0.5208 -0.5630
 4954SOL    HW126495   2.354   2.772   6.274 -2.1035  1.1720  0.0801
 4954SOL    HW226496   2.262   2.675   6.327  1.2438 -1.6872 -2.5400
 4955SOL     OW26497   4.323   1.328   5.247 -0.3894 -0.1347  0.5507
 4955SOL    HW126498   4.341   1.287   5.162  1.0301 -1.1115  1.3286
 4955SOL    HW226499   4.354   1.264   5.311  0.9604 -0.5033 -0.4682
 4956SOL     OW26500   3.948   2.112   1.994 -0.0373  0.6685  0.5483
 4956SOL    HW126501   3.887   2.164   1.942 -0.8462  0.0560  0.8794
 4956SOL    HW226502   4.030   2.124   1.945 -0.5288 -2.5145 -1.0856
 4957SOL     OW26503   4.367   2.376   8.886  0.2291  0.1278 -0.1005
 4957SOL    HW126504   4.418   2.455   8.901 -2.5804  1.6536  1.2574
 4957SOL    HW226505   4.366   2.383   8.790 -1.9209 -1.4711 -0.1955
 4958SOL     OW26506   4.316   3.328  17.585  0.0179  0.1774 -0.0609
 4958SOL    HW126507   4.394   3.273  17.578 -0.7073 -0.7739 -0.6559
 4958SOL    HW226508   4.357   3.414  17.599  2.0185 -0.2393 -3.2771
 4959SOL     OW26509   4.586   1.222   4.090 -0.5201  0.3379  0.0044
 4959SOL    HW126510   4.567   1.283   4.162  0.6844  0.0603  0.5605
 4959SOL    HW226511   4.526   1.245   4.020  0.5189 -0.0832 -1.0182
 4960SOL     OW26512   3.552   2.466   6.921 -0.4429 -0.8104 -0.1051
 4960SOL    HW126513   3.477   2.514   6.957  0.5785  1.4866 -1.0024
 4960SOL    HW226514   3.612   2.540   6.923 -0.2179 -1.0489  1.4084
 4961SOL     OW26515   2.430   3.437   7.692 -0.6586 -0.3053  0.0921
 4961SOL    HW126516   2.441   3.510   7.632  0.5910  0.2717  1.0274
 4961SOL    HW226517   2.367   3.477   7.753 -2.0433 -0.9964 -0.8709
 4962SOL     OW26518   2.482   0.789   4.758  0.0433  0.1703 -0.4157
 4962SOL    HW126519   2.425   0.721   4.720 -0.2562  0.5520 -0.6493
 4962SOL    HW226520   2.452   0.864   4.707 -0.6414  1.4969  1.9332
 4963SOL     OW26521   2.943   0.571   1.997  0.5393 -0.2799  0.1942
 4963SOL    HW126522   2.955   0.556   2.091  1.3233 -1.1028 -0.0295
 4963SOL    HW226523   2.849   0.564   1.981  0.4288  2.0247 -0.1445
 4964SOL     OW26524   3.308   2.759  14.718 -0.9554 -0.1281 -0.8956
 4964SOL    HW126525   3.387   2.705  14.716 -1.2503 -0.5268 -1.8763
 4964SOL    HW226526   3.337   2.833  14.772  0.2627  1.5004 -3.7673
 4965SOL     OW26527   3.953   3.544  13.745 -0.4099 -0.0831 -0.2092
 4965SOL    HW126528   3.963   3.638  13.732  0.1653 -0.0202  0.7171
 4965SOL    HW226529   3.912   3.534  13.830  0.5353  1.9998  0.4828
 4966SOL     OW26530   2.362   2.577   4.243  0.5548 -0.4037 -0.0210
 4966SOL    HW126531   2.374   2.671   4.228 -2.2765  0.1161  0.8963
 4966SOL    HW226532   2.456   2.560   4.240  0.6556  0.2833 -0.8540
 4967SOL     OW26533   1.166   4.647  12.248 -0.1746 -0.5039 -0.3513
 4967SOL    HW126534   1.106   4.694  12.307  0.4695  0.9313 -0.8502
 4967SOL    HW226535   1.230   4.617  12.312 -0.2816  1.4021  0.6457
 4968SOL     OW26536   4.299   4.380   1.534  0.1303  0.0530 -0.2706
 4968SOL    HW126537   4.212   4.419   1.539  0.5831  1.3090 -2.0889
 4968SOL    HW226538   4.293   4.315   1.464  2.4961 -0.2860 -0.1579
 4969SOL     OW26539   4.388   1.091   8.420 -0.1923 -0.3835 -0.3099
 4969SOL    HW126540   4.463   1.036   8.440  0.4543  0.7475  0.3366
 4969SOL    HW226541   4.376   1.126   8.508  1.4940  2.7229 -1.3234
 4970SOL     OW26542   3.339   3.845   5.682  0.4699 -0.6180  0.0805
 4970SOL    HW126543   3.426   3.809   5.701  0.6209 -0.9627 -1.2888
 4970SOL    HW226544   3.349   3.901   5.605 -0.2868  1.3257  1.3949
 4971SOL     OW26545   1.956   4.143   7.213 -0.0053 -0.0206  0.2809
 4971SOL    HW126546   1.870   4.180   7.231 -0.0928 -1.1446  2.1539
 4971SOL    HW226547   1.980   4.096   7.293 -3.6648 -2.7041 -0.2261
 4972SOL     OW26548   0.867   1.827  17.739 -0.2433  0.8167  0.6793
 4972SOL    HW126549   0.936   1.842   0.053  1.8510 -1.5391 -1.0239
 4972SOL    HW226550   0.835   1.745   0.025 -0.5631  0.3932 -0.5751
 4973SOL     OW26551   1.624   0.312   8.805 -0.5843  0.0317 -0.1506
 4973SOL    HW126552   1.652   0.221   8.819 -0.7097 -0.4991 -3.4186
 4973SOL    HW226553   1.700   0.358   8.771  1.9055 -2.6935  1.6725
 4974SOL     OW26554   0.619   2.941   2.950 -0.7369  0.1580  0.0273
 4974SOL    HW126555   0.699   2.913   2.995 -0.6845 -0.4243 -0.4211
 4974SOL    HW226556   0.633   3.035   2.945 -2.2514  0.3621 -0.0888
 4975SOL     OW26557   3.978   1.316  10.414  0.0492  0.3028 -0.5088
 4975SOL    HW126558   3.905   1.368  10.450  0.7531 -0.6186  2.2305
 4975SOL    HW226559   3.979   1.339  10.321  1.7775  0.2291 -0.5114
 4976SOL     OW26560   2.339   0.842  10.054  0.0848  0.0982 -1.0729
 4976SOL    HW126561   2.375   0.757  10.029  0.9105  0.2491 -0.3805
 4976SOL    HW226562   2.246   0.821  10.067  0.4715 -0.6734  0.4375
 4977SOL     OW26563   2.705   4.408  10.110 -0.5740 -0.2230  0.4859
 4977SOL    HW126564   2.754   4.376  10.186  0.4173 -1.0687 -0.5001
 4977SOL    HW226565   2.757   4.369  10.039  0.5337  0.9138  0.6662
 4978SOL     OW26566   2.765   0.889   6.741  0.2992  0.1413 -0.2179
 4978SOL    HW126567   2.777   0.952   6.812  0.9349 -1.2348  0.8983
 4978SOL    HW226568   2.847   0.901   6.693  0.3948 -0.9374 -0.3250
 4979SOL     OW26569   0.709   3.666   6.118  0.0695 -0.0906  0.4026
 4979SOL    HW126570   0.791   3.633   6.153 -1.5130 -2.9683  1.4410
 4979SOL    HW226571   0.643   3.660   6.187  0.6087  1.1973  1.0290
 4980SOL     OW26572   0.198   2.767   7.360 -0.0515 -0.7514 -0.0272
 4980SOL    HW126573   0.227   2.834   7.298 -0.6710  1.9113  2.5287
 4980SOL    HW226574   0.102   2.776   7.357  0.1306  0.8951 -1.2950
 4981SOL     OW26575   2.376   4.140   4.159 -0.0966  0.4798  0.4776
 4981SOL    HW126576   2.330   4.162   4.240  0.6039 -0.1313  1.0450
 4981SOL    HW226577   2.443   4.082   4.197 -0.7737  1.1361  2.6501
 4982SOL     OW26578   1.442   1.305   2.503  0.4205 -0.1519  0.5734
 4982SOL    HW126579   1.443   1.397   2.475  0.0478 -0.3909 -0.2449
 4982SOL    HW226580   1.535   1.284   2.499  0.5321  0.7827 -1.6227
 4983SOL     OW26581   2.150   2.565   8.990  0.1201  0.5571  0.4434
 4983SOL    HW126582   2.129   2.478   9.023  4.3189 -0.5342  0.2095
 4983SOL    HW226583   2.118   2.618   9.064 -1.8810  2.0338 -1.4509
 4984SOL     OW26584   1.315   3.116   8.794  0.1312 -1.0472 -0.2877
 4984SOL    HW126585   1.363   3.089   8.716  2.3865  0.1115  0.6902
 4984SOL    HW226586   1.229   3.134   8.758  0.4399  0.1635 -0.4366
 4985SOL     OW26587   4.623   1.764  10.429 -0.2725  0.6760 -0.2033
 4985SOL    HW126588   4.689   1.822  10.467 -0.7905  1.6511 -0.7777
 4985SOL    HW226589   4.636   1.678  10.468  1.4217  0.6723 -0.7661
 4986SOL     OW26590   1.587   3.028   8.876 -0.3801  0.2560 -0.2374
 4986SOL    HW126591   1.609   3.093   8.943 -2.6669 -0.5100  1.2707
 4986SOL    HW226592   1.491   3.032   8.879 -0.3474 -0.2745  1.4684
 4987SOL     OW26593   1.342   4.623   4.927  0.4148 -0.1197  0.4243
 4987SOL    HW126594   1.297   4.698   4.888 -0.8022 -1.0733 -0.0074
 4987SOL    HW226595   1.294   4.623   5.010  0.8926 -0.1455  0.7036
 4988SOL     OW26596   3.457   1.568   1.720 -0.1087 -0.0682  0.6181
 4988SOL    HW126597   3.528   1.630   1.705 -0.8955  0.7371  0.1902
 4988SOL    HW226598   3.404   1.616   1.784  0.0994 -0.8934  1.4064
 4989SOL     OW26599   2.696   0.493   3.051 -0.4665  0.0374  0.1829
 4989SOL    HW126600   2.723   0.549   2.978 -1.3444 -0.7059 -0.7150
 4989SOL    HW226601   2.651   0.418   3.012 -1.6734  1.5370 -1.3019
 4990SOL     OW26602   1.022   1.942   6.646  0.2704 -0.0411 -0.5810
 4990SOL    HW126603   1.053   1.966   6.559 -1.1155  0.9861 -0.7739
 4990SOL    HW226604   0.945   1.997   6.655  1.3723  1.5166 -0.8097
 4991SOL     OW26605   4.490   0.751   0.992  0.6936  0.2412 -0.1511
 4991SOL    HW126606   4.408   0.707   0.972 -0.1417  1.2444  1.0269
 4991SOL    HW226607   4.546   0.677   1.015  0.7078  0.3925  0.3036
 4992SOL     OW26608   2.230   0.178   7.153 -0.1446  0.2892 -0.2190
 4992SOL    HW126609   2.296   0.111   7.134  0.4124  1.2893 -1.7886
 4992SOL    HW226610   2.147   0.133   7.136 -0.1641 -0.3800  1.6676
 4993SOL     OW26611   2.616   0.902   7.597 -0.2696  0.2781 -0.3273
 4993SOL    HW126612   2.650   0.924   7.684  1.0840 -1.4203 -0.4193
 4993SOL    HW226613   2.640   0.809   7.590 -0.3548 -0.0501  3.4019
 4994SOL     OW26614   0.557   0.335   3.346  0.3703  0.0052  0.5548
 4994SOL    HW126615   0.548   0.275   3.421  0.0790  0.9858  1.3080
 4994SOL    HW226616   0.647   0.358   3.370 -0.3528  1.3594  2.0214
 4995SOL     OW26617   2.675   4.491   9.419 -0.1723 -0.6430  0.1100
 4995SOL    HW126618   2.734   4.546   9.471 -1.7067  1.5728 -0.5048
 4995SOL    HW226619   2.638   4.443   9.493  0.8171 -3.0700 -0.9998
 4996SOL     OW26620   1.077   4.276   7.014 -0.2333 -0.0572 -0.2769
 4996SOL    HW126621   1.107   4.186   7.025 -0.9650 -0.5031 -1.9265
 4996SOL    HW226622   1.125   4.304   6.936 -0.8971 -0.3733 -0.7970
 4997SOL     OW26623   0.443   0.758   6.430 -0.2174 -0.0416  0.3677
 4997SOL    HW126624   0.524   0.795   6.466  0.5716 -1.1644 -0.2757
 4997SOL    HW226625   0.447   0.672   6.471  2.0372 -0.5189 -0.8266
 4998SOL     OW26626   4.674   2.911  13.511 -0.0212  0.2631 -0.3442
 4998SOL    HW126627   4.688   2.951  13.597 -0.1778  1.7777 -1.0347
 4998SOL    HW226628   0.008   2.958  13.469  0.9161 -0.0946  0.8546
 4999SOL     OW26629   2.286   4.498   2.415 -0.5601 -0.4879  0.1656
 4999SOL    HW126630   2.343   4.493   2.491  0.1864  1.5404 -0.2545
 4999SOL    HW226631   2.266   4.406   2.396 -1.9785 -0.3213  0.8416
 5000SOL     OW26632   2.096   0.673   3.547 -0.3031  0.1968 -0.0529
 5000SOL    HW126633   2.073   0.677   3.454 -0.3033 -0.4127 -0.0733
 5000SOL    HW226634   2.115   0.580   3.558 -1.7926 -0.1905 -0.7645
 5001SOL     OW26635   1.204   1.246   4.228  0.2336 -0.3117 -0.1267
 5001SOL    HW126636   1.217   1.249   4.133 -2.4502 -0.4885 -0.4895
 5001SOL    HW226637   1.273   1.185   4.254 -0.9056 -0.3789  2.6547
 5002SOL     OW26638   1.683   4.110   6.394 -0.3449 -0.2859 -0.4172
 5002SOL    HW126639   1.606   4.155   6.429  0.3392  1.3912 -1.1077
 5002SOL    HW226640   1.643   4.063   6.320  3.3644 -3.7554 -0.1809
 5003SOL     OW26641   2.121   2.334   3.318  0.1155  0.3765  0.7223
 5003SOL    HW126642   2.196   2.296   3.272 -1.3191 -1.7393  0.1763
 5003SOL    HW226643   2.158   2.342   3.406  1.4895  1.9645  0.0083
 5004SOL     OW26644   0.100   1.098   2.294  0.3882 -1.1681  0.0061
 5004SOL    HW126645   0.105   1.190   2.321 -1.2269 -1.4021  1.1445
 5004SOL    HW226646   0.170   1.056   2.344 -1.4485 -2.3176  1.6290
 5005SOL     OW26647   0.656   3.729   3.804 -0.3752 -0.5730  0.3319
 5005SOL    HW126648   0.739   3.742   3.850 -0.6762  0.7228  0.5068
 5005SOL    HW226649   0.605   3.698   3.878 -0.0615  0.3838  0.9477
 5006SOL     OW26650   1.955   3.882  15.058 -0.5373 -0.3130 -0.3430
 5006SOL    HW126651   1.917   3.802  15.021 -0.9616  0.1299 -0.8701
 5006SOL    HW226652   2.030   3.856  15.111 -0.8117  2.0422  1.1987
 5007SOL     OW26653   3.730   1.165   5.310 -0.0338 -0.6045  0.1542
 5007SOL    HW126654   3.688   1.085   5.343 -0.9118  1.2267  3.4891
 5007SOL    HW226655   3.666   1.208   5.253 -0.3581 -0.1291  0.8690
 5008SOL     OW26656   2.502   4.189   9.008  0.0019 -0.3015  0.9206
 5008SOL    HW126657   2.421   4.206   8.960  0.1711  0.6498  0.9676
 5008SOL    HW226658   2.533   4.104   8.977  3.3984  1.7559 -1.1912
 5009SOL     OW26659   2.818   1.744  14.299  0.2535 -0.4695 -0.2452
 5009SOL    HW126660   2.740   1.715  14.347 -1.4338  0.8098 -2.1880
 5009SOL    HW226661   2.826   1.676  14.233  2.0422 -1.4843  1.0087
 5010SOL     OW26662   0.508   1.835   2.321 -0.0736 -0.8201  0.4253
 5010SOL    HW126663   0.585   1.811   2.269 -0.1378  0.6399 -0.3444
 5010SOL    HW226664   0.445   1.854   2.252  1.0832  0.2824 -0.3347
 5011SOL     OW26665   0.893   0.233   9.334  0.3460 -0.5763  0.0533
 5011SOL    HW126666   0.815   0.277   9.301  1.0999  1.0715  0.4556
 5011SOL    HW226667   0.914   0.293   9.406 -1.7371 -0.5222  0.6080
 5012SOL     OW26668   4.617   1.705  16.661 -0.2461  0.0629 -0.0578
 5012SOL    HW126669   4.582   1.632  16.712 -0.7699  0.4607  0.1587
 5012SOL    HW226670   4.703   1.668  16.641  1.0499  2.5667  0.9610
 5013SOL     OW26671   4.597   2.440  10.497 -0.0788  0.3660 -0.0550
 5013SOL    HW126672   4.521   2.490  10.465 -1.3679 -1.4071  0.2104
 5013SOL    HW226673   4.566   2.356  10.462 -2.0390  0.3089  1.8378
 5014SOL     OW26674   0.595   2.561   8.143 -0.1908  0.1233 -0.1865
 5014SOL    HW126675   0.563   2.646   8.112 -0.7330  0.2867  0.8351
 5014SOL    HW226676   0.666   2.598   8.195 -1.1603  0.0972  1.1294
 5015SOL     OW26677   3.741   4.472   8.853 -0.2182  0.0610  0.1193
 5015SOL    HW126678   3.654   4.510   8.858  0.2505  1.2697 -0.8681
 5015SOL    HW226679   3.757   4.474   8.948 -1.9786 -1.2722  0.4510
 5016SOL     OW26680   2.516   0.951   3.762  0.0071 -0.3800 -0.3427
 5016SOL    HW126681   2.460   0.873   3.760 -0.4675 -0.1225  2.3404
 5016SOL    HW226682   2.494   0.976   3.852 -2.5322  0.0976 -1.0847
 5017SOL     OW26683   1.511   4.693   9.511 -0.2707 -0.2903 -0.5540
 5017SOL    HW126684   1.505   0.004   9.593 -1.6699  1.7163 -1.8366
 5017SOL    HW226685   1.480   0.023   9.451 -2.5172  0.1735  1.1453
 5018SOL     OW26686   2.801   2.993   5.588 -0.5709  0.4088  0.4298
 5018SOL    HW126687   2.858   2.982   5.511 -1.8635 -0.7438 -0.3639
 5018SOL    HW226688   2.739   2.922   5.573  0.5175 -0.0464 -1.9646
 5019SOL     OW26689   3.977   0.397   7.489 -0.0990  0.4755 -0.0404
 5019SOL    HW126690   3.926   0.362   7.563 -0.8152 -0.6768 -1.0903
 5019SOL    HW226691   4.060   0.420   7.530  0.8206 -2.2980 -0.3429
 5020SOL     OW26692   1.563   1.190   5.208  0.3617 -0.0867 -0.0192
 5020SOL    HW126693   1.559   1.204   5.113 -1.7590  1.9473  0.3656
 5020SOL    HW226694   1.545   1.096   5.213  0.3304 -0.1096 -0.5428
 5021SOL     OW26695   0.594   2.130  16.626  0.3396  0.5339 -0.0107
 5021SOL    HW126696   0.508   2.093  16.645  1.2889 -2.2612 -1.1525
 5021SOL    HW226697   0.587   2.214  16.672 -2.5805 -0.1178  0.7245
 5022SOL     OW26698   1.089   3.656   6.500  0.4456  0.0070 -0.2480
 5022SOL    HW126699   1.116   3.748   6.496 -1.1147  0.5146  0.8268
 5022SOL    HW226700   1.175   3.618   6.481 -0.0544 -0.8331 -0.8151
 5023SOL     OW26701   2.523   3.001  11.316  0.1024  0.0045  0.0897
 5023SOL    HW126702   2.522   2.930  11.381 -1.6559 -0.5107 -0.5056
 5023SOL    HW226703   2.475   2.963  11.242 -0.1128  1.5978 -0.5767
 5024SOL     OW26704   2.314   0.251   9.363 -0.5537  0.3101  0.0980
 5024SOL    HW126705   2.350   0.163   9.368 -1.9857 -0.3864 -1.8334
 5024SOL    HW226706   2.305   0.247   9.267  2.7711  0.5186 -0.2080
 5025SOL     OW26707   0.773   0.342   3.477  0.1889  0.4722 -0.1160
 5025SOL    HW126708   0.789   0.251   3.503 -0.9816  0.5392  0.8823
 5025SOL    HW226709   0.765   0.397   3.556  1.5187  0.5783 -0.0580
 5026SOL     OW26710   4.127   0.701   3.776  0.4564  0.5970 -0.1575
 5026SOL    HW126711   4.052   0.649   3.747  0.5096  0.3553  0.1368
 5026SOL    HW226712   4.127   0.764   3.705 -0.0223  0.7685 -0.0073
 5027SOL     OW26713   1.721   4.513  10.231  0.2478  0.3297  0.2300
 5027SOL    HW126714   1.752   4.499  10.320  0.3044  0.3885  0.2190
 5027SOL    HW226715   1.785   4.464  10.179 -0.0391  0.1836  0.0105
 5028SOL     OW26716   3.435   3.980  10.670  0.0810 -0.2384 -0.6147
 5028SOL    HW126717   3.393   3.971  10.755  1.6313 -0.7882  0.1057
 5028SOL    HW226718   3.527   3.986  10.697 -0.0850  0.7818 -0.2829
 5029SOL     OW26719   1.555   3.990   3.691  0.6032  0.1858 -0.4457
 5029SOL    HW126720   1.523   3.915   3.641 -1.8024  1.0142 -0.1317
 5029SOL    HW226721   1.630   4.010   3.636  0.7702 -0.1737 -0.3496
 5030SOL     OW26722   4.590   2.342   3.476  0.2337  0.1216  0.1881
 5030SOL    HW126723   4.549   2.373   3.557  1.3099  1.9580  0.0207
 5030SOL    HW226724   4.683   2.331   3.494  0.3320  1.0526  0.2320
 5031SOL     OW26725   1.866   3.829   8.873 -0.0430 -0.1675 -0.2813
 5031SOL    HW126726   1.952   3.836   8.832  0.8098 -0.7065  1.4144
 5031SOL    HW226727   1.848   3.919   8.899  2.2465 -0.0031  0.7074
 5032SOL     OW26728   1.719   3.419   5.328  0.4023  0.0555  0.2614
 5032SOL    HW126729   1.772   3.495   5.302  0.9738 -0.6716 -0.6846
 5032SOL    HW226730   1.648   3.427   5.264  0.7567  1.8677  0.0794
 5033SOL     OW26731   0.240   4.121   7.754 -0.4607 -0.4203 -0.3024
 5033SOL    HW126732   0.195   4.110   7.670 -0.3287  3.0142 -0.8007
 5033SOL    HW226733   0.244   4.030   7.783 -0.4001 -0.2922  0.0887
 5034SOL     OW26734   0.372   3.335  15.280  0.3488 -0.2861 -0.2356
 5034SOL    HW126735   0.434   3.279  15.234 -0.4714 -0.0450 -1.6218
 5034SOL    HW226736   0.335   3.266  15.336  2.6801 -2.0410 -0.8667
 5035SOL     OW26737   0.461   1.157  14.747 -0.7352  0.2970 -0.5658
 5035SOL    HW126738   0.458   1.247  14.713  1.3636 -0.6208 -3.1779
 5035SOL    HW226739   0.544   1.128  14.709  0.2984  1.9387  0.4884
 5036SOL     OW26740   3.642   0.408  11.717  0.4230 -0.5300  0.5510
 5036SOL    HW126741   3.590   0.328  11.708 -0.7574  0.4118 -0.8494
 5036SOL    HW226742   3.697   0.392  11.794  2.9870  0.9912 -0.9545
 5037SOL     OW26743   3.000   0.604   9.462  0.3156 -0.2700  0.1289
 5037SOL    HW126744   2.989   0.688   9.417 -0.9948 -0.3606  0.2863
 5037SOL    HW226745   3.095   0.606   9.469  0.5581  0.5990 -3.2848
 5038SOL     OW26746   4.550   1.916  12.689  0.5980  0.6669 -0.2022
 5038SOL    HW126747   4.629   1.964  12.714  1.3768 -0.6467 -0.1339
 5038SOL    HW226748   4.493   1.928  12.765 -1.3586 -0.4709 -1.4974
 5039SOL     OW26749   0.703   1.927   8.064 -0.2507  0.2930 -0.3727
 5039SOL    HW126750   0.627   1.880   8.099  1.5147 -0.5883  2.3043
 5039SOL    HW226751   0.715   1.989   8.137 -2.7569  0.6868 -0.2898
 5040SOL     OW26752   4.148   2.847   5.138 -0.4408 -0.1148  0.0066
 5040SOL    HW126753   4.161   2.903   5.062 -0.0673 -2.0771 -1.3938
 5040SOL    HW226754   4.097   2.777   5.096  2.1708 -1.6015 -0.6794
 5041SOL     OW26755   1.786   3.637   4.930  0.1685  0.4639 -0.6634
 5041SOL    HW126756   1.822   3.600   5.010 -2.3927  0.5403  0.5323
 5041SOL    HW226757   1.810   3.567   4.869  0.8969  0.9777 -0.9572
 5042SOL     OW26758   4.244   1.133   5.610  0.3700 -0.4283 -0.1533
 5042SOL    HW126759   4.175   1.198   5.613 -1.1251 -1.9972 -0.9283
 5042SOL    HW226760   4.302   1.171   5.677  1.1629 -0.3675 -0.8753
 5043SOL     OW26761   0.156   2.421   7.223 -0.1702  0.1406 -0.4517
 5043SOL    HW126762   0.239   2.443   7.179  0.8495 -1.8033  0.5036
 5043SOL    HW226763   0.100   2.490   7.186 -0.4765  1.3467  2.2450
 5044SOL     OW26764   2.404   1.875  16.608 -0.0781  0.4011  0.0024
 5044SOL    HW126765   2.458   1.912  16.678 -2.2261 -0.8033  2.2924
 5044SOL    HW226766   2.373   1.790  16.639  1.2948  0.0683  0.4517
 5045SOL     OW26767   2.579   1.558   7.120  0.1414  0.1283 -0.2129
 5045SOL    HW126768   2.646   1.615   7.082 -0.0080  0.4143 -0.0524
 5045SOL    HW226769   2.495   1.596   7.096 -0.6220 -2.0355 -0.9126
 5046SOL     OW26770   0.317   4.370   3.464  0.0641 -0.0267  0.2038
 5046SOL    HW126771   0.274   4.454   3.447  0.2606  0.2397  0.9911
 5046SOL    HW226772   0.397   4.394   3.511  1.7375 -0.7528 -2.3126
 5047SOL     OW26773   1.863   4.603  14.166  0.1013  0.5142  0.1398
 5047SOL    HW126774   1.875   4.685  14.118 -1.0097  0.2256 -0.6261
 5047SOL    HW226775   1.804   4.628  14.237  0.4522  0.3952  0.4773
 5048SOL     OW26776   1.883   4.534   4.698 -0.1500  0.2782 -0.3192
 5048SOL    HW126777   1.827   4.459   4.676  0.8883 -0.6640  0.2321
 5048SOL    HW226778   1.943   4.531   4.623  0.6829  1.8561  0.2829
 5049SOL     OW26779   2.273   3.008   5.049  0.0415 -0.3110  0.3006
 5049SOL    HW126780   2.271   2.913   5.035 -0.6665 -0.2045 -0.3349
 5049SOL    HW226781   2.305   3.013   5.139 -2.4319 -0.8790  1.2316
 5050SOL     OW26782   2.423   3.820   8.654 -0.4068  0.0533  0.5399
 5050SOL    HW126783   2.395   3.907   8.628  2.5786  0.3724 -1.5872
 5050SOL    HW226784   2.342   3.782   8.689 -0.4045  0.5739  1.1204
 5051SOL     OW26785   3.220   1.306   7.292  0.3673  0.2582 -0.3803
 5051SOL    HW126786   3.225   1.359   7.372 -2.0395  0.9175 -0.6541
 5051SOL    HW226787   3.245   1.375   7.231 -1.4858  1.4057  0.1502
 5052SOL     OW26788   3.212   3.732   7.266 -0.0903  0.3285 -0.0589
 5052SOL    HW126789   3.157   3.810   7.274 -0.1468  0.6100 -3.0356
 5052SOL    HW226790   3.286   3.750   7.323  0.6246 -1.1625 -0.5178
 5053SOL     OW26791   1.421   0.996   5.455  0.1145  0.7315 -0.2006
 5053SOL    HW126792   1.466   0.929   5.506 -1.7742 -1.7469 -1.8015
 5053SOL    HW226793   1.470   0.995   5.373 -0.5419  0.8681 -0.5894
 5054SOL     OW26794   2.982   3.603   2.836 -0.1741 -0.1037 -0.4644
 5054SOL    HW126795   3.036   3.608   2.757  0.3798  0.7402 -0.0370
 5054SOL    HW226796   3.042   3.563   2.900  1.0713  1.4416 -0.6531
 5055SOL     OW26797   1.690   4.356   5.177 -0.1542  0.4038 -0.0716
 5055SOL    HW126798   1.631   4.282   5.164  0.1611  0.4213 -1.6548
 5055SOL    HW226799   1.658   4.419   5.112  1.2853 -0.1376 -1.3053
 5056SOL     OW26800   1.500   1.298   8.159 -0.0597  0.0731  0.4091
 5056SOL    HW126801   1.482   1.331   8.248 -0.2356  0.2686  0.3001
 5056SOL    HW226802   1.415   1.272   8.126  0.5951 -1.0772 -0.3459
 5057SOL     OW26803   2.180   1.340   1.554 -0.1740 -0.2514  0.0269
 5057SOL    HW126804   2.154   1.318   1.644  0.8327  1.6565  0.7842
 5057SOL    HW226805   2.105   1.394   1.530 -1.2325 -1.3486  0.8311
 5058SOL     OW26806   1.621   4.412   3.992 -0.3943  0.1575 -0.1206
 5058SOL    HW126807   1.526   4.424   3.998 -0.4858 -2.6364  3.7087
 5058SOL    HW226808   1.636   4.335   4.047  0.0641  0.9598  0.8647
 5059SOL     OW26809   0.480   3.661   9.462  0.1487 -0.1786  0.4101
 5059SOL    HW126810   0.421   3.634   9.532 -0.1641 -2.4507 -0.7512
 5059SOL    HW226811   0.431   3.627   9.388 -1.8524  0.2864  1.5222
 5060SOL     OW26812   0.688   0.907   8.219 -0.1035 -0.0976 -0.1677
 5060SOL    HW126813   0.727   0.988   8.251  3.3499 -2.1449  0.7160
 5060SOL    HW226814   0.623   0.940   8.156 -0.5200  0.0661  0.3413
 5061SOL     OW26815   4.552   1.528   2.023  0.5003  0.6077 -0.1935
 5061SOL    HW126816   4.568   1.457   1.961 -1.2305  1.9755 -2.2556
 5061SOL    HW226817   4.616   1.595   1.998  1.9474  0.4636  3.1701
 5062SOL     OW26818   2.243   1.944   2.404 -0.0089  0.3102 -1.0389
 5062SOL    HW126819   2.243   1.858   2.446 -1.9459  0.7275 -0.1944
 5062SOL    HW226820   2.174   1.937   2.338  0.0928 -1.2579 -0.9762
 5063SOL     OW26821   1.581   3.103   7.861  0.3773  0.5184 -0.0680
 5063SOL    HW126822   1.570   3.074   7.952  0.4706 -0.5831 -0.4062
 5063SOL    HW226823   1.519   3.175   7.853  0.1220  0.1378 -1.4594
 5064SOL     OW26824   0.112   4.535   6.649  0.0888 -0.4391 -0.0205
 5064SOL    HW126825   0.059   4.539   6.569 -1.2587 -1.3814  0.8057
 5064SOL    HW226826   0.196   4.572   6.622 -1.1998  1.2619 -1.6720
 5065SOL     OW26827   1.012   1.007   1.501  0.7720  0.2861 -0.2642
 5065SOL    HW126828   1.097   1.047   1.485  0.6940  0.9220  0.9230
 5065SOL    HW226829   0.949   1.077   1.518 -0.9434 -1.7802  1.8948
 5066SOL     OW26830   3.815   2.890   7.740 -0.2679  0.1229 -0.3838
 5066SOL    HW126831   3.721   2.878   7.726 -0.2396  0.0388 -0.5039
 5066SOL    HW226832   3.830   2.850   7.826  0.2891 -1.3684 -1.1727
 5067SOL     OW26833   2.197   4.304   2.882  0.0922  0.1535  0.0182
 5067SOL    HW126834   2.274   4.277   2.932 -0.0442  1.6162  0.9853
 5067SOL    HW226835   2.214   4.254   2.802 -0.8991  1.0494 -0.7483
 5068SOL     OW26836   0.536   0.272   6.271 -1.0633 -0.5035  0.3246
 5068SOL    HW126837   0.578   0.188   6.253 -0.1701 -0.2273  1.1052
 5068SOL    HW226838   0.617   0.323   6.264 -0.7158 -0.6665  2.8902
 5069SOL     OW26839   2.200   3.196  15.985  0.3656 -0.0602  0.4237
 5069SOL    HW126840   2.114   3.168  15.956 -0.3812  1.0545  1.5492
 5069SOL    HW226841   2.232   3.227  15.900 -0.5710 -1.6545 -0.5097
 5070SOL     OW26842   3.167   2.100   3.634  0.2586 -0.0131  0.0652
 5070SOL    HW126843   3.143   2.100   3.727 -0.1338  0.8277 -0.0343
 5070SOL    HW226844   3.090   2.135   3.590  0.7449  1.4038  0.3221
 5071SOL     OW26845   1.241   2.372   7.247  0.1667  0.4423  0.1217
 5071SOL    HW126846   1.314   2.434   7.252 -0.9224  1.8036 -0.6731
 5071SOL    HW226847   1.262   2.314   7.173  0.3744 -0.2879  0.7560
 5072SOL     OW26848   3.655   2.953   9.293 -0.0498 -0.1051 -0.7446
 5072SOL    HW126849   3.619   2.874   9.334 -0.7312  0.4295 -0.3054
 5072SOL    HW226850   3.579   3.008   9.274 -0.0577  0.0504 -0.2710
 5073SOL     OW26851   0.272   4.216  12.865 -0.6136 -0.6489  0.4855
 5073SOL    HW126852   0.349   4.269  12.842 -0.1378 -1.9148 -0.8575
 5073SOL    HW226853   0.276   4.139  12.808 -1.1739 -0.2206 -0.1199
 5074SOL     OW26854   2.535   0.853   5.020 -0.3477 -0.7748 -0.1642
 5074SOL    HW126855   2.492   0.774   5.051  0.0832 -0.9669 -0.0575
 5074SOL    HW226856   2.512   0.846   4.927 -1.2716 -0.5656  0.0575
 5075SOL     OW26857   4.301   4.021   3.654 -0.0067 -0.2380 -0.1720
 5075SOL    HW126858   4.237   4.065   3.599  0.0046  1.8280  1.4721
 5075SOL    HW226859   4.384   4.049   3.616  0.1212 -1.7612 -1.0176
 5076SOL     OW26860   3.921   4.578   4.622  0.0878  0.1967 -0.6226
 5076SOL    HW126861   3.867   4.558   4.698 -0.4902 -0.4782 -1.2123
 5076SOL    HW226862   3.992   4.514   4.622  0.2719  0.3965 -1.1175
 5077SOL     OW26863   3.902   3.031   5.010 -0.4090 -0.4235  0.0465
 5077SOL    HW126864   3.823   3.040   4.958  1.1084 -1.4227 -2.4294
 5077SOL    HW226865   3.912   3.120   5.044 -0.1887 -0.2004 -0.6120
 5078SOL     OW26866   2.753   1.757  12.308  0.0108 -0.6006  0.0551
 5078SOL    HW126867   2.703   1.719  12.381  0.5560  0.1403  0.8086
 5078SOL    HW226868   2.821   1.805  12.355  0.1592  2.4102 -3.3172
 5079SOL     OW26869   3.894   1.243  11.984  0.0803 -0.0011 -0.5692
 5079SOL    HW126870   3.827   1.297  11.942  0.5262  0.7040 -0.3746
 5079SOL    HW226871   3.941   1.201  11.912 -1.0929 -1.1315 -0.6820
 5080SOL     OW26872   2.819   1.369   8.461 -0.4233 -0.2275 -0.3976
 5080SOL    HW126873   2.878   1.295   8.472 -0.4951 -0.2292 -0.0077
 5080SOL    HW226874   2.791   1.358   8.370 -0.7408 -2.2234 -0.0523
 5081SOL     OW26875   2.215   3.965  14.927 -0.1820  0.1177  0.1718
 5081SOL    HW126876   2.169   3.957  15.011 -1.4804  0.0107 -0.5417
 5081SOL    HW226877   2.160   4.038  14.898 -1.5838 -2.3032 -3.2358
 5082SOL     OW26878   4.188   0.936   3.588  0.4120 -0.2068 -0.0347
 5082SOL    HW126879   4.267   0.964   3.542 -0.5806  1.9209 -0.4186
 5082SOL    HW226880   4.155   1.026   3.586 -1.5784 -0.9844 -1.5612
 5083SOL     OW26881   1.139   0.908   4.468  0.5887  0.1626 -0.5570
 5083SOL    HW126882   1.122   0.990   4.515  0.2892 -0.2817  0.1071
 5083SOL    HW226883   1.220   0.885   4.513  0.5998  0.8192 -0.2303
 5084SOL     OW26884   1.927   0.985  10.736 -0.1930 -0.0774  0.6117
 5084SOL    HW126885   1.840   0.946  10.726 -0.7926  1.5618 -0.5323
 5084SOL    HW226886   1.929   0.999  10.830 -2.9143 -0.8079  0.7751
 5085SOL     OW26887   4.362   2.790   4.150 -0.1775  0.7836  0.0776
 5085SOL    HW126888   4.333   2.756   4.235 -1.8561 -0.3888 -0.9493
 5085SOL    HW226889   4.456   2.797   4.166 -0.2685 -0.6348  1.1782
 5086SOL     OW26890   2.636   4.546   7.239 -0.7502  0.4149 -0.1495
 5086SOL    HW126891   2.727   4.560   7.212 -0.9826  0.6998 -0.7705
 5086SOL    HW226892   2.615   4.474   7.180  0.6556  0.7966 -1.1177
 5087SOL     OW26893   3.805   0.859   2.378 -0.0453 -0.0469  0.9244
 5087SOL    HW126894   3.775   0.770   2.396  0.8544 -0.0641  2.3056
 5087SOL    HW226895   3.722   0.907   2.377  0.2961  0.4903 -1.4727
 5088SOL     OW26896   3.978   2.878  10.486 -0.1562 -0.1827 -0.0373
 5088SOL    HW126897   4.011   2.881  10.576  0.2958  0.5996 -0.2274
 5088SOL    HW226898   3.898   2.827  10.499 -0.0521  0.0409  1.4472
 5089SOL     OW26899   4.480   3.424   0.264  0.2555  0.3707  0.2747
 5089SOL    HW126900   4.445   3.413   0.352 -1.6158  0.1632 -0.4851
 5089SOL    HW226901   4.556   3.366   0.263  1.1768  1.6063 -1.1139
 5090SOL     OW26902   3.924   4.178   5.723  0.0691 -0.6007  0.2899
 5090SOL    HW126903   3.890   4.089   5.718  1.2792 -1.1338  1.5645
 5090SOL    HW226904   4.006   4.171   5.674 -1.3925 -1.5747 -2.0249
 5091SOL     OW26905   3.475   2.419   3.499  0.0577 -0.2145 -0.4716
 5091SOL    HW126906   3.453   2.331   3.530 -0.8735 -0.0135 -0.5640
 5091SOL    HW226907   3.570   2.419   3.489  0.2906  1.1185  1.7410
 5092SOL     OW26908   3.886   4.364   8.400  0.1014 -0.1137  0.5817
 5092SOL    HW126909   3.819   4.400   8.459 -0.9724 -1.0665 -0.0489
 5092SOL    HW226910   3.935   4.307   8.459  1.4183  2.4313  1.9514
 5093SOL     OW26911   2.569   3.378   2.435  0.4817 -0.0865  0.3838
 5093SOL    HW126912   2.524   3.341   2.511  0.1934  1.0692  0.7810
 5093SOL    HW226913   2.501   3.433   2.395  0.5869  0.3217  0.7608
 5094SOL     OW26914   1.152   3.315  16.165 -0.5060 -0.0144 -0.3557
 5094SOL    HW126915   1.062   3.331  16.138 -0.5072 -0.1715 -0.4424
 5094SOL    HW226916   1.188   3.255  16.100  0.6822  3.3777 -2.8459
 5095SOL     OW26917   3.159   2.685   7.838 -0.3918 -0.2005 -0.3227
 5095SOL    HW126918   3.226   2.689   7.906 -1.2148 -1.5516  0.5739
 5095SOL    HW226919   3.110   2.617   7.884 -0.7682  0.3444  0.0834
 5096SOL     OW26920   3.649   3.305   4.296  0.0901  0.1272  0.2321
 5096SOL    HW126921   3.610   3.249   4.363 -0.2686 -0.7341 -0.6933
 5096SOL    HW226922   3.707   3.246   4.248  0.1453 -1.0337  1.7106
 5097SOL     OW26923   3.863   0.440   5.846  0.3428 -0.6652  0.1678
 5097SOL    HW126924   3.946   0.396   5.831  1.5190  0.6531  2.7488
 5097SOL    HW226925   3.906   0.525   5.843 -1.5251  0.1097 -4.5446
 5098SOL     OW26926   0.923   4.098   3.861 -0.6713  0.2264 -0.7607
 5098SOL    HW126927   0.874   4.080   3.941  1.3471 -0.9294  0.2235
 5098SOL    HW226928   0.998   4.041   3.878 -2.0498 -1.3769 -0.0186
 5099SOL     OW26929   0.161   0.747  17.606 -0.2609 -0.5031 -0.7424
 5099SOL    HW126930   0.077   0.781  17.635 -0.2779 -3.2036  2.3629
 5099SOL    HW226931   0.187   0.823  17.553  0.2222  0.3118  0.6833
 5100SOL     OW26932   3.004   4.275   5.055  0.0997  0.0187  0.3337
 5100SOL    HW126933   3.020   4.289   5.149  0.8036  0.3549  0.1656
 5100SOL    HW226934   2.909   4.268   5.062  0.3892 -0.0046  4.4449
 5101SOL     OW26935   2.487   0.345   4.853 -0.3146  0.4826  0.0858
 5101SOL    HW126936   2.571   0.324   4.893 -1.3560 -2.1739  0.8285
 5101SOL    HW226937   2.521   0.356   4.764 -2.3163 -1.7136 -0.9478
 5102SOL     OW26938   1.182   0.135   7.382 -0.3205 -0.5572 -0.0583
 5102SOL    HW126939   1.272   0.167   7.391 -0.1536 -0.4295 -2.2073
 5102SOL    HW226940   1.188   0.053   7.332  0.0968 -0.6841  0.1959
 5103SOL     OW26941   0.062   2.041   6.637  0.4551 -0.2959  0.7366
 5103SOL    HW126942   0.051   2.127   6.678 -2.0723 -0.3348  0.1499
 5103SOL    HW226943   4.735   1.990   6.685 -0.7535  1.8540  1.3982
 5104SOL     OW26944   2.940   0.717   8.611  0.1708  0.2540 -0.0165
 5104SOL    HW126945   3.025   0.720   8.656 -0.5797  0.6135  1.3770
 5104SOL    HW226946   2.979   0.684   8.531  0.3506 -1.8806  0.9414
 5105SOL     OW26947   3.033   3.801   8.679  0.3869  0.2187 -0.3616
 5105SOL    HW126948   2.941   3.794   8.703  0.4676 -0.6597 -0.3125
 5105SOL    HW226949   3.072   3.755   8.753 -1.0034 -0.3010  0.0398
 5106SOL     OW26950   1.638   4.227  13.534 -0.1688  0.3089 -0.2660
 5106SOL    HW126951   1.675   4.159  13.479  1.0051  0.8018 -0.0795
 5106SOL    HW226952   1.566   4.177  13.573  1.2319 -1.9134 -0.5698
 5107SOL     OW26953   1.554   0.715  12.139 -0.0704  0.2644  0.2849
 5107SOL    HW126954   1.600   0.725  12.056 -0.6533  0.0556 -0.0645
 5107SOL    HW226955   1.523   0.624  12.137 -0.8644  0.5402  0.2515
 5108SOL     OW26956   1.684   1.580   6.571 -0.3260  0.0342  1.1778
 5108SOL    HW126957   1.631   1.529   6.510 -0.7287  2.8740 -0.8312
 5108SOL    HW226958   1.629   1.655   6.591 -0.2733  0.3489  0.1511
 5109SOL     OW26959   0.536   0.888   5.485 -0.3227 -0.2368  0.0511
 5109SOL    HW126960   0.604   0.952   5.466 -0.0065 -1.0525 -1.5825
 5109SOL    HW226961   0.572   0.818   5.430  1.2623 -0.1458  0.9964
 5110SOL     OW26962   1.446   2.408   3.775 -0.2562 -0.2371  0.1761
 5110SOL    HW126963   1.468   2.358   3.854 -1.3737 -1.0201 -0.0016
 5110SOL    HW226964   1.392   2.343   3.730  1.4176  0.3248 -2.6305
 5111SOL     OW26965   2.878   4.481   1.334 -0.3169 -0.2690 -0.0605
 5111SOL    HW126966   2.808   4.513   1.277 -1.5104  0.8751  2.0790
 5111SOL    HW226967   2.911   4.568   1.358 -0.4083  0.3596 -2.1520
 5112SOL     OW26968   2.265   2.403   8.798  0.0771 -0.7200  0.1948
 5112SOL    HW126969   2.213   2.331   8.762 -0.5688  0.9604 -2.1906
 5112SOL    HW226970   2.208   2.431   8.869 -1.9170 -2.8808 -0.5362
 5113SOL     OW26971   2.090   0.787   7.029  0.2257 -0.2049  0.0117
 5113SOL    HW126972   2.017   0.814   6.974 -0.2972 -3.8585 -1.0929
 5113SOL    HW226973   2.043   0.735   7.095  0.2952  2.3056  2.0348
 5114SOL     OW26974   4.588   3.423   4.279 -0.5111 -0.4655  0.2199
 5114SOL    HW126975   4.537   3.500   4.306  0.4461 -0.4303  1.9189
 5114SOL    HW226976   4.598   3.443   4.186  0.1530 -0.5425  0.2778
 5115SOL     OW26977   3.023   2.179   5.318  0.1630  0.0677 -0.1224
 5115SOL    HW126978   3.022   2.248   5.252  4.4518  1.7057  1.4933
 5115SOL    HW226979   2.941   2.204   5.359  0.2542 -0.6854  0.5250
 5116SOL     OW26980   0.852   0.541   9.882  0.0816  0.2078  0.0964
 5116SOL    HW126981   0.841   0.563   9.789  1.6253 -1.3643 -0.4676
 5116SOL    HW226982   0.947   0.525   9.879  0.0735  0.4699 -1.5185
 5117SOL     OW26983   1.272   2.197  14.844 -0.0032 -0.2031 -0.0059
 5117SOL    HW126984   1.273   2.202  14.748  0.6332 -0.6183 -0.0204
 5117SOL    HW226985   1.263   2.292  14.858  1.4015 -0.2178  1.0212
 5118SOL     OW26986   2.163   0.489   6.493  0.4885 -0.0802 -0.6749
 5118SOL    HW126987   2.146   0.582   6.508 -1.2764 -0.5476  0.2996
 5118SOL    HW226988   2.214   0.464   6.570  1.8138  0.2295 -1.4615
 5119SOL     OW26989   4.449   1.617   1.747  0.0628 -0.8618 -0.1375
 5119SOL    HW126990   4.488   1.577   1.825 -2.8463 -0.8501  1.3516
 5119SOL    HW226991   4.416   1.539   1.703  0.2785 -0.6543 -0.6624
 5120SOL     OW26992   3.589   3.244   8.134  0.4770  0.3929  0.2110
 5120SOL    HW126993   3.574   3.212   8.045  1.8961 -2.8153  1.1030
 5120SOL    HW226994   3.501   3.254   8.169 -0.3888 -2.9137 -0.9522
 5121SOL     OW26995   0.347   2.080   2.440  0.5784 -0.6070 -0.3022
 5121SOL    HW126996   0.387   2.003   2.399 -0.1244 -1.0687 -0.1252
 5121SOL    HW226997   0.325   2.128   2.360  1.3504  0.6264  0.2265
 5122SOL     OW26998   1.392   1.769   6.906  0.2483 -0.2938  0.9219
 5122SOL    HW126999   1.336   1.719   6.847  1.6110 -0.0620 -0.5871
 5122SOL    HW227000   1.357   1.733   6.987 -0.6387  0.8517  1.0423
 5123SOL     OW27001   1.233   2.824   4.768  0.1637  0.4733 -0.0222
 5123SOL    HW127002   1.229   2.825   4.673 -1.5294  0.1944  0.0439
 5123SOL    HW227003   1.326   2.836   4.787  0.5707  0.9619 -2.3950
 5124SOL     OW27004   2.359   1.266   3.841 -0.3551  0.2706 -0.5602
 5124SOL    HW127005   2.449   1.274   3.875 -0.2685 -1.1278 -0.4377
 5124SOL    HW227006   2.372   1.211   3.764  2.4967  2.0423 -1.3550
 5125SOL     OW27007   3.885   4.219  15.781  0.5040 -0.5216 -0.4650
 5125SOL    HW127008   3.858   4.311  15.786 -0.5359 -0.8617  0.1366
 5125SOL    HW227009   3.948   4.214  15.709  0.7229  0.1964 -0.3210
 5126SOL     OW27010   0.066   0.788   1.355 -0.0199  0.1115 -0.4498
 5126SOL    HW127011   0.119   0.777   1.277  0.0333  1.0369 -0.5418
 5126SOL    HW227012   0.039   0.697   1.366 -0.9688  0.3064 -1.0817
 5127SOL     OW27013   3.752   0.271   7.038 -0.3645 -0.3077  0.0243
 5127SOL    HW127014   3.751   0.176   7.021 -3.3919 -0.1335 -0.8074
 5127SOL    HW227015   3.688   0.309   6.979  0.8136 -0.7073 -1.4880
 5128SOL     OW27016   2.007   1.861   2.886 -0.1083 -0.1522  0.2814
 5128SOL    HW127017   2.066   1.801   2.932 -0.4991 -2.3811 -2.1611
 5128SOL    HW227018   1.923   1.837   2.926 -0.2903 -0.4412 -0.2752
 5129SOL     OW27019   2.852   2.856   8.508 -0.1674 -0.6338  0.6866
 5129SOL    HW127020   2.764   2.819   8.501  0.0086 -1.0090  0.5050
 5129SOL    HW227021   2.889   2.838   8.422  1.4924  0.2864  1.2019
 5130SOL     OW27022   3.019   0.403   7.066  0.3566 -0.4316 -0.5364
 5130SOL    HW127023   2.955   0.474   7.053  0.0253 -1.1331 -2.7640
 5130SOL    HW227024   3.081   0.444   7.125 -0.5384 -0.5931  0.5145
 5131SOL     OW27025   2.634   0.902   5.853 -0.5852 -0.4135  0.2144
 5131SOL    HW127026   2.617   0.849   5.775  0.6080  2.0201 -1.6823
 5131SOL    HW227027   2.710   0.857   5.892  0.1094  0.9458  0.4210
 5132SOL     OW27028   0.264   2.302   9.700  0.0514 -0.0623 -0.3749
 5132SOL    HW127029   0.296   2.230   9.756  0.0031 -0.9659 -1.5113
 5132SOL    HW227030   0.293   2.277   9.612  3.4520 -0.8475  0.9369
 5133SOL     OW27031   4.257   2.683  15.516 -0.4772  0.6533 -0.4723
 5133SOL    HW127032   4.218   2.770  15.526 -1.2759  0.1943  0.3651
 5133SOL    HW227033   4.339   2.695  15.563  0.5491 -2.3594 -1.4917
 5134SOL     OW27034   4.454   4.636   1.427 -0.0375  0.4406 -0.7072
 5134SOL    HW127035   4.442   4.614   1.334  0.5990 -1.3914 -0.3668
 5134SOL    HW227036   4.429   4.554   1.471 -2.0866  0.5039 -1.7379
 5135SOL     OW27037   1.697   0.679   2.740  0.5360  0.0475  0.8337
 5135SOL    HW127038   1.703   0.722   2.655 -0.5475 -0.2290  0.6179
 5135SOL    HW227039   1.769   0.616   2.736  1.8965  1.5636  1.1927
 5136SOL     OW27040   3.273   2.225  12.921  0.1152 -0.4436  0.3849
 5136SOL    HW127041   3.304   2.292  12.981  2.2900 -1.0979 -0.0232
 5136SOL    HW227042   3.182   2.226  12.952 -0.6692  3.1959 -1.9651
 5137SOL     OW27043   1.760   4.016   2.739 -0.4474 -0.5651  0.1623
 5137SOL    HW127044   1.684   4.049   2.691  0.9852 -0.0762 -1.7207
 5137SOL    HW227045   1.811   4.094   2.760 -2.4592  0.3166  1.7461
 5138SOL     OW27046   1.198   0.284   5.925  0.1400 -0.3997  0.6828
 5138SOL    HW127047   1.161   0.220   5.986 -2.6276  1.3797  0.8650
 5138SOL    HW227048   1.292   0.272   5.938  0.5456  1.2499 -0.6414
 5139SOL     OW27049   1.814   4.068   8.979 -0.2904  0.0750 -0.1844
 5139SOL    HW127050   1.796   4.126   9.053  1.5103  0.2119  0.1550
 5139SOL    HW227051   1.741   4.092   8.922 -1.2256  0.9022  1.3447
 5140SOL     OW27052   2.350   4.446   4.195  0.4458 -0.2120 -0.2294
 5140SOL    HW127053   2.431   4.434   4.146 -1.1335 -0.9017 -2.6691
 5140SOL    HW227054   2.357   4.422   4.287  0.0917  1.7714  0.3301
 5141SOL     OW27055   0.495   1.697   4.415  0.7317  0.0704 -0.5654
 5141SOL    HW127056   0.496   1.601   4.417  0.5749  0.0839 -0.0166
 5141SOL    HW227057   0.437   1.724   4.485 -1.7083 -1.1313 -2.1043
 5142SOL     OW27058   0.020   1.118   6.810 -0.0935 -0.0060  0.5163
 5142SOL    HW127059   0.061   1.142   6.727 -0.4252 -1.8282 -0.1875
 5142SOL    HW227060   0.050   1.027   6.818 -0.6834 -0.4096 -1.8943
 5143SOL     OW27061   1.555   0.488  15.692  0.0313 -0.5227 -0.5459
 5143SOL    HW127062   1.588   0.488  15.782 -1.3284 -1.4217 -0.0526
 5143SOL    HW227063   1.462   0.479  15.713  0.3679 -0.0594  1.1359
 5144SOL     OW27064   1.042   0.693   7.034  0.0974 -0.0890  0.0338
 5144SOL    HW127065   1.045   0.670   6.941 -1.2948 -1.6744  0.3787
 5144SOL    HW227066   1.039   0.602   7.063  2.8192 -0.2640 -0.2169
 5145SOL     OW27067   3.889   2.420   4.862  0.7687 -0.3324  0.1397
 5145SOL    HW127068   3.809   2.370   4.843 -0.2498  1.0564  0.8152
 5145SOL    HW227069   3.891   2.477   4.785  1.5337  2.4036  2.2318
 5146SOL     OW27070   4.130   2.815   8.485  0.2701  0.2478 -0.2730
 5146SOL    HW127071   4.143   2.902   8.448  2.1083  0.2695  0.4261
 5146SOL    HW227072   4.205   2.813   8.545 -1.5670 -1.3136  1.9522
 5147SOL     OW27073   0.625   3.302  13.468 -0.5903  0.5245 -0.6154
 5147SOL    HW127074   0.553   3.342  13.516 -0.9923  0.2393 -0.9754
 5147SOL    HW227075   0.676   3.270  13.542 -1.9988 -0.9956 -0.2838
 5148SOL     OW27076   3.046   2.457   3.770 -0.2499  0.1569 -0.0175
 5148SOL    HW127077   3.057   2.511   3.849  0.5882  1.8350 -1.2830
 5148SOL    HW227078   3.132   2.476   3.733 -0.1683 -1.9308 -0.9098
 5149SOL     OW27079   3.193   3.051   3.993 -0.0065 -0.0565  0.2246
 5149SOL    HW127080   3.117   3.014   3.947 -1.9964 -0.2512  3.6731
 5149SOL    HW227081   3.164   3.141   4.005  1.4111  0.1872  1.7230
 5150SOL     OW27082   1.189   4.137   8.708  0.4389 -0.1527  0.0023
 5150SOL    HW127083   1.231   4.077   8.647 -0.4411  1.9868 -2.7017
 5150SOL    HW227084   1.261   4.187   8.748  0.2707 -1.0787  1.4726
 5151SOL     OW27085   1.491   3.647  11.542 -0.2050  0.7495  0.0372
 5151SOL    HW127086   1.559   3.711  11.519  0.5188  0.1776  0.6136
 5151SOL    HW227087   1.424   3.698  11.587 -0.8468 -0.8648  0.8968
 5152SOL     OW27088   1.553   2.171  12.172 -0.7627 -0.3341  0.3298
 5152SOL    HW127089   1.554   2.259  12.135  2.9759 -0.0098  1.2811
 5152SOL    HW227090   1.632   2.132  12.135 -0.8486  0.5438 -0.7749
 5153SOL     OW27091   3.666   4.307   7.294  0.0552 -0.4922 -0.4455
 5153SOL    HW127092   3.683   4.239   7.359  1.1129  1.6753  1.5497
 5153SOL    HW227093   3.749   4.312   7.247  1.1533 -0.0112  1.5631
 5154SOL     OW27094   3.741   4.406   6.392 -0.6518  0.0694 -0.8272
 5154SOL    HW127095   3.722   4.476   6.329 -0.3425  2.5505  1.8392
 5154SOL    HW227096   3.744   4.332   6.332 -2.0394  0.4092 -1.3341
 5155SOL     OW27097   1.025   1.013   6.070  0.0197  0.4661  0.8088
 5155SOL    HW127098   0.988   0.926   6.057 -0.2253  0.4683  1.4720
 5155SOL    HW227099   1.107   0.989   6.115  0.5385  1.1236  0.2126
 5156SOL     OW27100   1.714   1.048   3.143  0.5888 -0.0027 -0.5278
 5156SOL    HW127101   1.725   1.138   3.115 -1.5053  0.0429 -1.2010
 5156SOL    HW227102   1.727   0.999   3.062  0.0247 -1.9602  0.5403
 5157SOL     OW27103   1.459   2.019  17.354 -0.2555 -0.0249  0.1906
 5157SOL    HW127104   1.541   2.063  17.374  1.1921 -0.4765 -4.8899
 5157SOL    HW227105   1.408   2.087  17.310  1.5198 -0.2815 -2.2031
 5158SOL     OW27106   3.671   4.627   6.777 -0.4605  0.4411 -0.7558
 5158SOL    HW127107   3.658   4.564   6.847  3.9666  2.0931  1.5251
 5158SOL    HW227108   3.737   4.691   6.804  0.0476 -0.7388  0.7775
 5159SOL     OW27109   3.874   1.062  15.334  0.7717 -0.4978  0.2338
 5159SOL    HW127110   3.784   1.088  15.351  0.7661 -1.0810  1.0835
 5159SOL    HW227111   3.873   0.967  15.322 -0.2845 -0.1491 -2.5165
 5160SOL     OW27112   2.419   2.631  13.742  0.1244 -0.2251 -0.1017
 5160SOL    HW127113   2.457   2.548  13.771  0.4619 -1.3830 -3.8265
 5160SOL    HW227114   2.377   2.609  13.659  2.3653 -1.2901 -0.9448
 5161SOL     OW27115   1.747   3.630  12.782 -0.1738 -0.1767 -0.0057
 5161SOL    HW127116   1.826   3.606  12.733 -1.4322 -0.4435 -1.9355
 5161SOL    HW227117   1.784   3.697  12.839 -0.0935  0.0720 -0.3467
 5162SOL     OW27118   3.659   4.319  13.889 -0.4731  0.3961 -0.0557
 5162SOL    HW127119   3.650   4.389  13.954 -0.0276 -1.5274  2.0727
 5162SOL    HW227120   3.639   4.243  13.943  1.0110 -0.1037 -0.2085
 5163SOL     OW27121   3.932   3.629  15.085  0.3521  0.0452 -0.0698
 5163SOL    HW127122   3.845   3.608  15.050 -1.3688 -0.4636  4.5349
 5163SOL    HW227123   3.951   3.711  15.039  2.4369  0.0066  0.7280
 5164SOL     OW27124   4.367   2.555   7.358 -0.5532  0.3172  0.4782
 5164SOL    HW127125   4.331   2.546   7.446 -1.1082 -0.2886  0.1845
 5164SOL    HW227126   4.333   2.642   7.335  0.7709  0.8862  0.6549
 5165SOL     OW27127   0.183   1.171  14.647  0.4164  0.9762 -0.2428
 5165SOL    HW127128   0.202   1.188  14.554 -2.8541  0.4132 -1.0077
 5165SOL    HW227129   0.270   1.171  14.688  1.7167 -0.8664 -2.9664
 5166SOL     OW27130   2.895   2.845   4.103 -0.0324  0.1230  0.0873
 5166SOL    HW127131   2.825   2.910   4.094  0.6182  0.7913 -0.1753
 5166SOL    HW227132   2.856   2.765   4.068  1.2629 -0.0260 -1.0237
 5167SOL     OW27133   2.156   2.082   2.759 -0.2975  0.0305 -0.1876
 5167SOL    HW127134   2.092   2.011   2.764  1.3449 -1.7047 -4.1096
 5167SOL    HW227135   2.147   2.099   2.853 -2.3453  0.8745 -0.5420
 5168SOL     OW27136   2.847   2.122  11.834  0.2442  0.3443 -0.5470
 5168SOL    HW127137   2.852   2.029  11.859 -3.0001  0.3563  0.1299
 5168SOL    HW227138   2.905   2.155  11.903 -2.6697  1.0628  1.5448
 5169SOL     OW27139   1.647   0.092   6.419 -0.1493  0.7799 -0.2191
 5169SOL    HW127140   1.718   0.155   6.404  1.2059 -1.2288 -2.1414
 5169SOL    HW227141   1.617   0.111   6.508  0.8941 -3.7781  1.1147
 5170SOL     OW27142   1.659   2.365   7.911 -0.6288 -0.1663 -0.1106
 5170SOL    HW127143   1.723   2.430   7.881 -0.3135 -0.6900 -0.5935
 5170SOL    HW227144   1.701   2.283   7.883 -0.1971 -0.4711  1.4312
 5171SOL     OW27145   0.564   0.858   2.673 -0.4047  0.0150  0.0623
 5171SOL    HW127146   0.652   0.822   2.663 -1.0354 -0.6788 -3.0942
 5171SOL    HW227147   0.516   0.774   2.674 -1.0486  0.4064  1.6802
 5172SOL     OW27148   0.613   2.029   7.696 -0.1810 -0.5251 -0.2786
 5172SOL    HW127149   0.584   2.018   7.606  2.8912  1.3051 -1.4778
 5172SOL    HW227150   0.688   2.086   7.684  0.3259 -0.6002  2.4400
 5173SOL     OW27151   1.423   4.706   3.352 -0.1829  0.3635  0.2835
 5173SOL    HW127152   1.384   4.628   3.392  0.8998 -1.0125 -1.3704
 5173SOL    HW227153   1.340   0.013   3.334  1.0142  2.5193  0.1895
 5174SOL     OW27154   1.485   4.524  11.800  0.1557 -0.3068  0.0448
 5174SOL    HW127155   1.502   4.617  11.791  1.4886 -0.2720  2.9737
 5174SOL    HW227156   1.417   4.516  11.867 -1.5127  0.8856 -1.5025
 5175SOL     OW27157   2.489   1.330   0.949 -0.1936 -0.0769 -0.1928
 5175SOL    HW127158   2.564   1.386   0.967 -0.6027  0.7998 -1.2571
 5175SOL    HW227159   2.525   1.255   0.901 -0.7294 -1.7596  2.0268
 5176SOL     OW27160   2.796   4.431   2.192 -0.0495 -0.2528  0.5437
 5176SOL    HW127161   2.851   4.477   2.129  0.0957 -1.9875 -0.6202
 5176SOL    HW227162   2.791   4.476   2.276 -0.5376 -2.7648  1.8596
 5177SOL     OW27163   3.358   1.074   2.416 -0.3128  0.3082  0.4005
 5177SOL    HW127164   3.413   1.114   2.483  1.1640 -1.8932  0.4923
 5177SOL    HW227165   3.379   0.982   2.429 -0.9274  0.2432  0.9484
 5178SOL     OW27166   3.879   3.925   5.809 -0.1031 -0.1223 -0.6136
 5178SOL    HW127167   3.969   3.898   5.789 -0.2442 -0.8054 -0.3144
 5178SOL    HW227168   3.875   3.877   5.892  0.1723 -0.6003 -0.8703
 5179SOL     OW27169   0.951   2.097   3.522 -0.3690 -0.7342 -0.0516
 5179SOL    HW127170   0.994   2.180   3.544  1.0792 -1.6047  0.3769
 5179SOL    HW227171   0.916   2.127   3.438  0.1032  0.9243  0.3427
 5180SOL     OW27172   3.547   2.643  14.650 -0.2307  0.5154  0.8765
 5180SOL    HW127173   3.635   2.614  14.627 -0.3322 -0.6584  2.0014
 5180SOL    HW227174   3.503   2.643  14.565 -0.4315 -0.3104  0.9848
 5181SOL     OW27175   4.244   0.426   5.433 -0.2558  0.8885 -0.1706
 5181SOL    HW127176   4.260   0.452   5.342 -2.2005  0.5010 -0.6364
 5181SOL    HW227177   4.150   0.407   5.435 -0.2980  1.0624 -0.4787
 5182SOL     OW27178   4.391   2.801   2.667 -0.0027 -0.8623  0.5556
 5182SOL    HW127179   4.420   2.885   2.703  1.5643 -0.9170 -0.5765
 5182SOL    HW227180   4.354   2.827   2.583 -1.7040  0.3693  1.7044
 5183SOL     OW27181   0.526   1.599   4.736 -0.3851  0.7832 -0.4649
 5183SOL    HW127182   0.576   1.551   4.802 -2.8104 -0.6396  0.3191
 5183SOL    HW227183   0.468   1.654   4.788  0.2070 -0.2043  1.2300
 5184SOL     OW27184   3.722   1.710   5.194 -0.2578 -0.0058  0.5095
 5184SOL    HW127185   3.636   1.729   5.232 -0.8651 -1.6118 -0.0589
 5184SOL    HW227186   3.703   1.739   5.105  0.5324 -2.3029 -0.3989
 5185SOL     OW27187   1.505   1.906   3.077  0.3932  0.7600 -0.0888
 5185SOL    HW127188   1.436   1.841   3.068  1.0499 -0.3956  3.2781
 5185SOL    HW227189   1.438   1.974   3.088 -1.0799 -0.7771  0.3534
 5186SOL     OW27190   1.468   1.168   6.980  0.3224 -0.1864  0.3237
 5186SOL    HW127191   1.511   1.131   7.058  1.7380  0.9477  0.0860
 5186SOL    HW227192   1.476   1.259   7.008 -0.8765 -0.0751  0.2629
 5187SOL     OW27193   3.554   1.721   8.582  0.0815  0.0018 -0.4686
 5187SOL    HW127194   3.562   1.667   8.661 -0.2139 -1.9540 -1.7592
 5187SOL    HW227195   3.645   1.748   8.573 -0.1668  0.7696 -0.7241
 5188SOL     OW27196   4.715   1.040   2.038 -0.5643  0.6207  0.1263
 5188SOL    HW127197   0.010   1.108   1.980  0.0557  0.1528 -0.0715
 5188SOL    HW227198   0.034   1.070   2.109  0.2668  0.1304 -0.3392
 5189SOL     OW27199   4.668   4.356   7.872  0.0854 -0.4182  0.2461
 5189SOL    HW127200   4.710   4.337   7.788 -1.1511  0.3488 -0.5456
 5189SOL    HW227201   4.580   4.364   7.836  0.9430  2.5576 -1.1068
 5190SOL     OW27202   0.873   3.928   8.233 -0.8436 -0.2077  0.1261
 5190SOL    HW127203   0.858   3.835   8.216  0.9426 -0.7293  1.3836
 5190SOL    HW227204   0.967   3.921   8.250  0.2043  3.3384 -4.0444
 5191SOL     OW27205   3.392   2.808   9.116 -0.0318 -0.0759  0.4815
 5191SOL    HW127206   3.338   2.881   9.149  1.3951  1.3817 -0.4004
 5191SOL    HW227207   3.453   2.856   9.061 -0.4783  0.5317  0.5010
 5192SOL     OW27208   4.096   3.208  13.192 -0.1901 -0.4988  0.2891
 5192SOL    HW127209   4.130   3.126  13.156 -0.0211  1.4139 -3.8863
 5192SOL    HW227210   4.069   3.183  13.280 -0.9631  1.7745  0.6775
 5193SOL     OW27211   3.266   2.289   0.336  0.4522 -0.4120  0.3674
 5193SOL    HW127212   3.221   2.356   0.387  1.2474  1.1445 -0.9538
 5193SOL    HW227213   3.292   2.329   0.253 -1.6349 -1.9896 -1.0384
 5194SOL     OW27214   2.403   1.749  17.053 -0.1064  0.3053 -0.4096
 5194SOL    HW127215   2.489   1.790  17.065  0.6528 -1.4865  0.1805
 5194SOL    HW227216   2.431   1.670  17.007  0.1246  0.7374 -1.0268
 5195SOL     OW27217   3.463   3.816   6.471  0.0429  0.3955  0.4947
 5195SOL    HW127218   3.427   3.732   6.444  2.0819 -0.6728  1.0935
 5195SOL    HW227219   3.376   3.850   6.493 -0.5666 -1.9716  1.6563
 5196SOL     OW27220   0.791   4.595   6.818  0.2969  0.1032  0.2811
 5196SOL    HW127221   0.808   4.559   6.731  0.3655  0.9191 -0.0377
 5196SOL    HW227222   0.698   4.617   6.818  0.9456  2.8590 -0.5515
 5197SOL     OW27223   3.890   1.693   7.993  0.3126 -0.7033  0.8449
 5197SOL    HW127224   3.941   1.614   7.976  2.4789  0.8281  0.1783
 5197SOL    HW227225   3.866   1.684   8.085  0.5741 -0.5934  0.9220
 5198SOL     OW27226   0.197   3.957   2.845  0.1119 -0.3596  0.4473
 5198SOL    HW127227   0.155   3.894   2.904 -2.0189 -0.4792 -1.2067
 5198SOL    HW227228   0.182   4.040   2.891  1.2949 -0.7165  1.4798
 5199SOL     OW27229   1.252   2.463   1.644  0.2993  0.0866  0.2164
 5199SOL    HW127230   1.292   2.549   1.659  0.1310  0.9538 -4.3209
 5199SOL    HW227231   1.208   2.469   1.558  0.6020  1.1337  0.1328
 5200SOL     OW27232   4.263   0.104   8.193 -0.2771  0.1081  0.2814
 5200SOL    HW127233   4.261   0.195   8.223  1.7073  0.6212 -1.2184
 5200SOL    HW227234   4.268   0.057   8.276 -0.8056 -0.1080  0.1923
 5201SOL     OW27235   4.422   3.291   0.483  0.1512 -0.4879  0.1708
 5201SOL    HW127236   4.378   3.272   0.566 -1.2138 -0.2378 -0.4917
 5201SOL    HW227237   4.402   3.213   0.432  0.1765 -0.7360  0.5464
 5202SOL     OW27238   4.731   2.031   3.927 -0.0657  0.0378 -0.3351
 5202SOL    HW127239   0.083   2.061   3.930 -1.0213  2.8332  0.3274
 5202SOL    HW227240   4.717   2.018   3.833 -1.3552 -0.2388 -0.1115
 5203SOL     OW27241   0.524   3.196   2.596 -0.5642  0.1886  0.1964
 5203SOL    HW127242   0.516   3.208   2.691 -1.9233 -0.7794  0.2085
 5203SOL    HW227243   0.585   3.124   2.581  0.4729  0.7939  1.5141
 5204SOL     OW27244   0.988   1.700   7.103  0.7779 -0.5118  0.3432
 5204SOL    HW127245   0.897   1.719   7.122  0.4402 -0.5760 -1.2373
 5204SOL    HW227246   0.999   1.733   7.013 -0.2956 -1.5799 -0.1746
 5205SOL     OW27247   3.625   1.568   7.695 -0.1452  0.5710  0.2522
 5205SOL    HW127248   3.540   1.584   7.654  0.3787 -0.3266 -1.2092
 5205SOL    HW227249   3.636   1.651   7.742  2.4482  1.0307 -1.1211
 5206SOL     OW27250   3.047   3.032   5.736  0.3333 -0.0583 -0.0369
 5206SOL    HW127251   2.982   3.024   5.666  0.1473  1.5832 -0.0282
 5206SOL    HW227252   3.118   2.975   5.705 -0.0768 -0.5077 -0.1667
 5207SOL     OW27253   3.539   3.016  16.786 -0.5312  0.3888  0.5056
 5207SOL    HW127254   3.499   3.087  16.836  1.8601  1.0293  1.5433
 5207SOL    HW227255   3.492   3.021  16.703  0.8880 -1.6431 -0.4260
 5208SOL     OW27256   1.757   0.037  12.068 -0.4826  0.2622  0.0123
 5208SOL    HW127257   1.703   4.699  12.089  0.2876 -0.6326 -1.3049
 5208SOL    HW227258   1.694   0.110  12.073 -1.5867 -0.7206  0.3486
 5209SOL     OW27259   0.320   3.086   9.169 -0.0976 -0.7575  0.5129
 5209SOL    HW127260   0.342   3.095   9.262 -1.5096 -2.2676  0.9943
 5209SOL    HW227261   0.359   3.002   9.144  0.2103 -0.0259 -1.4770
 5210SOL     OW27262   4.640   0.015   4.348 -0.3127  0.3529 -0.6024
 5210SOL    HW127263   4.594   4.672   4.370  1.1531 -1.1731 -3.1247
 5210SOL    HW227264   4.731   4.735   4.372  0.5987  2.0427 -2.7076
 5211SOL     OW27265   3.421   4.255  16.239  0.1242 -0.0131  0.1773
 5211SOL    HW127266   3.507   4.214  16.246  0.0477 -0.4369 -1.5675
 5211SOL    HW227267   3.446   4.332  16.290 -0.7475  0.2185  0.2530
 5212SOL     OW27268   2.773   2.875   5.295  0.2882 -0.2599  0.2661
 5212SOL    HW127269   2.759   2.965   5.265 -2.7066 -0.4579  1.0876
 5212SOL    HW227270   2.854   2.849   5.252 -0.0833  1.0237 -1.2085
 5213SOL     OW27271   3.491   1.606   5.776 -0.4384 -0.3128 -0.1529
 5213SOL    HW127272   3.564   1.628   5.718  0.2973 -3.1783 -0.3310
 5213SOL    HW227273   3.511   1.672   5.842 -0.5215  1.5429 -1.9612
 5214SOL     OW27274   2.663   2.336   8.259 -0.0947  0.5796  0.3217
 5214SOL    HW127275   2.570   2.322   8.241 -0.4541  2.1650  0.9999
 5214SOL    HW227276   2.687   2.244   8.246 -0.5343  0.6960 -1.2401
 5215SOL     OW27277   1.161   3.170   5.200  0.1273 -0.2281  0.2883
 5215SOL    HW127278   1.184   3.254   5.239  0.9499  0.9830 -2.8115
 5215SOL    HW227279   1.077   3.159   5.245  0.1578  3.7152  1.2426
 5216SOL     OW27280   3.247   1.420   4.118 -0.1238 -0.0294  0.1392
 5216SOL    HW127281   3.287   1.499   4.084 -1.0046  0.5346  0.4179
 5216SOL    HW227282   3.191   1.388   4.048 -0.7031  1.0838  0.0991
 5217SOL     OW27283   3.334   1.433   3.120 -0.1352  0.2901 -0.5383
 5217SOL    HW127284   3.318   1.514   3.169  0.4723  0.1409 -0.0917
 5217SOL    HW227285   3.341   1.366   3.187 -1.2743 -0.1527 -0.8584
 5218SOL     OW27286   1.021   4.265  10.297  0.1071  0.6100 -0.5292
 5218SOL    HW127287   1.051   4.184  10.254 -2.4669  0.8921 -2.8444
 5218SOL    HW227288   1.098   4.319  10.278 -0.6065  1.9106  0.3563
 5219SOL     OW27289   2.984   4.022  12.416 -0.5900  0.0867 -0.4551
 5219SOL    HW127290   3.079   4.023  12.408 -0.6239 -0.4485 -0.8587
 5219SOL    HW227291   2.983   3.958  12.487  0.7740  2.4872  1.7079
 5220SOL     OW27292   1.165   3.003   9.376  0.0869  0.0820  0.0341
 5220SOL    HW127293   1.205   3.088   9.356  1.2700 -0.2995  0.7482
 5220SOL    HW227294   1.243   2.960   9.411 -0.8648 -1.0052  0.8306
 5221SOL     OW27295   2.948   1.572   4.072 -0.3776  0.4642  0.2610
 5221SOL    HW127296   2.873   1.615   4.114  0.6105  1.1892  1.2775
 5221SOL    HW227297   3.009   1.646   4.068  1.0485 -0.7879 -0.8737
 5222SOL     OW27298   4.500   3.120   5.061  0.1341 -0.6050  0.4759
 5222SOL    HW127299   4.575   3.082   5.016 -1.0668 -0.4309 -1.6672
 5222SOL    HW227300   4.531   3.199   5.104 -1.4939  0.7572 -0.8559
 5223SOL     OW27301   1.723   1.926   3.298 -0.3482  0.1353 -0.4265
 5223SOL    HW127302   1.704   1.832   3.297 -0.8174  0.2155  0.8770
 5223SOL    HW227303   1.766   1.951   3.216 -1.1704 -0.0825 -0.9233
 5224SOL     OW27304   1.695   2.859  10.027 -0.0410  0.0704  0.3879
 5224SOL    HW127305   1.759   2.867  10.098 -0.8821  1.5039  0.9755
 5224SOL    HW227306   1.628   2.801  10.065  1.0899  0.2881  2.7004
 5225SOL     OW27307   2.082   1.847   7.865 -0.3710  0.7830 -0.0780
 5225SOL    HW127308   2.048   1.761   7.888 -2.6678  1.6389 -0.2919
 5225SOL    HW227309   2.057   1.890   7.946 -0.3339  1.8330 -0.6199
 5226SOL     OW27310   3.709   1.976   5.024  0.2798  0.0520 -0.5901
 5226SOL    HW127311   3.787   2.030   5.038  0.1612  0.3210 -0.9731
 5226SOL    HW227312   3.745   1.901   4.976  0.3867  0.6846 -1.4964
 5227SOL     OW27313   0.613   3.355   1.434 -0.0675  0.0052 -0.3361
 5227SOL    HW127314   0.545   3.402   1.482  0.1377  1.9140 -1.8979
 5227SOL    HW227315   0.683   3.345   1.498 -0.2517  2.1475  0.1804
 5228SOL     OW27316   4.260   4.085   0.605  0.1064 -0.7968  0.4855
 5228SOL    HW127317   4.256   4.163   0.661 -1.1838 -0.8764  0.5143
 5228SOL    HW227318   4.306   4.030   0.668  0.3782 -0.3219  0.7008
 5229SOL     OW27319   2.727   1.398   1.074 -0.3532  0.0923 -0.4655
 5229SOL    HW127320   2.768   1.399   1.160  2.4847 -3.5619 -1.7756
 5229SOL    HW227321   2.739   1.489   1.045 -4.9702  0.8847  0.0916
 5230SOL     OW27322   4.159   0.754   4.613  0.1355  0.4769 -0.8520
 5230SOL    HW127323   4.148   0.682   4.552 -1.2139 -0.4960  0.5405
 5230SOL    HW227324   4.099   0.721   4.681  2.3500  1.1359  1.4163
 5231SOL     OW27325   1.272   3.048   5.899  0.5984 -0.4957  0.0505
 5231SOL    HW127326   1.309   2.963   5.874  0.3661 -0.9260  1.1671
 5231SOL    HW227327   1.229   3.014   5.977 -0.5026 -1.1413 -0.8402
 5232SOL     OW27328   1.988   2.675   7.047 -0.3345  0.2073  0.3924
 5232SOL    HW127329   1.903   2.632   7.063 -0.4556  0.8168  1.3932
 5232SOL    HW227330   1.952   2.763   7.044  2.3468  1.3740  3.4131
 5233SOL     OW27331   4.264   1.160   9.286  0.2311 -0.8454  0.1273
 5233SOL    HW127332   4.181   1.139   9.243 -0.6269  0.0367  1.3391
 5233SOL    HW227333   4.246   1.136   9.377 -2.7302 -1.8543 -0.7324
 5234SOL     OW27334   0.728   1.385   8.123 -0.6824 -0.2817 -0.1719
 5234SOL    HW127335   0.820   1.385   8.095  0.0091 -0.5391  2.0868
 5234SOL    HW227336   0.692   1.464   8.083 -0.4498  1.0481  2.2640
 5235SOL     OW27337   1.265   0.679   8.817  0.7927 -0.2472 -0.4303
 5235SOL    HW127338   1.171   0.695   8.814  0.3118 -2.7819  0.7346
 5235SOL    HW227339   1.263   0.592   8.856  0.1082  1.1648  2.6976
 5236SOL     OW27340   2.016   2.256  14.908  0.3089  0.1365 -0.2041
 5236SOL    HW127341   2.049   2.323  14.967  1.5489 -0.7869  0.1588
 5236SOL    HW227342   1.967   2.205  14.973  1.7850 -0.4544  0.4491
 5237SOL     OW27343   1.317   4.510  16.246 -0.2102  0.3202  0.0657
 5237SOL    HW127344   1.399   4.500  16.295 -0.6739 -0.4817  0.6603
 5237SOL    HW227345   1.303   4.423  16.209  1.8785  0.5281 -1.2285
 5238SOL     OW27346   4.510   3.271  10.185 -0.0287  0.0092 -0.4153
 5238SOL    HW127347   4.531   3.290  10.276 -1.2710  1.7134 -0.4982
 5238SOL    HW227348   4.415   3.256  10.183 -0.2626  1.8041 -2.2545
 5239SOL     OW27349   1.120   4.346   8.424  0.4433 -0.2103  0.2788
 5239SOL    HW127350   1.057   4.335   8.496 -0.4556  2.5186 -0.0787
 5239SOL    HW227351   1.087   4.431   8.394  1.8050  0.4022  0.5437
 5240SOL     OW27352   2.194   0.084   6.621  0.8281  0.0419 -0.2411
 5240SOL    HW127353   2.227   0.123   6.540  4.2704 -2.9575 -0.2794
 5240SOL    HW227354   2.115   0.131   6.649  1.4692  0.5343  0.7601
 5241SOL     OW27355   2.692   1.914   5.454  0.1321  0.3425  0.3488
 5241SOL    HW127356   2.639   1.895   5.531 -1.4168  0.8128 -0.6168
 5241SOL    HW227357   2.652   1.993   5.419  2.4747  1.3546 -0.0554
 5242SOL     OW27358   3.290   1.197   8.382 -0.4867  0.3016 -0.0388
 5242SOL    HW127359   3.308   1.275   8.329 -0.3598 -0.2099 -0.7449
 5242SOL    HW227360   3.342   1.134   8.332 -0.6881 -0.1718  0.3538
 5243SOL     OW27361   2.178   1.911   0.670 -0.2262  0.1083 -0.4663
 5243SOL    HW127362   2.150   1.888   0.582 -1.0862 -0.3818 -0.0681
 5243SOL    HW227363   2.250   1.972   0.652 -0.8729  1.1854  0.5137
 5244SOL     OW27364   2.527   1.994   2.637  0.0507 -0.1050  0.0104
 5244SOL    HW127365   2.582   1.995   2.558 -1.2777  0.2420 -0.9212
 5244SOL    HW227366   2.454   2.045   2.601  0.1211 -0.7023 -0.9800
 5245SOL     OW27367   0.611   1.511   5.558 -0.3888 -0.5277 -0.4887
 5245SOL    HW127368   0.539   1.521   5.620 -0.0228 -1.5048  0.0798
 5245SOL    HW227369   0.622   1.603   5.532 -0.8211  0.2174  1.9209
 5246SOL     OW27370   1.513   3.171   5.577  0.1276 -0.0212  0.6654
 5246SOL    HW127371   1.588   3.232   5.575  3.1392 -3.7462 -0.3363
 5246SOL    HW227372   1.441   3.230   5.597 -0.5279 -0.8468  0.7096
 5247SOL     OW27373   0.875   2.049   0.871 -0.1432  0.2502  0.0425
 5247SOL    HW127374   0.932   1.977   0.842  1.7861  1.2669  1.3279
 5247SOL    HW227375   0.872   2.111   0.799 -1.3592  0.0307 -0.0944
 5248SOL     OW27376   3.095   3.557   2.030 -0.3727  0.6107  0.1059
 5248SOL    HW127377   3.052   3.548   1.945 -2.2171  1.0770  0.9860
 5248SOL    HW227378   3.082   3.468   2.061  1.3512  1.0395  2.0770
 5249SOL     OW27379   1.370   0.402   9.896  0.2151  0.0870  0.0895
 5249SOL    HW127380   1.408   0.314   9.896 -0.9042 -0.4027  2.0427
 5249SOL    HW227381   1.437   0.451   9.945  0.4552  0.7976 -0.9499
 5250SOL     OW27382   1.369   0.491   5.648 -0.8100 -0.1603 -0.4880
 5250SOL    HW127383   1.315   0.442   5.710 -1.1069 -0.0541 -0.6601
 5250SOL    HW227384   1.436   0.430   5.618  0.1394  0.2910  0.7157
 5251SOL     OW27385   1.487   1.829   9.761 -0.3424 -0.2472  0.4738
 5251SOL    HW127386   1.475   1.804   9.669  0.7626  0.9690 -0.0045
 5251SOL    HW227387   1.577   1.800   9.772  0.5459  3.4938  3.2833
 5252SOL     OW27388   2.750   0.257   1.548 -0.5877 -0.0779  0.3574
 5252SOL    HW127389   2.751   0.282   1.640  2.2481 -0.9299  0.5528
 5252SOL    HW227390   2.700   0.177   1.566  1.5331 -1.5486 -0.1378
 5253SOL     OW27391   3.952   3.314  15.219 -0.3096 -0.3273 -1.1166
 5253SOL    HW127392   3.984   3.401  15.194 -1.1949  0.0216 -1.0355
 5253SOL    HW227393   3.875   3.345  15.266  1.1400  1.8064 -0.1321
 5254SOL     OW27394   0.232   1.203   3.569  0.0318  0.1456  0.2083
 5254SOL    HW127395   0.175   1.272   3.533  0.4216  0.6555  0.5599
 5254SOL    HW227396   0.280   1.179   3.490  0.8149  1.2826  0.3380
 5255SOL     OW27397   2.922   2.723   4.497  0.1912  0.2218  0.2778
 5255SOL    HW127398   2.873   2.678   4.566 -0.5689  2.0758  0.9251
 5255SOL    HW227399   2.965   2.646   4.459 -1.2182  0.1517 -1.1739
 5256SOL     OW27400   3.417   0.706   2.930 -1.0717  0.3550  0.4376
 5256SOL    HW127401   3.506   0.680   2.905  0.3365  2.7626  2.9644
 5256SOL    HW227402   3.364   0.652   2.872 -0.1990  0.0032 -0.0292
 5257SOL     OW27403   0.957   1.836  12.571 -0.0848  0.3930  0.1829
 5257SOL    HW127404   1.018   1.789  12.515  1.6313  0.0168  2.3582
 5257SOL    HW227405   0.973   1.929  12.555 -0.4061  0.2025 -1.2654
 5258SOL     OW27406   1.731   1.388   2.791  0.1795  0.2893 -0.0691
 5258SOL    HW127407   1.795   1.322   2.766 -0.4838 -0.5047  0.3287
 5258SOL    HW227408   1.693   1.407   2.705 -0.4480 -1.3102 -0.1386
 5259SOL     OW27409   3.329   0.368  14.214 -0.1510 -0.2198 -0.1615
 5259SOL    HW127410   3.371   0.424  14.279 -0.2982 -1.5767  1.1023
 5259SOL    HW227411   3.254   0.420  14.185  1.6267  0.4653 -3.5798
 5260SOL     OW27412   3.851   2.637   2.838 -0.0914 -0.1048  0.5031
 5260SOL    HW127413   3.761   2.610   2.819  0.5820 -1.2139 -1.0349
 5260SOL    HW227414   3.902   2.595   2.769 -1.6660 -2.3586  0.7091
 5261SOL     OW27415   3.341   3.781   9.961  0.3617 -0.3688 -0.5260
 5261SOL    HW127416   3.332   3.737  10.045  0.0083  2.0089  0.6504
 5261SOL    HW227417   3.365   3.705   9.906  0.6492  0.0043 -0.9171
 5262SOL     OW27418   2.407   4.063   4.745  0.0691  0.4497 -0.2062
 5262SOL    HW127419   2.454   3.981   4.758  2.2771  1.7553  0.0755
 5262SOL    HW227420   2.409   4.086   4.652 -0.7196  1.3367 -0.0027
 5263SOL     OW27421   2.377   4.431  13.287 -0.2011 -0.7255  0.1726
 5263SOL    HW127422   2.428   4.413  13.366  1.1266 -0.1699 -0.5556
 5263SOL    HW227423   2.425   4.362  13.241  0.2474 -1.1919  1.3305
 5264SOL     OW27424   0.074   0.033   5.764  0.2193 -0.0927  0.7706
 5264SOL    HW127425   4.736   0.078   5.798 -0.2572 -1.6011  1.7038
 5264SOL    HW227426   0.132   0.107   5.780  0.4715  0.4775 -2.6885
 5265SOL     OW27427   3.904   0.454  14.759 -0.8127  0.1780  0.2496
 5265SOL    HW127428   3.816   0.481  14.733  0.2304  2.9311 -0.4201
 5265SOL    HW227429   3.903   0.359  14.766  0.0425  0.1653  0.2206
 5266SOL     OW27430   1.917   0.127   6.982  0.2660  0.0940  0.1280
 5266SOL    HW127431   1.834   0.136   6.935 -0.6784  1.6557  2.0718
 5266SOL    HW227432   1.971   0.201   6.954  0.8166 -0.6977 -0.8901
 5267SOL     OW27433   1.058   0.308   4.482  0.4289  0.0363  0.6533
 5267SOL    HW127434   1.086   0.397   4.459 -2.2622  0.8836  0.6858
 5267SOL    HW227435   1.000   0.326   4.556  0.9442 -1.8471  1.5244
 5268SOL     OW27436   2.100   0.128   5.570 -0.5764  0.2800 -0.4431
 5268SOL    HW127437   2.084   0.115   5.663 -2.2232 -0.7007 -0.8510
 5268SOL    HW227438   2.100   0.223   5.559  1.0602  0.2424 -0.7163
 5269SOL     OW27439   2.532   0.446   6.541  0.1635  0.2134 -0.0729
 5269SOL    HW127440   2.470   0.495   6.595 -0.3933  0.4813 -0.9460
 5269SOL    HW227441   2.603   0.425   6.603 -1.2052 -0.8646  1.1386
 5270SOL     OW27442   0.816   0.742   2.639 -0.0221 -0.2571 -0.1917
 5270SOL    HW127443   0.835   0.732   2.546 -2.7649  0.1550 -0.7914
 5270SOL    HW227444   0.794   0.653   2.667  0.0106 -0.6218 -1.3420
 5271SOL     OW27445   3.255   0.091   3.983 -0.1894  0.1172  0.1449
 5271SOL    HW127446   3.302   0.113   4.063  0.6030  1.4313 -0.6798
 5271SOL    HW227447   3.271   4.736   3.969 -2.4710 -0.3208  0.5581
 5272SOL     OW27448   0.141   0.976  16.918  0.1815  0.5558  0.1511
 5272SOL    HW127449   0.172   0.908  16.979 -0.8218  0.3622  0.4588
 5272SOL    HW227450   0.152   0.932  16.834  1.1022 -0.1845  0.6517
 5273SOL     OW27451   3.944   3.261  12.773 -0.0559  0.3653 -0.1304
 5273SOL    HW127452   3.911   3.314  12.846 -0.0723 -0.3884  0.4097
 5273SOL    HW227453   4.026   3.241  12.817  0.7958 -1.1631 -2.4073
 5274SOL     OW27454   0.553   1.229   6.636  0.1433 -0.0239  0.6451
 5274SOL    HW127455   0.480   1.183   6.676  0.8853 -2.0429 -0.3593
 5274SOL    HW227456   0.548   1.191   6.549  0.3646  1.9175 -0.2269
 5275SOL     OW27457   0.220   0.720  15.496  0.2679  0.0633  0.3035
 5275SOL    HW127458   0.237   0.709  15.402 -0.5544  2.0535 -0.0643
 5275SOL    HW227459   0.125   0.716  15.508  0.1785  1.6008  0.1134
 5276SOL     OW27460   1.349   4.226   0.277 -0.4141 -0.1379 -0.0886
 5276SOL    HW127461   1.280   4.204   0.215 -1.4573 -0.6379  1.2542
 5276SOL    HW227462   1.299   4.221   0.358 -1.1253 -0.2715 -0.5420
 5277SOL     OW27463   4.041   2.533  14.402  0.1417  0.5227 -0.4727
 5277SOL    HW127464   4.127   2.489  14.405 -1.2713 -2.3256 -1.7402
 5277SOL    HW227465   4.059   2.606  14.343 -1.4262  1.9972  0.8800
 5278SOL     OW27466   0.067   0.959   6.584 -0.0925 -0.5212  0.2741
 5278SOL    HW127467   0.105   0.948   6.497  1.4147  2.0608  0.6039
 5278SOL    HW227468   0.135   0.950   6.651  0.6794 -3.3432 -0.9137
 5279SOL     OW27469   2.286   1.117   3.607 -0.1326  0.6381 -0.3894
 5279SOL    HW127470   2.310   1.024   3.606  1.5646  1.0912 -1.2939
 5279SOL    HW227471   2.288   1.138   3.514  0.6763  3.0938  0.1820
 5280SOL     OW27472   2.757   4.158   4.800 -0.6860 -0.1041  0.0059
 5280SOL    HW127473   2.702   4.114   4.734 -2.3031  0.1375  1.1967
 5280SOL    HW227474   2.811   4.206   4.738 -0.6256 -1.8245 -1.3104
 5281SOL     OW27475   2.788   1.838  15.810 -0.7885  0.0788 -0.0251
 5281SOL    HW127476   2.716   1.811  15.752  0.4947 -0.2824 -1.4484
 5281SOL    HW227477   2.841   1.864  15.735  2.5712 -2.3401  1.5004
 5282SOL     OW27478   3.286   3.445   4.806 -0.6736  0.0131 -0.0746
 5282SOL    HW127479   3.292   3.413   4.716  0.5354 -0.4434  0.1750
 5282SOL    HW227480   3.229   3.520   4.785 -1.0200  0.0627  1.0829
 5283SOL     OW27481   4.548   0.418  17.514  0.3606 -0.3590  0.5275
 5283SOL    HW127482   4.621   0.460  17.560  0.0376 -0.2773  0.9686
 5283SOL    HW227483   4.520   0.345  17.568  1.9463 -0.0153  1.8263
 5284SOL     OW27484   1.419   2.626   3.183  0.4770  0.2592 -0.4739
 5284SOL    HW127485   1.402   2.720   3.190  0.7390  0.5125 -3.0555
 5284SOL    HW227486   1.416   2.591   3.272  2.9121  2.4791  0.4734
 5285SOL     OW27487   0.804   0.991   5.041 -0.0912  0.7289  0.0215
 5285SOL    HW127488   0.788   0.942   4.960 -1.0168  1.4376 -0.2125
 5285SOL    HW227489   0.867   0.940   5.093  1.9036  2.5602 -0.6048
 5286SOL     OW27490   3.466   1.344   4.279 -0.4927  0.7028 -0.1540
 5286SOL    HW127491   3.384   1.359   4.231  0.1928 -0.1219 -1.5976
 5286SOL    HW227492   3.526   1.391   4.221  0.4691  1.5609  1.5323
 5287SOL     OW27493   4.570   3.733   5.849  0.4358  0.1506 -0.0392
 5287SOL    HW127494   4.612   3.687   5.776  0.6132  0.9844 -0.4614
 5287SOL    HW227495   4.555   3.822   5.816 -0.5736 -0.0046  0.0181
 5288SOL     OW27496   1.593   4.577   8.730 -0.0111 -0.0070  0.0075
 5288SOL    HW127497   1.499   4.572   8.744  0.1882 -2.9750  0.2011
 5288SOL    HW227498   1.628   4.498   8.771 -0.6181  0.3191  1.1485
 5289SOL     OW27499   1.902   3.774  12.982 -0.4869  0.3228 -0.0164
 5289SOL    HW127500   1.940   3.688  13.001 -1.3756  0.2934  1.6592
 5289SOL    HW227501   1.975   3.830  13.008 -0.3264  0.6531 -1.2011
 5290SOL     OW27502   0.779   3.770   9.114  0.5977 -0.1608 -0.3810
 5290SOL    HW127503   0.764   3.736   9.203  1.9042  0.8694  0.2318
 5290SOL    HW227504   0.811   3.858   9.136  0.5945 -0.2148 -0.1540
 5291SOL     OW27505   3.014   3.221   9.689  0.0343 -0.2070 -0.1098
 5291SOL    HW127506   3.022   3.201   9.782  2.4731  0.1432 -0.2344
 5291SOL    HW227507   3.106   3.225   9.660  0.3564 -0.5593  0.8711
 5292SOL     OW27508   0.064   1.791  12.860 -0.2467 -0.0676 -0.1763
 5292SOL    HW127509   4.709   1.800  12.877 -0.2064  2.5961 -1.3964
 5292SOL    HW227510   0.069   1.748  12.774  3.7446 -1.0679  0.5386
 5293SOL     OW27511   1.996   2.859   7.755  0.1397  0.1481  0.6676
 5293SOL    HW127512   2.076   2.880   7.706 -0.7189 -0.8646 -1.1621
 5293SOL    HW227513   2.034   2.814   7.830  0.7242  0.8997  0.8297
 5294SOL     OW27514   4.585   4.444   5.437  0.6039 -0.3515 -0.1792
 5294SOL    HW127515   4.496   4.463   5.463  0.6458  0.2188 -0.4560
 5294SOL    HW227516   4.640   4.493   5.498 -0.4863 -0.2924  0.7566
 5295SOL     OW27517   0.970   0.628   8.204 -0.4041 -0.0288 -0.3203
 5295SOL    HW127518   0.898   0.617   8.142 -0.8186  0.8787  0.0082
 5295SOL    HW227519   0.926   0.663   8.281  3.1527  1.4841  1.0199
 5296SOL     OW27520   4.048   3.308  11.467 -0.3066 -0.5342  0.2444
 5296SOL    HW127521   3.968   3.354  11.490  1.2066  2.6504 -0.8988
 5296SOL    HW227522   4.100   3.330  11.544  2.1416  0.3156 -1.6551
 5297SOL     OW27523   1.612   0.647   5.274  0.5781  0.7427 -0.2225
 5297SOL    HW127524   1.530   0.641   5.322  0.5531 -2.0602 -0.5734
 5297SOL    HW227525   1.672   0.653   5.348  0.5915 -0.4988 -0.1216
 5298SOL     OW27526   3.920   0.003   7.400  0.1036 -0.1493  0.8003
 5298SOL    HW127527   3.830   0.026   7.424 -0.5648 -1.9430  0.0043
 5298SOL    HW227528   3.937   0.056   7.323 -0.0507 -1.9432 -0.4643
 5299SOL     OW27529   0.814   3.449   7.856 -0.4552  0.3180 -0.6475
 5299SOL    HW127530   0.865   3.498   7.791 -0.6882  0.4992 -0.6961
 5299SOL    HW227531   0.735   3.503   7.855  0.2813  1.3995  0.0714
 5300SOL     OW27532   1.024   3.460   7.171 -0.4592 -0.2349 -0.3701
 5300SOL    HW127533   0.968   3.515   7.117 -0.2948  0.2417 -0.0525
 5300SOL    HW227534   1.069   3.406   7.106 -0.1401 -0.1953 -0.1834
 5301SOL     OW27535   4.258   2.410   8.203 -0.3491  0.2400  0.0645
 5301SOL    HW127536   4.233   2.499   8.176 -1.8533 -0.2620 -0.1827
 5301SOL    HW227537   4.288   2.423   8.293 -1.0823 -2.5929  0.7219
 5302SOL     OW27538   4.712   1.790   6.291 -0.1451 -0.5059  0.5724
 5302SOL    HW127539   4.730   1.803   6.384  0.9679  2.6377 -0.0983
 5302SOL    HW227540   4.637   1.849   6.287 -0.5165 -0.9331  1.1279
 5303SOL     OW27541   0.160   3.944   3.660  0.1371 -0.2516  0.1100
 5303SOL    HW127542   0.218   4.015   3.687 -0.9877  1.1925 -1.1835
 5303SOL    HW227543   0.126   3.977   3.576 -0.4518 -0.8356  0.1154
 5304SOL     OW27544   2.260   1.438   7.671 -0.5003 -0.0638  0.1648
 5304SOL    HW127545   2.177   1.481   7.653 -0.6312 -1.1266 -1.7793
 5304SOL    HW227546   2.236   1.346   7.658  0.4027 -0.6253  2.5169
 5305SOL     OW27547   0.648   4.704  13.894 -0.0157  0.4041  0.2086
 5305SOL    HW127548   0.653   4.638  13.962  3.2249 -0.0588 -0.5001
 5305SOL    HW227549   0.577   4.674  13.837  1.0063 -1.2264 -0.2048
 5306SOL     OW27550   0.746   1.069   5.530 -0.7285  0.8696  0.5384
 5306SOL    HW127551   0.808   1.084   5.459  0.0348  0.7083  1.1726
 5306SOL    HW227552   0.765   1.144   5.585  3.4452 -0.6578  1.1506
 5307SOL     OW27553   0.520   4.142   5.085  0.6922 -0.7036 -0.3203
 5307SOL    HW127554   0.557   4.207   5.026  1.4378  0.2084  1.1662
 5307SOL    HW227555   0.514   4.184   5.171 -2.1749  2.8158 -2.2153
 5308SOL     OW27556   2.319   4.167   9.732 -0.4755  0.1051 -0.1526
 5308SOL    HW127557   2.375   4.132   9.663 -0.6901  0.3065 -0.4312
 5308SOL    HW227558   2.357   4.138   9.815 -1.1743  0.2292  0.2187
 5309SOL     OW27559   3.865   4.719  14.491 -0.0015  0.1037 -0.0426
 5309SOL    HW127560   3.897   0.030  14.415  0.5830 -1.9632 -1.1373
 5309SOL    HW227561   3.927   4.646  14.494  0.9866  0.8275 -3.1087
 5310SOL     OW27562   1.984   2.370   6.352  0.0843  0.4068  0.0879
 5310SOL    HW127563   1.930   2.361   6.274  1.7404  0.8938 -1.1068
 5310SOL    HW227564   1.924   2.410   6.415  1.6532  0.6158  1.4438
 5311SOL     OW27565   0.527   0.646   9.271  0.5033 -0.0755 -0.2978
 5311SOL    HW127566   0.443   0.674   9.308 -0.1650 -1.6465 -0.6588
 5311SOL    HW227567   0.543   0.715   9.206  0.1808  1.0747  0.8348
 5312SOL     OW27568   4.373   1.318   3.940 -0.0443  0.3102 -0.2157
 5312SOL    HW127569   4.314   1.314   4.015  1.3761 -0.8087  0.8476
 5312SOL    HW227570   4.332   1.253   3.884 -0.4349  1.9027 -1.7917
 5313SOL     OW27571   1.951   3.719   3.042  0.1212 -0.2944 -0.1676
 5313SOL    HW127572   1.870   3.674   3.065  1.4875 -2.0872  1.1485
 5313SOL    HW227573   1.924   3.810   3.055 -1.5234 -1.1167  2.2993
 5314SOL     OW27574   1.082   2.550  11.306  0.1600 -0.0060  0.0032
 5314SOL    HW127575   1.013   2.515  11.361 -0.2623  1.6322  0.5348
 5314SOL    HW227576   1.161   2.521  11.353  0.5296 -0.5556 -0.9573
 5315SOL     OW27577   1.918   2.401   4.429  0.1493 -0.6890  0.2224
 5315SOL    HW127578   1.884   2.467   4.490 -0.4519 -0.7175 -0.0941
 5315SOL    HW227579   2.013   2.411   4.437  0.3308 -2.4946  0.2118
 5316SOL     OW27580   2.549   2.397   7.671  0.3517  0.0629 -0.2809
 5316SOL    HW127581   2.473   2.374   7.617  0.6609  0.2432 -0.7981
 5316SOL    HW227582   2.622   2.351   7.628  0.4990 -1.3014  1.4119
 5317SOL     OW27583   4.514   3.431   6.463 -0.2530  0.0223 -0.3183
 5317SOL    HW127584   4.492   3.510   6.414 -1.3566 -1.3643 -2.0539
 5317SOL    HW227585   4.610   3.437   6.466 -0.2806  0.4159 -0.1484
 5318SOL     OW27586   3.600   1.485   4.979 -0.0476 -0.2445 -0.1565
 5318SOL    HW127587   3.520   1.531   4.953 -1.5822 -1.5969  2.0816
 5318SOL    HW227588   3.575   1.398   4.947  1.2220 -0.9374  0.7312
 5319SOL     OW27589   1.311   1.314  14.954 -0.3534  0.3273  0.2714
 5319SOL    HW127590   1.279   1.370  15.025  1.6876 -0.7322  2.0216
 5319SOL    HW227591   1.246   1.341  14.889 -0.5945 -1.4668 -0.2352
 5320SOL     OW27592   0.137   3.289   7.009  0.1564 -0.5342 -0.3290
 5320SOL    HW127593   0.177   3.372   7.036 -0.3046 -0.2702 -0.4513
 5320SOL    HW227594   0.199   3.254   6.945  0.8425  0.7505 -0.3676
 5321SOL     OW27595   0.380   2.951   8.691  0.3781  0.4305  0.2133
 5321SOL    HW127596   0.356   3.025   8.747  0.6868 -1.9799  3.4574
 5321SOL    HW227597   0.412   2.997   8.613 -0.3471 -0.3238 -0.5302
 5322SOL     OW27598   0.662   3.732  16.335  0.0447  0.3419  0.0488
 5322SOL    HW127599   0.582   3.681  16.321  0.2463 -0.1137  0.5724
 5322SOL    HW227600   0.632   3.823  16.344 -1.3781 -0.1079 -0.1031
 5323SOL     OW27601   3.273   1.355   1.782 -0.1301  0.0166 -0.0340
 5323SOL    HW127602   3.341   1.412   1.818  1.1127 -0.2817 -1.9266
 5323SOL    HW227603   3.320   1.273   1.800  1.2570  0.5172 -1.3886
 5324SOL     OW27604   0.302   3.296   6.075  0.0818 -0.8033  0.1320
 5324SOL    HW127605   0.213   3.269   6.051  0.2781 -1.6782  0.3631
 5324SOL    HW227606   0.272   3.368   6.130  2.7012  1.3330 -1.2794
 5325SOL     OW27607   3.462   1.232   9.028 -0.0857 -0.2245 -0.0966
 5325SOL    HW127608   3.485   1.262   8.940  0.9249  0.2283  0.3145
 5325SOL    HW227609   3.537   1.247   9.085 -0.4182 -2.0275  0.8167
 5326SOL     OW27610   4.503   1.533   2.435 -0.0739 -0.0400  0.1632
 5326SOL    HW127611   4.419   1.578   2.421  0.2517  0.9086  1.2401
 5326SOL    HW227612   4.467   1.444   2.435 -1.6121  0.5693  0.2239
 5327SOL     OW27613   0.774   3.175   7.785  0.6516  0.2754 -0.7201
 5327SOL    HW127614   0.796   3.263   7.815 -0.9191  0.3320  0.2588
 5327SOL    HW227615   0.823   3.169   7.703  0.5650 -1.0656 -0.6721
 5328SOL     OW27616   4.238   0.411   9.526  0.3035 -0.2514  0.2700
 5328SOL    HW127617   4.190   0.343   9.572  1.0548 -2.1349 -1.7265
 5328SOL    HW227618   4.297   0.451   9.589 -0.1546 -0.3728  0.7703
 5329SOL     OW27619   2.091   2.577   1.999 -0.3175  0.2575  0.4534
 5329SOL    HW127620   2.039   2.545   2.073 -0.4905  2.0082  1.0911
 5329SOL    HW227621   2.109   2.667   2.025 -0.8278 -0.0282  1.8201
 5330SOL     OW27622   1.995   2.797   5.466 -0.2245  1.6209 -0.1074
 5330SOL    HW127623   1.931   2.842   5.411  1.3115  1.4884 -1.9919
 5330SOL    HW227624   1.950   2.717   5.492 -0.8739  2.0693  0.1746
 5331SOL     OW27625   2.196   1.891   6.780  0.7250 -0.3525 -0.6495
 5331SOL    HW127626   2.146   1.823   6.734 -1.3292  1.4394 -1.0939
 5331SOL    HW227627   2.186   1.960   6.714  1.0417 -0.4473 -0.7963
 5332SOL     OW27628   0.965   1.191  11.088  0.0051 -0.2716  0.1324
 5332SOL    HW127629   0.981   1.166  11.179  1.6861 -0.5442 -0.2358
 5332SOL    HW227630   0.908   1.265  11.109  1.2630  0.5741  0.6073
 5333SOL     OW27631   4.521   1.020   4.319  0.1343  0.2124 -0.4133
 5333SOL    HW127632   4.489   0.961   4.387  1.7579 -2.6734 -2.1556
 5333SOL    HW227633   4.558   1.095   4.366 -1.5700 -0.6788  2.3152
 5334SOL     OW27634   2.641   0.830   6.241  0.5205 -0.0234  0.2093
 5334SOL    HW127635   2.719   0.883   6.230  1.7386 -1.6639  0.9106
 5334SOL    HW227636   2.648   0.762   6.308  1.2633 -0.4031 -0.2621
 5335SOL     OW27637   2.147   3.741  10.727 -0.3812 -0.3719 -0.3629
 5335SOL    HW127638   2.143   3.673  10.794 -0.5345  1.4371  1.4607
 5335SOL    HW227639   2.237   3.745  10.693 -0.6617  1.2949 -0.9437
 5336SOL     OW27640   4.628   0.056   2.509 -0.5043 -0.3567  0.9629
 5336SOL    HW127641   4.559   0.045   2.443  1.0801  0.6117 -0.8670
 5336SOL    HW227642   4.692   0.095   2.450 -0.7774 -2.0751 -0.4612
 5337SOL     OW27643   0.153   1.892   5.478  0.6844 -0.1742 -0.1733
 5337SOL    HW127644   0.212   1.822   5.447  0.4065 -1.4114  2.0718
 5337SOL    HW227645   0.220   1.960   5.486 -0.2799  0.9945 -2.1697
 5338SOL     OW27646   2.612   1.449   5.246 -0.1938  0.1667 -0.3352
 5338SOL    HW127647   2.547   1.488   5.188 -2.0868 -0.9049  1.0571
 5338SOL    HW227648   2.674   1.522   5.247 -0.1823  0.1489  0.2848
 5339SOL     OW27649   1.183   3.077   1.625  0.4044  0.5633  0.2646
 5339SOL    HW127650   1.212   3.002   1.574  2.1320  1.7874 -0.5809
 5339SOL    HW227651   1.253   3.141   1.613  1.2991 -1.1176 -3.2754
 5340SOL     OW27652   2.816   2.850   2.849 -0.5334 -0.2254 -0.6638
 5340SOL    HW127653   2.748   2.871   2.913  2.2275  1.6091  1.6309
 5340SOL    HW227654   2.760   2.842   2.772 -1.9772  0.4466  0.3114
 5341SOL     OW27655   2.251   0.144   5.817 -0.8030 -0.4653 -0.2875
 5341SOL    HW127656   2.328   0.143   5.875  0.5190  0.6093 -2.0285
 5341SOL    HW227657   2.244   0.055   5.785 -0.2801 -0.2873 -0.8936
 5342SOL     OW27658   2.011   1.535   7.653 -0.1328 -0.4109 -0.4950
 5342SOL    HW127659   1.964   1.521   7.571 -0.3698  1.0251 -0.6064
 5342SOL    HW227660   1.945   1.545   7.721 -1.3800 -0.8953 -1.6410
 5343SOL     OW27661   2.301   3.009   6.729 -0.3606  0.2108 -0.2554
 5343SOL    HW127662   2.266   2.936   6.677  1.1476  0.1895 -1.2603
 5343SOL    HW227663   2.397   3.002   6.727 -0.2146  2.4269 -1.4314
 5344SOL     OW27664   1.101   4.511   3.204 -0.3042  0.1584 -0.6658
 5344SOL    HW127665   1.116   4.580   3.270 -3.1877 -0.7944  1.0018
 5344SOL    HW227666   1.076   4.565   3.130 -0.2666  0.8663 -0.1631
 5345SOL     OW27667   2.121   1.612  17.484  0.0740  0.3883  0.4782
 5345SOL    HW127668   2.141   1.696  17.444  1.7818  0.1562  0.8200
 5345SOL    HW227669   2.158   1.633  17.570  4.3315  0.1180 -1.2593
 5346SOL     OW27670   1.821   0.496   4.420 -0.1863 -0.0959 -0.5666
 5346SOL    HW127671   1.730   0.525   4.407  0.1042  0.1759 -1.9424
 5346SOL    HW227672   1.799   0.415   4.467 -1.5765  0.5062 -0.1848
 5347SOL     OW27673   3.691   1.490   4.343  0.4228 -0.2229  0.1000
 5347SOL    HW127674   3.765   1.430   4.350 -0.3470 -0.9337  1.9944
 5347SOL    HW227675   3.611   1.439   4.360 -0.1081  0.2909 -0.8096
 5348SOL     OW27676   0.092   0.620   4.578  0.6927 -0.1583 -0.5137
 5348SOL    HW127677   0.009   0.572   4.580 -0.4490  1.8645  2.1459
 5348SOL    HW227678   0.155   0.553   4.553  1.9044  0.3748  1.0685
 5349SOL     OW27679   0.078   0.764   1.790 -0.3137 -0.2716 -0.6623
 5349SOL    HW127680   0.141   0.742   1.721 -0.9504  1.6941 -1.8527
 5349SOL    HW227681   4.732   0.739   1.751  0.3878  0.1021 -2.4203
 5350SOL     OW27682   4.315   4.510  11.156  0.2185 -0.0331  0.3419
 5350SOL    HW127683   4.291   4.576  11.222 -0.3134 -0.2493  0.3645
 5350SOL    HW227684   4.383   4.563  11.114 -1.5530  1.7192 -0.3240
 5351SOL     OW27685   2.088   1.579   2.926  0.3492 -0.1714 -0.0958
 5351SOL    HW127686   2.181   1.585   2.904 -0.0490  0.8119 -1.4919
 5351SOL    HW227687   2.070   1.538   2.842 -1.5384  1.1325 -0.3215
 5352SOL     OW27688   3.448   0.703   3.384 -0.1798 -0.2979 -0.5758
 5352SOL    HW127689   3.497   0.736   3.309 -0.0507 -0.0378 -0.3770
 5352SOL    HW227690   3.371   0.761   3.385  0.4362  0.4941  0.0728
 5353SOL     OW27691   3.186   3.403   5.085 -0.1928  0.0609 -0.1827
 5353SOL    HW127692   3.222   3.412   4.996  0.7956 -0.4557  0.1673
 5353SOL    HW227693   3.219   3.491   5.106 -1.3715  0.7664 -1.2727
 5354SOL     OW27694   2.681   0.015   1.624  0.1308  0.9349 -0.0778
 5354SOL    HW127695   2.738   4.707   1.685  1.0305  0.7086 -1.0968
 5354SOL    HW227696   2.679   4.693   1.550 -1.1911  1.5429 -0.5444
 5355SOL     OW27697   2.303   2.244   2.601 -0.3079 -0.0072 -0.1795
 5355SOL    HW127698   2.283   2.330   2.640  0.7808  0.3438 -0.3940
 5355SOL    HW227699   2.265   2.187   2.668  1.4014  0.7116  1.4284
 5356SOL     OW27700   1.111   2.098   0.341  0.2911 -0.4936  0.2663
 5356SOL    HW127701   1.085   2.176   0.391 -1.1423 -0.8599  0.0791
 5356SOL    HW227702   1.201   2.126   0.326 -0.0546  1.3075  1.3969
 5357SOL     OW27703   2.546   0.487   4.548 -0.2269 -0.3322  0.6779
 5357SOL    HW127704   2.542   0.477   4.453 -2.1684 -0.6111  0.7882
 5357SOL    HW227705   2.454   0.500   4.571 -0.2788  0.5094 -0.0631
 5358SOL     OW27706   3.185   0.500   3.618  0.1938  0.3676  0.2035
 5358SOL    HW127707   3.189   0.539   3.705  0.4354 -1.2575  0.9085
 5358SOL    HW227708   3.125   0.552   3.564  0.0627 -0.9083 -0.8913
 5359SOL     OW27709   3.460   2.158   9.086  0.4382  0.1028  0.2523
 5359SOL    HW127710   3.413   2.241   9.096 -0.4897 -0.2826 -0.8886
 5359SOL    HW227711   3.468   2.157   8.991 -1.4311  0.1064  0.0855
 5360SOL     OW27712   4.431   2.469   7.090  0.6860 -0.0261  0.0191
 5360SOL    HW127713   4.372   2.401   7.056 -0.4355  1.0882 -0.2778
 5360SOL    HW227714   4.381   2.519   7.154 -0.2999 -1.2033  0.1665
 5361SOL     OW27715   1.834   3.312   0.978  0.1535 -0.1329  0.1460
 5361SOL    HW127716   1.920   3.332   0.941  0.6743 -0.1662  1.3730
 5361SOL    HW227717   1.834   3.384   1.042 -0.4566  0.1556 -0.1794
 5362SOL     OW27718   3.883   0.948   8.035 -0.3688 -0.2592 -0.2659
 5362SOL    HW127719   3.877   0.945   8.130  0.3282 -1.7273 -0.2565
 5362SOL    HW227720   3.846   0.861   8.020  3.6648 -1.8653 -1.0048
 5363SOL     OW27721   1.065   1.153   0.640 -0.1968 -0.0011 -0.3958
 5363SOL    HW127722   1.057   1.080   0.700 -1.7781  0.6007  0.1402
 5363SOL    HW227723   1.008   1.214   0.686  0.1014  0.9530 -1.2662
 5364SOL     OW27724   0.516   2.286   7.800 -0.1124 -0.1486  0.6898
 5364SOL    HW127725   0.520   2.190   7.795  0.9226  0.0177 -1.6633
 5364SOL    HW227726   0.532   2.313   7.710 -1.7942 -3.4242 -0.6006
 5365SOL     OW27727   3.023   1.327   6.395  0.0435 -0.3088  0.0410
 5365SOL    HW127728   2.974   1.252   6.429  0.7174 -1.1620 -0.8651
 5365SOL    HW227729   3.069   1.287   6.322  3.1521  0.6152  1.5104
 5366SOL     OW27730   2.887   3.480   7.500  0.3807 -0.1407 -0.9336
 5366SOL    HW127731   2.912   3.506   7.411  1.4914 -2.0923 -1.2019
 5366SOL    HW227732   2.875   3.385   7.488 -0.2359 -0.4423  1.9803
 5367SOL     OW27733   2.183   2.046  10.518 -0.3035 -0.1197  0.0873
 5367SOL    HW127734   2.252   2.007  10.571 -0.4621 -0.2680  0.1827
 5367SOL    HW227735   2.203   2.006  10.433  0.6606  0.4806  0.0269
 5368SOL     OW27736   3.870   0.659  15.086 -0.6582  0.4586  0.2978
 5368SOL    HW127737   3.929   0.728  15.057 -0.8210  0.7007  0.5443
 5368SOL    HW227738   3.831   0.710  15.157 -0.7739  1.6939 -0.6473
 5369SOL     OW27739   3.361   3.029   9.810  0.1512 -0.2948 -0.1240
 5369SOL    HW127740   3.439   3.075   9.780 -0.1600 -0.0829 -0.5925
 5369SOL    HW227741   3.356   3.051   9.903 -0.2011 -0.0499 -0.2006
 5370SOL     OW27742   2.343   4.061   5.870  0.4863  0.5071  0.9417
 5370SOL    HW127743   2.317   4.109   5.949  1.2871  1.1351  0.8165
 5370SOL    HW227744   2.257   4.062   5.828  1.9671  0.0891 -2.1398
 5371SOL     OW27745   0.491   1.279   8.391 -0.8092  0.2037 -0.5495
 5371SOL    HW127746   0.440   1.335   8.332 -2.7450 -0.3400  0.5908
 5371SOL    HW227747   0.486   1.322   8.476 -1.7115 -3.3164  1.1909
 5372SOL     OW27748   4.128   0.090   5.550 -0.4248 -0.0559 -0.2990
 5372SOL    HW127749   4.139   0.020   5.486  1.1743  0.4090 -0.5276
 5372SOL    HW227750   4.039   0.072   5.581 -1.0927  1.1308 -1.4825
 5373SOL     OW27751   4.510   3.125   7.765  0.3550 -0.0548 -0.2509
 5373SOL    HW127752   4.546   3.122   7.676 -1.7998  0.1045 -1.1324
 5373SOL    HW227753   4.465   3.041   7.772  0.6716 -0.2445 -0.5094
 5374SOL     OW27754   3.259   4.004   6.969  0.0038 -0.1977 -0.3437
 5374SOL    HW127755   3.168   4.032   6.956 -0.8101 -2.9017 -0.4523
 5374SOL    HW227756   3.299   4.018   6.883 -0.2094 -0.1931 -0.4413
 5375SOL     OW27757   0.728   3.998   6.083 -0.2544 -0.3582  0.5498
 5375SOL    HW127758   0.702   3.908   6.062 -0.8010  0.4319 -2.1459
 5375SOL    HW227759   0.757   3.993   6.174  0.5228 -1.2498  0.2468
 5376SOL     OW27760   1.386   0.590   2.799  0.2071  0.8130 -0.1085
 5376SOL    HW127761   1.301   0.619   2.766 -0.7333 -3.8214 -1.6975
 5376SOL    HW227762   1.442   0.656   2.758  1.2531 -1.7869 -2.7991
 5377SOL     OW27763   4.113   1.442   6.196  0.2213 -0.1682  0.5900
 5377SOL    HW127764   4.178   1.476   6.256 -1.7339  2.1098  1.4107
 5377SOL    HW227765   4.108   1.353   6.231 -1.3110 -0.1248  0.5017
 5378SOL     OW27766   2.697   2.162   7.421 -0.1733 -0.1858 -0.1398
 5378SOL    HW127767   2.679   2.070   7.440 -1.3090 -0.2764 -1.6705
 5378SOL    HW227768   2.676   2.165   7.328  0.2701  1.6655 -0.1925
 5379SOL     OW27769   2.393   3.438  17.616 -0.3466  0.0255  0.3191
 5379SOL    HW127770   2.485   3.431  17.642 -0.6557 -0.5697  1.2701
 5379SOL    HW227771   2.344   3.488  17.682  0.4250  0.9985  0.1436
 5380SOL     OW27772   2.884   3.178   4.089  0.1418  0.5113  0.0770
 5380SOL    HW127773   2.919   3.117   4.154  1.3972 -1.1174 -2.1565
 5380SOL    HW227774   2.957   3.236   4.070 -1.0912  1.9413 -0.3288
 5381SOL     OW27775   4.579   0.039   5.521  0.6135 -0.1800 -0.5613
 5381SOL    HW127776   4.510   0.018   5.584  3.1622 -2.8013  1.3685
 5381SOL    HW227777   4.584   4.699   5.465  0.5699 -0.9859  0.5697
 5382SOL     OW27778   2.274   2.987   7.688  0.2305 -0.5626 -0.1112
 5382SOL    HW127779   2.307   2.899   7.707 -1.8988 -1.3106  0.0129
 5382SOL    HW227780   2.345   3.042   7.723  0.8436  0.4159 -2.9287
 5383SOL     OW27781   3.133   4.038   7.247  0.2438  0.1362 -0.4884
 5383SOL    HW127782   3.190   4.100   7.292 -0.4978 -0.2738  1.0165
 5383SOL    HW227783   3.172   4.036   7.159  0.2059 -0.0268 -0.5019
 5384SOL     OW27784   3.456   1.391   4.559 -0.1739  0.1738 -0.4161
 5384SOL    HW127785   3.427   1.332   4.490  0.1989  0.0875 -0.5015
 5384SOL    HW227786   3.379   1.448   4.562  0.9803  1.6403  1.2394
 5385SOL     OW27787   1.483   3.161   2.292 -0.1632 -0.0416  0.0478
 5385SOL    HW127788   1.545   3.152   2.365 -0.0415 -0.3115 -0.0880
 5385SOL    HW227789   1.400   3.167   2.340  0.4389 -2.5482  1.4021
 5386SOL     OW27790   3.156   3.528   3.678  0.0922 -0.3886  0.4322
 5386SOL    HW127791   3.110   3.494   3.601 -0.2610 -0.7539  0.8113
 5386SOL    HW227792   3.239   3.480   3.668 -0.0993 -0.7793  0.7603
 5387SOL     OW27793   3.911   1.203   6.015  0.0183 -0.9555  0.1555
 5387SOL    HW127794   3.823   1.233   6.038  0.7816  2.4604 -1.3920
 5387SOL    HW227795   3.883   1.146   5.944 -2.1887  0.1206  0.1643
 5388SOL     OW27796   3.818   3.492   5.192 -0.0213  0.1515 -0.0752
 5388SOL    HW127797   3.785   3.581   5.205  1.1894  0.5864  0.0579
 5388SOL    HW227798   3.865   3.505   5.109 -1.1248  2.5080 -0.3383
 5389SOL     OW27799   0.401   3.467   1.589  0.1667 -0.0820  0.5817
 5389SOL    HW127800   0.392   3.528   1.662 -2.8038  0.5737 -0.2984
 5389SOL    HW227801   0.416   3.384   1.633 -3.5543 -0.3121  1.4818
 5390SOL     OW27802   0.588   0.206  14.135  0.3700  0.5695  0.1989
 5390SOL    HW127803   0.579   0.151  14.057 -1.4339 -1.7370  2.0710
 5390SOL    HW227804   0.681   0.202  14.157  0.1177  3.0758  1.7860
 5391SOL     OW27805   0.751   0.313  17.473 -0.0839 -0.6951 -0.6959
 5391SOL    HW127806   0.840   0.284  17.455  0.2336 -0.8924  1.1880
 5391SOL    HW227807   0.732   0.267  17.555  1.0679 -0.5854 -0.3718
 5392SOL     OW27808   4.297   0.992  14.586 -0.1010  0.1362  0.5014
 5392SOL    HW127809   4.277   0.920  14.646 -0.5286  1.0859  1.4970
 5392SOL    HW227810   4.355   1.046  14.639  0.0854  0.5862 -0.1682
 5393SOL     OW27811   1.676   3.637   3.063  0.4286  0.3766  0.3414
 5393SOL    HW127812   1.657   3.706   2.999  0.8583 -0.4093 -0.6466
 5393SOL    HW227813   1.591   3.605   3.093  0.4097 -0.3110 -0.4424
 5394SOL     OW27814   4.732   1.997   9.486  0.1449  0.0347 -0.3216
 5394SOL    HW127815   0.059   1.941   9.444  0.5963  0.1704  0.2051
 5394SOL    HW227816   0.026   2.011   9.575 -0.3208  1.7055 -0.4190
 5395SOL     OW27817   0.465   1.722   0.832 -0.2874 -1.0815 -0.0874
 5395SOL    HW127818   0.551   1.730   0.874 -0.8364 -1.9696  1.2354
 5395SOL    HW227819   0.489   1.734   0.741  1.5167 -0.6981  0.4306
 5396SOL     OW27820   2.123   4.613   5.959 -0.4288 -0.5906  0.0173
 5396SOL    HW127821   2.166   4.622   5.874 -2.8390 -0.6349 -1.1959
 5396SOL    HW227822   2.194   4.630   6.021  0.2017  0.5005 -1.0278
 5397SOL     OW27823   1.384   0.590   3.697 -0.2817  0.2476  0.0726
 5397SOL    HW127824   1.380   0.499   3.727  0.3854 -0.4994 -2.1266
 5397SOL    HW227825   1.312   0.630   3.746  0.4119  0.6620  0.7571
 5398SOL     OW27826   1.726   4.280   6.696 -0.6566 -0.0330  0.1414
 5398SOL    HW127827   1.730   4.187   6.671  0.5691  0.3160 -0.9437
 5398SOL    HW227828   1.736   4.269   6.790 -0.1619 -1.5027 -0.0844
 5399SOL     OW27829   1.004   2.886   8.724  0.4380 -0.1550 -0.0652
 5399SOL    HW127830   0.979   2.937   8.647  0.6362 -0.1414 -0.1204
 5399SOL    HW227831   0.932   2.829   8.749  1.3166 -1.7322 -1.0981
 5400SOL     OW27832   2.867   2.264   7.626 -0.3667 -0.1617  0.4856
 5400SOL    HW127833   2.912   2.180   7.629 -1.0158 -0.4775  1.3994
 5400SOL    HW227834   2.804   2.250   7.556  1.2765 -1.5448 -0.7111
 5401SOL     OW27835   1.351   0.523   8.454 -0.7036 -0.2375  0.1220
 5401SOL    HW127836   1.409   0.576   8.509 -1.4284  0.0876  0.5617
 5401SOL    HW227837   1.359   0.431   8.479  0.5704 -0.5248 -1.3631
 5402SOL     OW27838   2.265   3.875   4.983  0.3934  0.7790  0.5592
 5402SOL    HW127839   2.323   3.880   4.907 -0.4828 -2.3518 -0.2831
 5402SOL    HW227840   2.240   3.783   4.985  1.1387  0.5634  0.0023
 5403SOL     OW27841   3.362   2.017   3.365  0.1858 -0.3021 -0.4402
 5403SOL    HW127842   3.455   2.004   3.345 -0.0296 -1.5329 -0.6769
 5403SOL    HW227843   3.321   2.008   3.279  0.5445 -0.9069 -0.5545
 5404SOL     OW27844   1.474   1.260   8.757 -0.2885 -0.1539 -0.0963
 5404SOL    HW127845   1.496   1.340   8.805  1.9621 -1.0596  0.3981
 5404SOL    HW227846   1.402   1.290   8.702 -1.5057 -1.5760  0.7503
 5405SOL     OW27847   2.807   0.205   5.527  0.2159 -0.2899 -0.6797
 5405SOL    HW127848   2.784   0.140   5.594  1.9071 -0.0601  0.1209
 5405SOL    HW227849   2.893   0.227   5.563 -0.2919 -2.5105  1.9608
 5406SOL     OW27850   4.449   0.165   1.310 -0.0414  0.0405  0.2951
 5406SOL    HW127851   4.410   0.095   1.362 -0.5944  0.1994  0.1055
 5406SOL    HW227852   4.424   0.142   1.220  1.3053 -0.0082 -0.0631
 5407SOL     OW27853   4.152   3.101   4.315  0.4349  0.4107  0.5514
 5407SOL    HW127854   4.241   3.096   4.348  0.0953  1.5049  1.6468
 5407SOL    HW227855   4.182   3.182   4.274 -1.7305  1.3618  0.8390
 5408SOL     OW27856   4.196   3.808   9.893 -0.6323 -0.7076 -0.1569
 5408SOL    HW127857   4.136   3.736   9.910 -0.0991 -0.9390  0.7505
 5408SOL    HW227858   4.156   3.845   9.814  0.3584 -1.2391 -0.9064
 5409SOL     OW27859   1.927   4.387   9.102  0.3490  0.0321  0.2890
 5409SOL    HW127860   1.984   4.434   9.041 -2.1417 -1.6163 -3.2647
 5409SOL    HW227861   1.989   4.372   9.174  1.5183 -1.2579 -0.9919
 5410SOL     OW27862   0.536   4.211   3.917  0.0753 -0.2584 -0.2067
 5410SOL    HW127863   0.537   4.254   4.002  0.7609 -2.7780  1.0562
 5410SOL    HW227864   0.622   4.169   3.922  0.5165  0.4528 -1.7023
 5411SOL     OW27865   0.074   3.982   3.374  0.4423  0.2052 -0.2899
 5411SOL    HW127866   0.168   3.999   3.365  0.2951  2.5697  2.9768
 5411SOL    HW227867   0.045   3.986   3.283  1.2445 -2.9798 -0.6973
 5412SOL     OW27868   0.316   3.115  10.641 -0.1555  0.5985  0.7628
 5412SOL    HW127869   0.378   3.150  10.577  0.8249 -2.5917 -0.0299
 5412SOL    HW227870   0.288   3.036  10.596  1.4284  1.1891 -1.2544
 5413SOL     OW27871   1.392   1.756  10.618 -0.2228 -0.1883  0.8671
 5413SOL    HW127872   1.383   1.669  10.657 -1.7562 -0.9577 -1.2328
 5413SOL    HW227873   1.320   1.808  10.653 -0.2162 -0.7147  1.6602
 5414SOL     OW27874   1.795   1.380  17.524 -0.1062 -0.1910 -0.4513
 5414SOL    HW127875   1.723   1.336  17.570 -1.9218  2.1673 -1.0582
 5414SOL    HW227876   1.753   1.459  17.490 -1.9185 -0.1682  1.8664
 5415SOL     OW27877   1.365   4.646  15.334 -0.3998 -0.1637  0.3391
 5415SOL    HW127878   1.328   4.561  15.355  2.2878 -1.3327  0.3631
 5415SOL    HW227879   1.321   4.705  15.396 -0.3591  2.3380 -2.0249
 5416SOL     OW27880   1.696   0.760   7.749  0.2812  0.0217 -0.7726
 5416SOL    HW127881   1.614   0.808   7.757  0.3379  0.2945 -1.8277
 5416SOL    HW227882   1.760   0.821   7.787  1.9015 -1.5436 -1.0027
 5417SOL     OW27883   3.729   1.397   5.460 -0.1964 -0.4100 -0.5604
 5417SOL    HW127884   3.730   1.315   5.411 -1.2028  0.1375 -1.5003
 5417SOL    HW227885   3.798   1.364   5.518  0.0198  1.1365  0.0562
 5418SOL     OW27886   3.273   0.199   6.694  0.3479 -0.4555 -0.9601
 5418SOL    HW127887   3.299   0.117   6.737  0.9523  1.0727  1.5905
 5418SOL    HW227888   3.292   0.266   6.759  3.0264 -2.8192  0.6791
 5419SOL     OW27889   3.387   3.272   6.582  0.4106  0.4323 -0.6354
 5419SOL    HW127890   3.293   3.292   6.584  0.3252 -0.0816  0.1625
 5419SOL    HW227891   3.399   3.207   6.513  2.2287  0.7745 -0.6418
 5420SOL     OW27892   3.092   0.853   9.012  0.1307  0.1585  0.2565
 5420SOL    HW127893   3.007   0.850   8.967  0.0453 -1.5568  0.5354
 5420SOL    HW227894   3.115   0.943   8.988  0.9581 -0.4428 -1.2080
 5421SOL     OW27895   4.282   1.038  13.919  0.1865  0.6452 -0.3538
 5421SOL    HW127896   4.357   1.015  13.974  0.3069 -1.8338 -1.5679
 5421SOL    HW227897   4.314   1.115  13.873 -0.5913  0.0511 -1.8825
 5422SOL     OW27898   2.234   4.111   2.675  0.0106 -0.1104 -0.0593
 5422SOL    HW127899   2.276   4.137   2.593 -1.1350  0.7142 -0.3887
 5422SOL    HW227900   2.208   4.021   2.652 -1.1822  0.5872 -1.4033
 5423SOL     OW27901   0.293   2.235   8.546 -0.1010  0.1640  0.1443
 5423SOL    HW127902   0.260   2.216   8.634  1.1075  1.5352  0.8993
 5423SOL    HW227903   0.255   2.322   8.530  3.6824  1.9693  0.9462
 5424SOL     OW27904   1.659   4.360   4.452  0.6670 -0.1399 -0.0810
 5424SOL    HW127905   1.666   4.367   4.547  2.0535  2.1671 -0.3457
 5424SOL    HW227906   1.659   4.264   4.444  1.0262 -0.1793  0.3524
 5425SOL     OW27907   0.153   0.763   3.240 -0.6597 -0.1361  0.2462
 5425SOL    HW127908   0.170   0.769   3.334  0.7974  0.1344 -0.0394
 5425SOL    HW227909   0.181   0.675   3.213 -0.6476 -0.3618  0.9861
 5426SOL     OW27910   4.608   3.276  16.599 -0.1449 -0.5061  0.6693
 5426SOL    HW127911   4.650   3.239  16.676 -0.1716 -0.7899  0.5498
 5426SOL    HW227912   4.547   3.204  16.590  1.8991 -2.4868  2.7462
 5427SOL     OW27913   2.469   0.932   4.027 -0.7661 -0.4666  0.2342
 5427SOL    HW127914   2.412   0.856   4.038 -2.6919  1.0098  0.6464
 5427SOL    HW227915   2.440   0.998   4.090  1.6887  0.4761  0.3753
 5428SOL     OW27916   2.208   1.295   5.575  0.0198 -0.0643  0.5044
 5428SOL    HW127917   2.284   1.268   5.627  1.2774 -0.5535 -1.6181
 5428SOL    HW227918   2.251   1.308   5.491  0.9679  2.1265  1.3506
 5429SOL     OW27919   1.010   3.597  13.737  0.0394 -0.3246  0.4482
 5429SOL    HW127920   0.980   3.550  13.660 -1.0923 -0.2657  0.8496
 5429SOL    HW227921   0.955   3.673  13.720  2.4685  1.1969 -0.6192
 5430SOL     OW27922   4.127   0.648   2.264 -0.3116 -0.0003  0.6414
 5430SOL    HW127923   4.074   0.595   2.204 -0.8007  2.6367 -1.2612
 5430SOL    HW227924   4.157   0.582   2.326  0.2186 -0.2803  0.0772
 5431SOL     OW27925   2.762   4.581   1.117 -0.1223  0.2384  0.3468
 5431SOL    HW127926   2.842   4.560   1.069 -2.0178 -1.2416 -2.2237
 5431SOL    HW227927   2.686   4.564   1.060 -1.1528  2.5678  1.0253
 5432SOL     OW27928   1.190   1.930   4.408  0.6392 -0.4239 -0.0436
 5432SOL    HW127929   1.234   1.845   4.408 -1.3215 -1.4338  0.1255
 5432SOL    HW227930   1.102   1.901   4.431 -0.0997  3.2543  1.8692
 5433SOL     OW27931   3.254   3.344   8.904 -0.6677  0.3792  0.0882
 5433SOL    HW127932   3.206   3.349   8.987 -1.4546  1.8486 -0.4528
 5433SOL    HW227933   3.239   3.254   8.877  1.8365 -0.1799  0.5420
 5434SOL     OW27934   1.825   4.009   5.281 -0.2201  0.0685  0.2091
 5434SOL    HW127935   1.819   3.997   5.376  1.6640 -0.7352  0.2304
 5434SOL    HW227936   1.882   4.086   5.280 -0.7441  0.4508 -0.0112
 5435SOL     OW27937   1.612   0.136  15.722 -0.3491 -0.6641  0.5944
 5435SOL    HW127938   1.601   0.178  15.637  0.3209  1.8267  1.7564
 5435SOL    HW227939   1.528   0.090  15.724 -0.1719 -1.0840 -1.0522
 5436SOL     OW27940   2.979   4.238   3.269  0.6181 -0.4827  0.5369
 5436SOL    HW127941   3.073   4.253   3.285  1.1079 -0.5225 -2.2297
 5436SOL    HW227942   2.973   4.161   3.212 -3.5482 -0.8693  1.5600
 5437SOL     OW27943   0.372   2.216   2.186 -0.0957  0.6676 -0.0718
 5437SOL    HW127944   0.365   2.311   2.192  1.1188  0.7225  0.5559
 5437SOL    HW227945   0.456   2.205   2.142 -0.8159 -0.3678 -1.2050
 5438SOL     OW27946   0.708   1.087  14.626  0.3876 -0.5218  0.7494
 5438SOL    HW127947   0.775   1.073  14.560  0.6954  1.5411  0.6183
 5438SOL    HW227948   0.750   1.052  14.705  2.3803  1.1614  0.4541
 5439SOL     OW27949   3.531   3.953  15.557  0.1338 -0.2187 -0.2340
 5439SOL    HW127950   3.442   3.978  15.582  0.3956  0.4185  0.0724
 5439SOL    HW227951   3.544   3.888  15.627  0.1993  0.2952  0.2333
 5440SOL     OW27952   4.699   2.614   7.131  0.0575  0.6212 -0.7248
 5440SOL    HW127953   4.656   2.662   7.202 -1.0021  0.4674 -1.2703
 5440SOL    HW227954   4.622   2.571   7.094  1.4269 -1.4619 -1.1446
 5441SOL     OW27955   1.241   4.557  12.493  0.1450 -0.2433 -0.0227
 5441SOL    HW127956   1.298   4.605  12.554 -1.4511  0.7031  0.7032
 5441SOL    HW227957   1.210   4.483  12.543 -1.4576  0.3423 -0.1539
 5442SOL     OW27958   2.678   1.056   4.613 -0.1287 -0.1845  0.1837
 5442SOL    HW127959   2.673   1.039   4.707  2.2799 -0.5573  0.2509
 5442SOL    HW227960   2.588   1.083   4.594  0.1332 -0.6654 -1.7891
 5443SOL     OW27961   2.521   0.960  15.138  0.7841 -0.3371  0.6300
 5443SOL    HW127962   2.451   1.020  15.115 -0.3234 -1.4945  0.9927
 5443SOL    HW227963   2.589   0.971  15.071  0.8197 -0.4676  0.6434
 5444SOL     OW27964   3.361   3.123   5.796 -0.5509  0.1189 -0.2033
 5444SOL    HW127965   3.274   3.127   5.837  0.3638 -3.7552  2.0354
 5444SOL    HW227966   3.412   3.194   5.836  0.0477 -1.1382  1.2349
 5445SOL     OW27967   3.275   0.290   1.624 -0.5578 -0.0931  0.1089
 5445SOL    HW127968   3.198   0.346   1.613  0.3115  1.6607  2.9326
 5445SOL    HW227969   3.231   0.215   1.664 -0.2910  0.0489  0.6658
 5446SOL     OW27970   3.224   3.566   3.295  0.1603  0.2523 -0.0814
 5446SOL    HW127971   3.137   3.592   3.327  0.6602  1.0815  0.5986
 5446SOL    HW227972   3.209   3.471   3.287  1.0742 -0.0818  2.2895
 5447SOL     OW27973   4.230   1.054   4.282 -0.0765 -0.2735 -0.0803
 5447SOL    HW127974   4.212   1.059   4.376  0.5945  2.4999 -0.1164
 5447SOL    HW227975   4.325   1.037   4.282 -0.1789 -0.8249  2.2141
 5448SOL     OW27976   0.861   4.097  13.217 -0.1287 -0.3828 -0.7272
 5448SOL    HW127977   0.862   4.092  13.121 -2.8868 -1.4885 -0.6931
 5448SOL    HW227978   0.862   4.192  13.230  0.0668 -0.6797  1.4632
 5449SOL     OW27979   0.949   2.585   6.402 -0.6140  0.2914 -0.0696
 5449SOL    HW127980   0.868   2.635   6.397  0.4017  1.7070 -2.7400
 5449SOL    HW227981   1.004   2.649   6.356  0.4682 -0.7953 -0.2805
 5450SOL     OW27982   2.123   4.732   5.042  0.1825  0.0156  0.4753
 5450SOL    HW127983   2.193   0.033   4.990  0.1722  2.0371  1.9551
 5450SOL    HW227984   2.124   4.639   5.020 -0.3490 -0.1540  1.1491
 5451SOL     OW27985   2.588   0.093   3.961  0.6013  0.3116 -0.3894
 5451SOL    HW127986   2.501   0.089   3.920  0.4796  1.7761 -0.2785
 5451SOL    HW227987   2.567   0.055   4.046  0.2344  2.2087  0.3555
 5452SOL     OW27988   1.731   1.553   5.748  0.3184 -0.3178 -0.0389
 5452SOL    HW127989   1.820   1.586   5.758  1.6329 -4.2421  0.9059
 5452SOL    HW227990   1.724   1.506   5.665  1.1028  1.6403 -1.2234
 5453SOL     OW27991   0.587   3.920  15.557 -0.2884 -0.2823  0.0627
 5453SOL    HW127992   0.601   3.979  15.631  1.5484  2.4960 -2.4750
 5453SOL    HW227993   0.569   3.838  15.603 -2.4263 -0.8995 -1.8766
 5454SOL     OW27994   3.567   4.185   2.415  0.2546 -0.0783  0.2628
 5454SOL    HW127995   3.561   4.272   2.454 -3.0452  1.0364 -2.6039
 5454SOL    HW227996   3.517   4.200   2.334 -0.2749 -2.2212  0.2011
 5455SOL     OW27997   3.827   1.214   7.240  0.0007 -0.1797  0.2803
 5455SOL    HW127998   3.881   1.172   7.307 -3.0093 -1.9286  1.5952
 5455SOL    HW227999   3.879   1.198   7.161  0.0481 -0.3529  0.3472
 5456SOL     OW28000   4.388   3.343   2.692  0.5736 -0.2598 -0.1518
 5456SOL    HW128001   4.429   3.272   2.741 -0.3251 -0.6227  0.0629
 5456SOL    HW228002   4.351   3.303   2.613 -0.8444  0.1914  0.2848
 5457SOL     OW28003   0.785   3.666   3.576  0.3126  0.4972 -0.6821
 5457SOL    HW128004   0.752   3.713   3.653  1.5374 -1.2480  0.8930
 5457SOL    HW228005   0.839   3.595   3.610 -0.8501 -0.1066 -0.0858
 5458SOL     OW28006   0.427   3.530   7.022 -0.2752  0.1848  0.4880
 5458SOL    HW128007   0.401   3.620   7.001  1.6346  1.1031  2.0418
 5458SOL    HW228008   0.521   3.526   7.041 -0.4074  1.2406  1.3685
 5459SOL     OW28009   1.555   1.185   4.284  0.2554  0.4071  0.3087
 5459SOL    HW128010   1.553   1.260   4.224  3.9504  1.4038  1.4540
 5459SOL    HW228011   1.615   1.226   4.347  1.1690 -1.5280  0.6945
 5460SOL     OW28012   1.635   4.047   7.442 -0.3217  0.1252  0.0531
 5460SOL    HW128013   1.542   4.031   7.460 -0.5092 -1.5265 -2.4422
 5460SOL    HW228014   1.638   4.130   7.394 -1.4144 -0.0913 -0.4017
 5461SOL     OW28015   3.072   4.376   7.012 -0.5790  0.3357 -0.9820
 5461SOL    HW128016   2.992   4.368   7.064  0.0810  0.3842  0.0468
 5461SOL    HW228017   3.135   4.404   7.078 -1.3410 -0.2147 -0.0170
 5462SOL     OW28018   3.424   0.451   7.302 -0.1969 -0.3829  0.8532
 5462SOL    HW128019   3.408   0.401   7.382  1.0082 -2.3683 -0.1369
 5462SOL    HW228020   3.487   0.394   7.257 -1.2225 -0.6707 -0.2350
 5463SOL     OW28021   4.104   1.283   1.826 -0.0452  0.1260 -0.0050
 5463SOL    HW128022   4.026   1.315   1.873 -0.5698 -2.2460  0.7465
 5463SOL    HW228023   4.164   1.272   1.900 -0.3274 -0.5118  0.1301
 5464SOL     OW28024   1.220   2.843   6.630  0.1481  0.0884  0.5446
 5464SOL    HW128025   1.237   2.750   6.616  1.2795  0.3846 -0.1249
 5464SOL    HW228026   1.210   2.836   6.724 -0.8120  0.4672  0.4786
 5465SOL     OW28027   1.883   0.040   4.491  0.4308 -0.0386  0.1157
 5465SOL    HW128028   1.838   4.697   4.466  0.0621  0.0537  0.4747
 5465SOL    HW228029   1.951   4.732   4.539 -0.7111 -1.3922  0.4311
 5466SOL     OW28030   3.012   4.135   6.893  0.3199 -0.1486  0.2186
 5466SOL    HW128031   2.935   4.113   6.945  0.5937 -1.8191 -0.1026
 5466SOL    HW228032   3.045   4.216   6.932 -0.6752 -0.3764  1.5143
 5467SOL     OW28033   1.740   2.917  15.795 -0.3035  0.1650  0.0211
 5467SOL    HW128034   1.764   2.932  15.703 -1.6609 -2.8486 -0.8341
 5467SOL    HW228035   1.803   2.847  15.810  1.0342  1.6120  1.0582
 5468SOL     OW28036   3.628   1.141   2.836  0.1488  0.0782 -0.0235
 5468SOL    HW128037   3.713   1.180   2.854 -0.0905  0.1510  0.9655
 5468SOL    HW228038   3.647   1.063   2.887  0.6866 -1.3347 -2.3716
 5469SOL     OW28039   4.597   2.592   2.874  0.4800  0.4482 -0.2876
 5469SOL    HW128040   4.565   2.578   2.964 -1.1919 -0.4062 -1.0255
 5469SOL    HW228041   4.670   2.532   2.889 -0.0029 -0.7704 -2.8668
 5470SOL     OW28042   0.622   4.445   8.393 -0.0587 -0.2557  0.0203
 5470SOL    HW128043   0.648   4.356   8.420  0.4404 -0.7338 -1.9978
 5470SOL    HW228044   0.532   4.431   8.423 -0.0759  1.9199  0.9479
 5471SOL     OW28045   2.052   3.775   5.297 -0.3369  0.2298  0.0830
 5471SOL    HW128046   2.112   3.841   5.331  2.0899 -2.7074  1.5037
 5471SOL    HW228047   2.055   3.714   5.370  1.0212  1.1379  0.7779
 5472SOL     OW28048   0.238   1.953  12.185 -0.5016  0.1699  0.3824
 5472SOL    HW128049   0.306   1.957  12.253 -1.5622 -1.7975  1.5519
 5472SOL    HW228050   0.279   1.894  12.121  0.0547  1.3275 -0.3237
 5473SOL     OW28051   1.407   3.485  12.199 -0.3595  0.6342  0.7933
 5473SOL    HW128052   1.485   3.442  12.165 -3.1448 -1.4086 -2.9212
 5473SOL    HW228053   1.341   3.454  12.137  1.1276 -0.1233 -0.3775
 5474SOL     OW28054   1.464   3.974   6.931 -0.2255 -0.3981 -0.2681
 5474SOL    HW128055   1.473   3.895   6.878 -0.6813 -0.0510 -0.8637
 5474SOL    HW228056   1.513   3.947   7.008  0.3223 -0.9654 -0.8121
 5475SOL     OW28057   3.135   1.392  13.575  0.3796  0.1227 -0.3409
 5475SOL    HW128058   3.044   1.422  13.579  1.3374  2.6889  1.3774
 5475SOL    HW228059   3.118   1.303  13.543  1.9047  0.5158 -2.2693
 5476SOL     OW28060   2.373   4.060   9.218 -0.1067  0.2020  0.2805
 5476SOL    HW128061   2.460   4.043   9.254  0.8766  2.3838 -1.0618
 5476SOL    HW228062   2.402   4.110   9.141  1.0450 -2.0014 -0.7317
 5477SOL     OW28063   2.371   4.381   7.870 -0.4348 -0.2148 -0.0662
 5477SOL    HW128064   2.350   4.439   7.943  2.6928  3.1520 -1.7713
 5477SOL    HW228065   2.436   4.430   7.819  0.5856 -1.6345 -0.1246
 5478SOL     OW28066   0.372   1.542   6.429 -0.2294 -0.6147 -0.1361
 5478SOL    HW128067   0.365   1.486   6.351 -1.0504 -1.0375  0.2450
 5478SOL    HW228068   0.280   1.529   6.452 -0.5780  1.1176 -0.5204
 5479SOL     OW28069   4.213   1.503   5.697 -0.7713 -0.1685 -0.0973
 5479SOL    HW128070   4.152   1.456   5.641  0.5656  0.6158 -2.1814
 5479SOL    HW228071   4.168   1.481   5.779 -1.6927 -1.9727 -1.0927
 5480SOL     OW28072   0.556   0.157   6.670 -0.0566  0.5423  0.3807
 5480SOL    HW128073   0.649   0.143   6.651 -0.1675  1.3980 -0.7809
 5480SOL    HW228074   0.545   0.079   6.725 -0.0522  1.3431  1.5197
 5481SOL     OW28075   4.201   3.726   1.928  0.2674 -0.2451  0.7446
 5481SOL    HW128076   4.274   3.757   1.982  0.6892 -0.7186  0.4521
 5481SOL    HW228077   4.132   3.787   1.953  2.2392  1.9878  0.7353
 5482SOL     OW28078   0.097   0.716  15.838 -0.1456 -0.1710 -0.1531
 5482SOL    HW128079   0.047   0.704  15.758 -0.7273 -2.4091  0.5560
 5482SOL    HW228080   0.039   0.768  15.894  2.1121  1.1440  0.9840
 5483SOL     OW28081   0.545   0.234  14.972 -0.3048  0.2823 -0.1037
 5483SOL    HW128082   0.558   0.281  15.055 -0.1371  0.5352 -0.2740
 5483SOL    HW228083   0.596   0.285  14.909 -0.4150  0.5901  0.0534
 5484SOL     OW28084   2.937   3.192  15.688 -0.0915 -0.4950  0.4746
 5484SOL    HW128085   2.938   3.131  15.614  0.6212  1.2009 -0.9164
 5484SOL    HW228086   2.892   3.265  15.646  0.0993  0.7083  2.3988
 5485SOL     OW28087   2.841   2.575   2.902  0.1177 -0.2838 -0.0369
 5485SOL    HW128088   2.925   2.581   2.947 -1.0288  1.4488  1.8028
 5485SOL    HW228089   2.820   2.668   2.902 -0.5885 -0.4435  2.3825
 5486SOL     OW28090   0.809   1.257   4.984  0.1069  0.1548  0.5458
 5486SOL    HW128091   0.898   1.284   5.007 -0.4966  2.3355  0.3292
 5486SOL    HW228092   0.808   1.171   5.026 -3.2665  0.6140  1.4215
 5487SOL     OW28093   2.295   0.916   6.311  0.4029 -0.2749  0.2233
 5487SOL    HW128094   2.368   0.911   6.250  0.2983  1.6813 -0.0668
 5487SOL    HW228095   2.303   1.000   6.358  2.5789  0.8933 -2.2298
 5488SOL     OW28096   0.099   2.395  10.924 -0.3239 -0.3448  0.6659
 5488SOL    HW128097   0.150   2.326  10.881 -1.9634 -0.4011 -1.1950
 5488SOL    HW228098   0.091   2.379  11.018 -1.0868 -0.4745  0.5754
 5489SOL     OW28099   0.735   3.283  12.448 -0.2060  0.2462  0.0785
 5489SOL    HW128100   0.732   3.338  12.527  2.7651  0.1858  0.2516
 5489SOL    HW228101   0.823   3.245  12.450 -1.3971 -2.3174  3.5511
 5490SOL     OW28102   3.286   0.116  14.284  0.4560  0.4833  0.0981
 5490SOL    HW128103   3.228   0.127  14.359 -0.3125  0.1248 -0.4408
 5490SOL    HW228104   3.313   0.205  14.262  1.0630 -0.0286 -1.2650
 5491SOL     OW28105   3.904   1.937   3.749  0.5303  0.4141  0.2827
 5491SOL    HW128106   3.849   2.015   3.738 -1.2215 -0.7304  0.8229
 5491SOL    HW228107   3.946   1.948   3.835 -0.6477  1.5707  0.7184
 5492SOL     OW28108   0.043   2.852   9.671 -0.1507 -0.3875  0.2718
 5492SOL    HW128109   0.109   2.792   9.704  2.5116  0.8947 -2.6926
 5492SOL    HW228110   4.728   2.787   9.625  0.8712 -0.1201 -1.3110
 5493SOL     OW28111   0.343   1.463   8.216  0.0751  0.3909  0.2783
 5493SOL    HW128112   0.380   1.541   8.257 -0.4009 -0.1129  1.6831
 5493SOL    HW228113   0.266   1.495   8.169 -1.0504  0.7632  2.3624
 5494SOL     OW28114   2.291   4.110   4.452  1.1088  0.7460  0.3509
 5494SOL    HW128115   2.305   4.018   4.471 -1.1453 -0.2285 -2.6289
 5494SOL    HW228116   2.199   4.119   4.478  0.8383  1.1605 -0.7081
 5495SOL     OW28117   1.825   4.694   6.655  0.3475 -0.3304 -0.4042
 5495SOL    HW128118   1.754   4.644   6.695  0.0406  0.0456 -0.4749
 5495SOL    HW228119   1.846   4.639   6.579  0.1030 -2.0593  0.7631
 5496SOL     OW28120   1.145   4.724   2.080 -0.1715 -0.1474 -0.5712
 5496SOL    HW128121   1.195   4.693   2.005 -0.8502  0.3441 -1.2335
 5496SOL    HW228122   1.184   0.073   2.091 -1.4052  0.1912  1.1541
 5497SOL     OW28123   3.255   2.984  17.304 -0.6445 -0.5365  0.7123
 5497SOL    HW128124   3.197   2.915  17.336  0.4238 -0.5452  2.6506
 5497SOL    HW228125   3.243   2.959  17.212 -0.4950 -0.3174  0.6330
 5498SOL     OW28126   0.588   3.163   4.400  0.1701 -0.7380 -0.3576
 5498SOL    HW128127   0.496   3.187   4.413  0.7999  1.5292 -0.1050
 5498SOL    HW228128   0.571   3.069   4.392  3.3034 -1.4745  1.6488
 5499SOL     OW28129   3.451   1.378   5.584 -0.3786 -0.4146  0.2239
 5499SOL    HW128130   3.545   1.370   5.570 -0.3693 -2.2147  1.3961
 5499SOL    HW228131   3.432   1.436   5.658  1.5184  1.2007 -0.5459
 5500SOL     OW28132   1.819   2.809   7.576  0.4325 -0.0311  0.1123
 5500SOL    HW128133   1.879   2.829   7.648  1.8721  0.3259 -1.1894
 5500SOL    HW228134   1.874   2.812   7.498  0.3132  3.1800  0.1672
 5501SOL     OW28135   4.585   2.122   8.142  0.2165 -0.7991  0.3996
 5501SOL    HW128136   4.594   2.211   8.108  1.0450 -1.0066  0.0801
 5501SOL    HW228137   4.656   2.072   8.102  0.1479  0.4510 -1.2784
 5502SOL     OW28138   3.761   2.031  10.118  0.4199 -0.0102  0.5417
 5502SOL    HW128139   3.759   1.947  10.165  0.5037  0.2724  1.0526
 5502SOL    HW228140   3.781   2.089  10.191 -0.9518  0.5570  0.4669
 5503SOL     OW28141   4.401   1.110   2.262 -0.2753 -0.1892  0.7048
 5503SOL    HW128142   4.373   1.037   2.317 -0.7642 -1.1258 -0.7865
 5503SOL    HW228143   4.443   1.166   2.328 -1.5316  1.8706 -0.2709
 5504SOL     OW28144   1.254   4.173   7.927  0.1878  0.2770 -0.0737
 5504SOL    HW128145   1.318   4.105   7.949 -1.2558 -0.6462  1.2932
 5504SOL    HW228146   1.275   4.239   7.993  0.3289  0.4459 -0.2891
 5505SOL     OW28147   4.030   4.188   8.996 -0.9988 -0.0412 -0.6549
 5505SOL    HW128148   4.013   4.113   8.939 -0.3283  0.8462 -2.0314
 5505SOL    HW228149   3.948   4.205   9.041 -0.0822 -1.0889  1.4390
 5506SOL     OW28150   1.757   2.809  12.282 -0.3355  0.4338 -0.5574
 5506SOL    HW128151   1.843   2.776  12.254 -0.3476 -1.0583  1.1778
 5506SOL    HW228152   1.707   2.732  12.257 -0.7930 -0.1346  2.1005
 5507SOL     OW28153   0.782   4.439  10.937 -0.1943  0.1037  0.1946
 5507SOL    HW128154   0.699   4.477  10.906 -0.5426 -1.6388 -1.0282
 5507SOL    HW228155   0.817   4.515  10.982  1.2616  0.7399 -2.0247
 5508SOL     OW28156   4.738   1.524   5.827 -0.5466 -0.2483 -0.2937
 5508SOL    HW128157   0.016   1.613   5.796  0.6358 -0.7103 -0.9733
 5508SOL    HW228158   4.710   1.542   5.917 -0.8308 -1.5934 -0.1129
 5509SOL     OW28159   3.781   0.611   5.024 -0.1638 -0.1231 -0.8307
 5509SOL    HW128160   3.799   0.696   5.065 -1.8986  0.3585 -1.0928
 5509SOL    HW228161   3.763   0.558   5.102 -5.7537  2.5540 -0.3594
 5510SOL     OW28162   0.953   1.767   9.138 -0.3858 -0.0245  0.0524
 5510SOL    HW128163   0.950   1.862   9.143 -0.6180  0.1230 -3.1769
 5510SOL    HW228164   1.048   1.754   9.137 -0.4125 -0.2381  0.2345
 5511SOL     OW28165   2.464   4.733   3.491  0.0524  0.4816  0.1604
 5511SOL    HW128166   2.436   4.711   3.403  2.5892  1.6568 -0.9524
 5511SOL    HW228167   2.498   4.652   3.531 -0.7516  0.1627  0.1898
 5512SOL     OW28168   3.970   0.697   6.100  0.3694  0.0645 -0.0107
 5512SOL    HW128169   3.987   0.623   6.159  0.2719  2.1361  2.6218
 5512SOL    HW228170   4.013   0.761   6.155  1.1482  0.2920 -0.8903
 5513SOL     OW28171   2.717   0.667   4.666 -0.0405 -0.3099  0.2541
 5513SOL    HW128172   2.664   0.597   4.629 -1.6832  0.7871  0.5631
 5513SOL    HW228173   2.653   0.734   4.690 -0.6436 -1.2739  1.3079
 5514SOL     OW28174   3.420   4.349   5.098  0.1468  0.3027  0.0075
 5514SOL    HW128175   3.426   4.269   5.150 -0.0498  0.1617 -0.1873
 5514SOL    HW228176   3.339   4.390   5.127  0.1220 -0.6463  1.2655
 5515SOL     OW28177   3.410   0.079   3.453 -0.1506  0.4654  0.0103
 5515SOL    HW128178   3.348   0.011   3.481  1.9175 -1.2983  0.3616
 5515SOL    HW228179   3.458   0.093   3.535  2.0296  2.0143 -1.5403
 5516SOL     OW28180   2.985   1.361  17.098 -0.0819  0.0361  0.4446
 5516SOL    HW128181   2.998   1.421  17.171 -0.6211  0.4785  0.1744
 5516SOL    HW228182   2.906   1.318  17.132 -1.6566  3.3947  1.0615
 5517SOL     OW28183   1.911   0.512   2.715  0.2855  0.0449  0.2704
 5517SOL    HW128184   1.928   0.423   2.684 -0.1503  1.0222 -2.6827
 5517SOL    HW228185   1.922   0.500   2.810 -0.4091 -0.8272  0.2335
 5518SOL     OW28186   4.414   1.973   7.758  0.8496  0.6209 -0.7222
 5518SOL    HW128187   4.382   2.064   7.756 -0.6140  0.1352  0.6878
 5518SOL    HW228188   4.497   1.980   7.805 -0.2861 -0.1386  1.3871
 5519SOL     OW28189   2.525   4.385   7.422 -0.4883 -0.2699  0.3711
 5519SOL    HW128190   2.555   4.453   7.363  2.0360  0.9546  3.0764
 5519SOL    HW228191   2.541   4.430   7.505 -1.4609  0.3222  0.2467
 5520SOL     OW28192   2.201   1.840  17.285  0.3635  0.2574  0.2331
 5520SOL    HW128193   2.287   1.821  17.323  0.1057 -0.9834  0.1979
 5520SOL    HW228194   2.219   1.827  17.191 -1.3795 -0.3183 -0.0092
 5521SOL     OW28195   2.733   4.049  12.336 -0.5388  0.3628  0.2156
 5521SOL    HW128196   2.714   3.955  12.333 -3.3756  0.9782 -0.7625
 5521SOL    HW228197   2.826   4.040  12.360  0.1194  0.8572 -2.1327
 5522SOL     OW28198   0.407   0.079   9.413  0.4910  0.8727 -1.2317
 5522SOL    HW128199   0.318   0.052   9.390  0.6451 -0.9838  0.3828
 5522SOL    HW228200   0.395   0.133   9.491  2.2005  0.2369 -0.5403
 5523SOL     OW28201   3.653   0.525   4.801 -0.3832  0.6849 -0.8631
 5523SOL    HW128202   3.573   0.533   4.853  0.2605 -0.9771  0.4182
 5523SOL    HW228203   3.713   0.532   4.875 -2.6741 -0.3167  1.0674
 5524SOL     OW28204   2.368   2.177   2.343 -0.5510 -0.4263  0.4455
 5524SOL    HW128205   2.345   2.208   2.431 -0.1447  0.0562  0.3822
 5524SOL    HW228206   2.306   2.105   2.342 -1.1380  0.0620  1.7591
 5525SOL     OW28207   2.620   3.257   0.682  0.0669 -0.2650 -0.3448
 5525SOL    HW128208   2.634   3.343   0.722 -2.4150  0.1334 -0.3145
 5525SOL    HW228209   2.650   3.190   0.743 -2.7026  0.3750  1.7117
 5526SOL     OW28210   1.549   2.831   0.451  0.5737  0.0003 -0.1674
 5526SOL    HW128211   1.592   2.858   0.370  0.3625 -0.0141 -0.2857
 5526SOL    HW228212   1.601   2.873   0.518 -1.7790  3.0983 -0.2747
 5527SOL     OW28213   3.678   3.282   6.177  0.1678 -0.1033  0.1664
 5527SOL    HW128214   3.595   3.239   6.198 -0.4780  0.5561 -1.0222
 5527SOL    HW228215   3.727   3.210   6.216  0.6988 -0.6529 -1.5486
 5528SOL     OW28216   1.128   1.485  10.585 -0.4463 -0.0250  1.0003
 5528SOL    HW128217   1.099   1.429  10.512  2.1366  1.5936 -1.2622
 5528SOL    HW228218   1.130   1.570  10.542 -2.4280 -0.9219 -0.8956
 5529SOL     OW28219   0.372   2.884  17.573 -0.2600  0.0716 -0.1727
 5529SOL    HW128220   0.455   2.877  17.620 -0.1039  0.4301 -0.4038
 5529SOL    HW228221   0.407   2.915  17.490 -1.4080 -1.4111 -1.2082
 5530SOL     OW28222   0.366   0.339   6.055 -0.1511  0.1573 -0.6909
 5530SOL    HW128223   0.422   0.302   6.123 -0.2306 -0.1388 -0.7873
 5530SOL    HW228224   0.278   0.313   6.079 -0.0511 -0.1736 -0.6862
 5531SOL     OW28225   3.995   1.512   7.313  0.2379  0.4688  0.0160
 5531SOL    HW128226   3.904   1.522   7.286  0.5345  3.3491  0.1282
 5531SOL    HW228227   3.984   1.457   7.391 -1.2895 -1.3277 -1.4841
 5532SOL     OW28228   4.445   1.986   5.146 -0.1695  0.1018 -0.3215
 5532SOL    HW128229   4.370   2.045   5.154 -0.4709 -0.3744  0.2951
 5532SOL    HW228230   4.446   1.934   5.226  3.5076  1.1516  0.3216
 5533SOL     OW28231   0.879   4.471   2.507  0.1540 -0.1782 -0.6413
 5533SOL    HW128232   0.818   4.521   2.454  3.9681 -1.2068 -6.0763
 5533SOL    HW228233   0.858   4.500   2.596  0.2784 -0.2479 -0.5880
 5534SOL     OW28234   4.512   1.707   8.598  0.0536  0.4780  0.3307
 5534SOL    HW128235   4.482   1.794   8.569 -1.2158  0.1335  0.5869
 5534SOL    HW228236   4.444   1.698   8.665  1.4048  0.2129  1.6571
 5535SOL     OW28237   2.427   2.962  10.676 -0.5790 -0.6814  0.3337
 5535SOL    HW128238   2.368   2.967  10.601 -1.8752  0.1517  1.4026
 5535SOL    HW228239   2.382   3.008  10.746  0.3125  0.7120 -0.0012
 5536SOL     OW28240   1.813   0.727   0.013  0.3491 -0.0335 -0.1152
 5536SOL    HW128241   1.845   0.766  17.682 -0.9062 -2.7716 -1.8832
 5536SOL    HW228242   1.721   0.713  17.744  0.2776 -2.3656  1.8842
 5537SOL     OW28243   1.678   2.986   9.267 -0.2444  0.1019 -0.0504
 5537SOL    HW128244   1.683   3.046   9.193  2.2850  1.5787  1.3579
 5537SOL    HW228245   1.730   3.022   9.339 -0.9968  0.3582  0.3699
 5538SOL     OW28246   3.299   2.718   4.130  0.2117  0.0701  0.3211
 5538SOL    HW128247   3.319   2.760   4.046  0.2878  0.3712  0.4881
 5538SOL    HW228248   3.357   2.642   4.127  1.6390  1.2170 -1.2896
 5539SOL     OW28249   1.783   4.651  11.733  0.4661  0.5694 -0.8226
 5539SOL    HW128250   1.831   4.663  11.815 -0.1201  2.3317 -0.7257
 5539SOL    HW228251   1.719   4.722  11.734  0.2140  0.3294  0.3091
 5540SOL     OW28252   0.279   2.847   8.235  0.4200 -0.0877 -0.3081
 5540SOL    HW128253   0.328   2.848   8.318  1.9153 -0.8746 -1.1789
 5540SOL    HW228254   0.234   2.762   8.235 -1.3009  0.8188 -0.0939
 5541SOL     OW28255   0.805   3.450   7.480 -0.0688  0.8345 -0.1063
 5541SOL    HW128256   0.763   3.534   7.498 -1.5705  0.0883 -0.1053
 5541SOL    HW228257   0.756   3.396   7.543 -0.7865  1.6492  0.0201
 5542SOL     OW28258   1.616   1.270   1.936 -0.0020  0.3336 -0.1556
 5542SOL    HW128259   1.556   1.196   1.924 -0.7000  0.5068  2.2407
 5542SOL    HW228260   1.703   1.229   1.936  1.0794  2.6296 -2.5356
 5543SOL     OW28261   1.124   2.587   0.800  0.1115  0.5124 -0.5429
 5543SOL    HW128262   1.212   2.626   0.802  0.4545 -0.3427  2.0049
 5543SOL    HW228263   1.089   2.637   0.726  2.6496  1.4961 -1.0884
 5544SOL     OW28264   2.527   1.811   5.653  0.6004  0.3354 -0.1679
 5544SOL    HW128265   2.480   1.802   5.736  1.0623  2.1491  0.2702
 5544SOL    HW228266   2.467   1.774   5.588  0.9152 -1.8201  0.7485
 5545SOL     OW28267   4.512   1.161   4.655 -0.4027  0.1041  0.0026
 5545SOL    HW128268   4.462   1.133   4.732  1.0379  1.5530  1.4691
 5545SOL    HW228269   4.603   1.147   4.682  0.3076  0.4809 -2.1879
 5546SOL     OW28270   1.433   4.134   4.505  0.2562 -0.2354  0.1226
 5546SOL    HW128271   1.443   4.178   4.589  2.3733 -2.6550  1.1239
 5546SOL    HW228272   1.338   4.130   4.499  0.2445 -0.2234  0.2876
 5547SOL     OW28273   0.335   2.509   8.924  0.2212 -0.0723  0.1286
 5547SOL    HW128274   0.297   2.580   8.975 -2.2476 -0.0729 -1.7425
 5547SOL    HW228275   0.314   2.431   8.974  0.1511 -0.2876 -0.2339
 5548SOL     OW28276   2.032   4.011   8.352 -0.0317 -0.3855 -0.2240
 5548SOL    HW128277   2.061   3.928   8.389 -2.8680 -1.7413 -1.0261
 5548SOL    HW228278   2.112   4.060   8.332 -0.8340  1.0601  0.1364
 5549SOL     OW28279   3.468   1.776   6.257  0.1869 -0.0611 -0.3171
 5549SOL    HW128280   3.444   1.819   6.339  0.2406 -1.0522  0.2129
 5549SOL    HW228281   3.425   1.694   6.284  1.1496 -0.2785  0.5478
 5550SOL     OW28282   3.417   4.252   4.590 -0.0667  0.0890 -0.2707
 5550SOL    HW128283   3.390   4.234   4.680 -1.3013 -0.1675 -0.6850
 5550SOL    HW228284   3.342   4.304   4.560  1.0581  2.0804  0.3475
 5551SOL     OW28285   3.315   2.881   5.934  0.3359  0.0918  0.6606
 5551SOL    HW128286   3.327   2.798   5.887 -1.6561 -0.5248  1.2420
 5551SOL    HW228287   3.351   2.943   5.871 -2.0339 -0.3716 -1.1570
 5552SOL     OW28288   3.508   0.116   9.070 -0.2520  0.1733  0.5565
 5552SOL    HW128289   3.476   0.122   9.159 -1.3208  3.0813 -0.0179
 5552SOL    HW228290   3.600   0.143   9.079 -0.0351 -0.1157 -0.7028
 5553SOL     OW28291   2.928   0.125   4.927  0.1492 -0.3358  0.6334
 5553SOL    HW128292   2.890   0.042   4.957  0.3363 -0.5809  0.1884
 5553SOL    HW228293   2.965   0.102   4.841  0.8939 -0.4483  0.9819
 5554SOL     OW28294   3.188   3.778   3.088 -0.4129 -0.2953 -0.7849
 5554SOL    HW128295   3.244   3.826   3.149 -3.6777  1.0088  1.1629
 5554SOL    HW228296   3.190   3.695   3.136 -2.0161  0.9657  1.4582
 5555SOL     OW28297   1.146   1.760  13.886  0.4243  0.1515  0.5141
 5555SOL    HW128298   1.137   1.855  13.892 -2.2510 -0.0240 -0.4006
 5555SOL    HW228299   1.233   1.744  13.922 -0.2225 -2.0152  1.0707
 5556SOL     OW28300   1.975   0.034   9.082 -0.1186  0.0303 -0.0166
 5556SOL    HW128301   1.987   4.686   9.042 -0.4659  0.0129 -0.0831
 5556SOL    HW228302   1.884   0.011   9.098  0.9112 -5.1347 -1.6292
 5557SOL     OW28303   1.643   2.531  16.984  0.8529 -0.3118 -0.2275
 5557SOL    HW128304   1.574   2.545  16.919  0.6739 -0.9288 -0.1669
 5557SOL    HW228305   1.724   2.536  16.934  1.0726  0.7501  0.2282
 5558SOL     OW28306   2.313   3.048   9.142  0.1279 -1.0318 -0.1492
 5558SOL    HW128307   2.338   3.136   9.169 -0.0630 -0.6878 -1.1043
 5558SOL    HW228308   2.299   2.998   9.223  0.0193 -2.7820 -1.2408
 5559SOL     OW28309   0.140   3.787   5.491  0.0515 -0.5711 -0.7393
 5559SOL    HW128310   0.205   3.847   5.527 -1.0568 -0.6249  1.3424
 5559SOL    HW228311   0.124   3.727   5.564  1.5358 -0.8390 -0.6347
 5560SOL     OW28312   2.148   2.239  17.499 -0.0055 -0.1898 -0.0720
 5560SOL    HW128313   2.142   2.237  17.403  3.0456 -1.7848 -0.2175
 5560SOL    HW228314   2.138   2.332  17.519  3.1497  0.1290 -0.0982
 5561SOL     OW28315   3.931   1.682   5.370 -0.2783 -0.4372  0.2710
 5561SOL    HW128316   3.972   1.602   5.337 -1.7859  0.0843 -2.7899
 5561SOL    HW228317   3.873   1.694   5.296  1.6053  3.3346 -0.5916
 5562SOL     OW28318   1.485   1.903  15.733 -0.3058 -0.0360  0.2779
 5562SOL    HW128319   1.435   1.822  15.746 -0.3660 -0.4697 -2.7590
 5562SOL    HW228320   1.413   1.959  15.706 -1.0964 -0.7194  0.9688
 5563SOL     OW28321   1.325   1.791   0.204 -0.3240  0.1536  0.8143
 5563SOL    HW128322   1.278   1.712   0.232  0.8359 -0.2183  1.7660
 5563SOL    HW228323   1.403   1.748   0.168 -2.1859 -3.3602  0.9074
 5564SOL     OW28324   4.398   2.391   5.723 -0.0176  0.5890  0.4241
 5564SOL    HW128325   4.486   2.377   5.688 -0.3604 -0.3512 -0.0602
 5564SOL    HW228326   4.382   2.478   5.687 -0.7991  0.8569  1.4140
 5565SOL     OW28327   3.964   4.321  11.870  0.3848  0.2010  0.1666
 5565SOL    HW128328   4.031   4.264  11.832  2.1796  2.1029  0.5162
 5565SOL    HW228329   4.007   4.389  11.921  0.1646  1.8855 -1.8708
 5566SOL     OW28330   2.530   2.452   4.838  0.0076  0.1221  0.6646
 5566SOL    HW128331   2.496   2.369   4.803  2.2412  0.4874 -2.2876
 5566SOL    HW228332   2.451   2.483   4.884 -1.0861 -0.2542 -0.9783
 5567SOL     OW28333   4.103   0.744  10.938 -0.3870 -0.1162  0.0853
 5567SOL    HW128334   4.075   0.835  10.952 -1.7630 -0.6999  1.0641
 5567SOL    HW228335   4.035   0.695  10.983 -0.6134  0.7616  0.7054
 5568SOL     OW28336   1.089   1.927   5.352 -0.2923  0.0424 -0.2947
 5568SOL    HW128337   1.177   1.907   5.383  0.3897  0.2837 -2.0781
 5568SOL    HW228338   1.084   2.017   5.386 -3.2553 -0.5011  0.7362
 5569SOL     OW28339   2.977   3.330   3.119 -0.2617 -0.0625 -0.4875
 5569SOL    HW128340   2.892   3.350   3.158 -1.0242  0.2659 -2.3365
 5569SOL    HW228341   2.961   3.246   3.075 -2.5591  0.5324 -0.7590
 5570SOL     OW28342   4.674   3.298   9.436 -0.0107 -0.3813  0.4167
 5570SOL    HW128343   4.712   3.210   9.437  0.6153 -0.1188 -0.6897
 5570SOL    HW228344   4.623   3.311   9.515 -2.7575  0.2377 -1.4505
 5571SOL     OW28345   2.249   0.470   5.631 -0.5426  0.2020  0.0132
 5571SOL    HW128346   2.326   0.507   5.675  0.3917 -0.4443 -1.1081
 5571SOL    HW228347   2.188   0.459   5.704 -0.2327  0.2785  0.2839
 5572SOL     OW28348   2.585   1.041   0.807  0.3347 -0.0620  0.9071
 5572SOL    HW128349   2.662   1.090   0.835 -0.0100 -0.9462  3.3610
 5572SOL    HW228350   2.625   0.957   0.783  1.5695  0.6935  0.3293
 5573SOL     OW28351   0.799   2.098   6.667  0.0317 -0.0930  0.5814
 5573SOL    HW128352   0.748   2.146   6.601 -1.5102  1.1046  2.6412
 5573SOL    HW228353   0.734   2.093   6.737 -1.2147 -0.7631 -0.6378
 5574SOL     OW28354   0.481   0.716   5.124  0.1410 -0.0819  0.3838
 5574SOL    HW128355   0.481   0.807   5.155 -0.1791 -0.6135  1.9261
 5574SOL    HW228356   0.514   0.666   5.198  2.3510  0.1109 -0.4629
 5575SOL     OW28357   3.547   1.168   7.227  0.3254 -0.7440 -0.1638
 5575SOL    HW128358   3.640   1.188   7.232  0.5565 -2.0307  0.5423
 5575SOL    HW228359   3.519   1.250   7.185  2.5893 -0.1419 -0.4773
 5576SOL     OW28360   3.760   0.026   0.688 -0.3012 -0.0238  0.0999
 5576SOL    HW128361   3.829   0.080   0.726 -0.5528  1.0895 -1.0148
 5576SOL    HW228362   3.681   0.071   0.715 -0.4593 -0.2637  0.0336
 5577SOL     OW28363   0.961   0.178   3.048  0.5735  0.0951 -0.0997
 5577SOL    HW128364   1.048   0.206   3.019 -0.1708  1.5263 -0.9366
 5577SOL    HW228365   0.935   0.245   3.112  1.9527 -0.4201  1.0072
 5578SOL     OW28366   3.663   2.551   2.341  0.4182 -0.3789 -0.2512
 5578SOL    HW128367   3.612   2.505   2.407  0.9937 -0.4481  0.1430
 5578SOL    HW228368   3.732   2.593   2.392  0.9126 -0.5718 -0.7664
 5579SOL     OW28369   3.747   1.535   5.949  0.1256  0.1521  0.1077
 5579SOL    HW128370   3.750   1.532   5.853  1.4925 -0.5635  0.1666
 5579SOL    HW228371   3.746   1.630   5.959  0.1518  0.4702 -2.8761
 5580SOL     OW28372   0.337   1.916   3.049 -0.4528  0.1719  0.3409
 5580SOL    HW128373   0.374   1.832   3.078 -0.1646 -0.0721 -0.7104
 5580SOL    HW228374   0.248   1.884   3.031  0.6833 -2.3889 -0.8005
 5581SOL     OW28375   2.288   4.005  10.679 -0.2424 -0.1431 -0.0559
 5581SOL    HW128376   2.307   3.912  10.666 -0.5008 -0.1726 -0.2271
 5581SOL    HW228377   2.199   4.000  10.714 -0.4371  0.8291 -0.4147
 5582SOL     OW28378   2.554   3.826  16.900 -0.0783  0.1447 -0.2394
 5582SOL    HW128379   2.471   3.855  16.862  0.7613  1.9278 -0.7296
 5582SOL    HW228380   2.523   3.744  16.939  0.0561 -0.1455 -0.7507
 5583SOL     OW28381   4.068   1.375   3.722 -0.1949  0.5842 -0.2642
 5583SOL    HW128382   4.146   1.344   3.675 -0.5668 -0.4873 -0.1831
 5583SOL    HW228383   4.080   1.470   3.717  1.5240  0.3762 -0.0981
 5584SOL     OW28384   3.778   0.176   9.423  0.2436  0.8662 -0.7438
 5584SOL    HW128385   3.866   0.209   9.404  1.1169 -1.8325 -1.3193
 5584SOL    HW228386   3.776   0.088   9.386 -0.6345  0.0271  1.2952
 5585SOL     OW28387   2.420   0.457   3.871 -0.3225 -0.0208  0.2910
 5585SOL    HW128388   2.498   0.436   3.819 -1.1246  2.1322 -1.7571
 5585SOL    HW228389   2.443   0.425   3.958  0.0882 -0.8350 -0.1142
 5586SOL     OW28390   0.609   1.770  12.804 -0.6324 -0.7549  0.0435
 5586SOL    HW128391   0.514   1.760  12.805 -0.8602  1.4446 -0.5514
 5586SOL    HW228392   0.617   1.831  12.877 -1.8053 -0.3658 -0.1591
 5587SOL     OW28393   0.373   4.375   4.785 -0.2420  0.4255 -0.0508
 5587SOL    HW128394   0.319   4.296   4.780  0.5133 -0.1141  0.3062
 5587SOL    HW228395   0.309   4.447   4.787 -0.0771  0.6198 -1.6581
 5588SOL     OW28396   4.281   4.125   6.883 -0.6659  0.7048 -0.2021
 5588SOL    HW128397   4.375   4.114   6.871 -0.3433  1.8204  1.3668
 5588SOL    HW228398   4.247   4.044   6.845  0.2862  0.6210 -0.8892
 5589SOL     OW28399   0.761   1.164   8.281 -0.2229 -0.9127  0.1647
 5589SOL    HW128400   0.814   1.234   8.242 -0.8978  0.0228  0.9037
 5589SOL    HW228401   0.678   1.209   8.294  0.5028 -0.3804  3.1935
 5590SOL     OW28402   3.960   0.604   7.343 -0.1214 -0.6774 -0.5662
 5590SOL    HW128403   3.928   0.573   7.259 -2.1245 -1.1409  0.3867
 5590SOL    HW228404   3.970   0.517   7.380 -0.9671 -0.2844  0.5775
 5591SOL     OW28405   3.901   1.119  12.915 -0.0813  0.0349  0.1140
 5591SOL    HW128406   3.977   1.103  12.971  2.0009  0.9810 -2.4844
 5591SOL    HW228407   3.933   1.154  12.832 -0.9684 -0.7563 -0.5670
 5592SOL     OW28408   3.386   0.056   5.242 -0.6030  0.0950 -0.0542
 5592SOL    HW128409   3.376   0.018   5.155  2.6511 -3.1529  0.9583
 5592SOL    HW228410   3.369   0.146   5.214 -2.2603  0.0492  0.8132
 5593SOL     OW28411   2.467   4.087   9.932 -0.8772  0.1494  0.1555
 5593SOL    HW128412   2.488   4.065  10.023 -3.3672 -1.1344  0.4325
 5593SOL    HW228413   2.514   4.024   9.879 -0.9182  0.0408  0.2476
 5594SOL     OW28414   0.835   2.565   3.572  0.3929  0.0851  0.0228
 5594SOL    HW128415   0.741   2.563   3.556  0.3856  1.7218 -0.1001
 5594SOL    HW228416   0.860   2.612   3.492  0.6363  0.6950  0.4601
 5595SOL     OW28417   1.379   3.727   1.417  0.3987 -0.1623 -0.3575
 5595SOL    HW128418   1.288   3.738   1.445  0.3689 -0.6544 -0.2670
 5595SOL    HW228419   1.393   3.792   1.348 -1.2817  1.7178  1.0698
 5596SOL     OW28420   1.371   2.666   0.714 -0.4106 -0.2194  0.5030
 5596SOL    HW128421   1.359   2.651   0.620 -2.1603  0.2026  0.6622
 5596SOL    HW228422   1.408   2.588   0.755  0.3944  0.5010  1.1711
 5597SOL     OW28423   1.160   2.185  12.269 -0.2202 -0.5454  0.4928
 5597SOL    HW128424   1.186   2.194  12.177 -0.3070 -0.5539  0.4677
 5597SOL    HW228425   1.242   2.193  12.318 -0.1340 -3.4278  0.8070
 5598SOL     OW28426   2.668   4.224   6.517  0.4372  0.1135 -0.1787
 5598SOL    HW128427   2.650   4.309   6.477  0.2739 -0.7231 -1.8862
 5598SOL    HW228428   2.583   4.183   6.501  0.1714  1.6058 -2.6439
 5599SOL     OW28429   3.215   2.035   2.566  0.4227  0.0015 -0.0262
 5599SOL    HW128430   3.299   2.014   2.606 -0.1732  0.6397  1.5405
 5599SOL    HW228431   3.172   1.951   2.584 -0.5740  1.0124  2.2847
 5600SOL     OW28432   2.592   0.019  15.709  0.2266 -0.5371  0.6487
 5600SOL    HW128433   2.572   0.112  15.694  1.8105 -0.1711  0.8177
 5600SOL    HW228434   2.685   0.009  15.731  0.1671 -2.3534  0.0660
 5601SOL     OW28435   0.314   2.179  10.922 -0.2626  0.7068 -0.3727
 5601SOL    HW128436   0.370   2.107  10.950 -1.1983 -0.6570 -2.0506
 5601SOL    HW228437   0.367   2.252  10.956  0.7670 -0.1261 -0.2108
 5602SOL     OW28438   2.457   1.875   0.296 -0.3922  0.1998 -0.2499
 5602SOL    HW128439   2.471   1.920   0.379  2.4735 -0.9574 -0.0924
 5602SOL    HW228440   2.494   1.789   0.317  1.4405  0.9980 -0.1943
 5603SOL     OW28441   2.782   3.020  11.403  0.3269  0.2616 -0.1907
 5603SOL    HW128442   2.828   2.946  11.364 -1.1233 -1.3348  1.1446
 5603SOL    HW228443   2.703   3.010  11.350  0.0707 -0.7817  0.3972
 5604SOL     OW28444   0.803   4.342   3.597 -0.7073  0.4216  0.3447
 5604SOL    HW128445   0.795   4.351   3.691  0.6932 -1.5837  0.6583
 5604SOL    HW228446   0.897   4.359   3.588 -0.5637 -1.0663 -0.9954
 5605SOL     OW28447   0.339   1.290   7.092  0.7764  0.1918 -0.1236
 5605SOL    HW128448   0.264   1.309   7.037 -0.5662  0.0426  1.6571
 5605SOL    HW228449   0.365   1.208   7.051 -1.8091 -1.2641  1.1285
 5606SOL     OW28450   2.218   1.121   1.386 -0.3346 -0.3475  0.0332
 5606SOL    HW128451   2.303   1.086   1.411 -0.7403  0.1594  2.1317
 5606SOL    HW228452   2.217   1.208   1.427  1.4620 -0.3612  0.1069
 5607SOL     OW28453   2.481   4.725  17.148  0.2385  0.4390 -0.4189
 5607SOL    HW128454   2.497   4.692  17.236 -0.9715  4.2359  1.2288
 5607SOL    HW228455   2.551   0.052  17.144  0.8561 -0.1252  1.0664
 5608SOL     OW28456   3.939   2.958   8.674  0.2275 -0.2236  0.1229
 5608SOL    HW128457   3.953   2.915   8.589  0.1134 -1.3250  0.6608
 5608SOL    HW228458   3.924   2.878   8.725  1.0524 -0.3317  0.1924
 5609SOL     OW28459   4.250   1.611   2.431 -0.5100  0.0131 -0.2682
 5609SOL    HW128460   4.212   1.559   2.359 -1.5602  2.1850 -1.2772
 5609SOL    HW228461   4.272   1.685   2.375 -0.6510  0.1805 -0.1012
 5610SOL     OW28462   3.108   0.164  11.380  0.0430 -0.2499 -0.5338
 5610SOL    HW128463   3.194   0.203  11.399 -1.1664  3.0011 -1.6754
 5610SOL    HW228464   3.148   0.080  11.359  2.1448  0.3868  0.8869
 5611SOL     OW28465   2.085   3.589   8.179  0.1566  0.4201 -0.0144
 5611SOL    HW128466   2.039   3.508   8.205 -0.0950  0.0738 -1.5343
 5611SOL    HW228467   2.170   3.566   8.141  0.4472  1.1420  0.1941
 5612SOL     OW28468   1.888   4.088   5.766  0.3353  0.0412 -0.7876
 5612SOL    HW128469   1.896   4.182   5.749  1.4064  0.0590 -0.1811
 5612SOL    HW228470   1.879   4.080   5.861 -0.8721 -2.6221 -1.1098
 5613SOL     OW28471   1.218   4.343   6.125  0.1436 -0.4605 -0.3614
 5613SOL    HW128472   1.222   4.252   6.095  1.4015 -0.6863  0.5022
 5613SOL    HW228473   1.250   4.393   6.049 -0.0490  0.5165  0.2011
 5614SOL     OW28474   0.275   0.766  16.222 -0.2548 -0.5256 -0.4656
 5614SOL    HW128475   0.180   0.776  16.226 -0.3062 -1.3963  0.5446
 5614SOL    HW228476   0.284   0.785  16.129 -0.3065 -1.7828 -0.7207
 5615SOL     OW28477   1.821   3.915   1.422 -0.1461 -0.5876 -0.0113
 5615SOL    HW128478   1.759   3.870   1.364  0.7606  1.8900 -2.9245
 5615SOL    HW228479   1.873   3.950   1.350 -0.3623 -1.6207 -0.6609
 5616SOL     OW28480   1.108   3.400   5.911  0.6350 -0.4172 -0.4960
 5616SOL    HW128481   1.104   3.445   5.827 -0.9359  2.4152  1.1035
 5616SOL    HW228482   1.179   3.454   5.945 -0.4510  1.2611 -0.9036
 5617SOL     OW28483   0.760   2.431   3.949 -0.2677 -0.1975 -0.6564
 5617SOL    HW128484   0.778   2.524   3.933  0.0129 -0.2677 -0.7488
 5617SOL    HW228485   0.683   2.441   4.005  1.1672 -0.5333  1.3689
 5618SOL     OW28486   2.627   3.126   4.005 -0.0945 -0.3074 -0.0861
 5618SOL    HW128487   2.721   3.145   4.003 -0.1007 -0.0895  1.3045
 5618SOL    HW228488   2.632   3.066   4.080  1.3346 -0.8867 -0.6448
 5619SOL     OW28489   2.260   1.814   8.238  0.0092  0.3158 -0.2653
 5619SOL    HW128490   2.272   1.909   8.241 -1.6921  0.5077  0.3050
 5619SOL    HW228491   2.331   1.780   8.293 -0.1866  1.5484  0.7515
 5620SOL     OW28492   4.443   1.033  17.280  0.5515 -0.4989  0.0908
 5620SOL    HW128493   4.514   0.995  17.332  0.7866 -0.3680 -0.1316
 5620SOL    HW228494   4.360   1.004  17.316 -0.7650 -0.3424 -2.8075
 5621SOL     OW28495   3.719   4.102   8.727  0.3166  0.0495  0.7361
 5621SOL    HW128496   3.789   4.131   8.786  0.3084  0.9317  0.3035
 5621SOL    HW228497   3.777   4.085   8.652  0.3470  0.4343  0.6731
 5622SOL     OW28498   0.110   3.326   7.528 -0.0138  0.5271 -0.3878
 5622SOL    HW128499   0.141   3.372   7.450  0.5906  1.1022  0.1967
 5622SOL    HW228500   0.030   3.374   7.547  1.9156  2.9608  1.5561
 5623SOL     OW28501   2.123   1.468   7.387  0.6040 -0.5284 -0.3321
 5623SOL    HW128502   2.132   1.395   7.449  1.2789 -1.0990 -1.0921
 5623SOL    HW228503   2.128   1.429   7.300  2.6137  1.2362 -0.9940
 5624SOL     OW28504   4.485   1.896   1.770 -0.3271 -0.3868 -0.2380
 5624SOL    HW128505   4.483   1.801   1.759  1.8598 -0.6786  1.9197
 5624SOL    HW228506   4.459   1.904   1.862  4.6081 -1.6754  1.2805
 5625SOL     OW28507   3.425   2.274  12.210  0.4361 -0.4029 -0.6742
 5625SOL    HW128508   3.420   2.370  12.206 -2.3329 -0.5413  0.2057
 5625SOL    HW228509   3.477   2.252  12.132  0.0491 -1.1786 -0.7060
 5626SOL     OW28510   0.359   3.017  15.557  0.0211 -0.2205 -0.0384
 5626SOL    HW128511   0.429   2.961  15.522 -1.8989 -0.7845 -3.0292
 5626SOL    HW228512   0.408   3.073  15.617 -0.7038  1.4700 -1.0203
 5627SOL     OW28513   0.104   2.172   2.844  0.0418 -0.3037  0.3047
 5627SOL    HW128514   0.071   2.086   2.817 -2.3483  1.3506 -2.0882
 5627SOL    HW228515   0.116   2.213   2.758  0.6198 -0.5810  0.2500
 5628SOL     OW28516   4.210   0.984  17.376  0.7834 -0.1979 -0.7229
 5628SOL    HW128517   4.133   1.024  17.415 -1.1474 -1.4891 -3.2101
 5628SOL    HW228518   4.178   0.906  17.331  0.5660 -0.5259  0.0020
 5629SOL     OW28519   0.181   3.669   8.952  0.3987 -0.2972 -0.2627
 5629SOL    HW128520   0.258   3.722   8.971 -1.5155  1.3249  3.0126
 5629SOL    HW228521   0.143   3.709   8.874 -2.1537  1.4918  1.8675
 5630SOL     OW28522   0.573   1.166   2.881  0.4259 -0.2815 -0.0709
 5630SOL    HW128523   0.619   1.172   2.965 -1.1375  1.7443  0.6617
 5630SOL    HW228524   0.500   1.111   2.910  0.3478  1.0095  2.2134
 5631SOL     OW28525   2.529   3.584   6.532 -0.6568 -0.9362  0.3784
 5631SOL    HW128526   2.525   3.512   6.595  2.2380 -2.1645 -0.8586
 5631SOL    HW228527   2.567   3.655   6.583 -2.5758  0.4591 -0.1584
 5632SOL     OW28528   2.964   2.552   1.343  0.5031 -0.5192  0.5422
 5632SOL    HW128529   2.932   2.620   1.403 -3.5797 -1.5202 -0.5006
 5632SOL    HW228530   2.903   2.575   1.272  1.3328 -1.1993 -0.3912
 5633SOL     OW28531   3.205   0.432   2.377  0.5220  0.5107 -0.1583
 5633SOL    HW128532   3.238   0.514   2.414  2.4604  0.3076 -1.4388
 5633SOL    HW228533   3.126   0.467   2.336 -0.5381  1.7071  2.9247
 5634SOL     OW28534   1.472   0.214  14.429 -0.6935 -0.1366 -0.5076
 5634SOL    HW128535   1.449   0.156  14.356 -0.3135 -0.6909 -0.1843
 5634SOL    HW228536   1.488   0.295  14.381 -0.6260 -0.2038 -0.5986
 5635SOL     OW28537   3.792   2.084   4.202 -0.4779  0.3993  0.2223
 5635SOL    HW128538   3.768   1.996   4.174 -0.0530 -0.0357  1.2343
 5635SOL    HW228539   3.792   2.123   4.114  1.2286  0.0884  0.0925
 5636SOL     OW28540   2.995   3.938   9.664 -0.5828 -0.2123  0.3171
 5636SOL    HW128541   3.027   3.848   9.663  1.5335  0.5714 -1.1051
 5636SOL    HW228542   3.064   3.978   9.716  0.8501 -0.2737 -1.5468
 5637SOL     OW28543   2.482   2.474   6.440  0.0125 -0.3299 -0.3401
 5637SOL    HW128544   2.557   2.470   6.381 -0.2482 -0.3056 -0.6703
 5637SOL    HW228545   2.423   2.536   6.398  0.3318 -0.1033 -0.4588
 5638SOL     OW28546   0.804   1.465   8.370  0.5581 -0.1071  0.0703
 5638SOL    HW128547   0.734   1.423   8.318 -0.8820  0.1863  1.7615
 5638SOL    HW228548   0.844   1.522   8.305  0.0062  0.5196  0.2818
 5639SOL     OW28549   0.374   0.348   9.241 -0.4339 -0.1616  0.2583
 5639SOL    HW128550   0.464   0.366   9.268 -0.0785  0.4956 -1.3392
 5639SOL    HW228551   0.329   0.411   9.296 -1.6280 -0.0900 -0.8077
 5640SOL     OW28552   2.701   4.673   3.271 -0.0632 -0.4433  0.1996
 5640SOL    HW128553   2.755   4.702   3.345 -1.4716 -2.1873  1.9101
 5640SOL    HW228554   2.655   0.015   3.243 -0.6051 -1.6713 -2.4263
 5641SOL     OW28555   1.539   0.195  14.679  0.3434 -0.1394  0.7821
 5641SOL    HW128556   1.480   0.123  14.699  0.8705 -0.5427  0.8932
 5641SOL    HW228557   1.515   0.197  14.586 -0.6807  0.3657  1.0595
 5642SOL     OW28558   3.978   1.169   3.907  0.5027 -0.4013 -0.2946
 5642SOL    HW128559   3.893   1.213   3.909  0.6382 -0.2390  1.3485
 5642SOL    HW228560   4.028   1.222   3.844  0.2838 -0.5541 -0.5978
 5643SOL     OW28561   2.142   3.142  10.952  0.1024  0.2910  0.4140
 5643SOL    HW128562   2.152   3.053  10.919 -0.7486  0.5856 -0.6528
 5643SOL    HW228563   2.072   3.178  10.897 -0.8134  0.3077  1.5964
 5644SOL     OW28564   0.575   2.867   2.367 -0.2920  0.0694  0.2904
 5644SOL    HW128565   0.637   2.908   2.306  0.2797  0.1202  0.9135
 5644SOL    HW228566   0.624   2.843   2.445  0.3535 -0.4302 -0.2677
 5645SOL     OW28567   1.385   2.997   5.123 -0.0059 -0.3480 -0.9230
 5645SOL    HW128568   1.441   2.984   5.200 -1.3539  1.3063  0.3386
 5645SOL    HW228569   1.311   3.049   5.154  1.0929  0.9083 -0.3900
 5646SOL     OW28570   3.016   4.162   8.054 -0.3812 -0.1675 -0.1057
 5646SOL    HW128571   3.075   4.097   8.091  0.0544  0.8693  1.0023
 5646SOL    HW228572   3.066   4.199   7.982  0.2788  0.3510  0.6297
 5647SOL     OW28573   1.164   2.543   3.105 -0.5389  0.5302 -0.4257
 5647SOL    HW128574   1.255   2.564   3.127 -0.4756  0.1458 -0.3203
 5647SOL    HW228575   1.171   2.542   3.010  1.2346 -1.1878 -0.2853
 5648SOL     OW28576   1.375   4.103  10.253 -0.0384 -0.4637 -0.5276
 5648SOL    HW128577   1.440   4.092  10.323 -1.5469  2.7399  1.3920
 5648SOL    HW228578   1.434   4.082  10.180  1.1457  1.5105 -0.1342
 5649SOL     OW28579   4.531   1.579   8.343 -0.4659  0.2343  0.3202
 5649SOL    HW128580   4.611   1.629   8.362  0.4213 -1.6082  1.3741
 5649SOL    HW228581   4.487   1.595   8.426  2.1338 -0.4932  1.8421
 5650SOL     OW28582   4.650   3.420   4.007 -0.5738  0.3457  0.2969
 5650SOL    HW128583   4.583   3.365   3.967  1.9875 -1.1923 -1.8941
 5650SOL    HW228584   4.688   3.459   3.927 -2.2820  1.9580  0.2818
 5651SOL     OW28585   1.241   2.924   8.978 -0.4869 -0.0466  0.1289
 5651SOL    HW128586   1.149   2.950   8.972 -0.8437 -0.9781  1.5080
 5651SOL    HW228587   1.240   2.854   8.912 -0.0276 -0.7805  0.9028
 5652SOL     OW28588   0.359   3.362   4.234 -0.3435  0.0589 -0.4491
 5652SOL    HW128589   0.295   3.358   4.163 -0.6622  1.5292 -0.2433
 5652SOL    HW228590   0.315   3.312   4.302 -1.0172  1.6547  0.2788
 5653SOL     OW28591   4.531   1.532   5.172  0.1894 -0.9918  0.1167
 5653SOL    HW128592   4.461   1.477   5.138  1.1209 -1.2700 -1.3343
 5653SOL    HW228593   4.483   1.586   5.235  0.1834 -0.9224  0.0534
 5654SOL     OW28594   3.021   0.158  14.845  0.2876 -0.3284 -0.0579
 5654SOL    HW128595   2.971   0.229  14.804 -1.0552 -1.2676 -0.0624
 5654SOL    HW228596   2.970   0.085  14.809 -0.3073 -0.8238  1.8000
 5655SOL     OW28597   3.721   3.793  14.790 -0.1971  0.1653 -0.4757
 5655SOL    HW128598   3.814   3.807  14.804 -0.2704 -0.7569  0.9503
 5655SOL    HW228599   3.708   3.862  14.726 -0.8748 -3.4333 -4.2376
 5656SOL     OW28600   3.120   3.171   4.745 -0.6581  0.0564 -0.2809
 5656SOL    HW128601   3.102   3.077   4.751 -1.5205  0.1204 -1.8787
 5656SOL    HW228602   3.050   3.196   4.807  0.2373 -0.2555  0.8600
 5657SOL     OW28603   3.706   2.721   6.889  0.2833 -0.3138  0.2648
 5657SOL    HW128604   3.734   2.692   6.976  2.0471  1.9948  0.4655
 5657SOL    HW228605   3.770   2.789   6.868 -0.3896  0.7291  1.6324
 5658SOL     OW28606   3.927   0.154   8.793 -0.4438  0.2086 -0.4890
 5658SOL    HW128607   3.836   0.129   8.777  0.0455 -1.9741  0.1765
 5658SOL    HW228608   3.926   0.209   8.872 -1.1355  2.1294 -1.8194
 5659SOL     OW28609   4.025   2.569   8.149  0.1187 -0.6233 -0.1703
 5659SOL    HW128610   3.961   2.635   8.121  0.0723 -1.1038 -1.1705
 5659SOL    HW228611   4.016   2.505   8.079  0.3698  2.2522 -2.8534
 5660SOL     OW28612   3.389   4.639   5.026 -0.3974  0.8718  0.5529
 5660SOL    HW128613   3.421   4.551   5.050 -1.9825 -0.2124 -1.3484
 5660SOL    HW228614   3.301   4.610   5.003  1.0127 -1.3019 -2.1614
 5661SOL     OW28615   2.140   2.338   3.587  0.4683  0.0403 -0.6746
 5661SOL    HW128616   2.096   2.359   3.669  1.8999 -0.9136  0.3183
 5661SOL    HW228617   2.233   2.342   3.606  0.7595 -1.6438 -1.6954
 5662SOL     OW28618   2.228   1.207  15.470  0.3012 -0.1434 -0.4149
 5662SOL    HW128619   2.195   1.134  15.524 -1.2245  1.0601  0.2778
 5662SOL    HW228620   2.300   1.169  15.419  0.1515  1.1844 -1.5998
 5663SOL     OW28621   3.189   3.033  16.833  0.1477  0.4704 -0.0293
 5663SOL    HW128622   3.115   3.092  16.834 -1.2552 -1.2941  0.3475
 5663SOL    HW228623   3.266   3.086  16.813 -1.2050  2.5474  0.3115
 5664SOL     OW28624   4.070   4.192   5.053 -0.5733 -0.1116 -0.1136
 5664SOL    HW128625   4.117   4.263   5.096  1.0996 -1.6595  0.6508
 5664SOL    HW228626   4.019   4.235   4.984  0.7283  3.7758  1.3868
 5665SOL     OW28627   2.944   3.500   9.468  0.2933  0.0316  0.2688
 5665SOL    HW128628   2.930   3.531   9.557  3.4317  1.5133  0.2778
 5665SOL    HW228629   2.862   3.461   9.440  1.1471 -2.3366  1.0490
 5666SOL     OW28630   2.252   3.794   4.433  0.1313  0.1456 -0.4453
 5666SOL    HW128631   2.332   3.777   4.383  1.0374  1.3508  0.6053
 5666SOL    HW228632   2.277   3.762   4.519  1.2530 -1.0534 -1.2100
 5667SOL     OW28633   2.669   4.407   4.157 -0.4282 -0.1642 -0.2084
 5667SOL    HW128634   2.764   4.397   4.164 -0.8397 -2.6044  1.7603
 5667SOL    HW228635   2.642   4.454   4.235  1.5400  2.6466 -1.2387
 5668SOL     OW28636   3.257   4.526   7.941 -0.6387 -0.5445  0.4514
 5668SOL    HW128637   3.313   4.448   7.944 -0.8673 -0.6519  2.2984
 5668SOL    HW228638   3.293   4.580   8.011  1.4584  0.2080 -1.2240
 5669SOL     OW28639   4.627   2.398   5.358  0.5111  0.0014 -0.4508
 5669SOL    HW128640   4.690   2.370   5.292  1.1076 -0.8300  0.4817
 5669SOL    HW228641   4.595   2.317   5.396  0.9247  0.1049  0.1140
 5670SOL     OW28642   4.299   4.353   8.141 -0.3362  0.1612  0.5374
 5670SOL    HW128643   4.250   4.429   8.109 -0.3492 -0.2279 -0.3852
 5670SOL    HW228644   4.376   4.362   8.084 -0.6884 -0.1603  0.0084
 5671SOL     OW28645   0.490   4.100   6.510 -0.2371  0.1879  0.2171
 5671SOL    HW128646   0.518   4.037   6.444 -2.5994 -0.8544  0.2305
 5671SOL    HW228647   0.431   4.156   6.460 -0.4091  0.9155  1.2385
 5672SOL     OW28648   0.111   1.694   2.630  0.0095 -0.0052  0.4255
 5672SOL    HW128649   0.096   1.754   2.557  0.5588 -1.0701 -0.5527
 5672SOL    HW228650   0.198   1.660   2.612  0.9050  2.0096  0.9113
 5673SOL     OW28651   3.995   3.858  13.879 -0.0354 -1.0621 -0.4190
 5673SOL    HW128652   3.984   3.942  13.924 -0.7237 -0.6898 -1.2930
 5673SOL    HW228653   4.089   3.843  13.885  0.3560  1.0820 -0.9680
 5674SOL     OW28654   0.377   3.461  13.078  0.6359  0.3281 -0.6007
 5674SOL    HW128655   0.356   3.459  12.984 -2.0809 -0.5160  0.0151
 5674SOL    HW228656   0.360   3.549  13.111  1.7266 -0.6908  2.6173
 5675SOL     OW28657   3.252   4.005  12.397  0.1695 -0.7001 -0.1291
 5675SOL    HW128658   3.314   4.053  12.343 -0.0434 -0.6963 -0.3706
 5675SOL    HW228659   3.306   3.935  12.433 -1.8711 -2.2219 -0.0113
 5676SOL     OW28660   1.592   1.651   2.886  0.2153 -0.3158  0.2491
 5676SOL    HW128661   1.622   1.569   2.847  0.1182 -0.0892 -0.3125
 5676SOL    HW228662   1.593   1.716   2.815 -1.8387  0.8109  1.2540
 5677SOL     OW28663   3.474   2.504   4.160 -0.1261  0.2044  0.1161
 5677SOL    HW128664   3.560   2.480   4.124 -0.8160  0.7135 -1.9033
 5677SOL    HW228665   3.501   2.549   4.240 -0.7697 -0.2777  0.6011
 5678SOL     OW28666   3.234   4.507   8.738 -0.5014  0.1235  0.1764
 5678SOL    HW128667   3.286   4.452   8.680 -1.9201 -1.3632  0.3217
 5678SOL    HW228668   3.215   4.586   8.686  0.2376  0.1196 -0.0973
 5679SOL     OW28669   0.396   0.960   3.624  0.3494  0.5602 -0.0093
 5679SOL    HW128670   0.489   0.971   3.644  0.8264 -0.7048 -1.5779
 5679SOL    HW228671   0.365   1.048   3.646 -0.7511 -0.2942  1.8875
 5680SOL     OW28672   4.603   0.678   3.777  0.3330 -0.4197 -0.0746
 5680SOL    HW128673   4.573   0.768   3.774 -1.0211 -0.9601 -2.9377
 5680SOL    HW228674   4.646   0.685   3.691  0.5283 -4.1337 -0.2790
 5681SOL     OW28675   1.307   2.611   7.511  0.3259  0.1538 -0.2512
 5681SOL    HW128676   1.376   2.672   7.539 -0.7843  0.0078  2.8514
 5681SOL    HW228677   1.360   2.578   7.439  2.5865  1.3948  0.8378
 5682SOL     OW28678   0.809   1.978   4.844  0.0054  0.0424  0.0259
 5682SOL    HW128679   0.851   1.982   4.930  1.8832  0.8087 -0.9225
 5682SOL    HW228680   0.868   2.035   4.795  2.0755 -2.2602 -0.1706
 5683SOL     OW28681   3.533   1.942   3.922  0.0317 -0.2031 -0.6383
 5683SOL    HW128682   3.611   1.925   3.976  0.7001  4.9006 -0.0230
 5683SOL    HW228683   3.468   1.936   3.992  0.9436 -0.6775  0.1760
 5684SOL     OW28684   3.343   4.433   8.493 -0.1202 -0.0555  0.5658
 5684SOL    HW128685   3.399   4.488   8.439  0.6431 -1.2395  0.1450
 5684SOL    HW228686   3.403   4.366   8.526 -0.1666 -1.0693 -1.4331
 5685SOL     OW28687   3.523   0.472  15.617 -0.2224  0.4400  0.3907
 5685SOL    HW128688   3.471   0.520  15.552  0.6365  1.4121  0.4326
 5685SOL    HW228689   3.458   0.430  15.674 -0.2922  1.3278  0.9486
 5686SOL     OW28690   3.706   4.636   5.070 -0.0115  0.3482 -0.5017
 5686SOL    HW128691   3.733   4.614   5.159  1.6380 -1.4978 -1.4483
 5686SOL    HW228692   3.620   4.668   5.097  0.2888  0.6793  0.0493
 5687SOL     OW28693   4.217   0.320   2.899 -0.6405  0.3043 -0.3346
 5687SOL    HW128694   4.270   0.345   2.975 -0.8720  0.7519 -0.3222
 5687SOL    HW228695   4.186   0.236   2.931 -2.9803  2.0968  2.1088
 5688SOL     OW28696   3.459   4.555  15.947 -0.7173 -0.3127 -0.0566
 5688SOL    HW128697   3.399   4.614  15.993  1.0945  0.3510  1.5013
 5688SOL    HW228698   3.457   4.607  15.867  1.0041 -1.2263 -0.6927
 5689SOL     OW28699   1.130   1.525  10.931 -0.3620 -0.2996  0.2026
 5689SOL    HW128700   1.211   1.543  10.884  0.3198  0.3022  1.6220
 5689SOL    HW228701   1.065   1.581  10.888  0.8751  0.5423 -0.5848
 5690SOL     OW28702   3.619   1.600  17.281  0.4336 -0.5224 -0.1460
 5690SOL    HW128703   3.580   1.662  17.220 -0.7476 -1.6947 -0.5869
 5690SOL    HW228704   3.667   1.657  17.341  0.1913 -0.6113  0.1351
 5691SOL     OW28705   1.451   1.424   0.063  0.0633 -0.3104 -0.4003
 5691SOL    HW128706   1.475   1.382  17.731 -0.1485 -1.2662  0.0249
 5691SOL    HW228707   1.483   1.512   0.047  1.1908 -0.5906  0.2791
 5692SOL     OW28708   3.000   3.298  15.934  0.9627  0.1991  0.5297
 5692SOL    HW128709   3.045   3.366  15.883  2.3873 -0.3292  1.0791
 5692SOL    HW228710   2.969   3.253  15.855 -0.2731  1.9314  0.0202
 5693SOL     OW28711   0.605   1.315   6.165  0.0157  0.0686  0.1611
 5693SOL    HW128712   0.666   1.246   6.190  0.1551 -0.3777 -1.4185
 5693SOL    HW228713   0.571   1.283   6.082  0.1609 -2.3650  1.0430
 5694SOL     OW28714   1.048   4.649   2.970 -0.2986 -0.1412 -1.1116
 5694SOL    HW128715   0.990   4.720   2.997  1.2302  0.4987  0.4985
 5694SOL    HW228716   1.024   4.657   2.878 -2.5645 -0.3432 -0.5260
 5695SOL     OW28717   0.229   3.350   2.129 -0.3585  0.2281  0.5518
 5695SOL    HW128718   0.246   3.352   2.224  1.1368 -0.6279  0.2886
 5695SOL    HW228719   0.294   3.414   2.101 -0.1361 -0.6838 -0.9836
 5696SOL     OW28720   0.702   1.170   3.132 -0.0045  0.1077 -0.0114
 5696SOL    HW128721   0.717   1.112   3.207 -0.9161  1.2941  1.0877
 5696SOL    HW228722   0.763   1.242   3.150 -0.4881  0.7433 -0.9458
 5697SOL     OW28723   2.553   4.546  14.303 -0.2680  0.3669 -0.1257
 5697SOL    HW128724   2.484   4.479  14.308  0.5958 -0.4690  0.6759
 5697SOL    HW228725   2.505   4.611  14.253 -2.4205 -0.1387  1.2921
 5698SOL     OW28726   2.040   3.595   4.687  0.0091  0.1018 -0.1031
 5698SOL    HW128727   2.110   3.580   4.750  0.1873  0.9606 -0.0950
 5698SOL    HW228728   1.979   3.538   4.734 -1.2363  0.5045 -1.2282
 5699SOL     OW28729   3.340   1.191   6.331 -0.1151 -0.4760 -0.5375
 5699SOL    HW128730   3.279   1.164   6.400 -1.4075 -2.5772 -2.4833
 5699SOL    HW228731   3.425   1.173   6.372 -0.9879 -3.5311 -0.0318
 5700SOL     OW28732   2.974   3.794  12.588  0.1367  0.3139 -0.0980
 5700SOL    HW128733   3.035   3.733  12.545 -0.2962 -1.8852  2.4434
 5700SOL    HW228734   2.891   3.746  12.585  0.2355  0.1785 -0.7497
 5701SOL     OW28735   2.603   4.065   6.059 -0.5305  0.4384 -0.1630
 5701SOL    HW128736   2.621   3.977   6.092 -0.8832  1.3230  2.4623
 5701SOL    HW228737   2.586   4.054   5.966  0.1206 -2.5783  0.0784
 5702SOL     OW28738   0.519   3.213   2.913 -1.0463 -0.5259  0.4453
 5702SOL    HW128739   0.441   3.265   2.933 -0.9071 -0.7019  1.4356
 5702SOL    HW228740   0.594   3.262   2.946 -0.1543 -1.0496 -0.8210
 5703SOL     OW28741   1.895   2.926   6.216 -0.1875  0.4734  0.0458
 5703SOL    HW128742   1.908   3.003   6.162  1.7035 -0.1817 -0.4136
 5703SOL    HW228743   1.819   2.884   6.177 -0.5538  0.7090  0.4999
 5704SOL     OW28744   4.030   0.569  11.217  0.2511 -0.0255  0.9997
 5704SOL    HW128745   4.076   0.625  11.280  3.4630 -0.8456 -0.6161
 5704SOL    HW228746   3.968   0.627  11.174  0.4398 -0.1407  0.5763
 5705SOL     OW28747   1.709   0.388   5.265  0.3904 -1.0821  0.1587
 5705SOL    HW128748   1.696   0.482   5.259 -3.1956 -1.3760  3.3500
 5705SOL    HW228749   1.651   0.364   5.193  0.0489 -1.6850  0.6265
 5706SOL     OW28750   1.631   3.758   1.304 -0.0956 -0.2091  0.0361
 5706SOL    HW128751   1.549   3.802   1.282 -0.8162 -1.3746  0.3982
 5706SOL    HW228752   1.598   3.703   1.375 -1.8246  0.1006 -0.5334
 5707SOL     OW28753   1.090   1.520   3.760 -0.3574  0.3137 -0.1637
 5707SOL    HW128754   1.127   1.544   3.675  0.8330 -1.4329 -0.1383
 5707SOL    HW228755   1.136   1.440   3.784  1.4690  1.7056  1.0418
 5708SOL     OW28756   2.026   1.912   5.360  0.4195  0.4160  0.0869
 5708SOL    HW128757   1.947   1.953   5.393  0.2303 -0.6810  0.9763
 5708SOL    HW228758   1.990   1.905   5.272  0.4581  0.2517  0.0852
 5709SOL     OW28759   3.800   3.360   2.799 -0.2596 -0.1332  0.1693
 5709SOL    HW128760   3.874   3.300   2.785 -0.9397 -0.9497  0.0638
 5709SOL    HW228761   3.843   3.444   2.816  1.6597 -0.5213 -2.6776
 5710SOL     OW28762   1.475   0.797   4.844  0.0888 -0.0394 -0.4677
 5710SOL    HW128763   1.529   0.876   4.841 -0.8126  0.6152  0.4746
 5710SOL    HW228764   1.537   0.724   4.846  0.9786  0.6603 -2.0861
 5711SOL     OW28765   2.355   4.638   3.235  0.1856 -0.2172 -0.0803
 5711SOL    HW128766   2.403   4.686   3.167 -0.5524 -0.7615 -1.0014
 5711SOL    HW228767   2.291   4.593   3.179 -0.2575  0.5074 -0.1678
 5712SOL     OW28768   0.186   0.740  12.808  0.4568 -0.3371 -0.5768
 5712SOL    HW128769   0.277   0.727  12.834 -0.0871 -2.3213  0.3407
 5712SOL    HW228770   0.182   0.824  12.763  0.3576  0.0562  0.1725
 5713SOL     OW28771   0.439   3.646   8.042 -0.2115 -0.2024 -0.0658
 5713SOL    HW128772   0.464   3.600   8.123 -3.2990 -2.9396 -0.6952
 5713SOL    HW228773   0.365   3.692   8.081 -0.4585  0.9044 -1.8932
 5714SOL     OW28774   4.596   1.854   2.826  0.0195 -0.4855 -0.2985
 5714SOL    HW128775   4.689   1.842   2.843  0.5831 -0.0014 -3.0332
 5714SOL    HW228776   4.588   1.791   2.754  0.2652 -1.3424  0.4212
 5715SOL     OW28777   2.880   3.414   4.767 -0.2662 -0.4287  0.0442
 5715SOL    HW128778   2.904   3.490   4.821 -2.0588 -0.8660  1.4523
 5715SOL    HW228779   2.913   3.344   4.824  0.4490 -1.4906 -1.6636
 5716SOL     OW28780   2.300   0.402   6.954 -0.0950  0.0127  0.3720
 5716SOL    HW128781   2.288   0.330   7.016  1.6273 -0.5331  0.0476
 5716SOL    HW228782   2.218   0.395   6.904 -0.9318 -0.0036  1.7235
 5717SOL     OW28783   2.807   3.778   9.021  0.4847  0.7074  0.4756
 5717SOL    HW128784   2.793   3.701   8.967 -2.3835  0.8653  1.0196
 5717SOL    HW228785   2.852   3.735   9.093 -0.5162 -0.4868  0.3765
 5718SOL     OW28786   0.979   0.926  12.748 -0.2634 -0.2899  0.1983
 5718SOL    HW128787   1.001   0.997  12.688 -2.3014  0.0276 -0.1579
 5718SOL    HW228788   0.907   0.975  12.787 -1.4831 -0.4718 -1.8218
 5719SOL     OW28789   4.164   1.241   4.116 -0.6106  0.1729 -0.5462
 5719SOL    HW128790   4.128   1.169   4.063  0.7241 -0.3891 -0.6792
 5719SOL    HW228791   4.188   1.189   4.192  1.2859 -0.8193 -1.8292
 5720SOL     OW28792   2.815   0.126  11.966 -0.1402 -0.2946 -0.4087
 5720SOL    HW128793   2.905   0.096  11.953  0.9345  1.6632  2.4347
 5720SOL    HW228794   2.761   0.059  11.924 -0.1672 -0.6846  0.2498
 5721SOL     OW28795   3.498   1.709   7.030  0.0797  0.4970  0.4831
 5721SOL    HW128796   3.538   1.796   7.028 -0.9912  0.9774 -0.0496
 5721SOL    HW228797   3.514   1.677   6.941  2.6090 -0.8306  1.3938
 5722SOL     OW28798   1.856   4.513   6.467 -0.5770  0.0996  0.3055
 5722SOL    HW128799   1.856   4.418   6.456 -2.6539  0.2872 -1.1928
 5722SOL    HW228800   1.773   4.543   6.430 -0.1467 -1.0548 -1.5915
 5723SOL     OW28801   1.639   2.897   1.985 -0.2093  0.0806  0.6856
 5723SOL    HW128802   1.716   2.927   2.033  1.9017 -1.5816 -1.7035
 5723SOL    HW228803   1.619   2.971   1.928 -0.6269 -0.0755  0.6302
 5724SOL     OW28804   0.306   2.358   0.230  0.0296  0.4583  0.6929
 5724SOL    HW128805   0.385   2.412   0.218 -0.3538  0.4150 -2.0491
 5724SOL    HW228806   0.291   2.340   0.137 -1.2780  2.4323  0.5319
 5725SOL     OW28807   4.452   2.469   3.660  0.3343  0.0699 -0.1828
 5725SOL    HW128808   4.373   2.416   3.676 -0.1122  0.7738 -0.0235
 5725SOL    HW228809   4.450   2.521   3.741  0.3681 -0.2461  0.0213
 5726SOL     OW28810   4.479   4.087   9.012 -0.4382 -0.4203  0.2776
 5726SOL    HW128811   4.426   4.157   9.051 -0.3551  0.6407 -1.5417
 5726SOL    HW228812   4.464   4.103   8.919  1.9397  0.1123 -0.0097
 5727SOL     OW28813   0.948   0.612   6.092 -0.3819  0.2956  0.3928
 5727SOL    HW128814   0.878   0.669   6.060  0.5843  0.5462 -1.2732
 5727SOL    HW228815   1.021   0.628   6.033 -0.4594  1.4341  0.6192
 5728SOL     OW28816   2.162   3.642   5.077 -0.1110 -0.0997  0.0777
 5728SOL    HW128817   2.106   3.704   5.124 -1.5034 -1.2371 -0.0649
 5728SOL    HW228818   2.137   3.564   5.127 -0.0585 -0.1817 -0.0252
 5729SOL     OW28819   3.988   0.635   9.775 -0.2734 -0.6981 -0.0598
 5729SOL    HW128820   4.070   0.601   9.739  0.3341  0.4234  0.2378
 5729SOL    HW228821   4.015   0.657   9.865 -4.5841  0.2354  1.0143
 5730SOL     OW28822   3.354   4.478  13.167  0.4423 -0.0023  0.0596
 5730SOL    HW128823   3.399   4.562  13.177  2.4858 -1.2111  1.0857
 5730SOL    HW228824   3.324   4.458  13.255  1.1502 -0.2322  0.2491
 5731SOL     OW28825   3.970   4.439   3.148 -0.0022  0.5519  0.3588
 5731SOL    HW128826   4.037   4.381   3.112 -2.0146 -2.4746  1.5013
 5731SOL    HW228827   3.952   4.504   3.080  0.0272 -1.8227 -1.9514
 5732SOL     OW28828   1.990   3.448   8.721 -0.5816  0.0216 -0.5307
 5732SOL    HW128829   2.006   3.396   8.642  0.5809 -1.2039  0.5023
 5732SOL    HW228830   2.058   3.418   8.781 -0.2117 -0.5617 -1.2411
 5733SOL     OW28831   3.744   2.687   5.913 -0.0300 -0.4764 -0.4149
 5733SOL    HW128832   3.789   2.613   5.952  1.1211 -0.1805 -1.1769
 5733SOL    HW228833   3.665   2.650   5.872 -1.0982  1.3710 -0.0408
 5734SOL     OW28834   0.575   0.819   2.315 -0.7608 -0.1950  0.0007
 5734SOL    HW128835   0.529   0.831   2.398  1.3347  3.3233  0.6536
 5734SOL    HW228836   0.662   0.796   2.348 -0.5005 -0.5228 -0.8972
 5735SOL     OW28837   4.730   4.503   4.607  0.1820  0.0420 -0.0858
 5735SOL    HW128838   0.076   4.510   4.651  0.2735 -1.0599 -0.0859
 5735SOL    HW228839   0.010   4.439   4.538 -1.3609 -0.6156  0.1042
 5736SOL     OW28840   1.938   1.154   1.336 -0.3436 -0.2660  0.4428
 5736SOL    HW128841   1.980   1.227   1.291 -0.2344 -0.7291 -0.2103
 5736SOL    HW228842   2.018   1.124   1.381 -0.1353 -1.5393 -0.7866
 5737SOL     OW28843   0.801   4.299  10.417 -0.0034 -0.2467 -0.3070
 5737SOL    HW128844   0.895   4.293  10.398  0.1670  3.3970 -0.6236
 5737SOL    HW228845   0.787   4.393  10.409 -0.1574 -0.4748 -2.7449
 5738SOL     OW28846   1.829   1.941   8.419 -0.2389 -0.0188 -0.6442
 5738SOL    HW128847   1.775   2.001   8.367  0.1351 -0.2279 -1.2736
 5738SOL    HW228848   1.855   2.004   8.485 -0.9102 -0.8532  0.4196
 5739SOL     OW28849   2.673   0.277  15.178  0.9949  0.1030 -0.3769
 5739SOL    HW128850   2.710   0.212  15.118  2.1206 -0.6301  1.1000
 5739SOL    HW228851   2.755   0.321  15.198  0.5527  0.8421 -0.1842
 5740SOL     OW28852   3.660   4.441   6.967  0.0549  0.2970 -0.4408
 5740SOL    HW128853   3.608   4.463   7.045  0.1507 -1.1021  0.0255
 5740SOL    HW228854   3.750   4.441   6.999 -0.0183  3.6018 -0.2706
 5741SOL     OW28855   4.114   3.996   5.237 -0.3394 -0.3360 -0.5198
 5741SOL    HW128856   4.103   4.065   5.172 -0.4364 -0.4733 -0.6498
 5741SOL    HW228857   4.195   3.953   5.210 -0.2487 -0.8911  0.6440
 5742SOL     OW28858   1.864   1.623   3.703  0.0485 -0.2498 -0.4733
 5742SOL    HW128859   1.798   1.629   3.771 -0.9279  4.0891 -1.8126
 5742SOL    HW228860   1.869   1.712   3.667 -1.8083 -0.3826 -1.0570
 5743SOL     OW28861   2.909   4.362   5.549  0.3635 -0.2316  0.0770
 5743SOL    HW128862   2.824   4.318   5.551 -0.4453  1.3197 -0.4125
 5743SOL    HW228863   2.889   4.450   5.518  0.1827 -0.5081 -0.5942
 5744SOL     OW28864   1.835   1.942  16.679 -0.3711 -0.7351 -0.1700
 5744SOL    HW128865   1.864   1.851  16.688  0.0721 -0.3430  2.2537
 5744SOL    HW228866   1.841   1.956  16.773  1.6888  1.9813 -0.6964
 5745SOL     OW28867   4.631   2.832   4.182  0.2224  0.4373 -0.3930
 5745SOL    HW128868   4.673   2.769   4.123 -2.0986 -2.0628  0.6009
 5745SOL    HW228869   4.646   2.914   4.135  0.6811 -0.0200 -1.0364
 5746SOL     OW28870   1.266   3.589   6.771  0.1962  0.0394 -0.5523
 5746SOL    HW128871   1.321   3.527   6.723  0.5021  0.1305 -0.3193
 5746SOL    HW228872   1.320   3.599   6.849 -1.1883  0.8169  0.3168
 5747SOL     OW28873   0.187   3.136   3.147 -0.0502  0.8776 -0.0383
 5747SOL    HW128874   0.227   3.188   3.077 -0.1900  0.0662 -0.7241
 5747SOL    HW228875   0.252   3.157   3.214 -0.7566  0.7179  0.6943
 5748SOL     OW28876   1.368   2.729   1.922 -0.1567 -0.4361 -0.3937
 5748SOL    HW128877   1.417   2.738   1.840  0.7516 -0.8338  0.1079
 5748SOL    HW228878   1.288   2.776   1.900 -0.7193 -1.1670  0.1229
 5749SOL     OW28879   4.242   2.791  10.395 -0.5308  0.3772 -0.0788
 5749SOL    HW128880   4.147   2.803  10.399 -0.2967  2.0852  0.0388
 5749SOL    HW228881   4.262   2.866  10.340  1.0354 -0.1909 -0.2726
 5750SOL     OW28882   3.620   4.306  15.983 -0.3902  0.0987 -0.1258
 5750SOL    HW128883   3.551   4.373  15.983 -2.1448 -1.7257  0.7951
 5750SOL    HW228884   3.701   4.356  15.992 -0.5209  0.4513 -0.8340
 5751SOL     OW28885   2.422   2.283   9.555  0.0501  0.1012  0.2982
 5751SOL    HW128886   2.481   2.243   9.492  2.2622  0.4746  2.1123
 5751SOL    HW228887   2.479   2.273   9.631  0.9117  1.1386 -0.2072
 5752SOL     OW28888   0.743   1.826   7.105  0.3039 -0.6112  0.0483
 5752SOL    HW128889   0.769   1.895   7.167 -2.6280 -0.3685  1.0070
 5752SOL    HW228890   0.807   1.863   7.045 -0.5864 -0.9707 -1.1093
 5753SOL     OW28891   0.458   3.510   2.046 -0.4376  0.0130  0.1745
 5753SOL    HW128892   0.472   3.537   1.955  0.3235  2.0711  0.9139
 5753SOL    HW228893   0.494   3.586   2.091  0.2230 -1.1028  1.5611
 5754SOL     OW28894   4.077   1.451   3.178  0.4679  0.4037 -0.2918
 5754SOL    HW128895   4.035   1.451   3.092  1.2273 -1.4009 -0.6738
 5754SOL    HW228896   4.077   1.544   3.199  0.6376  0.3657 -0.1264
 5755SOL     OW28897   4.335   2.284   5.978 -0.1338  0.1795  0.1104
 5755SOL    HW128898   4.243   2.259   5.990  0.0102 -1.0045 -1.2002
 5755SOL    HW228899   4.346   2.302   5.884 -1.4027 -0.0530 -0.0849
 5756SOL     OW28900   2.321   4.479   0.279  0.0912  0.5367  0.2560
 5756SOL    HW128901   2.327   4.393   0.238  0.1289  0.6414  0.0427
 5756SOL    HW228902   2.349   4.535   0.206 -1.0619  2.2457  1.1188
 5757SOL     OW28903   1.925   1.214   2.737  0.3441  0.2480  0.2241
 5757SOL    HW128904   1.908   1.152   2.666 -0.2048 -0.7286  1.2201
 5757SOL    HW228905   1.952   1.156   2.808 -2.1809  2.2393  2.8325
 5758SOL     OW28906   1.304   2.034   1.810 -0.2111 -0.0958 -0.6082
 5758SOL    HW128907   1.309   2.081   1.727  1.3980  2.2171  0.8280
 5758SOL    HW228908   1.396   2.037   1.836 -0.4886  0.8837  0.2420
 5759SOL     OW28909   2.096   3.752  12.703 -0.4699  0.0239  0.4227
 5759SOL    HW128910   2.074   3.845  12.714 -0.1487  0.1455  0.0298
 5759SOL    HW228911   2.152   3.740  12.780 -0.4691  1.7074  0.6813
 5760SOL     OW28912   3.106   1.907   6.510  0.1626  0.3750  0.0074
 5760SOL    HW128913   3.031   1.965   6.523 -0.0453 -0.2526  1.6329
 5760SOL    HW228914   3.093   1.875   6.421 -1.8936  1.6141 -0.1327
 5761SOL     OW28915   0.847   0.344   6.091 -0.0037 -0.0461  0.2059
 5761SOL    HW128916   0.858   0.439   6.086  0.9339 -0.0540  1.9131
 5761SOL    HW228917   0.790   0.337   6.015 -1.9989  1.0886  1.6298
 5762SOL     OW28918   3.338   3.493  15.544  0.5015 -0.0628  0.0907
 5762SOL    HW128919   3.248   3.486  15.512  0.6268 -1.1847 -0.0083
 5762SOL    HW228920   3.376   3.561  15.489 -0.4131  0.2914 -0.0943
 5763SOL     OW28921   3.152   2.736   3.628  0.0834  0.1323 -0.0247
 5763SOL    HW128922   3.073   2.752   3.679 -0.0556  1.5322 -0.6699
 5763SOL    HW228923   3.198   2.819   3.640 -0.4684  0.1709  1.7573
 5764SOL     OW28924   1.029   3.898   5.631  0.6795 -0.0751 -0.3844
 5764SOL    HW128925   1.023   3.973   5.690  0.4178 -1.8207  1.8120
 5764SOL    HW228926   0.940   3.895   5.597  1.6518  1.3408 -3.1243
 5765SOL     OW28927   1.703   2.526   4.612  0.1075 -0.1471  0.2420
 5765SOL    HW128928   1.631   2.471   4.581  0.8745 -0.0809 -1.6851
 5765SOL    HW228929   1.722   2.478   4.693  2.0906  1.1707  0.5686
 5766SOL     OW28930   0.070   0.263  12.338 -0.2593  0.0929 -0.6972
 5766SOL    HW128931   0.063   0.187  12.396 -0.4503 -0.2363 -1.1423
 5766SOL    HW228932   0.087   0.223  12.253 -0.3615  1.2577 -1.2632
 5767SOL     OW28933   3.062   1.033   4.613  0.0553 -0.5254 -0.1030
 5767SOL    HW128934   3.095   0.985   4.689 -1.6119 -0.8172  0.4326
 5767SOL    HW228935   3.007   0.967   4.569 -1.8495 -0.3981  2.0884
 5768SOL     OW28936   2.558   3.643  12.295  0.2967 -0.0104 -0.3883
 5768SOL    HW128937   2.489   3.694  12.253 -0.0348 -0.3176 -0.2111
 5768SOL    HW228938   2.506   3.564  12.308 -1.1180  0.8746 -0.7307
 5769SOL     OW28939   3.799   2.926  16.877  0.4012  0.2414 -0.4612
 5769SOL    HW128940   3.715   2.939  16.834  0.6722  0.5850 -0.8940
 5769SOL    HW228941   3.828   2.843  16.837 -1.2983 -0.8511  0.5612
 5770SOL     OW28942   3.403   3.575   2.589  0.6968 -0.2955 -0.0780
 5770SOL    HW128943   3.409   3.540   2.678  0.5418  0.6372  0.2968
 5770SOL    HW228944   3.459   3.513   2.542 -1.9761 -1.9165 -1.0960
 5771SOL     OW28945   1.467   2.519   7.314  0.1497  0.3730  0.3870
 5771SOL    HW128946   1.507   2.604   7.296  2.5508 -0.7042  0.6783
 5771SOL    HW228947   1.543   2.462   7.321  1.0694  1.5421 -0.2159
 5772SOL     OW28948   0.533   2.006   6.847  0.1450  0.8159 -0.4713
 5772SOL    HW128949   0.561   1.917   6.868 -1.2342  0.4996  0.0466
 5772SOL    HW228950   0.490   1.985   6.764 -0.4687  0.4385 -0.0648
 5773SOL     OW28951   2.518   4.285   3.951  0.7594 -0.2210 -0.3661
 5773SOL    HW128952   2.467   4.243   4.020  2.3638 -1.3320  0.1533
 5773SOL    HW228953   2.588   4.324   4.004  0.7252  0.0873 -0.5450
 5774SOL     OW28954   2.307   3.722  10.326 -0.1314  0.1009 -0.1212
 5774SOL    HW128955   2.214   3.735  10.347 -0.2958 -0.3985 -0.5711
 5774SOL    HW228956   2.307   3.637  10.282  0.0284  0.8566 -1.5732
 5775SOL     OW28957   3.746   1.090  14.093 -0.0846  0.0891 -0.2937
 5775SOL    HW128958   3.713   1.004  14.121  1.3101  0.1732  1.6456
 5775SOL    HW228959   3.838   1.080  14.118 -0.2071  0.8969  0.4911
 5776SOL     OW28960   1.494   2.170   2.250 -0.0141 -0.0433 -0.1302
 5776SOL    HW128961   1.550   2.232   2.202  0.1595 -0.2502 -0.1978
 5776SOL    HW228962   1.412   2.180   2.203 -1.3717  1.8761  2.6568
 5777SOL     OW28963   0.491   0.272   3.083 -0.5661 -0.0431 -0.2400
 5777SOL    HW128964   0.504   0.294   3.175  1.6621 -0.0438 -0.5433
 5777SOL    HW228965   0.569   0.216   3.078 -1.8721 -1.7806 -1.1027
 5778SOL     OW28966   1.850   1.113   4.123 -0.0226 -0.0588 -0.1644
 5778SOL    HW128967   1.843   1.064   4.041 -0.6857 -0.9161  0.4099
 5778SOL    HW228968   1.756   1.112   4.143  0.4015  0.1433  1.8187
 5779SOL     OW28969   1.250   1.269   8.080 -0.3060  0.0527  0.0657
 5779SOL    HW128970   1.266   1.292   7.989 -2.6508 -0.9738 -0.5985
 5779SOL    HW228971   1.188   1.196   8.078  0.0382 -0.2522  0.4243
 5780SOL     OW28972   1.727   1.992   1.302 -0.4032 -0.2421 -0.5545
 5780SOL    HW128973   1.717   1.924   1.236  0.6059 -2.9962  2.1074
 5780SOL    HW228974   1.668   1.951   1.366  1.2973 -2.4419 -0.3709
 5781SOL     OW28975   1.746   1.714   1.927  0.5977 -0.7232  0.4360
 5781SOL    HW128976   1.831   1.758   1.928 -0.2296  0.9533 -1.7646
 5781SOL    HW228977   1.767   1.634   1.878  0.7832  0.4884 -1.4582
 5782SOL     OW28978   3.133   1.827   7.174 -0.2194 -0.7418 -0.3008
 5782SOL    HW128979   3.168   1.916   7.167 -1.8520 -0.1191 -0.4245
 5782SOL    HW228980   3.044   1.844   7.202 -0.4451  0.9574 -2.0186
 5783SOL     OW28981   2.604   1.778   4.945 -0.5977  0.1510  0.0370
 5783SOL    HW128982   2.686   1.730   4.935 -0.4277 -0.1355  3.0915
 5783SOL    HW228983   2.642   1.861   4.974 -1.5331  0.3470  0.7061
 5784SOL     OW28984   3.659   3.971   6.358  0.3668 -0.0712  0.1016
 5784SOL    HW128985   3.669   3.936   6.269  1.2788 -1.3925  0.7173
 5784SOL    HW228986   3.594   3.912   6.396 -1.1109  1.2698 -0.3603
 5785SOL     OW28987   3.554   4.657   3.975 -0.3187 -0.0922 -0.3363
 5785SOL    HW128988   3.589   4.730   3.925 -0.7888 -0.8994 -1.8433
 5785SOL    HW228989   3.547   4.701   4.060  0.4618 -2.5069  0.9938
 5786SOL     OW28990   3.236   1.787   1.377 -0.7704 -0.0487 -0.2581
 5786SOL    HW128991   3.204   1.808   1.465 -4.6747  3.4052 -2.4884
 5786SOL    HW228992   3.310   1.845   1.356 -1.1678  0.8385  0.7345
 5787SOL     OW28993   2.618   1.876   7.114 -0.2146 -0.1903 -0.7836
 5787SOL    HW128994   2.579   1.946   7.167  1.1862  1.0782 -1.4371
 5787SOL    HW228995   2.573   1.900   7.032  0.7137  3.5398 -0.2301
 5788SOL     OW28996   0.885   1.532   9.244 -0.0141  0.3481  0.1674
 5788SOL    HW128997   0.901   1.617   9.202  1.7660 -0.4605 -0.7564
 5788SOL    HW228998   0.960   1.528   9.303  0.1718  0.4571 -0.0589
 5789SOL     OW28999   1.788   3.088  11.342  0.0732  0.2109  0.0787
 5789SOL    HW129000   1.771   3.172  11.384  1.0547 -0.4502  1.7898
 5789SOL    HW229001   1.876   3.108  11.309  0.3635  1.9138  1.8821
 5790SOL     OW29002   2.832   2.267  16.611 -0.2893 -0.1453 -0.3118
 5790SOL    HW129003   2.891   2.218  16.553 -0.5901 -0.1719 -0.5944
 5790SOL    HW229004   2.847   2.226  16.697 -1.6325 -2.0577 -0.9910
 5791SOL     OW29005   3.301   4.673   2.887  0.4649  0.1190 -0.5504
 5791SOL    HW129006   3.271   4.584   2.868  0.0333 -0.1675  1.5277
 5791SOL    HW229007   3.310   4.673   2.982 -1.9426  0.0203 -0.3199
 5792SOL     OW29008   2.931   1.347   3.391 -0.7885  0.3357  0.4078
 5792SOL    HW129009   2.984   1.286   3.340  1.8877  2.2120  0.9515
 5792SOL    HW229010   2.854   1.321   3.341  0.8300 -0.9438 -1.3866
 5793SOL     OW29011   3.896   2.729   8.802  0.0559  0.6097  0.0799
 5793SOL    HW129012   3.967   2.684   8.847 -0.6802  0.0634  0.7082
 5793SOL    HW229013   3.840   2.736   8.880 -0.1685 -0.5835  0.0280
 5794SOL     OW29014   3.325   1.443   5.347  0.0731  0.4232  0.3887
 5794SOL    HW129015   3.355   1.430   5.437  1.4427  2.5876  0.2464
 5794SOL    HW229016   3.232   1.461   5.361  0.2980  1.4777  0.5093
 5795SOL     OW29017   3.551   1.088  11.586  0.1536 -0.7474 -0.9537
 5795SOL    HW129018   3.458   1.109  11.583  0.9383  3.0585  1.9725
 5795SOL    HW229019   3.582   1.129  11.506  2.3963 -1.1286 -0.2850
 5796SOL     OW29020   2.618   1.276   7.139  0.0750  0.5590 -0.1953
 5796SOL    HW129021   2.621   1.372   7.132 -0.5127  0.5056 -1.2725
 5796SOL    HW229022   2.590   1.271   7.230 -0.6451 -0.1114 -0.4473
 5797SOL     OW29023   3.120   3.942  11.621  0.5757  1.0734  0.2853
 5797SOL    HW129024   3.095   3.999  11.693  1.1561  0.6565  0.8172
 5797SOL    HW229025   3.050   3.969  11.561 -1.0538  0.7228  2.0212
 5798SOL     OW29026   1.171   0.846   5.415  0.3914  0.1948  0.0542
 5798SOL    HW129027   1.218   0.927   5.435 -0.3517  0.2918  1.3698
 5798SOL    HW229028   1.245   0.787   5.422 -1.6588 -2.2666  0.8142
 5799SOL     OW29029   0.764   4.600   8.005  0.7434  0.7070 -0.0465
 5799SOL    HW129030   0.728   4.620   8.091  2.6903  0.7846  0.7579
 5799SOL    HW229031   0.854   4.580   8.032  1.2479 -1.0880 -3.0659
 5800SOL     OW29032   3.133   0.474  13.925 -0.2503 -0.2860  0.0094
 5800SOL    HW129033   3.067   0.491  13.857  1.0785  1.4790 -0.8159
 5800SOL    HW229034   3.110   0.391  13.968  0.0749 -0.9375 -1.0632
 5801SOL     OW29035   0.700   4.301  12.827  0.1831 -0.3736 -0.1238
 5801SOL    HW129036   0.610   4.301  12.795 -0.1209 -1.4270  0.7280
 5801SOL    HW229037   0.710   4.373  12.889 -0.1985 -1.4766  1.2151
 5802SOL     OW29038   4.510   0.101   3.658 -0.3346 -0.6062 -0.1021
 5802SOL    HW129039   4.520   0.172   3.721 -0.6432 -0.0384 -0.6906
 5802SOL    HW229040   4.498   0.025   3.716  2.0882 -1.7224 -1.0366
 5803SOL     OW29041   0.841   1.807   8.653 -0.0444  0.2898 -0.1531
 5803SOL    HW129042   0.822   1.778   8.742  0.2844 -0.1151 -0.2141
 5803SOL    HW229043   0.885   1.890   8.670  1.3278 -0.4288 -0.2247
 5804SOL     OW29044   2.618   1.911  16.765  0.4022 -0.1317  0.1908
 5804SOL    HW129045   2.700   1.957  16.749 -1.5276  2.1512 -3.0617
 5804SOL    HW229046   2.614   1.882  16.857 -2.0803  1.1325  0.4805
 5805SOL     OW29047   3.944   3.961   5.483 -0.4706  0.2765 -0.3647
 5805SOL    HW129048   3.993   3.907   5.545  1.2991  3.6782  1.2001
 5805SOL    HW229049   3.964   3.917   5.401  2.7669  0.8999  0.1111
 5806SOL     OW29050   2.492   3.096   2.907 -0.4355  0.8211  0.2735
 5806SOL    HW129051   2.472   3.010   2.945 -1.7962  0.4208 -1.3527
 5806SOL    HW229052   2.427   3.148   2.954 -0.5422  0.9065  0.0319
 5807SOL     OW29053   4.634   2.456   7.415  0.4490  0.2856 -0.2021
 5807SOL    HW129054   4.610   2.492   7.501  3.3962  1.1486  0.2666
 5807SOL    HW229055   4.565   2.486   7.356  0.3748  0.4057 -0.0538
 5808SOL     OW29056   4.119   1.566  10.612  0.5609 -0.2168 -0.7368
 5808SOL    HW129057   4.074   1.500  10.560 -1.6339 -1.4265  2.6534
 5808SOL    HW229058   4.161   1.510  10.677  0.2009 -1.4353 -1.5636
 5809SOL     OW29059   0.388   0.120  10.279 -0.5046 -0.2991  0.1882
 5809SOL    HW129060   0.458   0.184  10.289  0.1565 -0.7230 -1.7223
 5809SOL    HW229061   0.365   0.113  10.372  2.7135  0.1776  1.0022
 5810SOL     OW29062   1.542   4.382   9.043 -0.1318  0.2115 -0.5907
 5810SOL    HW129063   1.597   4.337   9.107 -0.5822  0.8559  0.2466
 5810SOL    HW229064   1.478   4.430   9.096  1.8240  1.5005  0.6023
 5811SOL     OW29065   1.469   3.705   7.621  0.1467  0.4766  0.4317
 5811SOL    HW129066   1.484   3.691   7.715  0.9149 -2.9187 -0.1666
 5811SOL    HW229067   1.556   3.727   7.588  0.4412 -1.1109  0.1343
 5812SOL     OW29068   2.453   2.982  11.899 -0.1324 -0.6701 -0.4769
 5812SOL    HW129069   2.538   2.968  11.941 -1.0710 -0.7102  1.3796
 5812SOL    HW229070   2.392   2.942  11.961 -0.7780  1.1200  0.0367
 5813SOL     OW29071   4.288   3.710   3.368 -0.3036  0.7145  0.2348
 5813SOL    HW129072   4.207   3.668   3.398  0.4439 -2.4559 -2.1662
 5813SOL    HW229073   4.325   3.728   3.454 -0.5359  0.4066  0.4000
 5814SOL     OW29074   4.264   3.648   7.399  0.1120 -0.4344 -0.2941
 5814SOL    HW129075   4.230   3.736   7.384  1.4046  0.1233  0.0366
 5814SOL    HW229076   4.189   3.601   7.435 -0.3086  0.8781  0.5061
 5815SOL     OW29077   0.087   4.302   6.793  0.0722 -0.5720  0.1676
 5815SOL    HW129078   0.058   4.240   6.726 -1.0895  1.6773 -1.4154
 5815SOL    HW229079   0.104   4.383   6.745  0.0471 -0.2886  0.6364
 5816SOL     OW29080   1.204   2.263  14.041 -0.2602  0.3816  0.3056
 5816SOL    HW129081   1.196   2.257  14.136  1.8075 -0.2388  0.4497
 5816SOL    HW229082   1.269   2.331  14.027 -0.9117  0.7300 -1.0222
 5817SOL     OW29083   1.391   2.444   7.945  0.2740 -0.3136 -0.2502
 5817SOL    HW129084   1.475   2.405   7.968 -1.3128 -2.3725  1.9391
 5817SOL    HW229085   1.422   2.524   7.903  1.1621 -0.9619 -0.8397
 5818SOL     OW29086   3.953   4.642   4.932  0.3562  0.1117 -1.2450
 5818SOL    HW129087   3.865   4.628   4.967  0.3320  1.7067 -0.6855
 5818SOL    HW229088   3.991   4.694   5.003  3.5086 -1.7989 -1.5288
 5819SOL     OW29089   2.880   4.144   6.652 -0.0688  0.4731 -0.3505
 5819SOL    HW129090   2.900   4.127   6.744  2.1837  1.0782 -0.7189
 5819SOL    HW229091   2.794   4.186   6.651  0.6740  1.9410 -2.2803
 5820SOL     OW29092   0.941   2.870   9.290 -0.3312  0.4750  0.3429
 5820SOL    HW129093   0.911   2.836   9.374  0.6262 -1.1661  0.0358
 5820SOL    HW229094   1.025   2.913   9.306  0.9378 -2.3655  1.3788
 5821SOL     OW29095   1.517   3.754   8.381  0.4707  0.2327  0.0693
 5821SOL    HW129096   1.438   3.701   8.387  1.2695 -1.0910 -1.0212
 5821SOL    HW229097   1.500   3.823   8.317  0.7591  0.4187  0.1937
 5822SOL     OW29098   3.721   2.170  13.802  0.0544 -0.1749 -0.6949
 5822SOL    HW129099   3.678   2.087  13.781  1.3581 -1.0577  0.1181
 5822SOL    HW229100   3.813   2.148  13.791 -0.4274 -2.4751 -0.2571
 5823SOL     OW29101   4.688   0.124   1.483 -0.2793 -0.0917  0.1189
 5823SOL    HW129102   4.610   0.142   1.431 -0.5225 -3.0037 -0.5045
 5823SOL    HW229103   4.662   0.053   1.541  0.9864  0.6448  1.5945
 5824SOL     OW29104   0.880   2.806  11.009  1.0919 -0.0303 -0.3111
 5824SOL    HW129105   0.898   2.891  10.970 -1.3116  1.1305  1.1103
 5824SOL    HW229106   0.968   2.769  11.011  0.4556 -1.5268  0.1525
 5825SOL     OW29107   4.340   2.543  14.465 -0.0545  0.0319 -0.4464
 5825SOL    HW129108   4.421   2.580  14.500  0.4883 -2.2067  0.6614
 5825SOL    HW229109   4.342   2.459  14.510  1.4414 -0.4577 -1.4097
 5826SOL     OW29110   0.368   1.161   2.431  0.2846  0.3768  0.0352
 5826SOL    HW129111   0.436   1.157   2.498  2.3404  0.1519 -2.0674
 5826SOL    HW229112   0.428   1.141   2.359  0.6708 -0.7152  0.6635
 5827SOL     OW29113   3.448   1.050   5.086 -0.1316  0.0534  0.1542
 5827SOL    HW129114   3.507   1.117   5.051 -1.3132  1.9472  1.8003
 5827SOL    HW229115   3.429   1.104   5.162  0.7217 -0.5666  0.8090
 5828SOL     OW29116   3.706   0.978   7.570 -0.2613 -0.1411 -0.2784
 5828SOL    HW129117   3.744   0.891   7.583 -0.1750 -0.1153 -0.3597
 5828SOL    HW229118   3.735   1.033   7.643 -0.6638 -1.8193  1.1383
 5829SOL     OW29119   3.867   3.741  15.902  0.1636  0.1945 -0.3928
 5829SOL    HW129120   3.915   3.776  15.828 -0.0115  1.5159  0.1236
 5829SOL    HW229121   3.820   3.820  15.929 -0.8151 -0.6615  0.4161
 5830SOL     OW29122   2.578   2.200   4.567 -0.3756 -0.1721  0.1027
 5830SOL    HW129123   2.611   2.167   4.650  0.7586  1.0864  0.1596
 5830SOL    HW229124   2.532   2.127   4.527 -1.1124  1.2745 -1.6719
 5831SOL     OW29125   1.916   3.980   5.006  0.2982  0.2628  0.1267
 5831SOL    HW129126   2.011   3.974   4.999  0.0472 -1.7765 -1.4797
 5831SOL    HW229127   1.901   3.955   5.097 -2.1980 -3.1143 -1.2065
 5832SOL     OW29128   0.358   2.599   0.969  0.1141 -0.3277  0.2947
 5832SOL    HW129129   0.362   2.616   1.063  1.9200  0.7273  0.0218
 5832SOL    HW229130   0.446   2.563   0.958  0.1624  0.5304 -2.0393
 5833SOL     OW29131   1.995   1.684   5.787 -0.0792  0.0033 -0.5103
 5833SOL    HW129132   2.024   1.775   5.776  3.7375 -1.3892 -1.6998
 5833SOL    HW229133   2.073   1.630   5.785 -0.1221 -0.0307 -1.2065
 5834SOL     OW29134   2.830   4.725  17.249  0.1458  0.5620  0.5424
 5834SOL    HW129135   2.839   0.000  17.343 -1.6512  0.2367  0.7745
 5834SOL    HW229136   2.798   0.072  17.218 -0.2650  0.2110 -0.0141
 5835SOL     OW29137   2.148   1.303   6.860 -0.0422  0.0184  0.7510
 5835SOL    HW129138   2.154   1.235   6.927  2.0605  0.3114  0.8799
 5835SOL    HW229139   2.118   1.246   6.790  1.6153  0.7165 -0.5283
 5836SOL     OW29140   3.642   1.114   6.930  0.4878 -0.1244  0.4766
 5836SOL    HW129141   3.578   1.158   6.874  0.4472 -1.3045 -0.3962
 5836SOL    HW229142   3.668   1.186   6.987  2.2920 -0.1732 -0.2874
 5837SOL     OW29143   1.666   0.550   1.954 -0.3343  0.5367 -0.0508
 5837SOL    HW129144   1.754   0.568   1.923  0.4357 -4.2996 -0.6712
 5837SOL    HW229145   1.677   0.551   2.049 -0.1921 -0.0715 -0.0586
 5838SOL     OW29146   2.312   0.689   7.173  0.1888 -0.1257  0.2409
 5838SOL    HW129147   2.242   0.726   7.120  2.7931  2.8985 -1.0707
 5838SOL    HW229148   2.277   0.601   7.184  0.3517 -0.2528 -0.2437
 5839SOL     OW29149   2.821   2.601   4.008  0.2958  0.1830  0.4730
 5839SOL    HW129150   2.793   2.531   3.949 -1.7726 -0.0651  1.7584
 5839SOL    HW229151   2.915   2.592   4.023  0.6550 -1.2123 -2.5164
 5840SOL     OW29152   1.534   3.772   6.757 -0.0347  0.0047 -0.4105
 5840SOL    HW129153   1.526   3.725   6.840 -0.8360  1.1608  0.1770
 5840SOL    HW229154   1.561   3.697   6.705 -0.4783 -1.3690  1.3530
 5841SOL     OW29155   3.090   1.480  16.689  0.3047 -0.2568  0.2236
 5841SOL    HW129156   3.099   1.504  16.597 -1.7282 -2.5186 -0.5499
 5841SOL    HW229157   3.143   1.400  16.690 -1.0065 -1.0605  3.3494
 5842SOL     OW29158   4.539   3.319   3.050  0.2350 -0.0870  0.0628
 5842SOL    HW129159   4.464   3.375   3.069  0.9317  1.5930 -2.1288
 5842SOL    HW229160   4.496   3.233   3.047 -1.2227  0.6415  0.0889
 5843SOL     OW29161   2.920   4.603   7.188 -0.4415  0.2871 -0.0383
 5843SOL    HW129162   2.955   4.686   7.156 -3.0659  2.2230  2.0656
 5843SOL    HW229163   2.955   4.609   7.277  0.1040 -2.1442 -0.0934
 5844SOL     OW29164   3.695   0.612   2.442 -0.2839 -0.4859  0.3647
 5844SOL    HW129165   3.760   0.544   2.426 -1.0846 -1.8605  3.0408
 5844SOL    HW229166   3.631   0.574   2.502 -1.8384  2.7291  0.7821
 5845SOL     OW29167   2.699   0.574   4.083  0.1435  0.3373 -0.3504
 5845SOL    HW129168   2.762   0.561   4.012  2.1494 -0.2265  1.5339
 5845SOL    HW229169   2.683   0.666   4.062 -0.1355  0.5594  0.8387
 5846SOL     OW29170   4.628   0.419   6.023 -0.2914 -0.0163  0.3237
 5846SOL    HW129171   4.536   0.443   6.034 -0.0269  1.1736 -0.0128
 5846SOL    HW229172   4.668   0.506   6.023 -2.7017  1.0885  2.1004
 5847SOL     OW29173   4.558   2.089   2.688 -0.1804 -0.4305 -0.4051
 5847SOL    HW129174   4.543   2.002   2.726  0.7676 -0.1140  0.6813
 5847SOL    HW229175   4.519   2.149   2.752  1.4328  0.4562 -0.2598
 5848SOL     OW29176   2.036   1.362  17.393 -0.0366 -0.3387 -0.2279
 5848SOL    HW129177   2.078   1.430  17.445  4.3989 -1.7998 -1.9102
 5848SOL    HW229178   1.947   1.360  17.430  0.5713  0.3609  1.2864
 5849SOL     OW29179   1.534   3.063   8.137  0.1873  0.1491  0.5544
 5849SOL    HW129180   1.550   3.145   8.184 -0.7980 -0.7562  2.4451
 5849SOL    HW229181   1.582   3.018   8.206 -0.6562 -1.8548 -0.1642
 5850SOL     OW29182   1.966   1.602   2.479 -0.0022 -0.1723  0.0346
 5850SOL    HW129183   1.883   1.575   2.442 -0.2592 -1.1255  1.3109
 5850SOL    HW229184   1.969   1.698   2.475  1.3935 -0.1635  1.1090
 5851SOL     OW29185   4.068   3.275  16.885  0.0392  0.1735  0.6879
 5851SOL    HW129186   4.130   3.247  16.818 -0.6654 -0.6499  0.3751
 5851SOL    HW229187   4.047   3.197  16.937  0.6242  1.3477  2.6651
 5852SOL     OW29188   0.621   4.636  12.548  0.4856  0.3657  0.4401
 5852SOL    HW129189   0.701   4.687  12.551  0.5268  0.1655  2.6473
 5852SOL    HW229190   0.599   4.641  12.455 -1.1339  2.8742  0.9554
 5853SOL     OW29191   2.613   1.263   3.957 -0.3041 -0.1112 -0.5453
 5853SOL    HW129192   2.599   1.232   4.047  4.9418 -0.8139 -0.0167
 5853SOL    HW229193   2.708   1.265   3.952 -0.3156  0.0037 -0.7211
 5854SOL     OW29194   3.133   3.842   7.499 -0.4504  0.1042  0.0890
 5854SOL    HW129195   3.118   3.749   7.516 -0.0691  0.0745  0.2643
 5854SOL    HW229196   3.049   3.883   7.481 -0.0419  0.8350 -0.1568
 5855SOL     OW29197   3.622   3.656   4.020 -0.0067  0.5748  0.2496
 5855SOL    HW129198   3.643   3.563   4.010  0.2390  0.6499  0.0658
 5855SOL    HW229199   3.527   3.659   4.030  0.3127  0.9291  3.3461
 5856SOL     OW29200   3.796   2.277   5.937  0.0950 -0.4055 -0.5264
 5856SOL    HW129201   3.748   2.342   5.886 -0.7283  0.2668  1.1066
 5856SOL    HW229202   3.856   2.247   5.869 -0.6356 -1.9010 -0.5230
 5857SOL     OW29203   3.706   4.538   2.775  0.0266  0.1918 -0.0542
 5857SOL    HW129204   3.733   4.486   2.699 -1.1514 -0.4570 -0.0304
 5857SOL    HW229205   3.654   4.600   2.724 -1.2570  0.4475  1.5492
 5858SOL     OW29206   1.841   3.412   9.753  0.2846  0.5669  0.2061
 5858SOL    HW129207   1.933   3.437   9.744  0.9175 -1.9402 -0.1726
 5858SOL    HW229208   1.852   3.320   9.778  1.0422 -0.0675 -2.4885
 5859SOL     OW29209   3.124   1.568   3.339  0.6516 -0.5670 -0.1589
 5859SOL    HW129210   3.208   1.541   3.375  0.5864 -1.5520 -0.7223
 5859SOL    HW229211   3.073   1.487   3.348  0.2756 -0.6038 -2.5527
 5860SOL     OW29212   4.446   4.220   9.763  0.1959 -0.1032  0.7450
 5860SOL    HW129213   4.417   4.262   9.682  2.1541  0.9050  0.5576
 5860SOL    HW229214   4.502   4.148   9.735  2.2668  1.0547  1.9219
 5861SOL     OW29215   3.199   2.788   8.735  0.1209  0.2160  0.1154
 5861SOL    HW129216   3.229   2.737   8.810  1.0585 -0.2843 -0.5948
 5861SOL    HW229217   3.108   2.757   8.733  0.6664 -1.3072 -1.9875
 5862SOL     OW29218   1.436   2.002  10.389  0.0711 -0.5431 -0.0919
 5862SOL    HW129219   1.375   1.936  10.359  1.2166 -0.8756 -1.6785
 5862SOL    HW229220   1.486   2.012  10.309 -0.9685 -0.1796 -0.6875
 5863SOL     OW29221   3.117   3.540   7.070 -0.2665  0.1361 -0.0389
 5863SOL    HW129222   3.170   3.588   7.134 -0.7633 -0.9528  1.1962
 5863SOL    HW229223   3.111   3.611   7.006  3.7680  1.4498  1.0189
 5864SOL     OW29224   2.875   3.552   8.842 -0.2066  0.5818 -0.4933
 5864SOL    HW129225   2.966   3.544   8.869 -0.0007  0.4795 -1.2369
 5864SOL    HW229226   2.870   3.498   8.763 -2.7633 -1.4930  1.0630
 5865SOL     OW29227   2.754   2.576   8.113 -0.9775 -0.0926  0.0050
 5865SOL    HW129228   2.664   2.561   8.083 -0.3629 -1.2663 -1.2592
 5865SOL    HW229229   2.774   2.499   8.166 -0.0798  0.7556  0.8805
 5866SOL     OW29230   4.225   3.143   5.140  0.3415 -0.1001 -0.0439
 5866SOL    HW129231   4.206   3.064   5.190  1.9017 -0.2527  0.2959
 5866SOL    HW229232   4.317   3.127   5.119 -0.0879 -0.3524 -1.7057
 5867SOL     OW29233   2.499   0.677   2.877  0.6306  0.2994 -0.4742
 5867SOL    HW129234   2.593   0.693   2.890  0.4596  1.1174 -0.2545
 5867SOL    HW229235   2.504   0.603   2.816  0.9300 -1.0710  1.2293
 5868SOL     OW29236   1.535   2.195   8.079 -0.1460 -0.5814  0.6169
 5868SOL    HW129237   1.554   2.262   8.013 -0.3151 -0.9836  0.1636
 5868SOL    HW229238   1.558   2.118   8.027  1.0222  0.1086  0.1063
 5869SOL     OW29239   4.367   1.604   7.203  0.6664 -0.2026  0.1079
 5869SOL    HW129240   4.289   1.569   7.159  0.4705  0.5705 -0.1666
 5869SOL    HW229241   4.401   1.531   7.254  1.7965  0.3975  0.2175
 5870SOL     OW29242   1.706   1.883  10.602 -0.7112  0.0539 -0.8329
 5870SOL    HW129243   1.635   1.948  10.602  0.1014  0.9471 -0.7181
 5870SOL    HW229244   1.656   1.808  10.633 -1.3357  1.3931  1.4214
 5871SOL     OW29245   1.122   1.374   4.470  0.0543 -0.1303 -0.0569
 5871SOL    HW129246   1.037   1.365   4.427  0.5135  1.7596 -1.3831
 5871SOL    HW229247   1.177   1.352   4.394  0.4934 -1.9486  0.7936
 5872SOL     OW29248   4.091   2.840   7.957  0.6828  0.2341  0.3172
 5872SOL    HW129249   4.127   2.763   7.912 -0.4989  0.5570 -1.1658
 5872SOL    HW229250   3.997   2.822   7.961  0.4437  1.0409 -1.6189
 5873SOL     OW29251   0.290   4.438   8.793  0.7988 -0.2676 -0.1465
 5873SOL    HW129252   0.249   4.520   8.819  2.4084 -0.1595  2.0617
 5873SOL    HW229253   0.254   4.373   8.853 -0.0175  1.5835  1.3559
 5874SOL     OW29254   2.615   3.820   6.754  0.4975 -0.3156  0.1662
 5874SOL    HW129255   2.650   3.765   6.825  1.3056 -0.2700 -0.1944
 5874SOL    HW229256   2.604   3.904   6.800 -1.7449 -0.8082  0.5169
 5875SOL     OW29257   0.842   1.994   1.702 -0.2903  0.2038 -0.5639
 5875SOL    HW129258   0.897   1.961   1.631  2.2161 -1.9199  2.3376
 5875SOL    HW229259   0.822   2.081   1.669  2.0405  0.2158 -1.8921
 5876SOL     OW29260   3.038   1.823   4.527 -0.1597 -0.0353  0.5403
 5876SOL    HW129261   3.089   1.885   4.580  1.5409 -0.7669 -0.2301
 5876SOL    HW229262   3.061   1.739   4.566 -2.0646  0.0252  1.7718
 5877SOL     OW29263   2.476   2.123   4.900  0.1519  0.0428  0.2797
 5877SOL    HW129264   2.395   2.072   4.901  0.2244 -0.0676  0.5151
 5877SOL    HW229265   2.544   2.055   4.903 -0.7757 -0.7250  3.9062
 5878SOL     OW29266   1.866   0.912   3.348 -0.0830 -0.2997 -0.9152
 5878SOL    HW129267   1.825   0.970   3.284 -0.0548  0.2917 -0.4042
 5878SOL    HW229268   1.782   0.908   3.395  0.8246 -0.5422  0.7026
 5879SOL     OW29269   3.370   4.360   9.228  0.1120 -0.7614 -0.3631
 5879SOL    HW129270   3.433   4.289   9.222  0.3694 -0.6669  1.1058
 5879SOL    HW229271   3.365   4.389   9.137  0.5393 -1.7753 -0.7109
 5880SOL     OW29272   2.761   0.032   2.810 -0.0847  0.2503  0.2523
 5880SOL    HW129273   2.817   0.027   2.887  1.0305  1.9453 -0.4399
 5880SOL    HW229274   2.741   4.679   2.786 -2.6273  1.4367 -2.1139
 5881SOL     OW29275   4.148   2.024   2.449  0.1741 -0.0323  0.0944
 5881SOL    HW129276   4.153   2.102   2.505  0.4972 -0.0556  0.0989
 5881SOL    HW229277   4.094   2.060   2.380  1.1346 -1.2332 -1.2761
 5882SOL     OW29278   4.012   3.820  15.681 -0.1609  0.6024 -0.0348
 5882SOL    HW129279   4.090   3.765  15.684 -1.8426 -1.7441  0.2317
 5882SOL    HW229280   4.044   3.901  15.640  0.5590  0.1352 -0.3914
 5883SOL     OW29281   3.519   4.507   7.210 -0.3632  0.0711  0.1906
 5883SOL    HW129282   3.548   4.427   7.253  0.5819 -0.3475 -1.2232
 5883SOL    HW229283   3.489   4.554   7.288  3.6463  2.1044  0.4840
 5884SOL     OW29284   0.186   2.920  10.073 -0.1647 -0.2881 -0.3727
 5884SOL    HW129285   0.238   2.968  10.138  0.1085  0.2229 -0.9727
 5884SOL    HW229286   0.239   2.842  10.058  0.1971 -0.2321  0.5652
 5885SOL     OW29287   3.935   3.636  11.757  0.3002  0.1717  0.3104
 5885SOL    HW129288   3.870   3.640  11.686 -0.5820 -1.0635  1.0488
 5885SOL    HW229289   3.998   3.569  11.729  2.7937  2.4341  0.5202
 5886SOL     OW29290   4.145   3.736   6.340  0.2984  0.3336 -0.5152
 5886SOL    HW129291   4.172   3.816   6.294  0.2555  0.4478 -0.3415
 5886SOL    HW229292   4.067   3.769   6.384  0.7796  0.8449 -0.0552
 5887SOL     OW29293   3.099   4.682   9.053  0.1108 -0.1243  0.0185
 5887SOL    HW129294   3.148   0.002   8.994  1.0960 -1.7447 -0.7574
 5887SOL    HW229295   3.103   4.598   9.008 -0.5468 -0.3130  0.3296
 5888SOL     OW29296   3.254   4.483   5.296 -0.0973  0.3583 -0.4891
 5888SOL    HW129297   3.331   4.498   5.351  0.0324 -2.6557  0.1215
 5888SOL    HW229298   3.210   4.564   5.325  0.5466  0.8588 -0.9220
 5889SOL     OW29299   2.460   1.221   6.760 -0.6670  0.3211 -0.2524
 5889SOL    HW129300   2.475   1.159   6.831 -0.0475 -0.2432 -0.8627
 5889SOL    HW229301   2.434   1.300   6.806 -0.9398 -0.4712  0.9628
 5890SOL     OW29302   2.659   3.061   6.546  0.1618 -0.0953 -0.0724
 5890SOL    HW129303   2.639   3.102   6.463  3.9867 -1.6595 -1.7824
 5890SOL    HW229304   2.752   3.080   6.558  0.4642 -2.4325  1.3529
 5891SOL     OW29305   4.113   3.231   6.421 -0.3129 -0.1146 -0.2441
 5891SOL    HW129306   4.034   3.179   6.412  0.1962 -0.7379 -1.1243
 5891SOL    HW229307   4.112   3.299   6.354 -1.8313 -2.0131 -2.1177
 5892SOL     OW29308   3.452   2.746   5.411  0.3798  0.0211  0.1239
 5892SOL    HW129309   3.546   2.764   5.416  0.4529 -0.2452 -0.2280
 5892SOL    HW229310   3.424   2.813   5.472  1.0774 -0.6700  1.2134
 5893SOL     OW29311   2.815   1.165   5.951  0.5185 -0.3119  0.0988
 5893SOL    HW129312   2.739   1.118   5.985  1.7946 -2.3192  0.2563
 5893SOL    HW229313   2.789   1.197   5.865 -0.2791 -1.8546 -0.2343
 5894SOL     OW29314   4.629   0.175   2.060 -0.3512 -0.2624 -0.1283
 5894SOL    HW129315   4.595   0.250   2.013  1.2133  0.7743  0.3781
 5894SOL    HW229316   4.656   0.120   1.987 -1.7933  0.7242 -1.3880
 5895SOL     OW29317   3.057   2.280   4.535 -0.1270  0.7546 -0.2018
 5895SOL    HW129318   2.963   2.297   4.533 -0.2460  0.1113 -0.0994
 5895SOL    HW229319   3.085   2.362   4.494  0.7295 -0.7234 -2.5989
 5896SOL     OW29320   4.656   3.217   0.584 -0.3724 -0.1777  0.0849
 5896SOL    HW129321   4.601   3.281   0.539 -1.9261 -2.0871 -0.7643
 5896SOL    HW229322   4.714   3.189   0.513 -1.8776  1.5549 -1.8234
 5897SOL     OW29323   1.215   1.290  11.075 -0.1832 -0.1504 -0.5075
 5897SOL    HW129324   1.218   1.378  11.039 -0.3549  0.4484  0.9696
 5897SOL    HW229325   1.125   1.268  11.052  0.0138 -1.8115  0.3144
 5898SOL     OW29326   2.373   1.076   0.544 -0.1836  0.3087 -0.4032
 5898SOL    HW129327   2.402   1.049   0.631  1.4240  0.0812 -1.0152
 5898SOL    HW229328   2.400   1.167   0.532  1.1920 -0.2782 -1.7452
 5899SOL     OW29329   1.795   2.412   3.127  0.0900  0.4200  0.5314
 5899SOL    HW129330   1.711   2.405   3.082 -0.4566  0.9651  1.4647
 5899SOL    HW229331   1.844   2.337   3.093  0.2177  0.2481  1.0995
 5900SOL     OW29332   2.967   3.331   8.661  0.0136  0.1300 -0.0306
 5900SOL    HW129333   2.996   3.386   8.588 -4.4244  0.4196 -1.5850
 5900SOL    HW229334   2.973   3.241   8.628 -1.6519  0.2313 -0.6071
 5901SOL     OW29335   0.324   4.417   2.120  0.1766 -0.8665  0.5216
 5901SOL    HW129336   0.277   4.459   2.191 -1.7955  0.0438 -1.3028
 5901SOL    HW229337   0.363   4.490   2.072  0.1600 -0.4615  1.1371
 5902SOL     OW29338   4.020   1.682  10.089  0.1424  0.1803 -0.1758
 5902SOL    HW129339   3.948   1.620  10.076  0.1377 -0.2094  1.7163
 5902SOL    HW229340   4.044   1.666  10.180 -2.3117  0.7562  0.5753
 5903SOL     OW29341   4.005   3.496   4.985 -0.1963 -0.3363 -0.2646
 5903SOL    HW129342   4.042   3.572   4.942  0.4940 -0.2210  0.5241
 5903SOL    HW229343   4.085   3.447   5.008 -1.0955 -1.7471 -0.1136
 5904SOL     OW29344   2.026   4.086   4.278 -0.2910 -0.1033 -0.0148
 5904SOL    HW129345   2.076   4.018   4.233 -2.3024 -1.3366 -0.3933
 5904SOL    HW229346   1.943   4.070   4.234 -0.5990 -0.2622  0.6337
 5905SOL     OW29347   2.028   0.305   3.133 -0.0092 -0.0675 -0.1675
 5905SOL    HW129348   2.098   0.311   3.197  0.1378  0.3241 -0.3664
 5905SOL    HW229349   1.970   0.256   3.192 -0.7214  0.2757 -0.5748
 5906SOL     OW29350   3.347   0.270  13.344  0.1123 -0.6255 -0.1826
 5906SOL    HW129351   3.403   0.308  13.412 -0.2215  0.6296 -0.6084
 5906SOL    HW229352   3.260   0.280  13.384  0.3128  0.3557  0.0027
 5907SOL     OW29353   1.456   4.185   5.673 -0.2323  0.6983 -0.6301
 5907SOL    HW129354   1.361   4.187   5.659  0.0547 -0.5515 -2.6903
 5907SOL    HW229355   1.473   4.263   5.620 -0.8207  2.6442  2.0668
 5908SOL     OW29356   3.445   0.429   6.299 -0.5980  0.0168  0.0639
 5908SOL    HW129357   3.362   0.402   6.260 -0.9210 -0.9364  1.4401
 5908SOL    HW229358   3.412   0.505   6.348  0.8994  1.0571 -0.5380
 5909SOL     OW29359   1.718   0.994  12.700 -0.2514  0.2542  0.4756
 5909SOL    HW129360   1.667   1.074  12.716 -1.6989 -0.6780  0.4835
 5909SOL    HW229361   1.655   0.926  12.677 -0.9552  1.2295 -0.4517
 5910SOL     OW29362   3.731   1.374   3.129  0.0590 -0.8041  0.1339
 5910SOL    HW129363   3.654   1.317   3.131 -1.4429  1.2204  0.1990
 5910SOL    HW229364   3.781   1.324   3.065  1.4584  0.2313  0.4224
 5911SOL     OW29365   3.740   0.765   5.952 -0.0995 -0.4087  0.2113
 5911SOL    HW129366   3.688   0.800   6.024 -0.7934  1.6086 -1.2717
 5911SOL    HW229367   3.810   0.720   5.999  0.5412  0.5544  0.1893
 5912SOL     OW29368   1.834   0.393   8.353  0.2771  0.1559 -0.2435
 5912SOL    HW129369   1.851   0.371   8.262  0.5624 -0.2428 -0.0946
 5912SOL    HW229370   1.751   0.349   8.370 -0.0146  0.6592 -0.3417
 5913SOL     OW29371   1.661   0.893   6.688  0.2461  0.6897 -0.0039
 5913SOL    HW129372   1.580   0.938   6.665  1.1708  2.7263  0.7173
 5913SOL    HW229373   1.707   0.975   6.706 -0.8806  1.4678 -0.6410
 5914SOL     OW29374   1.009   3.291  11.923 -0.3029 -0.4076  0.2562
 5914SOL    HW129375   0.942   3.348  11.960  0.9200  1.5578 -0.5653
 5914SOL    HW229376   0.958   3.223  11.878 -0.7860 -0.9335  1.5987
 5915SOL     OW29377   4.716   1.340   3.449 -0.0389  0.2950 -0.2474
 5915SOL    HW129378   4.692   1.390   3.371  1.2728 -0.9199 -1.4232
 5915SOL    HW229379   4.730   1.256   3.406 -0.4897 -0.1533  0.4930
 5916SOL     OW29380   0.694   4.557   5.968  0.2259  0.1530  0.2105
 5916SOL    HW129381   0.665   4.476   5.925  0.3119  0.9176 -1.2779
 5916SOL    HW229382   0.781   4.567   5.932 -0.2182  1.1985 -0.5683
 5917SOL     OW29383   0.644   1.926   8.391  0.2768 -0.2967  0.0820
 5917SOL    HW129384   0.565   1.975   8.369  1.2697  1.1174 -0.3599
 5917SOL    HW229385   0.686   1.983   8.455  0.6766 -1.5569  0.9403
 5918SOL     OW29386   2.698   1.535   3.590 -0.5545 -0.0063  0.4268
 5918SOL    HW129387   2.774   1.545   3.648  0.1994 -0.5392 -0.4624
 5918SOL    HW229388   2.716   1.447   3.558 -1.2881  0.1611 -0.4542
 5919SOL     OW29389   2.057   4.119   7.480 -0.7167 -0.1530  0.1619
 5919SOL    HW129390   2.140   4.158   7.505 -1.2726  1.1298  0.0325
 5919SOL    HW229391   2.005   4.120   7.560  0.2832 -0.6466  0.8103
 5920SOL     OW29392   3.706   2.162  10.803 -0.1699  0.1168  0.2189
 5920SOL    HW129393   3.668   2.111  10.874 -1.9288  0.7302 -0.2824
 5920SOL    HW229394   3.787   2.199  10.838 -1.6659 -0.1904  3.9789
 5921SOL     OW29395   1.760   2.256   8.953 -0.2070  0.0946 -0.0999
 5921SOL    HW129396   1.690   2.266   8.889 -0.6600 -1.5445  0.1304
 5921SOL    HW229397   1.790   2.346   8.963  0.9178 -0.3738  0.7408
 5922SOL     OW29398   2.907   0.522  12.019  0.0664  0.2973 -0.3343
 5922SOL    HW129399   2.944   0.512  12.107 -0.1126 -0.9303 -0.3923
 5922SOL    HW229400   2.816   0.499  12.035  0.2365 -1.4561 -1.8362
 5923SOL     OW29401   1.954   2.038  17.159 -0.0956 -0.2261  0.4629
 5923SOL    HW129402   2.011   1.961  17.152 -1.8301 -1.5558  0.7978
 5923SOL    HW229403   1.892   2.018  17.089  0.2423 -0.0743  0.1245
 5924SOL     OW29404   1.045   3.753  12.233 -0.4961  0.6820 -0.4274
 5924SOL    HW129405   1.029   3.697  12.309  0.3523  0.6122 -0.3048
 5924SOL    HW229406   0.975   3.818  12.243 -2.0916 -1.0658 -0.1140
 5925SOL     OW29407   1.324   3.977   8.537  0.3425 -0.4230  0.4854
 5925SOL    HW129408   1.298   3.886   8.523  1.2332 -0.5327 -0.4601
 5925SOL    HW229409   1.419   3.973   8.550  0.6631 -0.6225 -2.0448
 5926SOL     OW29410   0.234   1.296   2.863 -0.0656  0.0878 -1.0042
 5926SOL    HW129411   0.200   1.318   2.776 -3.4191 -0.2355  0.2644
 5926SOL    HW229412   0.249   1.207   2.831 -0.1876 -0.5020  0.5818
 5927SOL     OW29413   3.668   2.430   3.974  0.0886 -0.1809  0.2937
 5927SOL    HW129414   3.734   2.495   3.997  0.6271  0.1077 -2.0335
 5927SOL    HW229415   3.721   2.350   3.970 -0.6310 -0.6345 -0.2422
 5928SOL     OW29416   1.833   0.714   1.721  0.3304  0.2344  0.6520
 5928SOL    HW129417   1.846   0.673   1.636  0.6663  2.3218 -0.3241
 5928SOL    HW229418   1.754   0.665   1.740  1.0673 -1.3337 -0.3466
 5929SOL     OW29419   3.613   0.388   8.821  0.5108 -0.1714 -0.4295
 5929SOL    HW129420   3.563   0.416   8.898  1.9649  1.2175  0.0283
 5929SOL    HW229421   3.617   0.472   8.775  1.5391 -0.6993 -1.3027
 5930SOL     OW29422   0.345   3.855   7.843  0.2660  0.5310  0.1495
 5930SOL    HW129423   0.320   3.877   7.933  0.2603 -0.7972  0.4774
 5930SOL    HW229424   0.436   3.884   7.837  0.3955  0.3895  1.4346
 5931SOL     OW29425   3.963   0.257  11.944  0.1821 -0.2009 -0.3375
 5931SOL    HW129426   3.893   0.199  11.916  1.3375 -2.6196  1.7570
 5931SOL    HW229427   3.918   0.327  11.991 -2.0434 -1.4223 -0.6945
 5932SOL     OW29428   3.776   2.561  14.543  0.2798 -0.0584  0.1244
 5932SOL    HW129429   3.800   2.477  14.504  0.2895 -0.9731  2.1188
 5932SOL    HW229430   3.857   2.592  14.583 -0.2328 -0.2326  1.2712
 5933SOL     OW29431   3.742   1.882   2.250 -0.4280 -0.0558  0.4908
 5933SOL    HW129432   3.823   1.932   2.237 -1.7209  2.4864  2.4306
 5933SOL    HW229433   3.685   1.930   2.190 -1.2966 -1.8819 -0.1722
 5934SOL     OW29434   3.848   0.393   2.409  0.4184 -0.3985 -0.1754
 5934SOL    HW129435   3.833   0.365   2.499  0.0328 -2.0836 -0.7567
 5934SOL    HW229436   3.924   0.342   2.380  0.1447 -0.0150 -1.5983
 5935SOL     OW29437   2.146   3.705   4.180 -0.4453 -0.2092  0.1693
 5935SOL    HW129438   2.167   3.713   4.273 -0.6659  2.0593  0.0335
 5935SOL    HW229439   2.151   3.797   4.153  1.0241 -0.2631  0.2564
 5936SOL     OW29440   3.414   3.838   4.253  0.2427 -0.1144  0.1847
 5936SOL    HW129441   3.507   3.849   4.232  0.0983 -3.8747 -2.2675
 5936SOL    HW229442   3.390   3.927   4.278  1.3704  0.4718 -0.8419
 5937SOL     OW29443   1.536   0.092   3.779  0.1925  0.5982  0.5782
 5937SOL    HW129444   1.578   0.059   3.858 -0.4617 -0.0502  0.6548
 5937SOL    HW229445   1.600   0.065   3.713 -0.6749 -0.5900  0.2323
 5938SOL     OW29446   2.966   4.411   3.581 -0.4339 -0.0043  0.1866
 5938SOL    HW129447   2.980   4.324   3.617 -4.3345 -0.8573 -0.3299
 5938SOL    HW229448   2.890   4.438   3.633 -0.3706  1.1377 -0.2974
 5939SOL     OW29449   4.328   0.516   9.013 -0.0752 -0.2506 -0.8972
 5939SOL    HW129450   4.299   0.538   9.101 -0.1002  1.4871 -1.3469
 5939SOL    HW229451   4.292   0.429   8.996  0.0693 -0.4128 -0.3449
 5940SOL     OW29452   3.612   3.320  17.089 -0.0993  0.3484  0.3799
 5940SOL    HW129453   3.588   3.378  17.161 -2.1134  0.7446 -0.6220
 5940SOL    HW229454   3.670   3.252  17.124 -1.4120 -0.4851  0.9112
 5941SOL     OW29455   2.987   3.045   7.167 -0.1333  0.0246  0.0128
 5941SOL    HW129456   3.073   3.079   7.190 -1.6565  1.9188  2.8875
 5941SOL    HW229457   2.926   3.111   7.200  0.8244  0.8546  0.1247
 5942SOL     OW29458   0.526   2.317  12.967 -0.1767  0.9268  0.2731
 5942SOL    HW129459   0.617   2.331  12.992 -0.6018  0.7787  1.9193
 5942SOL    HW229460   0.529   2.341  12.874  1.2852  2.2433  0.6659
 5943SOL     OW29461   0.305   4.694   6.999  0.1427 -0.7972 -0.6603
 5943SOL    HW129462   0.256   0.033   7.026  1.4821 -0.3122  0.4232
 5943SOL    HW229463   0.318   4.659   7.088 -1.9650 -0.0803 -0.0907
 5944SOL     OW29464   1.830   1.092  17.330 -0.3895  0.1654 -0.5209
 5944SOL    HW129465   1.913   1.140  17.324 -0.2732  0.4344  3.4401
 5944SOL    HW229466   1.803   1.069  17.241  0.6432  2.4351 -1.4180
 5945SOL     OW29467   1.301   2.295   8.693  0.1433 -0.1765 -0.1031
 5945SOL    HW129468   1.288   2.205   8.724  1.7902 -0.7614 -1.1012
 5945SOL    HW229469   1.334   2.335   8.774 -3.9718  0.3077  1.3045
 5946SOL     OW29470   2.388   0.701   1.497 -0.0572  0.0002 -0.0333
 5946SOL    HW129471   2.394   0.712   1.402 -0.0839 -1.0054 -0.1470
 5946SOL    HW229472   2.333   0.774   1.527  0.2148  0.4707 -0.6653
 5947SOL     OW29473   4.093   0.275   8.545  0.5064  0.0814  0.4668
 5947SOL    HW129474   4.082   0.202   8.485 -0.0929 -1.1979  2.1191
 5947SOL    HW229475   4.039   0.249   8.620  1.0945 -0.8039  0.5889
 5948SOL     OW29476   3.768   0.642   9.353  0.2814  0.3019  0.1770
 5948SOL    HW129477   3.743   0.579   9.420  1.3460 -0.3375 -0.0156
 5948SOL    HW229478   3.684   0.640   9.307  0.9775 -0.0711 -1.0759
 5949SOL     OW29479   0.464   4.639  12.764  0.3430 -0.0558  0.8914
 5949SOL    HW129480   0.458   4.725  12.806 -0.2154  0.1494  0.3948
 5949SOL    HW229481   0.516   4.656  12.686  2.3678 -1.0438  2.0354
 5950SOL     OW29482   0.495   3.409   5.380 -0.2024  0.6146 -0.1160
 5950SOL    HW129483   0.537   3.384   5.298  0.8520 -1.5768  1.1051
 5950SOL    HW229484   0.404   3.385   5.364 -0.3614  0.1712  1.4666
 5951SOL     OW29485   3.688   2.041   0.221 -0.2258 -0.3656  0.0913
 5951SOL    HW129486   3.751   2.010   0.286 -0.1123  0.9387  0.6150
 5951SOL    HW229487   3.617   1.979   0.236 -0.0471 -0.4427  0.6153
 5952SOL     OW29488   1.098   0.564   1.904 -0.6370  0.2843 -0.5467
 5952SOL    HW129489   1.082   0.589   1.813  1.1864  0.9761 -0.6894
 5952SOL    HW229490   1.065   0.641   1.950 -1.1248  0.2307 -0.8144
 5953SOL     OW29491   4.430   1.127   5.406 -0.1904 -0.9365 -0.2320
 5953SOL    HW129492   4.491   1.063   5.442 -1.4518 -2.1677 -0.2921
 5953SOL    HW229493   4.373   1.135   5.482 -0.7680 -0.5612 -0.6979
 5954SOL     OW29494   0.613   4.167  14.136 -0.2829  0.2209  0.0929
 5954SOL    HW129495   0.697   4.129  14.159 -0.5795 -1.0145 -0.8433
 5954SOL    HW229496   0.602   4.239  14.198  1.7614 -0.3912  1.1553
 5955SOL     OW29497   1.852   2.021   6.304 -0.5255  0.0507  1.0892
 5955SOL    HW129498   1.769   1.976   6.323 -1.1526  1.0919  0.8117
 5955SOL    HW229499   1.910   1.947   6.322 -1.9558 -1.0197  1.2535
 5956SOL     OW29500   3.105   1.619   8.131  0.6207 -0.8465 -0.3129
 5956SOL    HW129501   3.115   1.702   8.085  2.8524 -1.0651 -0.2307
 5956SOL    HW229502   3.146   1.556   8.071 -0.5795 -0.4424 -1.5637
 5957SOL     OW29503   3.310   4.173   1.196  0.0403 -0.3759  0.2399
 5957SOL    HW129504   3.307   4.258   1.152  0.6859 -0.4401  0.0738
 5957SOL    HW229505   3.227   4.172   1.244 -1.4404 -0.8898 -2.3416
 5958SOL     OW29506   2.458   2.134   5.757 -0.0831  0.4011 -0.1378
 5958SOL    HW129507   2.382   2.169   5.804 -0.1022  2.3309 -1.5883
 5958SOL    HW229508   2.440   2.040   5.757 -1.0682  0.6016  1.8087
 5959SOL     OW29509   0.994   4.013   2.303 -0.0870  0.3423 -0.1395
 5959SOL    HW129510   1.051   4.005   2.379 -2.4674 -1.2974  1.4645
 5959SOL    HW229511   0.999   3.925   2.265 -2.4037 -0.4225  1.3653
 5960SOL     OW29512   1.913   0.499   0.150  0.1016 -0.1723  0.3449
 5960SOL    HW129513   1.837   0.504   0.207 -0.5622 -0.4574 -0.5053
 5960SOL    HW229514   1.882   0.561   0.083 -2.0324 -1.4117  0.1743
 5961SOL     OW29515   0.774   1.099  10.046 -0.0528 -0.0203  0.2752
 5961SOL    HW129516   0.859   1.133  10.072  1.0462 -1.9873 -0.7664
 5961SOL    HW229517   0.795   1.050   9.966 -0.5667  1.0720 -0.5324
 5962SOL     OW29518   4.693   2.579  12.940  0.0385 -0.3467  0.2181
 5962SOL    HW129519   4.664   2.545  13.025  2.1311  0.6857  1.3290
 5962SOL    HW229520   4.627   2.541  12.882 -1.8763  2.6993  0.4158
 5963SOL     OW29521   0.344   3.827   2.401 -0.1662 -0.0134 -0.1462
 5963SOL    HW129522   0.262   3.809   2.355 -0.7964 -3.5467  2.3550
 5963SOL    HW229523   0.382   3.888   2.337 -0.4972  0.5295  0.1679
 5964SOL     OW29524   0.355   3.298  12.046 -0.5180 -0.2530 -0.2786
 5964SOL    HW129525   0.339   3.392  12.057 -1.1520 -0.1724 -1.9238
 5964SOL    HW229526   0.422   3.289  12.113  1.0256 -0.6096 -1.8576
 5965SOL     OW29527   2.097   4.191   5.987 -0.3758 -0.8151 -0.0743
 5965SOL    HW129528   2.051   4.110   6.008 -0.8430 -0.1903  1.2778
 5965SOL    HW229529   2.180   4.190   6.033 -1.7889  1.7007  2.5298
 5966SOL     OW29530   1.509   1.021  13.603  0.2660 -0.0776 -0.1069
 5966SOL    HW129531   1.593   1.067  13.596  1.2639 -1.8840  0.0010
 5966SOL    HW229532   1.535   0.929  13.603  2.6410  0.5923  0.7054
 5967SOL     OW29533   1.522   0.225   7.916  0.2430  0.3269  0.4046
 5967SOL    HW129534   1.537   0.281   7.992 -0.9072  0.5536  0.4717
 5967SOL    HW229535   1.483   0.147   7.956  1.9575 -0.6149  0.2459
 5968SOL     OW29536   1.933   3.466   2.472  0.4696  0.4735  0.3299
 5968SOL    HW129537   1.927   3.428   2.385 -1.2464 -1.0795  1.1336
 5968SOL    HW229538   1.847   3.506   2.484  1.1385  1.4757  1.9742
 5969SOL     OW29539   3.023   2.832  11.603 -0.3304  0.0392  0.2133
 5969SOL    HW129540   2.936   2.850  11.640  0.4845  0.3945  1.9488
 5969SOL    HW229541   2.989   2.775  11.534  0.4196 -0.2380  0.0762
 5970SOL     OW29542   0.072   3.037   2.412 -0.1879  0.1765  0.1589
 5970SOL    HW129543   0.168   3.038   2.415 -0.1945  0.1768  0.3795
 5970SOL    HW229544   0.062   2.983   2.490  0.1721  0.1032  0.1548
 5971SOL     OW29545   1.989   0.706  15.005 -0.1608 -0.0029  0.8149
 5971SOL    HW129546   2.018   0.629  15.053  0.0167 -1.4036 -1.5770
 5971SOL    HW229547   1.916   0.734  15.062 -0.7997 -1.0183  0.4936
 5972SOL     OW29548   3.499   3.993  12.821 -0.1675  0.0008 -0.8347
 5972SOL    HW129549   3.581   3.982  12.774 -0.4842  1.9876 -1.8450
 5972SOL    HW229550   3.493   3.903  12.852  2.0095 -0.0045 -0.3909
 5973SOL     OW29551   3.341   1.789  15.103 -0.4714  0.2973 -0.3503
 5973SOL    HW129552   3.353   1.764  15.011  3.6080 -0.0630  0.2767
 5973SOL    HW229553   3.250   1.758  15.110 -0.4557  0.0647 -1.1792
 5974SOL     OW29554   0.296   4.577  13.440 -0.1406  0.6871 -0.0721
 5974SOL    HW129555   0.214   4.530  13.425  0.1084  0.6079 -1.2088
 5974SOL    HW229556   0.268   4.638  13.508  0.2192  0.4546  0.2876
 5975SOL     OW29557   4.696   2.959   3.631  0.1858 -0.1036 -0.0881
 5975SOL    HW129558   4.711   2.913   3.549  0.3820 -0.7262  0.2927
 5975SOL    HW229559   4.681   3.047   3.597  0.0056  0.5930  1.7868
 5976SOL     OW29560   3.046   0.281  15.326 -0.1046  0.1656  0.8477
 5976SOL    HW129561   3.115   0.332  15.285  0.9125 -1.2886  0.7617
 5976SOL    HW229562   3.027   0.225  15.250  0.2847  2.0659 -0.6485
 5977SOL     OW29563   1.934   3.036   1.180 -0.3664  0.0852  0.5176
 5977SOL    HW129564   2.016   2.999   1.212 -0.1810 -0.2761 -0.3711
 5977SOL    HW229565   1.953   3.129   1.195 -2.8772  0.5609  0.7563
 5978SOL     OW29566   2.580   0.147  11.482  0.3413 -0.1939  0.1112
 5978SOL    HW129567   2.548   0.194  11.405 -1.0814 -0.0398  0.7860
 5978SOL    HW229568   2.500   0.142  11.535 -1.2197 -1.6318 -2.3709
 5979SOL     OW29569   2.821   0.030  14.443  0.0527  0.0293  0.8125
 5979SOL    HW129570   2.778   0.073  14.369  2.1473  0.5386 -0.1147
 5979SOL    HW229571   2.744   4.727  14.480 -1.1077  0.6991 -0.8454
 5980SOL     OW29572   1.054   0.135  16.925 -0.0464 -0.2772  0.5474
 5980SOL    HW129573   0.976   0.176  16.962 -0.8721 -3.2520  2.1314
 5980SOL    HW229574   1.120   0.181  16.977  1.8654 -0.1484 -2.0339
 5981SOL     OW29575   2.426   1.918  10.605  0.4078 -0.1001  0.0340
 5981SOL    HW129576   2.493   1.952  10.546  0.1975  0.5588  0.1785
 5981SOL    HW229577   2.457   1.841  10.652 -1.0333 -0.3811  0.5160
 5982SOL     OW29578   0.580   1.193  12.868 -0.0277  0.5300  0.1356
 5982SOL    HW129579   0.622   1.253  12.807  1.9467 -0.5356  0.4362
 5982SOL    HW229580   0.516   1.247  12.915 -0.5051  0.5254 -0.5095
 5983SOL     OW29581   2.739   2.516   1.175 -0.3036 -1.0319 -0.3345
 5983SOL    HW129582   2.655   2.475   1.190 -0.9825  0.7006  0.6375
 5983SOL    HW229583   2.793   2.439   1.157 -0.9604 -1.1924 -1.5643
 5984SOL     OW29584   4.061   3.317  13.666  0.1297 -0.2567 -0.0435
 5984SOL    HW129585   4.035   3.299  13.575 -1.6755  0.0609  0.4131
 5984SOL    HW229586   4.023   3.402  13.688 -0.6630 -1.2311  2.3460
 5985SOL     OW29587   1.434   3.321  16.783  0.0073  0.8074  0.0146
 5985SOL    HW129588   1.414   3.231  16.758  0.5927  0.6591  0.1000
 5985SOL    HW229589   1.348   3.355  16.810  0.0674  1.8999 -1.1580
 5986SOL     OW29590   4.603   4.367   7.509  0.5138  0.0612  0.7525
 5986SOL    HW129591   4.522   4.402   7.544  0.3724  0.9248 -0.4303
 5986SOL    HW229592   4.606   4.275   7.532  1.5848  0.3487  1.7645
 5987SOL     OW29593   2.124   4.434   5.011  0.1487  0.2354 -0.3069
 5987SOL    HW129594   2.114   4.426   4.916  0.1017  1.6481 -0.4134
 5987SOL    HW229595   2.086   4.352   5.042  2.6178 -0.6739  0.2665
 5988SOL     OW29596   1.191   3.412  10.112 -0.1362  0.1582 -0.1096
 5988SOL    HW129597   1.256   3.454  10.169  1.6281 -1.2102 -1.1201
 5988SOL    HW229598   1.121   3.406  10.177 -0.8398  1.0090 -0.8037
 5989SOL     OW29599   0.090   0.615   2.250  0.2616  0.6577 -0.0594
 5989SOL    HW129600   0.153   0.655   2.189 -1.4838  1.8777 -1.0585
 5989SOL    HW229601   0.060   0.698   2.287  0.3174  1.0589 -0.9178
 5990SOL     OW29602   3.165   2.080   5.950  0.0072 -0.3790  0.1240
 5990SOL    HW129603   3.200   1.997   5.919  2.7527  0.0962  1.9343
 5990SOL    HW229604   3.072   2.077   5.928 -0.1179  0.2919  0.5372
 5991SOL     OW29605   3.051   1.223   6.084  0.4078 -0.1392  0.0822
 5991SOL    HW129606   3.082   1.313   6.087 -0.0032 -0.0228  0.8855
 5991SOL    HW229607   2.981   1.227   6.019  0.1392 -0.6273  0.3372
 5992SOL     OW29608   4.255   4.416  14.304 -0.0200 -0.7069 -0.2157
 5992SOL    HW129609   4.325   4.367  14.262  2.0527  0.5391  1.7765
 5992SOL    HW229610   4.303   4.499  14.315  0.6395 -1.1563  0.3249
 5993SOL     OW29611   3.454   1.784  17.177 -0.1247  0.3112 -0.5869
 5993SOL    HW129612   3.366   1.818  17.164  0.4914  1.2448 -2.2766
 5993SOL    HW229613   3.495   1.863  17.213 -3.0712  0.2666  2.8114
 5994SOL     OW29614   4.358   1.659   8.831 -0.0757 -0.1074 -0.0666
 5994SOL    HW129615   4.330   1.740   8.876 -0.3383 -0.3695  0.2423
 5994SOL    HW229616   4.324   1.597   8.895 -1.2279  1.8435  1.2257
 5995SOL     OW29617   4.647   2.387   8.073 -0.3630  0.0919 -0.0892
 5995SOL    HW129618   4.663   2.439   7.994 -3.9243 -1.3680 -1.7830
 5995SOL    HW229619   4.736   2.400   8.105 -0.6746 -1.5118  1.4138
 5996SOL     OW29620   2.974   0.346   9.451 -0.3538 -0.0039 -0.2244
 5996SOL    HW129621   2.885   0.340   9.484 -0.0083 -3.0276  0.0991
 5996SOL    HW229622   2.986   0.441   9.457 -3.4713  0.4419 -1.1289
 5997SOL     OW29623   2.065   1.572  12.010 -0.6288 -0.4532  0.3337
 5997SOL    HW129624   2.088   1.656  12.050 -1.3872 -0.2209  0.2745
 5997SOL    HW229625   2.131   1.554  11.943 -0.5669 -0.7869  0.4808
 5998SOL     OW29626   4.348   3.823   2.371 -0.6642 -0.2185 -0.0630
 5998SOL    HW129627   4.349   3.828   2.276 -1.1597 -1.9236 -0.1522
 5998SOL    HW229628   4.382   3.910   2.393 -0.4085 -0.4031  0.2868
 5999SOL     OW29629   2.597   1.886  10.012  0.4450  0.1220 -0.1945
 5999SOL    HW129630   2.620   1.840  10.092 -1.7168  1.9594  1.5002
 5999SOL    HW229631   2.563   1.969  10.046  0.7535 -0.0748  0.5819
 6000SOL     OW29632   1.967   1.783   4.590  0.2255 -0.0977  0.4923
 6000SOL    HW129633   1.962   1.687   4.598 -1.7745 -0.1053 -0.7616
 6000SOL    HW229634   1.875   1.807   4.590  0.0890 -0.5964 -0.2421
 6001SOL     OW29635   4.549   2.984  10.375  0.1620  0.3116  0.2666
 6001SOL    HW129636   4.599   3.009  10.453 -0.9433  0.9483  0.7786
 6001SOL    HW229637   4.577   2.895  10.353 -2.0705  0.0888 -1.5983
 6002SOL     OW29638   2.553   1.875   2.065 -0.5350  0.7789  0.2852
 6002SOL    HW129639   2.531   1.967   2.083  0.9566  1.0699  0.6731
 6002SOL    HW229640   2.630   1.868   2.121 -1.5759 -1.4635  1.4188
 6003SOL     OW29641   4.062   1.247   1.539 -0.0547 -0.1688 -0.8975
 6003SOL    HW129642   3.967   1.250   1.556  0.0602 -0.8027 -0.1390
 6003SOL    HW229643   4.098   1.244   1.627 -1.7568  0.8543 -0.1708
 6004SOL     OW29644   3.892   1.235   0.329 -0.0389 -0.9488  0.3841
 6004SOL    HW129645   3.885   1.140   0.338 -2.0825 -0.8971 -0.8264
 6004SOL    HW229646   3.807   1.258   0.367 -0.0643 -3.2026  1.7040
 6005SOL     OW29647   2.671   0.536   1.941  0.2267  0.1086  0.7864
 6005SOL    HW129648   2.630   0.510   2.024 -1.5275  0.7571  0.1396
 6005SOL    HW229649   2.594   0.559   1.888  2.0257 -1.4403 -2.4822
 6006SOL     OW29650   2.990   3.488   4.283 -0.0370  0.2049  0.0786
 6006SOL    HW129651   3.057   3.527   4.339  0.4272  1.7241 -1.5079
 6006SOL    HW229652   2.941   3.437   4.347 -1.1181  0.3104 -0.6742
 6007SOL     OW29653   3.435   3.718  13.247 -0.3600 -0.1854 -0.0090
 6007SOL    HW129654   3.352   3.696  13.204 -0.6376  0.7734  0.0394
 6007SOL    HW229655   3.419   3.807  13.280  0.7311  0.0806 -0.2159
 6008SOL     OW29656   0.984   2.438  14.734  0.1005  0.5086 -0.4977
 6008SOL    HW129657   1.020   2.354  14.707  1.4307  0.7577  0.4703
 6008SOL    HW229658   1.069   2.474  14.761 -0.2241  0.8219  0.1128
 6009SOL     OW29659   0.735   0.343   7.947 -0.2167  0.7297 -0.0024
 6009SOL    HW129660   0.663   0.309   8.000 -0.3555 -2.8633 -2.4876
 6009SOL    HW229661   0.684   0.393   7.883 -1.3063 -1.7439 -1.0612
 6010SOL     OW29662   3.730   2.955   6.105 -0.0480 -0.3956 -0.6302
 6010SOL    HW129663   3.764   2.871   6.074 -0.2395 -0.6159 -0.2346
 6010SOL    HW229664   3.669   2.928   6.173 -0.2290 -0.0401 -0.6511
 6011SOL     OW29665   4.201   4.185   5.419  0.4214 -0.0931  0.5831
 6011SOL    HW129666   4.185   4.107   5.365  0.2980  0.0483  0.4149
 6011SOL    HW229667   4.188   4.255   5.355  1.8198  0.0745  0.4844
 6012SOL     OW29668   2.432   0.753   2.322 -0.2934  0.3551 -0.0500
 6012SOL    HW129669   2.479   0.686   2.371  0.7268 -0.4653 -2.1318
 6012SOL    HW229670   2.495   0.786   2.258 -0.2149  1.1405  0.4442
 6013SOL     OW29671   1.494   2.974  15.876 -0.0395 -0.0196  0.4555
 6013SOL    HW129672   1.583   2.957  15.845 -0.3397  0.4822 -0.6554
 6013SOL    HW229673   1.515   3.009  15.963  1.9281  0.1639 -0.1076
 6014SOL     OW29674   3.023   0.405   6.677  0.1110  0.6987  0.0225
 6014SOL    HW129675   3.006   0.320   6.718 -0.3173  1.0468  0.5621
 6014SOL    HW229676   2.935   0.432   6.653 -0.0831 -0.4652 -0.5458
 6015SOL     OW29677   3.573   2.813   6.272 -0.4099 -0.1265 -0.4349
 6015SOL    HW129678   3.493   2.864   6.260  0.3397  0.7392 -1.7710
 6015SOL    HW229679   3.551   2.736   6.220 -0.0871 -1.0955  0.8523
 6016SOL     OW29680   3.484   0.099   2.312 -0.5742  0.2197  0.4310
 6016SOL    HW129681   3.469   0.132   2.401 -0.5222  0.5682  0.3120
 6016SOL    HW229682   3.399   0.062   2.288  0.5497 -1.0391 -1.5592
 6017SOL     OW29683   0.363   4.734   4.692 -0.1434  0.1513 -0.1797
 6017SOL    HW129684   0.415   0.070   4.660  0.4023 -0.4217 -0.5991
 6017SOL    HW229685   0.331   4.701   4.608  2.6026 -1.0318 -0.7401
 6018SOL     OW29686   1.653   4.626   8.136 -0.2567 -0.2221 -0.1516
 6018SOL    HW129687   1.707   4.704   8.120  1.8142 -1.1177  2.5689
 6018SOL    HW229688   1.616   4.604   8.050 -0.0108 -0.2538 -0.2518
 6019SOL     OW29689   1.198   1.802   1.874  0.2675  0.1260  0.2059
 6019SOL    HW129690   1.271   1.766   1.925  1.0359  2.8202  1.0118
 6019SOL    HW229691   1.241   1.877   1.833 -3.0744  1.8989 -0.0109
 6020SOL     OW29692   0.728   2.410   1.888 -0.1259  0.5544  0.1294
 6020SOL    HW129693   0.720   2.467   1.965  1.5559 -0.9727  1.4593
 6020SOL    HW229694   0.816   2.421   1.852 -0.1814 -1.6799 -0.7286
 6021SOL     OW29695   1.889   1.091   5.608 -0.5758  0.0626 -0.1504
 6021SOL    HW129696   1.882   1.157   5.539  0.0224 -0.5678 -0.8080
 6021SOL    HW229697   1.929   1.024   5.552 -0.1078  1.6306 -1.6622
 6022SOL     OW29698   0.230   2.718  13.762 -0.1401  0.3640  0.3055
 6022SOL    HW129699   0.208   2.793  13.817 -1.9470  0.2339 -0.2456
 6022SOL    HW229700   0.256   2.649  13.823 -1.3808  0.1002  0.5283
 6023SOL     OW29701   3.424   4.715   6.793  0.0008  0.2130 -0.3049
 6023SOL    HW129702   3.509   4.681   6.768  0.9739  0.8544  2.1122
 6023SOL    HW229703   3.438   0.010   6.882 -0.9102 -1.7283  0.5683
 6024SOL     OW29704   4.395   2.572   5.056 -0.2410 -0.7460 -0.1311
 6024SOL    HW129705   4.382   2.486   5.017 -3.4638  0.5422 -1.9802
 6024SOL    HW229706   4.488   2.562   5.074  0.0446  1.8075 -0.0840
 6025SOL     OW29707   1.134   4.681   7.093  0.3309  0.3756 -0.4536
 6025SOL    HW129708   1.138   4.682   6.998 -0.4678  0.6969 -0.4852
 6025SOL    HW229709   1.225   4.702   7.118  1.3936 -0.3454 -3.7058
 6026SOL     OW29710   2.876   1.624   8.534  0.1260 -0.8863  0.0051
 6026SOL    HW129711   2.831   1.601   8.615  0.0460  1.4889  0.6365
 6026SOL    HW229712   2.887   1.540   8.490 -4.5482 -1.5075  0.0169
 6027SOL     OW29713   2.201   0.643  13.688  0.0300  0.5113 -0.3357
 6027SOL    HW129714   2.258   0.707  13.729 -0.5623  2.1321 -2.0449
 6027SOL    HW229715   2.123   0.678  13.731  0.5330 -1.0604  1.8692
 6028SOL     OW29716   4.361   4.402  14.581  0.3370  0.0476 -0.2968
 6028SOL    HW129717   4.300   4.388  14.509  1.0266 -0.0746 -0.8500
 6028SOL    HW229718   4.447   4.377  14.548 -0.5945 -1.1201 -1.8073
 6029SOL     OW29719   1.347   1.622   3.906 -0.2464  0.5198  0.2971
 6029SOL    HW129720   1.259   1.616   3.869 -0.8166 -1.2030  1.9448
 6029SOL    HW229721   1.326   1.616   3.999  1.4225 -0.1625  0.6364
 6030SOL     OW29722   0.596   1.324   6.946  0.5338 -0.5520 -0.5545
 6030SOL    HW129723   0.514   1.329   6.898 -0.7006 -0.3748  1.5919
 6030SOL    HW229724   0.600   1.416   6.969 -0.3524  0.1242 -3.0610
 6031SOL     OW29725   0.305   4.202   0.566  0.0388 -0.2150 -0.0771
 6031SOL    HW129726   0.344   4.160   0.643 -1.8518 -0.0684  0.9826
 6031SOL    HW229727   0.288   4.289   0.602  0.0540 -0.4124  0.4123
 6032SOL     OW29728   4.582   1.907   0.880 -0.0232  0.4558 -0.4329
 6032SOL    HW129729   4.640   1.932   0.952 -3.2355  1.2621  1.8689
 6032SOL    HW229730   4.644   1.886   0.810  0.3521  1.5167 -0.4154
 6033SOL     OW29731   1.802   1.737  15.233  0.1016  0.1755  0.7354
 6033SOL    HW129732   1.869   1.685  15.274 -0.4616 -0.1216  1.2734
 6033SOL    HW229733   1.744   1.666  15.205  2.4585 -1.2035 -0.6732
 6034SOL     OW29734   4.408   3.498  10.744 -0.6775  0.2741 -0.1343
 6034SOL    HW129735   4.327   3.450  10.735  0.1150 -1.0668 -0.0631
 6034SOL    HW229736   4.378   3.585  10.716 -0.8405 -0.2464 -1.5920
 6035SOL     OW29737   1.156   2.800   5.716 -0.4227 -0.0602  0.0481
 6035SOL    HW129738   1.164   2.817   5.622  0.2608 -1.4874 -0.1471
 6035SOL    HW229739   1.247   2.806   5.747 -0.5367 -0.7598  0.5110
 6036SOL     OW29740   0.380   3.860   6.607  0.3171 -0.5425  0.2954
 6036SOL    HW129741   0.313   3.889   6.545  2.1596  2.0435 -0.4902
 6036SOL    HW229742   0.440   3.934   6.613  0.0900 -0.2329 -1.1591
 6037SOL     OW29743   0.532   3.523   3.220  0.0275 -0.4196  0.1840
 6037SOL    HW129744   0.561   3.609   3.253  4.3969 -2.4314  1.6160
 6037SOL    HW229745   0.438   3.539   3.210 -0.3128 -1.6890  1.3281
 6038SOL     OW29746   4.183   2.947   6.444  0.1195  0.4943 -0.1194
 6038SOL    HW129747   4.247   3.018   6.449  0.7587 -0.0554 -0.5543
 6038SOL    HW229748   4.118   2.984   6.504 -0.8869  0.1255 -0.9969
 6039SOL     OW29749   2.829   1.460   6.041  0.2707 -0.6152  0.0787
 6039SOL    HW129750   2.804   1.371   6.016 -0.7165 -0.4713  0.5530
 6039SOL    HW229751   2.822   1.512   5.961 -1.0012  0.2385  0.7457
 6040SOL     OW29752   0.207   1.001   0.097 -0.3267  0.1041 -0.5465
 6040SOL    HW129753   0.234   1.076   0.045  0.5698  1.6817  2.1630
 6040SOL    HW229754   0.127   1.032   0.139  0.2406 -1.1357  1.4964
 6041SOL     OW29755   0.654   0.383  17.242 -0.1369  0.4152 -0.0740
 6041SOL    HW129756   0.688   0.335  17.318  1.1300  0.9096 -0.3307
 6041SOL    HW229757   0.731   0.406  17.190 -0.0207  2.8338  1.1838
 6042SOL     OW29758   3.058   4.320   6.534  0.1822  0.0593  0.5272
 6042SOL    HW129759   3.146   4.285   6.547  0.4126  0.5478  0.2434
 6042SOL    HW229760   3.003   4.248   6.566 -0.3091  0.9518  1.6931
 6043SOL     OW29761   4.050   4.468   1.610 -0.5298  0.8930  0.5191
 6043SOL    HW129762   3.966   4.474   1.564 -1.5028  0.7034  2.2958
 6043SOL    HW229763   4.062   4.562   1.626  1.4413  0.7498 -0.1384
 6044SOL     OW29764   4.271   2.116   0.292  0.1183  0.4308 -0.4880
 6044SOL    HW129765   4.213   2.182   0.330  1.0463  0.7503  0.3863
 6044SOL    HW229766   4.294   2.064   0.370 -0.7723  1.3330  0.3797
 6045SOL     OW29767   1.120   4.047  10.183 -0.1298 -0.1241  0.2540
 6045SOL    HW129768   1.105   4.036  10.090  2.5560 -0.5688 -0.1284
 6045SOL    HW229769   1.215   4.047  10.190 -0.2207  0.5760  1.5602
 6046SOL     OW29770   1.930   1.413   5.529  0.2533 -0.1966 -0.3447
 6046SOL    HW129771   1.907   1.363   5.451  1.9198 -1.4310 -0.0490
 6046SOL    HW229772   2.014   1.374   5.554 -0.9238 -2.5759 -0.0929
 6047SOL     OW29773   1.851   3.473  10.895 -0.4755  0.6906  0.4074
 6047SOL    HW129774   1.891   3.393  10.859  0.7122  0.8975  1.2710
 6047SOL    HW229775   1.874   3.467  10.988 -2.1280  1.4321  0.8625
 6048SOL     OW29776   3.623   4.587  11.021 -0.5727  0.0880  0.5632
 6048SOL    HW129777   3.706   4.540  11.015  1.5574  3.9663 -0.4430
 6048SOL    HW229778   3.567   4.523  11.065 -1.3937  0.8550  0.6406
 6049SOL     OW29779   3.895   1.336   8.458 -0.1466  0.5001 -0.1371
 6049SOL    HW129780   3.866   1.421   8.426 -2.2806  0.7018  2.3382
 6049SOL    HW229781   3.965   1.324   8.393 -2.1969 -2.0392 -1.8782
 6050SOL     OW29782   0.789   2.206   1.491 -0.1881  0.1685 -0.6558
 6050SOL    HW129783   0.694   2.208   1.499 -0.3082 -0.5412 -2.0582
 6050SOL    HW229784   0.803   2.261   1.414 -1.3263  3.3473  1.3944
 6051SOL     OW29785   1.545   1.441   5.303 -0.1663 -0.0412  0.0704
 6051SOL    HW129786   1.615   1.451   5.239 -1.0554 -0.1023 -0.8954
 6051SOL    HW229787   1.551   1.346   5.311  0.9068 -0.2423 -3.4185
 6052SOL     OW29788   3.383   4.321   9.920 -0.3887  0.3939 -0.3658
 6052SOL    HW129789   3.353   4.411   9.931 -0.4625  0.2856  0.3286
 6052SOL    HW229790   3.363   4.288  10.007  2.2972 -1.0228 -0.2889
 6053SOL     OW29791   3.051   2.049   8.281 -0.6197  0.1958  0.1373
 6053SOL    HW129792   2.961   2.048   8.247  0.5672  1.7871 -2.9648
 6053SOL    HW229793   3.052   2.004   8.366 -0.7933 -0.4806 -0.2177
 6054SOL     OW29794   1.054   1.449   9.431  0.3594 -0.1596 -0.0731
 6054SOL    HW129795   1.136   1.400   9.439 -0.3237 -1.0138  1.7558
 6054SOL    HW229796   1.016   1.462   9.518 -0.8295 -1.1744 -0.4299
 6055SOL     OW29797   3.546   2.343  14.989  0.1324  0.1689 -0.1172
 6055SOL    HW129798   3.484   2.270  14.996 -0.7300  0.7611 -1.5358
 6055SOL    HW229799   3.495   2.414  14.950  2.1449  0.9200 -1.3737
 6056SOL     OW29800   4.567   3.417   0.005  0.0545  0.5742 -0.6367
 6056SOL    HW129801   4.567   3.512  17.744 -2.9589  0.4288 -1.5744
 6056SOL    HW229802   4.511   3.422   0.082 -0.6916  1.4678 -1.2355
 6057SOL     OW29803   0.454   2.728  15.445 -0.3026 -0.5773  0.1698
 6057SOL    HW129804   0.456   2.756  15.354 -1.1898  0.2589  0.4121
 6057SOL    HW229805   0.377   2.672  15.452 -0.6548 -0.0181  0.7322
 6058SOL     OW29806   1.313   4.270   3.223  0.3416 -0.5671  0.3915
 6058SOL    HW129807   1.249   4.214   3.266 -2.0328 -0.9928 -3.6852
 6058SOL    HW229808   1.260   4.339   3.182  1.2441 -1.2954 -2.0058
 6059SOL     OW29809   3.389   0.382   5.913 -0.1235 -0.3651  0.0305
 6059SOL    HW129810   3.473   0.380   5.958 -0.4904  1.2053  0.7730
 6059SOL    HW229811   3.384   0.476   5.895  0.7187  0.0452  1.9477
 6060SOL     OW29812   1.765   2.594  15.033 -0.1889 -0.1600  0.0293
 6060SOL    HW129813   1.748   2.558  14.946 -1.4534 -1.5287  0.8471
 6060SOL    HW229814   1.713   2.533  15.086 -1.2229 -0.5598 -1.4548
 6061SOL     OW29815   1.007   0.360   7.698 -0.1735 -0.2905 -0.0211
 6061SOL    HW129816   0.998   0.266   7.714 -2.0246 -0.2137 -0.6342
 6061SOL    HW229817   1.007   0.393   7.788  0.8666 -0.6374  0.1093
 6062SOL     OW29818   0.628   1.048   4.361 -0.0758 -0.1768  0.4812
 6062SOL    HW129819   0.662   1.101   4.433  0.8248  1.4783 -1.1588
 6062SOL    HW229820   0.691   0.977   4.349 -0.9228 -0.9570  0.7198
 6063SOL     OW29821   1.873   1.141   3.686 -0.3299 -0.6189  0.4934
 6063SOL    HW129822   1.958   1.184   3.677 -0.7035 -0.2222 -1.1071
 6063SOL    HW229823   1.859   1.140   3.591  2.3380  2.2483  0.0969
 6064SOL     OW29824   1.421   0.894   3.096  0.1587  0.1744  0.0681
 6064SOL    HW129825   1.499   0.943   3.071 -0.8634  1.0434 -1.4119
 6064SOL    HW229826   1.422   0.892   3.192  1.8335  1.4079  0.0676
 6065SOL     OW29827   4.558   4.111   3.593 -0.1126  0.0577 -0.4550
 6065SOL    HW129828   4.569   4.168   3.517  1.2303  0.2980 -0.0886
 6065SOL    HW229829   4.588   4.162   3.668 -1.9200  1.5210 -0.7358
 6066SOL     OW29830   4.685   0.084   9.502  0.1884 -0.7157  0.7843
 6066SOL    HW129831   4.658   0.132   9.580  1.3665 -1.7681  1.8591
 6066SOL    HW229832   4.670   4.730   9.522  0.1681 -0.8141  0.3025
 6067SOL     OW29833   0.503   4.367   4.539  0.1812 -0.6833  0.0450
 6067SOL    HW129834   0.436   4.304   4.512  2.0344 -2.5802 -0.0970
 6067SOL    HW229835   0.473   4.388   4.627  0.8737  1.7041 -0.2914
 6068SOL     OW29836   4.427   0.529  11.913  0.4218 -0.0377  0.0282
 6068SOL    HW129837   4.375   0.606  11.890 -1.0000 -1.5014 -1.6436
 6068SOL    HW229838   4.464   0.540  12.001 -0.8962  0.2555  0.5416
 6069SOL     OW29839   0.304   0.216   5.808  0.1362 -0.1871 -0.0524
 6069SOL    HW129840   0.370   0.247   5.870 -0.1246 -1.3554  0.8119
 6069SOL    HW229841   0.255   0.298   5.808  0.5678  0.0727 -0.9488
 6070SOL     OW29842   4.436   1.954  12.925  0.4409  0.1229 -0.4256
 6070SOL    HW129843   4.348   1.990  12.935  0.2502 -0.7486  1.0091
 6070SOL    HW229844   4.466   1.998  13.005  0.5405 -0.8619  0.0712
 6071SOL     OW29845   0.952   3.310   3.405  0.1855 -1.3014  0.5246
 6071SOL    HW129846   0.859   3.326   3.388  1.0002  1.9731 -0.8270
 6071SOL    HW229847   0.985   3.398   3.385 -1.0275 -1.0378 -0.3092
 6072SOL     OW29848   0.447   0.965   2.985  0.2153  0.0790 -1.0387
 6072SOL    HW129849   0.524   0.922   3.023  0.2348 -0.1152 -1.2985
 6072SOL    HW229850   0.406   0.897   2.933 -0.2758  0.2096 -0.8178
 6073SOL     OW29851   1.611   1.234  12.758  0.2322  0.1478 -0.2791
 6073SOL    HW129852   1.545   1.238  12.827  1.1240  1.1464  0.5139
 6073SOL    HW229853   1.685   1.231  12.819  0.5098 -1.3921 -0.6764
 6074SOL     OW29854   3.397   0.125   9.308 -0.3325 -0.5604  0.3076
 6074SOL    HW129855   3.310   0.157   9.286 -0.2365 -0.3845  0.1823
 6074SOL    HW229856   3.422   0.172   9.388  1.7124 -0.1730 -0.5475
 6075SOL     OW29857   3.304   1.954   4.111 -1.1100 -0.0297 -0.0901
 6075SOL    HW129858   3.254   2.014   4.167  1.3158  0.2232  1.8294
 6075SOL    HW229859   3.325   1.890   4.180 -1.4272  0.4045  0.4062
 6076SOL     OW29860   3.951   3.228   8.626  0.3228 -0.2669  0.0657
 6076SOL    HW129861   3.977   3.143   8.661  0.8873 -0.1073  0.0282
 6076SOL    HW229862   3.939   3.294   8.695 -0.9981 -0.5386  0.1134
 6077SOL     OW29863   3.703   2.167  11.308 -0.2471  0.2327  0.2902
 6077SOL    HW129864   3.622   2.133  11.346  0.2078  0.3009  1.3255
 6077SOL    HW229865   3.672   2.223  11.237 -0.3667 -0.6495 -0.3515
 6078SOL     OW29866   1.287   3.390   1.807 -0.4019  0.0613  0.1337
 6078SOL    HW129867   1.290   3.485   1.820  1.4718  0.1177 -0.6968
 6078SOL    HW229868   1.301   3.349   1.892  4.4156  0.6065 -0.3682
 6079SOL     OW29869   3.630   3.358   0.156 -0.3216  0.0261  0.3488
 6079SOL    HW129870   3.547   3.405   0.158 -1.3586 -1.8720  0.7220
 6079SOL    HW229871   3.623   3.288   0.092  0.2469  0.5202 -0.2584
 6080SOL     OW29872   1.264   0.383   0.605  0.0908  0.8982  0.4476
 6080SOL    HW129873   1.271   0.456   0.667  3.7125 -0.4269  1.5421
 6080SOL    HW229874   1.289   0.428   0.524  2.0805 -0.1678  0.4808
 6081SOL     OW29875   1.544   3.489   0.354  0.3421 -0.5641 -0.1243
 6081SOL    HW129876   1.567   3.580   0.375  0.7060 -0.5076 -0.7515
 6081SOL    HW229877   1.523   3.496   0.261 -1.1836 -1.8441  0.1214
 6082SOL     OW29878   1.830   4.376   8.477  0.3550  0.2243 -0.2142
 6082SOL    HW129879   1.921   4.396   8.452  0.3221  0.3598 -0.2244
 6082SOL    HW229880   1.836   4.281   8.482 -1.9034  0.2015  1.6827
 6083SOL     OW29881   0.834   2.833   3.094  0.0333  0.5511  0.3123
 6083SOL    HW129882   0.892   2.872   3.159  0.6074 -0.5766  0.4682
 6083SOL    HW229883   0.872   2.859   3.009 -0.9942 -0.5320 -0.4800
 6084SOL     OW29884   1.706   0.548   1.363 -0.2892 -0.1797 -0.3718
 6084SOL    HW129885   1.649   0.577   1.434  1.5074 -0.1201  1.0428
 6084SOL    HW229886   1.790   0.571   1.402 -1.1398  0.9596  0.8348
 6085SOL     OW29887   3.390   2.740   3.187 -0.0080  0.1858 -0.4508
 6085SOL    HW129888   3.453   2.736   3.115 -0.4430  0.9864 -0.8787
 6085SOL    HW229889   3.367   2.648   3.191 -1.7456  0.7186  1.6087
 6086SOL     OW29890   4.024   1.207   7.073 -0.1678 -0.0992  0.0832
 6086SOL    HW129891   4.088   1.153   7.119 -1.3082 -1.4242  0.1028
 6086SOL    HW229892   4.026   1.161   6.989  2.2224 -1.4569  0.8989
 6087SOL     OW29893   3.494   2.151   6.477  0.4958 -0.2379 -0.3638
 6087SOL    HW129894   3.478   2.202   6.557  0.6996 -0.0076 -0.4714
 6087SOL    HW229895   3.445   2.194   6.408 -0.7441 -1.1854 -0.0784
 6088SOL     OW29896   0.400   2.278  15.928 -0.5414 -0.3220 -0.0080
 6088SOL    HW129897   0.334   2.268  15.860  0.1581  0.3234 -0.7822
 6088SOL    HW229898   0.345   2.275  16.006  0.5363  0.6180  0.7948
 6089SOL     OW29899   0.424   2.802   9.975 -0.0001 -0.4138 -0.4010
 6089SOL    HW129900   0.501   2.768   9.929 -0.7098 -1.7032 -0.6392
 6089SOL    HW229901   0.441   2.763  10.061  1.2336 -1.0434 -0.9368
 6090SOL     OW29902   1.985   2.968  13.757  0.2468  1.1346  0.6646
 6090SOL    HW129903   2.067   3.013  13.738  1.5842 -1.0457  1.2696
 6090SOL    HW229904   1.972   2.991  13.849 -0.7859 -0.0650  0.8200
 6091SOL     OW29905   0.950   2.725   1.739 -0.2108  0.9402 -0.1036
 6091SOL    HW129906   1.019   2.781   1.775 -0.6551  1.5976 -0.2591
 6091SOL    HW229907   0.917   2.675   1.814 -0.9893  0.1054 -0.9970
 6092SOL     OW29908   1.971   1.851  10.732  0.0374  0.2176 -0.1295
 6092SOL    HW129909   1.894   1.855  10.675 -0.6880  0.6875  0.8819
 6092SOL    HW229910   2.037   1.865  10.664  1.6588  2.2256  1.8670
 6093SOL     OW29911   1.589   2.583   2.820 -0.1519  0.3616  0.7796
 6093SOL    HW129912   1.685   2.581   2.813 -0.1662 -0.1934  0.7234
 6093SOL    HW229913   1.569   2.530   2.898 -0.3323 -1.3490 -0.4278
 6094SOL     OW29914   0.966   3.158   3.142  0.1492 -0.4520 -0.6890
 6094SOL    HW129915   0.985   3.241   3.185  0.7934  0.0307 -1.8830
 6094SOL    HW229916   0.955   3.183   3.050  1.4709  0.4526 -0.5987
 6095SOL     OW29917   0.434   1.619   3.154 -0.0232  0.0889  0.1027
 6095SOL    HW129918   0.455   1.527   3.138  1.1524  1.0809 -4.2227
 6095SOL    HW229919   0.525   1.633   3.125 -0.9965  2.9267 -1.6152
 6096SOL     OW29920   2.816   3.699   7.679  0.3606  0.0320  0.0613
 6096SOL    HW129921   2.834   3.606   7.661  2.0607  0.7454 -2.0139
 6096SOL    HW229922   2.761   3.711   7.602 -1.2087 -0.7585  1.0692
 6097SOL     OW29923   1.974   4.237   5.333 -0.9348 -0.0770 -0.0554
 6097SOL    HW129924   1.898   4.263   5.385 -0.6832  0.7269 -0.0860
 6097SOL    HW229925   2.017   4.320   5.313  0.9278 -1.4212 -1.5530
 6098SOL     OW29926   0.441   3.040   5.322  0.1516 -0.0077 -0.0852
 6098SOL    HW129927   0.375   3.028   5.254  0.3335  1.0452 -0.4523
 6098SOL    HW229928   0.383   3.064   5.395 -0.3096  1.5864 -0.9724
 6099SOL     OW29929   0.940   2.928   3.316  0.3098 -0.3323 -0.1151
 6099SOL    HW129930   0.935   3.014   3.274 -0.5113 -0.5708 -0.5138
 6099SOL    HW229931   1.032   2.906   3.306  0.6076  0.9246 -0.0540
 6100SOL     OW29932   4.240   4.665   7.275  0.3519  0.2640  0.7795
 6100SOL    HW129933   4.200   4.685   7.359 -1.6472 -1.3156  0.1837
 6100SOL    HW229934   4.328   4.644   7.307  0.2711 -0.3678  0.5932
 6101SOL     OW29935   2.749   1.599   7.378 -0.1844 -0.3038 -0.5414
 6101SOL    HW129936   2.667   1.564   7.344  0.4208 -2.9145  0.7456
 6101SOL    HW229937   2.757   1.573   7.469 -0.5035 -1.3731 -0.8201
 6102SOL     OW29938   4.435   2.670   7.991  0.1011 -0.6745 -0.2092
 6102SOL    HW129939   4.456   2.625   8.073  0.9324  2.8747  1.4940
 6102SOL    HW229940   4.521   2.698   7.959  0.3105  0.8090  1.6586
 6103SOL     OW29941   1.681   4.436   9.802 -0.3191 -0.3170 -0.9348
 6103SOL    HW129942   1.647   4.516   9.843 -0.4366 -1.0810  0.4589
 6103SOL    HW229943   1.740   4.472   9.736 -0.0089  2.0178  0.6103
 6104SOL     OW29944   2.301   0.850   3.539 -0.3289  0.4023  0.7825
 6104SOL    HW129945   2.345   0.799   3.607 -0.8006  1.9240  2.2471
 6104SOL    HW229946   2.216   0.806   3.539  2.2073 -4.3928 -1.1609
 6105SOL     OW29947   0.290   3.738   5.962  0.1646 -0.5476 -0.1002
 6105SOL    HW129948   0.329   3.818   5.927 -0.0188  0.7129  2.6333
 6105SOL    HW229949   0.308   3.667   5.900 -0.7943  1.3782 -2.5992
 6106SOL     OW29950   3.426   3.324  12.385  0.1611 -0.0847 -0.0879
 6106SOL    HW129951   3.410   3.325  12.290  2.6557 -1.2951 -0.5189
 6106SOL    HW229952   3.475   3.407  12.384 -1.3908  0.8323  0.9789
 6107SOL     OW29953   4.690   0.593   8.992 -0.0588  0.2514  0.2376
 6107SOL    HW129954   4.721   0.557   9.075  0.7283 -0.6505 -0.4620
 6107SOL    HW229955   4.636   0.523   8.955 -0.7674  1.8090 -1.6799
 6108SOL     OW29956   3.349   3.477  11.675 -0.3984 -0.1065  0.5339
 6108SOL    HW129957   3.271   3.429  11.647 -2.1834  3.3122 -0.4182
 6108SOL    HW229958   3.326   3.570  11.683  1.0877  0.5739 -3.0257
 6109SOL     OW29959   3.264   3.140   9.552 -0.0014 -0.3379 -0.3541
 6109SOL    HW129960   3.346   3.189   9.544  0.9167 -2.1307 -1.9499
 6109SOL    HW229961   3.270   3.098   9.638  0.2559  0.7325  0.1471
 6110SOL     OW29962   2.398   2.475  17.190  0.2248 -0.1824 -0.2609
 6110SOL    HW129963   2.430   2.488  17.101  2.2446 -1.0341  0.3597
 6110SOL    HW229964   2.331   2.406  17.184 -1.8786  1.9305 -0.8353
 6111SOL     OW29965   2.448   3.836   2.383  0.3227 -0.6268  0.0823
 6111SOL    HW129966   2.380   3.897   2.354  1.1223  0.2217 -0.0029
 6111SOL    HW229967   2.452   3.869   2.473 -1.1807 -0.2814  0.0318
 6112SOL     OW29968   3.057   3.882  16.397 -0.4706  0.2613  0.3315
 6112SOL    HW129969   3.126   3.941  16.427 -1.3163  1.5449 -0.2719
 6112SOL    HW229970   3.056   3.901  16.303 -2.4235 -0.2127  0.2603
 6113SOL     OW29971   1.398   2.625   5.161  0.7063  0.8514  0.0468
 6113SOL    HW129972   1.310   2.656   5.179  0.4195  0.8530 -1.3994
 6113SOL    HW229973   1.384   2.540   5.119  0.6120  1.9630 -2.1904
 6114SOL     OW29974   3.256   4.375  10.205 -0.2243  1.0706  0.1509
 6114SOL    HW129975   3.267   4.355  10.298 -0.4219  1.1838  0.1967
 6114SOL    HW229976   3.165   4.356  10.186 -0.4837  0.0598  2.4309
 6115SOL     OW29977   4.420   3.514   6.950  0.0254 -0.2416  0.5626
 6115SOL    HW129978   4.367   3.516   7.029 -0.5485 -0.9855  0.1945
 6115SOL    HW229979   4.507   3.533   6.985  0.0477 -0.5969  0.7021
 6116SOL     OW29980   3.499   1.301   8.781  0.3416  0.4251 -0.2990
 6116SOL    HW129981   3.406   1.281   8.776 -0.0702  1.9868  0.9743
 6116SOL    HW229982   3.489   1.395   8.770  1.1980  0.0538 -4.3692
 6117SOL     OW29983   3.777   1.280  13.119 -0.2137 -0.0868 -0.0585
 6117SOL    HW129984   3.857   1.313  13.078  0.0273 -0.0335  0.4558
 6117SOL    HW229985   3.768   1.205  13.061  1.9974  0.7294 -1.4624
 6118SOL     OW29986   1.492   1.458  12.983 -0.2352  0.0480  0.4631
 6118SOL    HW129987   1.464   1.367  12.992  3.4422 -1.1045  0.2997
 6118SOL    HW229988   1.434   1.491  12.914 -0.2132 -1.0887 -0.0932
 6119SOL     OW29989   1.126   4.326  10.930 -0.1436 -0.0604  0.0073
 6119SOL    HW129990   1.068   4.329  10.854  1.3107  1.6763 -1.0251
 6119SOL    HW229991   1.176   4.405  10.910 -1.5623  1.3896  2.2751
 6120SOL     OW29992   0.572   0.008   9.017 -0.4068 -0.2969 -0.1884
 6120SOL    HW129993   0.584   0.073   9.087 -3.8728  0.0107  0.0853
 6120SOL    HW229994   0.549   4.671   9.072  1.3918 -0.3416  0.5124
 6121SOL     OW29995   3.479   3.975   7.860  0.3918  0.1538  0.5081
 6121SOL    HW129996   3.495   3.886   7.893  2.0753  0.6055  0.9484
 6121SOL    HW229997   3.450   3.954   7.772 -0.7717  0.7567  0.7579
 6122SOL     OW29998   2.886   1.912  15.567 -0.1822  0.2286  0.1669
 6122SOL    HW129999   2.875   1.944  15.477 -1.4317 -2.0786 -0.4812
 6122SOL    HW230000   2.952   1.846  15.546  0.3264  0.2137  1.8084
 6123SOL     OW30001   4.552   1.862   5.641  0.5166  0.3242  0.2853
 6123SOL    HW130002   4.494   1.867   5.565  0.4896 -2.5138  0.1422
 6123SOL    HW230003   4.520   1.778   5.671  0.3978  0.2997  0.0882
 6124SOL     OW30004   4.075   3.452   7.447  0.3011  0.3731 -0.3133
 6124SOL    HW130005   4.029   3.475   7.527  2.6628 -0.8530  1.4033
 6124SOL    HW230006   4.005   3.404   7.403  0.4961  0.7130 -0.9966
 6125SOL     OW30007   1.150   1.177   7.267  0.0810 -0.4201 -0.2057
 6125SOL    HW130008   1.194   1.096   7.242  0.6182 -0.0647 -0.4164
 6125SOL    HW230009   1.090   1.143   7.334  0.9700 -0.5250  0.5303
 6126SOL     OW30010   2.782   2.397  16.909 -0.0639 -0.1911  0.1544
 6126SOL    HW130011   2.712   2.454  16.876  0.9680  0.3856 -1.0989
 6126SOL    HW230012   2.807   2.449  16.986  1.0050 -0.3658 -0.0707
 6127SOL     OW30013   3.108   0.976  12.116 -0.1550 -0.2056  0.6625
 6127SOL    HW130014   3.082   0.895  12.159 -0.1715  0.6732  2.2864
 6127SOL    HW230015   3.082   0.967  12.024  0.9492 -1.3837  0.4716
 6128SOL     OW30016   3.934   3.569   5.861  0.0447  0.2112  0.0889
 6128SOL    HW130017   4.022   3.605   5.873  1.0230 -0.6946 -4.5077
 6128SOL    HW230018   3.933   3.560   5.766 -0.4103  0.9369  0.0266
 6129SOL     OW30019   2.724   4.084  14.858  0.4198 -0.3685 -0.2024
 6129SOL    HW130020   2.807   4.100  14.814  0.2651 -1.9372 -1.0586
 6129SOL    HW230021   2.704   3.990  14.857  1.3255 -0.5490 -1.3180
 6130SOL     OW30022   2.093   2.374   6.006  0.0182  0.2106 -0.3066
 6130SOL    HW130023   2.119   2.462   5.977  2.0784 -0.9617 -2.0415
 6130SOL    HW230024   2.150   2.351   6.080  0.6134  0.0205 -0.8303
 6131SOL     OW30025   1.172   4.685  15.160 -0.3557 -0.8676  0.4220
 6131SOL    HW130026   1.207   0.036  15.162 -2.1495 -0.1438 -0.6114
 6131SOL    HW230027   1.244   4.647  15.209  0.9034  1.4894  0.4116
 6132SOL     OW30028   0.678   2.036  11.205 -0.0074  0.2150 -0.2508
 6132SOL    HW130029   0.746   2.103  11.207  1.0067 -0.7904 -0.5443
 6132SOL    HW230030   0.734   1.960  11.221  0.8123  1.2971  2.0497
 6133SOL     OW30031   3.229   3.962   8.106 -0.1504 -0.9638 -0.1343
 6133SOL    HW130032   3.257   3.871   8.104 -2.6333 -1.7098 -0.6023
 6133SOL    HW230033   3.296   4.003   8.162 -0.7495 -1.3931  0.8950
 6134SOL     OW30034   1.296   4.516   5.944 -0.2803  0.1681  0.1725
 6134SOL    HW130035   1.325   4.596   5.901  1.8549  0.7867  2.8307
 6134SOL    HW230036   1.350   4.448   5.905 -0.5581 -0.6737  1.2551
 6135SOL     OW30037   0.513   2.682   5.671  0.0342 -0.3143 -0.5772
 6135SOL    HW130038   0.433   2.653   5.627 -1.1329 -1.2976  2.2091
 6135SOL    HW230039   0.559   2.710   5.592  4.0795  2.4294  2.7525
 6136SOL     OW30040   4.173   4.416   6.890  0.2861 -0.2257 -0.5817
 6136SOL    HW130041   4.085   4.386   6.870  0.1799 -0.1518 -0.2349
 6136SOL    HW230042   4.221   4.336   6.867  0.4690 -0.2291 -0.1996
 6137SOL     OW30043   3.117   3.562  12.517 -0.1300  0.5586  0.6788
 6137SOL    HW130044   3.181   3.559  12.446 -0.1403  1.5456  0.6318
 6137SOL    HW230045   3.035   3.527  12.483  0.1860  0.7376 -0.2522
 6138SOL     OW30046   4.378   2.808   7.143  0.4233 -0.3308 -0.2797
 6138SOL    HW130047   4.424   2.861   7.078  1.9911  0.4017  1.4344
 6138SOL    HW230048   4.363   2.880   7.205 -2.6006 -0.3963 -0.9450
 6139SOL     OW30049   2.914   1.674   1.439 -0.2699  0.1998  0.2377
 6139SOL    HW130050   2.973   1.710   1.506  0.5114  1.7309 -1.2853
 6139SOL    HW230051   2.954   1.691   1.354  1.4662  2.4632  1.4977
 6140SOL     OW30052   0.473   4.000   7.163  0.3866 -0.0453 -0.6957
 6140SOL    HW130053   0.492   3.956   7.247  0.7389 -1.9822 -1.7771
 6140SOL    HW230054   0.383   4.029   7.173  0.8984  0.5927  2.0548
 6141SOL     OW30055   2.786   3.145   7.892  0.3406 -0.8976  0.4977
 6141SOL    HW130056   2.754   3.077   7.833 -2.0579  1.2417 -0.6663
 6141SOL    HW230057   2.861   3.098   7.930  0.6715 -0.7465  0.0360
 6142SOL     OW30058   3.575   2.633   7.640  0.2764 -0.1375  0.1733
 6142SOL    HW130059   3.528   2.556   7.672  1.2496 -1.0108 -0.5032
 6142SOL    HW230060   3.624   2.590   7.570  0.8564  1.2878 -0.3015
 6143SOL     OW30061   0.454   2.723   2.170 -0.3393  0.0847 -1.1232
 6143SOL    HW130062   0.497   2.784   2.230  0.1491 -0.2788 -1.1078
 6143SOL    HW230063   0.365   2.760   2.164 -0.1917  0.5031 -0.7880
 6144SOL     OW30064   3.220   4.030   9.814 -0.0645  0.3050 -0.0740
 6144SOL    HW130065   3.173   4.013   9.896  0.3566  1.3011  0.3696
 6144SOL    HW230066   3.302   3.982   9.826 -0.9394 -0.9346  0.8646
 6145SOL     OW30067   3.381   2.827   6.542 -0.2093 -0.0470 -0.6547
 6145SOL    HW130068   3.447   2.786   6.486  2.1853 -1.1929  3.0493
 6145SOL    HW230069   3.435   2.851   6.617  0.2192  1.8403 -1.5456
 6146SOL     OW30070   3.171   4.345   7.561 -0.2347  0.1221 -0.2213
 6146SOL    HW130071   3.180   4.358   7.467  1.2018 -0.1162 -0.1194
 6146SOL    HW230072   3.204   4.427   7.597 -0.6220  1.1091 -2.1251
 6147SOL     OW30073   2.827   4.058   2.872 -0.0175  0.1032 -0.5334
 6147SOL    HW130074   2.733   4.054   2.859 -0.2674  1.1087  0.8499
 6147SOL    HW230075   2.856   3.969   2.852 -1.0692 -0.4174  0.2767
 6148SOL     OW30076   2.534   1.380   1.330  0.1190  0.1599  0.0103
 6148SOL    HW130077   2.612   1.413   1.285 -0.3310 -0.6457 -1.3312
 6148SOL    HW230078   2.568   1.299   1.368  0.4761  0.0791 -0.4776
 6149SOL     OW30079   3.978   2.620   9.500 -0.1988  0.1334 -0.5351
 6149SOL    HW130080   3.989   2.563   9.576  0.5582 -0.1735 -0.8658
 6149SOL    HW230081   4.048   2.684   9.513  1.5350 -1.7447 -0.6048
 6150SOL     OW30082   3.272   3.763   9.096 -0.2531  0.2086  0.4942
 6150SOL    HW130083   3.345   3.789   9.039  0.1354  0.9582  1.3328
 6150SOL    HW230084   3.242   3.848   9.127 -0.1753  1.1044 -1.8718
 6151SOL     OW30085   1.628   1.144   7.507  0.5369 -0.3251  0.4639
 6151SOL    HW130086   1.637   1.182   7.594 -0.3318 -3.8681  2.1083
 6151SOL    HW230087   1.564   1.075   7.525 -0.5510 -0.1830 -2.9382
 6152SOL     OW30088   1.896   1.875   3.583  0.3016 -0.1070 -0.1745
 6152SOL    HW130089   1.953   1.949   3.603  0.2881  0.7770 -3.3651
 6152SOL    HW230090   1.883   1.895   3.490 -1.4867  1.0549  0.3157
 6153SOL     OW30091   4.039   1.376  13.020 -0.5201 -0.0933  0.0838
 6153SOL    HW130092   4.052   1.299  13.076 -3.1383 -0.4876  0.1111
 6153SOL    HW230093   4.085   1.440  13.075 -0.4317 -0.8140  0.8545
 6154SOL     OW30094   3.068   0.915   3.218  0.1545 -0.4036  0.2568
 6154SOL    HW130095   3.130   0.950   3.282  0.3755  0.1813 -0.2801
 6154SOL    HW230096   3.108   0.830   3.198 -2.0649 -1.1172 -1.1310
 6155SOL     OW30097   3.490   2.269   6.704  0.3778 -0.4369  0.6159
 6155SOL    HW130098   3.481   2.344   6.763 -1.0359  0.5596 -0.8511
 6155SOL    HW230099   3.559   2.218   6.746 -0.7675 -1.4258  1.2741
 6156SOL     OW30100   2.975   2.661   9.366 -0.0515 -0.7583 -0.6454
 6156SOL    HW130101   3.021   2.617   9.294 -0.4448  0.0300 -1.3879
 6156SOL    HW230102   3.045   2.666   9.431 -0.7804 -2.1184  0.2479
 6157SOL     OW30103   2.991   0.040   7.729 -0.3535  0.0589 -0.1841
 6157SOL    HW130104   2.945   0.001   7.803  0.1582 -0.3912 -0.0981
 6157SOL    HW230105   2.959   0.130   7.728  3.4253  1.4261  0.1453
 6158SOL     OW30106   0.459   3.940   2.846 -0.2967 -0.2239 -0.3960
 6158SOL    HW130107   0.367   3.916   2.838 -0.1314 -0.7730 -0.6980
 6158SOL    HW230108   0.458   3.959   2.939 -1.1885  1.7785 -0.8239
 6159SOL     OW30109   1.113   3.948   3.970  0.6764 -1.3483  0.1060
 6159SOL    HW130110   1.091   3.881   4.034  0.0672  0.3138  1.6663
 6159SOL    HW230111   1.208   3.953   3.964  0.7137 -1.0423  0.9085
 6160SOL     OW30112   2.366   3.875   6.698 -0.2135 -1.1011  0.3053
 6160SOL    HW130113   2.459   3.872   6.717  0.1177  1.3878 -0.8739
 6160SOL    HW230114   2.328   3.813   6.760 -0.4232 -0.4551  0.8168
 6161SOL     OW30115   2.759   2.064  13.737 -0.5605  0.3144 -0.3649
 6161SOL    HW130116   2.787   1.987  13.788 -4.6102 -1.6296 -1.0677
 6161SOL    HW230117   2.749   2.135  13.800  1.9102 -0.0092  0.3860
 6162SOL     OW30118   1.404   1.894   4.191 -0.0356 -0.1908  0.0657
 6162SOL    HW130119   1.328   1.948   4.212 -0.8998 -0.1520 -3.1719
 6162SOL    HW230120   1.477   1.940   4.233  0.4202 -0.2751 -0.6192
 6163SOL     OW30121   2.789   0.927  16.771 -0.0189  0.0512 -0.1672
 6163SOL    HW130122   2.818   1.010  16.808  0.6277 -0.4180  0.3681
 6163SOL    HW230123   2.857   0.930  16.704 -0.0973  1.2772 -0.1909
 6164SOL     OW30124   3.989   2.661   5.032  0.6192  0.5347 -0.5301
 6164SOL    HW130125   3.980   2.573   4.994  0.2255  1.8838 -3.5509
 6164SOL    HW230126   3.897   2.671   5.056  0.7029  0.2727 -0.0942
 6165SOL     OW30127   4.101   2.268   3.244  0.0429 -0.6216  0.4332
 6165SOL    HW130128   4.059   2.349   3.217 -0.2706 -0.5535  1.1203
 6165SOL    HW230129   4.190   2.301   3.245  0.4663 -1.6836 -2.2141
 6166SOL     OW30130   2.921   1.902   7.552 -0.2221  0.3836 -0.4390
 6166SOL    HW130131   2.987   1.835   7.533  1.1911  1.7467 -0.3476
 6166SOL    HW230132   2.863   1.898   7.476  0.1690  3.7704 -0.8865
 6167SOL     OW30133   1.344   4.587   1.925 -0.4012  0.1143 -0.2392
 6167SOL    HW130134   1.385   4.641   1.857 -1.4219  0.0779 -0.8798
 6167SOL    HW230135   1.338   4.503   1.880  0.0806  0.2456 -0.5443
 6168SOL     OW30136   4.519   2.139  14.322 -0.1132  0.4878 -0.8278
 6168SOL    HW130137   4.602   2.158  14.364 -0.3527  2.2094 -1.1213
 6168SOL    HW230138   4.455   2.179  14.381  0.5793  0.2823  0.0577
 6169SOL     OW30139   2.543   1.099   2.787  0.5389 -0.0240  0.6483
 6169SOL    HW130140   2.463   1.065   2.826  0.5953 -1.4191 -0.4874
 6169SOL    HW230141   2.565   1.172   2.846  0.9449  1.8597 -1.8496
 6170SOL     OW30142   3.371   1.725   9.226  0.2304 -0.2073  0.0167
 6170SOL    HW130143   3.277   1.730   9.244  0.1171 -0.4109 -0.5268
 6170SOL    HW230144   3.370   1.750   9.134  1.8885 -1.7093 -0.3899
 6171SOL     OW30145   2.635   3.177   7.369  0.7064 -0.0511  0.2569
 6171SOL    HW130146   2.599   3.164   7.282 -0.4435  0.5080  0.6466
 6171SOL    HW230147   2.699   3.245   7.348  1.0612 -0.9848 -1.6800
 6172SOL     OW30148   2.302   3.978   3.659 -0.0902 -0.3536 -0.5325
 6172SOL    HW130149   2.228   4.003   3.604  0.3773 -0.4623 -1.2062
 6172SOL    HW230150   2.327   4.062   3.699 -0.8732  0.3565 -1.5210
 6173SOL     OW30151   2.310   4.240  12.015  0.0002  0.5138  0.0574
 6173SOL    HW130152   2.218   4.221  11.996 -0.5233 -0.1870  3.2719
 6173SOL    HW230153   2.305   4.309  12.081  1.0462 -0.8137  1.5334
 6174SOL     OW30154   0.153   2.263   6.789 -0.3571  0.1717  1.1521
 6174SOL    HW130155   0.202   2.281   6.709  0.0182  3.3855  2.1217
 6174SOL    HW230156   0.135   2.348   6.829  1.0239  0.5595  0.9451
 6175SOL     OW30157   3.328   4.155   4.819 -0.7017  0.1006 -0.3369
 6175SOL    HW130158   3.329   4.106   4.901  1.2800 -0.2374 -0.5666
 6175SOL    HW230159   3.268   4.099   4.770 -1.3761  0.1199  0.4784
 6176SOL     OW30160   3.375   4.589   7.464  0.1983  0.2640  0.0525
 6176SOL    HW130161   3.312   4.592   7.536 -2.1082 -0.8224 -1.8936
 6176SOL    HW230162   3.457   4.588   7.512  0.5627 -0.2355 -0.5677
 6177SOL     OW30163   2.308   3.106  13.052  0.0636 -0.1616 -0.0435
 6177SOL    HW130164   2.351   3.026  13.083  0.8778 -0.1695 -1.1613
 6177SOL    HW230165   2.223   3.066  13.032 -0.1179 -0.2701  0.9481
 6178SOL     OW30166   1.227   2.614   4.024  0.1688 -0.0485  0.5372
 6178SOL    HW130167   1.306   2.583   4.069  0.2432 -0.7231 -0.0557
 6178SOL    HW230168   1.224   2.702   4.062 -0.1749 -0.3994  1.3132
 6179SOL     OW30169   1.733   2.121   7.796 -0.2277 -0.1001  0.2460
 6179SOL    HW130170   1.751   2.056   7.863 -1.9447  0.5419  1.3254
 6179SOL    HW230171   1.795   2.087   7.732 -0.1280 -0.0003  0.2875
 6180SOL     OW30172   4.703   1.538  17.651 -0.8379 -0.2405  0.0845
 6180SOL    HW130173   4.666   1.577  17.572  1.7732 -1.7888 -1.9323
 6180SOL    HW230174   0.043   1.501  17.608 -1.1006 -1.1344  0.3747
 6181SOL     OW30175   2.315   0.790   0.139 -0.2349  0.2704 -0.6509
 6181SOL    HW130176   2.265   0.710   0.152 -0.8915  0.8350  0.3270
 6181SOL    HW230177   2.238   0.847   0.139  0.9227  1.8458  1.2325
 6182SOL     OW30178   0.496   0.323   8.109  0.8240 -0.1925  0.0708
 6182SOL    HW130179   0.482   0.231   8.132 -1.6088  0.5708  1.6463
 6182SOL    HW230180   0.561   0.347   8.175 -0.8092 -1.4094  2.1376
 6183SOL     OW30181   2.505   4.234  13.145 -0.0551  0.1315 -0.7122
 6183SOL    HW130182   2.574   4.298  13.128  1.3706 -0.5404  2.4747
 6183SOL    HW230183   2.563   4.164  13.176  0.7634  0.6637 -1.0375
 6184SOL     OW30184   4.146   3.307   9.190  0.2990 -0.2347 -0.3767
 6184SOL    HW130185   4.150   3.232   9.130 -0.7942 -1.8235  1.5546
 6184SOL    HW230186   4.231   3.303   9.234  0.7831 -0.5183 -1.3365
 6185SOL     OW30187   0.657   1.489  11.648 -0.8592  0.2326 -0.2032
 6185SOL    HW130188   0.608   1.560  11.688 -0.2941  0.1023  0.7416
 6185SOL    HW230189   0.731   1.480  11.708 -0.0644 -1.1300 -1.3626
 6186SOL     OW30190   0.889   1.924  14.065  0.2311  0.0733  0.4518
 6186SOL    HW130191   0.928   1.866  14.130  2.3710  1.7696  0.6737
 6186SOL    HW230192   0.967   1.963  14.026  1.1893 -0.7264  1.5830
 6187SOL     OW30193   4.585   0.896  17.090  0.2851 -0.7074 -0.6148
 6187SOL    HW130194   4.613   0.870  17.178  2.0649 -1.0827 -1.2841
 6187SOL    HW230195   4.510   0.954  17.104  0.0212 -1.0581 -0.5728
 6188SOL     OW30196   4.081   1.122  13.133  0.2091  0.3021  0.1943
 6188SOL    HW130197   4.087   1.068  13.212 -1.5371  0.7821  0.6600
 6188SOL    HW230198   4.160   1.107  13.082 -0.3892 -1.4019 -0.2291
 6189SOL     OW30199   3.591   0.057   2.975  0.3232  0.0103 -0.5547
 6189SOL    HW130200   3.589   4.727   3.043  0.6090 -0.5995 -1.1602
 6189SOL    HW230201   3.667   0.107   3.003  0.1087 -0.5589  1.0582
 6190SOL     OW30202   4.403   3.834   4.817 -0.5049  0.7843  0.2166
 6190SOL    HW130203   4.370   3.833   4.727  1.4936  0.1369 -0.5038
 6190SOL    HW230204   4.403   3.927   4.838 -1.0640  0.8287  0.0361
 6191SOL     OW30205   2.956   0.041   3.325 -0.3108  0.1824 -0.1921
 6191SOL    HW130206   2.993   4.691   3.321 -3.4253 -1.1725  1.4975
 6191SOL    HW230207   2.926   0.037   3.416 -0.1529  2.5443 -0.0462
 6192SOL     OW30208   1.124   2.010   6.399 -0.0635  0.4297  0.0320
 6192SOL    HW130209   1.126   2.099   6.436  1.4481 -0.9158  3.2363
 6192SOL    HW230210   1.210   2.002   6.359  0.5418 -1.8779  1.7918
 6193SOL     OW30211   1.030   4.530  15.633 -0.8903 -0.5276 -0.3805
 6193SOL    HW130212   1.067   4.442  15.618 -1.1188 -0.7289  0.2427
 6193SOL    HW230213   0.991   4.513  15.719  0.8143  1.0161  0.6975
 6194SOL     OW30214   2.568   4.690  14.806  0.0540 -0.4762  0.1456
 6194SOL    HW130215   2.554   4.602  14.840 -1.3358 -0.8544 -1.3965
 6194SOL    HW230216   2.550   4.672  14.714 -0.3694 -1.1849  0.3707
 6195SOL     OW30217   2.638   2.884   7.054 -0.4020 -0.3246  0.0131
 6195SOL    HW130218   2.601   2.830   6.984  1.4357 -0.4370 -0.8776
 6195SOL    HW230219   2.705   2.824   7.086 -0.3391 -0.9900 -1.3560
 6196SOL     OW30220   2.850   2.421   2.553 -0.1485 -0.0106 -0.3941
 6196SOL    HW130221   2.925   2.385   2.600 -0.0953  0.2730 -0.2608
 6196SOL    HW230222   2.780   2.396   2.613 -0.0119  0.7274  0.0718
 6197SOL     OW30223   0.215   0.767  14.352 -0.4320 -0.3859 -0.8230
 6197SOL    HW130224   0.309   0.761  14.335 -0.4319 -0.8490 -0.6705
 6197SOL    HW230225   0.220   0.795  14.444 -2.9816 -0.1866 -0.7430
 6198SOL     OW30226   1.322   0.983   4.027  0.1429 -0.7314  0.4480
 6198SOL    HW130227   1.414   0.997   4.004  0.4770 -0.2103  2.1010
 6198SOL    HW230228   1.296   0.906   3.976  0.3651  2.1194 -3.9191
 6199SOL     OW30229   3.935   2.175   2.972 -0.1694  0.0007 -0.4746
 6199SOL    HW130230   4.006   2.117   3.000  0.0304  1.2277  1.5462
 6199SOL    HW230231   3.972   2.260   2.996 -0.3230 -0.1716  0.3890
 6200SOL     OW30232   4.234   1.848   9.026  0.1054 -0.5879 -0.3272
 6200SOL    HW130233   4.159   1.851   9.085 -0.6654  0.6188 -1.3747
 6200SOL    HW230234   4.253   1.941   9.028  1.4934 -0.8873  0.5217
 6201SOL     OW30235   3.622   3.201   2.955 -0.0467  0.3824 -0.2689
 6201SOL    HW130236   3.692   3.265   2.943 -0.1506  0.2857 -1.4255
 6201SOL    HW230237   3.555   3.259   2.992  2.1440  1.9678  1.1869
 6202SOL     OW30238   2.347   3.070   8.864  0.0571 -0.0146  0.0972
 6202SOL    HW130239   2.325   3.044   8.954  2.1336  0.7165  0.8184
 6202SOL    HW230240   2.436   3.036   8.850  0.3973  1.4508 -1.2114
 6203SOL     OW30241   3.239   2.774   5.035 -0.4208 -0.1645  0.2112
 6203SOL    HW130242   3.303   2.840   5.059 -0.0405 -0.2060 -0.6845
 6203SOL    HW230243   3.279   2.696   5.074  0.7374 -0.9116 -2.4949
 6204SOL     OW30244   4.420   1.240   2.507  0.3547 -0.3100  0.1492
 6204SOL    HW130245   4.349   1.254   2.569 -0.8630 -1.8367 -0.9111
 6204SOL    HW230246   4.484   1.205   2.569  0.3514 -1.3364 -0.4339
 6205SOL     OW30247   2.010   4.347   4.342 -0.0317 -0.0203 -0.2297
 6205SOL    HW130248   2.029   4.257   4.315 -0.7496  0.1710 -1.3449
 6205SOL    HW230249   1.922   4.349   4.306  0.3037  2.5339 -0.8986
 6206SOL     OW30250   4.601   0.390   7.541 -0.5310  0.4281 -0.5523
 6206SOL    HW130251   4.599   0.295   7.554  0.8234  0.4008 -0.4996
 6206SOL    HW230252   4.695   0.408   7.540 -0.6788  1.1838 -0.6747
 6207SOL     OW30253   1.166   3.522  15.637  0.1808  0.4881  0.3119
 6207SOL    HW130254   1.145   3.579  15.563  4.6731  0.5821 -0.8701
 6207SOL    HW230255   1.148   3.434  15.604  0.7117  0.1381  0.9570
 6208SOL     OW30256   4.391   0.967  17.571  0.1078 -0.0178 -0.1230
 6208SOL    HW130257   4.323   0.916  17.527 -1.2245  0.6077  1.2009
 6208SOL    HW230258   4.363   1.058  17.562 -1.3361 -0.5496 -1.0586
 6209SOL     OW30259   1.322   4.699   4.164  0.5752  0.4676 -0.5515
 6209SOL    HW130260   1.284   0.048   4.154  0.7803  0.6342  0.1369
 6209SOL    HW230261   1.373   4.703   4.245 -1.3880 -1.2365  0.7832
 6210SOL     OW30262   0.332   1.574   3.984  0.0459  0.2657  0.2660
 6210SOL    HW130263   0.248   1.575   3.938  0.6391 -0.4715 -0.8271
 6210SOL    HW230264   0.305   1.568   4.075  2.0187 -0.2685  0.8246
 6211SOL     OW30265   1.092   1.252   6.443  0.3487 -0.1854  0.5851
 6211SOL    HW130266   1.103   1.156   6.446 -0.6785 -0.4537 -3.5285
 6211SOL    HW230267   1.050   1.258   6.528  1.8379  3.7941  1.0255
 6212SOL     OW30268   0.622   1.381   2.432 -0.2781  0.6061 -0.0518
 6212SOL    HW130269   0.538   1.395   2.388 -1.5230 -0.9497  1.8122
 6212SOL    HW230270   0.606   1.300   2.481  2.0651  0.8255  1.0651
 6213SOL     OW30271   1.030   3.292   7.965 -0.5654  0.1405 -0.0480
 6213SOL    HW130272   0.965   3.352   7.927 -2.5764 -1.5511  0.7332
 6213SOL    HW230273   1.062   3.253   7.884 -1.2076  2.3079 -1.3417
 6214SOL     OW30274   0.805   3.346   1.637  0.1281  0.4217  0.0168
 6214SOL    HW130275   0.734   3.347   1.701  1.1195  0.4452  1.1246
 6214SOL    HW230276   0.874   3.297   1.681  0.0486  1.3859  1.2102
 6215SOL     OW30277   1.311   4.471   9.219 -0.1069 -0.3435 -0.6077
 6215SOL    HW130278   1.342   4.472   9.310 -1.4250  2.4307 -0.2023
 6215SOL    HW230279   1.287   4.563   9.214  1.3241 -0.0002 -1.1784
 6216SOL     OW30280   3.263   0.389   4.357 -0.3675 -0.0076 -0.7839
 6216SOL    HW130281   3.195   0.424   4.298 -1.3069 -0.0942  0.2579
 6216SOL    HW230282   3.324   0.462   4.367  0.6610 -1.1720  1.2772
 6217SOL     OW30283   2.643   3.259   8.112 -0.0227 -0.3294  0.1790
 6217SOL    HW130284   2.635   3.337   8.058 -2.9287  0.0815  1.2117
 6217SOL    HW230285   2.670   3.188   8.053  0.0665 -0.5788  0.5178
 6218SOL     OW30286   1.300   0.200  13.309 -0.0819  0.5342  0.6185
 6218SOL    HW130287   1.221   0.171  13.263 -1.0185  0.2217  2.4039
 6218SOL    HW230288   1.374   0.164  13.260 -0.8472 -0.5952  0.2953
 6219SOL     OW30289   2.109   4.530   2.748  0.2191 -0.0678 -0.2224
 6219SOL    HW130290   2.082   4.485   2.669 -1.1917 -0.2567  0.3661
 6219SOL    HW230291   2.140   4.457   2.801  0.3900  0.3915  0.3152
 6220SOL     OW30292   0.390   3.044   7.368  0.1718 -0.3181  0.0475
 6220SOL    HW130293   0.453   2.981   7.334  0.0364 -0.0080 -0.7714
 6220SOL    HW230294   0.339   3.048   7.288  0.8179  1.4489 -0.2601
 6221SOL     OW30295   0.410   2.355   2.681 -0.1769 -0.4173 -0.0966
 6221SOL    HW130296   0.442   2.444   2.697  0.5826 -0.4669 -1.3461
 6221SOL    HW230297   0.491   2.310   2.656  1.9507  1.7829  2.7715
 6222SOL     OW30298   2.117   4.192   8.680 -0.2411 -0.1873  0.2397
 6222SOL    HW130299   2.162   4.276   8.673  0.2243 -0.6658 -2.5419
 6222SOL    HW230300   2.057   4.183   8.606 -0.3081  0.6518  0.2003
 6223SOL     OW30301   0.584   1.814   6.560 -0.2214  0.6854  0.6266
 6223SOL    HW130302   0.521   1.861   6.615 -1.5732 -0.2488 -0.1368
 6223SOL    HW230303   0.582   1.859   6.476 -1.2044  2.1785  1.4435
 6224SOL     OW30304   4.088   1.635   8.653  0.2869  0.2657 -0.5539
 6224SOL    HW130305   4.109   1.633   8.560 -0.6331  0.0191 -0.7572
 6224SOL    HW230306   4.171   1.652   8.698  0.6480 -0.0486 -1.0997
 6225SOL     OW30307   2.470   3.923  14.885  0.2398 -0.4088 -0.0751
 6225SOL    HW130308   2.378   3.942  14.902  1.0250  2.9314  0.4171
 6225SOL    HW230309   2.453   3.935  14.792  1.5606 -2.5390 -0.5991
 6226SOL     OW30310   3.775   2.374   0.321 -0.0972 -0.6538 -0.0516
 6226SOL    HW130311   3.738   2.459   0.344 -0.6112 -0.7862 -0.4015
 6226SOL    HW230312   3.832   2.348   0.393 -0.3982  2.7839  1.4009
 6227SOL     OW30313   4.453   0.403   8.405 -0.5882 -0.0486  0.3509
 6227SOL    HW130314   4.542   0.438   8.400 -0.7804  0.3274 -0.3925
 6227SOL    HW230315   4.479   0.315   8.432  4.2421  0.5886 -2.3349
 6228SOL     OW30316   1.497   3.306   2.038 -0.0516  0.1506 -0.1786
 6228SOL    HW130317   1.574   3.256   2.012  2.2532  3.4711  0.2426
 6228SOL    HW230318   1.476   3.266   2.122  0.1649 -1.1944 -0.7658
 6229SOL     OW30319   0.780   3.145   4.762 -0.1295  0.1759  0.0563
 6229SOL    HW130320   0.809   3.151   4.852  2.0149  0.5853 -0.6758
 6229SOL    HW230321   0.728   3.225   4.758 -0.3113  0.0502 -0.1969
 6230SOL     OW30322   4.299   1.701   5.238  1.0701  0.6633  0.1859
 6230SOL    HW130323   4.240   1.626   5.230  1.3607  0.5040 -0.4546
 6230SOL    HW230324   4.288   1.722   5.331 -0.7955 -0.0434  0.1110
 6231SOL     OW30325   1.135   2.497   7.925  0.1346 -0.3919  0.0841
 6231SOL    HW130326   1.226   2.470   7.913 -0.6465 -3.1288  0.3398
 6231SOL    HW230327   1.123   2.537   7.838  0.2258 -1.1942 -0.2929
 6232SOL     OW30328   3.084   1.282   0.902 -0.0182  0.2971  0.1266
 6232SOL    HW130329   3.115   1.227   0.974  4.2036  0.3888 -1.6037
 6232SOL    HW230330   3.111   1.364   0.942 -0.7596  0.8139 -0.4285
 6233SOL     OW30331   4.577   2.803   6.274  0.0372  0.4515 -0.1368
 6233SOL    HW130332   4.482   2.796   6.264  0.1927  0.2448 -1.4788
 6233SOL    HW230333   4.588   2.849   6.357 -1.9158  0.8065 -0.0921
 6234SOL     OW30334   0.918   0.692   4.106 -0.0325 -0.2174 -0.1794
 6234SOL    HW130335   0.951   0.671   4.018 -2.3629 -0.9522 -0.8773
 6234SOL    HW230336   0.969   0.769   4.132  1.3438 -0.5975 -1.7503
 6235SOL     OW30337   1.255   2.754   8.689  0.4182  0.4012 -0.1286
 6235SOL    HW130338   1.170   2.798   8.691  0.0925 -0.1741 -1.9529
 6235SOL    HW230339   1.229   2.664   8.707 -0.7828  0.8606  0.4586
 6236SOL     OW30340   2.655   3.854  15.737 -0.1035  0.4974 -0.1482
 6236SOL    HW130341   2.572   3.882  15.699  0.3927  2.4576  0.2052
 6236SOL    HW230342   2.660   3.892  15.824  0.2237  1.1621 -0.4591
 6237SOL     OW30343   0.207   0.487   8.505  0.1591  0.8927 -0.0448
 6237SOL    HW130344   0.168   0.458   8.588  0.6499  1.2001  0.2955
 6237SOL    HW230345   0.193   0.406   8.456  0.3494 -0.2354  1.7634
 6238SOL     OW30346   0.261   2.015   9.311 -0.6885  0.1173  0.2919
 6238SOL    HW130347   0.236   1.923   9.306 -3.0328  0.6525  2.3274
 6238SOL    HW230348   0.219   2.045   9.230 -1.8035  0.1058  0.8596
 6239SOL     OW30349   3.958   1.264  16.710  0.3664 -0.2644  0.2054
 6239SOL    HW130350   3.879   1.318  16.714  0.2850 -0.3915  0.3305
 6239SOL    HW230351   4.019   1.309  16.769  1.6372 -0.8079 -0.6891
 6240SOL     OW30352   3.215   0.856   5.697 -0.0507 -0.6142  0.3426
 6240SOL    HW130353   3.171   0.838   5.780 -0.9261  0.4745  0.1148
 6240SOL    HW230354   3.142   0.881   5.640 -0.4743  1.4339  1.8186
 6241SOL     OW30355   3.457   0.744  10.611  0.3161  0.0467  0.0148
 6241SOL    HW130356   3.376   0.765  10.657  0.9762  1.0431  0.7053
 6241SOL    HW230357   3.434   0.716  10.522  0.2923  1.8588 -0.5456
 6242SOL     OW30358   3.472   1.234   0.806  0.1037 -0.0406 -0.4144
 6242SOL    HW130359   3.393   1.181   0.820 -1.0009  2.0017  0.9795
 6242SOL    HW230360   3.476   1.231   0.710 -0.8313  0.7483 -0.4836
 6243SOL     OW30361   2.132   3.173   7.529  0.6723 -1.0499  0.5122
 6243SOL    HW130362   2.214   3.197   7.486  0.5855 -2.6262 -0.5320
 6243SOL    HW230363   2.162   3.097   7.578 -1.8749 -1.0114  2.1581
 6244SOL     OW30364   4.208   1.208   6.713  0.1489 -0.0393 -0.9012
 6244SOL    HW130365   4.247   1.294   6.696 -0.8920  0.4462 -0.8561
 6244SOL    HW230366   4.254   1.188   6.794 -1.0487  0.9946  0.0426
 6245SOL     OW30367   1.437   3.654  16.822  0.1629  0.0696 -0.2517
 6245SOL    HW130368   1.358   3.608  16.849 -0.5684  2.8002  2.1810
 6245SOL    HW230369   1.500   3.621  16.886  2.3742  3.1335 -0.8384
 6246SOL     OW30370   3.643   2.435   9.142  0.2304  0.0450  0.3308
 6246SOL    HW130371   3.555   2.405   9.163 -0.1344  0.9818  0.1599
 6246SOL    HW230372   3.672   2.470   9.226 -0.3719  0.2437  0.4561
 6247SOL     OW30373   0.075   0.859   6.892  0.4394  0.0485 -0.0009
 6247SOL    HW130374   0.145   0.800   6.918 -0.5708 -1.1411  0.0237
 6247SOL    HW230375   0.007   0.797   6.867  1.5748 -1.5122  0.8557
 6248SOL     OW30376   4.251   2.659  12.505 -0.6376  0.2694 -0.1788
 6248SOL    HW130377   4.229   2.575  12.546 -0.5639 -0.6782 -2.0629
 6248SOL    HW230378   4.316   2.625  12.444  0.4873  0.5607  0.8434
 6249SOL     OW30379   0.827   3.123  12.143 -0.3675  0.1386 -0.0305
 6249SOL    HW130380   0.832   3.095  12.052  2.4395 -0.7550  0.4110
 6249SOL    HW230381   0.904   3.075  12.173 -0.3685 -0.2124 -0.5991
 6250SOL     OW30382   2.305   0.022   2.313  0.1396 -0.3823  0.1190
 6250SOL    HW130383   2.282   4.673   2.347  0.2605  0.3685  2.1291
 6250SOL    HW230384   2.363   0.042   2.387 -1.1617  0.6390  0.8617
 6251SOL     OW30385   1.018   4.177  17.121 -0.1816  0.1233  0.8185
 6251SOL    HW130386   1.044   4.159  17.030  2.1754 -2.1111  1.9205
 6251SOL    HW230387   0.985   4.262  17.094  0.2082 -0.6324 -2.0431
 6252SOL     OW30388   3.696   0.922   2.005  0.6324  0.0310 -0.2685
 6252SOL    HW130389   3.633   0.879   1.946  1.7432 -1.6137 -0.2356
 6252SOL    HW230390   3.760   0.955   1.943 -1.6691 -1.3495 -3.3931
 6253SOL     OW30391   2.376   0.980   7.519 -0.0135  0.3987  0.2438
 6253SOL    HW130392   2.470   0.961   7.518  0.0927  0.8086  1.6506
 6253SOL    HW230393   2.347   0.962   7.430 -0.1409 -1.5964  0.6877
 6254SOL     OW30394   3.528   0.055   1.855  0.3246 -0.0267 -0.2952
 6254SOL    HW130395   3.503   4.710   1.894  0.0056  0.8407  1.3440
 6254SOL    HW230396   3.495   0.127   1.909  1.2027 -0.4120  0.7537
 6255SOL     OW30397   2.332   3.565   3.236 -0.2176 -0.1600  0.4475
 6255SOL    HW130398   2.296   3.538   3.321 -0.1038  2.1400  1.2361
 6255SOL    HW230399   2.425   3.574   3.256 -0.0045 -1.6575  0.1244
 6256SOL     OW30400   2.304   3.516  12.273  0.0441 -0.1147 -1.0749
 6256SOL    HW130401   2.260   3.447  12.323 -0.6735 -0.0588 -1.6296
 6256SOL    HW230402   2.300   3.474  12.187 -0.8569 -2.6422  0.1616
 6257SOL     OW30403   1.253   1.598   7.101  0.5948 -0.7568 -0.0157
 6257SOL    HW130404   1.169   1.639   7.119  0.9355  0.0841 -0.3595
 6257SOL    HW230405   1.239   1.562   7.013 -1.0590  0.7066 -0.3438
 6258SOL     OW30406   4.629   3.843   7.546  0.2294  0.1702  0.0716
 6258SOL    HW130407   4.724   3.851   7.552  0.4532 -2.2889 -0.0450
 6258SOL    HW230408   4.619   3.761   7.498 -0.1638  0.5154 -0.4355
 6259SOL     OW30409   1.029   3.047   8.430  0.0616 -0.6279 -0.3113
 6259SOL    HW130410   1.080   2.966   8.421 -0.3922 -1.1019  1.3411
 6259SOL    HW230411   1.025   3.073   8.338 -0.7319 -0.8083 -0.3292
 6260SOL     OW30412   1.750   0.954   1.365  0.2571  0.8883  0.0996
 6260SOL    HW130413   1.700   0.938   1.285  0.7814 -2.9715  0.5159
 6260SOL    HW230414   1.806   1.028   1.341  0.1541  1.2694  1.0487
 6261SOL     OW30415   1.284   0.025   7.653 -0.3149 -0.3868  0.2389
 6261SOL    HW130416   1.300   0.094   7.589 -2.0453 -0.5075 -0.3195
 6261SOL    HW230417   1.194   4.737   7.635 -0.0346 -1.6197  0.6221
 6262SOL     OW30418   3.090   3.604  11.918  0.0459  0.3995 -0.9139
 6262SOL    HW130419   3.149   3.669  11.956 -1.5265  0.7510  0.8833
 6262SOL    HW230420   3.081   3.617  11.823 -0.4864  0.6552 -0.8270
 6263SOL     OW30421   0.329   1.317   1.552 -0.2281  0.6345 -0.0244
 6263SOL    HW130422   0.291   1.254   1.613  1.5849 -0.7504 -0.3446
 6263SOL    HW230423   0.251   1.338   1.500 -0.9848 -1.9510  0.0620
 6264SOL     OW30424   2.844   0.298   2.721 -0.4317 -0.5922  0.7344
 6264SOL    HW130425   2.832   0.205   2.740  4.7636 -1.3426  0.3718
 6264SOL    HW230426   2.789   0.337   2.789 -0.8540  0.8827 -0.4542
 6265SOL     OW30427   4.254   1.146   2.014  0.2910  0.0310  0.2851
 6265SOL    HW130428   4.337   1.138   1.967 -1.3717 -1.6513 -2.3200
 6265SOL    HW230429   4.278   1.152   2.106  2.0153 -0.3891 -0.1322
 6266SOL     OW30430   3.078   2.573   3.086 -0.4346 -0.2145 -0.4528
 6266SOL    HW130431   3.107   2.661   3.108 -0.4354 -1.0542  2.9744
 6266SOL    HW230432   3.028   2.557   3.166 -1.0932  0.3246 -0.7651
 6267SOL     OW30433   1.370   1.416   1.392  0.5068  0.3218  0.2206
 6267SOL    HW130434   1.440   1.393   1.332 -0.3630 -1.6592 -0.0529
 6267SOL    HW230435   1.360   1.506   1.362 -0.2889  0.0900 -0.2167
 6268SOL     OW30436   1.445   1.943   4.593 -0.8040 -0.1495 -0.4567
 6268SOL    HW130437   1.382   1.896   4.648  0.0575  0.3990  1.0317
 6268SOL    HW230438   1.380   1.983   4.535  0.1843  0.2584 -1.2644
 6269SOL     OW30439   0.363   2.089  12.981 -0.4076 -0.7081  0.2439
 6269SOL    HW130440   0.398   2.177  12.997 -1.1068  0.0391 -2.2261
 6269SOL    HW230441   0.442   2.040  13.003 -0.1793 -0.6133 -0.3521
 6270SOL     OW30442   1.527   2.401   2.577 -0.0313  0.3122 -0.0893
 6270SOL    HW130443   1.574   2.439   2.502  1.0293 -0.4617  0.1822
 6270SOL    HW230444   1.556   2.462   2.645 -1.6237  1.6567 -0.6245
 6271SOL     OW30445   0.596   3.690   6.739 -0.0197  0.0191 -0.2082
 6271SOL    HW130446   0.580   3.685   6.645  0.4998 -1.1926 -0.2328
 6271SOL    HW230447   0.543   3.765   6.764  1.1837  1.0109 -0.6194
 6272SOL     OW30448   4.547   4.713   8.630  0.1502  0.3800 -0.2292
 6272SOL    HW130449   4.493   4.697   8.708 -0.3410 -0.2481 -0.7034
 6272SOL    HW230450   4.600   4.634   8.633 -0.4836  0.0014  1.1360
 6273SOL     OW30451   2.753   0.933  11.410 -0.3317  0.1291  0.0395
 6273SOL    HW130452   2.786   0.861  11.355 -1.2346 -2.4336  2.8634
 6273SOL    HW230453   2.800   0.917  11.491  1.4066 -1.9138 -1.3850
 6274SOL     OW30454   2.437   2.178   8.680 -0.1194  0.6486 -0.4399
 6274SOL    HW130455   2.451   2.186   8.774  1.1988 -1.2997 -0.4953
 6274SOL    HW230456   2.428   2.271   8.656  0.0037  1.4265  2.4839
 6275SOL     OW30457   4.287   4.720   2.380  0.4220  0.2128 -0.4231
 6275SOL    HW130458   4.279   4.633   2.342  0.2321  0.8869 -1.9452
 6275SOL    HW230459   4.322   0.031   2.305  1.5793  2.0396  1.3041
 6276SOL     OW30460   3.701   0.862  14.663  0.2323 -0.1517 -0.3560
 6276SOL    HW130461   3.782   0.882  14.614  1.2200 -1.6796  0.6656
 6276SOL    HW230462   3.641   0.871  14.589  1.0895  2.2733 -0.7797
 6277SOL     OW30463   1.173   2.336   9.141  0.1479  0.1258 -0.2200
 6277SOL    HW130464   1.243   2.277   9.168  1.4820  2.0400  0.4980
 6277SOL    HW230465   1.134   2.290   9.066  0.4409 -0.6593  0.1122
 6278SOL     OW30466   1.754   3.488   2.797 -0.0960 -0.0715  0.4121
 6278SOL    HW130467   1.726   3.563   2.849 -2.5061 -0.5395 -0.2044
 6278SOL    HW230468   1.848   3.500   2.800  0.2267 -1.7891 -2.6686
 6279SOL     OW30469   1.359   3.082   8.389 -0.0273  0.0551  0.0545
 6279SOL    HW130470   1.446   3.071   8.426  0.8031  2.6400 -1.1309
 6279SOL    HW230471   1.323   2.994   8.405  0.2674  0.2694  1.8215
 6280SOL     OW30472   4.567   1.607  11.279  0.7331 -0.1412 -0.5065
 6280SOL    HW130473   4.554   1.578  11.369  1.8406 -3.9425 -1.5887
 6280SOL    HW230474   4.517   1.689  11.283  2.0057  0.6740 -1.2253
 6281SOL     OW30475   0.108   3.383   4.728  0.2559  0.2993  0.1365
 6281SOL    HW130476   0.120   3.362   4.635  2.8980 -1.2134  0.8029
 6281SOL    HW230477   0.047   3.457   4.722 -2.3239 -1.9566 -1.7790
 6282SOL     OW30478   2.660   0.450  14.503 -0.0101  0.2070  0.5409
 6282SOL    HW130479   2.602   0.417  14.571  0.3355 -0.5294  0.4753
 6282SOL    HW230480   2.747   0.455  14.543 -0.4038  2.4494  1.1146
 6283SOL     OW30481   1.354   4.287   5.195 -0.1444 -0.1924 -0.0907
 6283SOL    HW130482   1.309   4.237   5.263 -1.2947 -1.4154 -1.7351
 6283SOL    HW230483   1.319   4.243   5.117 -0.2958 -1.1707  0.5235
 6284SOL     OW30484   1.750   0.484   3.851 -0.4625  0.2132 -0.1756
 6284SOL    HW130485   1.797   0.535   3.786 -1.0207 -0.8288 -1.3901
 6284SOL    HW230486   1.798   0.402   3.839 -0.4942 -0.1835  2.2670
 6285SOL     OW30487   3.927   1.609   2.333 -0.0793 -0.6422  0.5693
 6285SOL    HW130488   3.934   1.696   2.372  0.1282  0.1238 -1.1584
 6285SOL    HW230489   3.959   1.625   2.244 -2.1806  1.1642  0.1466
 6286SOL     OW30490   4.385   0.411   2.700  0.0640 -0.1419  0.0656
 6286SOL    HW130491   4.466   0.408   2.751 -0.1683  1.2922  0.5426
 6286SOL    HW230492   4.316   0.383   2.761  0.9768 -0.0374  1.1472
 6287SOL     OW30493   3.115   1.637  14.132 -0.2666 -0.6751 -0.2721
 6287SOL    HW130494   3.151   1.703  14.073  0.4351  1.8784  3.0773
 6287SOL    HW230495   3.175   1.566  14.108  2.8079  1.6714  0.5075
 6288SOL     OW30496   3.783   4.648   9.365 -0.0584 -0.7646  0.3703
 6288SOL    HW130497   3.790   4.635   9.460 -1.7726  0.2132  0.6272
 6288SOL    HW230498   3.697   4.609   9.346  0.1868 -0.7809 -0.6920
 6289SOL     OW30499   1.397   0.012   8.344 -0.2206 -0.1385  0.9625
 6289SOL    HW130500   1.454   0.057   8.406 -1.4370  1.8545  0.6371
 6289SOL    HW230501   1.329   4.717   8.403  1.2540  0.2055  2.8338
 6290SOL     OW30502   3.573   2.998   9.021 -0.4894  0.1966  0.0950
 6290SOL    HW130503   3.545   3.070   9.077  1.0899  1.1281 -0.3192
 6290SOL    HW230504   3.598   3.037   8.938 -1.4028  1.0458  0.2211
 6291SOL     OW30505   4.342   2.135   5.621  0.3537 -0.4981  0.1590
 6291SOL    HW130506   4.308   2.069   5.682  0.0284 -2.3076 -1.9939
 6291SOL    HW230507   4.361   2.212   5.675 -0.4299 -1.1856  1.3886
 6292SOL     OW30508   0.608   1.604   6.985 -0.3507  0.1524  0.2254
 6292SOL    HW130509   0.662   1.670   7.028 -1.7414  2.6976 -1.9464
 6292SOL    HW230510   0.632   1.621   6.894 -0.2514 -0.8236  0.0765
 6293SOL     OW30511   2.124   2.123   8.369 -0.7876 -0.0855  0.3429
 6293SOL    HW130512   2.038   2.161   8.351 -1.8292 -1.9845  1.3002
 6293SOL    HW230513   2.115   2.103   8.462 -0.1794  0.5214  0.5297
 6294SOL     OW30514   2.086   2.620   6.349  0.1467 -0.1656 -0.4974
 6294SOL    HW130515   1.999   2.660   6.355  0.8598  0.9418  2.2247
 6294SOL    HW230516   2.068   2.526   6.344  0.6811 -0.1856 -2.2835
 6295SOL     OW30517   2.392   1.869   5.869  0.5694 -0.3575 -0.2449
 6295SOL    HW130518   2.301   1.887   5.892  0.5103 -0.2801 -0.5381
 6295SOL    HW230519   2.424   1.873   5.959  1.1597 -0.1070 -0.4681
 6296SOL     OW30520   1.520   3.364   0.600  0.3615 -0.1481 -0.2412
 6296SOL    HW130521   1.478   3.289   0.559 -0.5055  0.1656  0.0811
 6296SOL    HW230522   1.510   3.425   0.527 -1.6152  1.7724  1.6292
 6297SOL     OW30523   3.644   4.257  10.886  0.1314 -0.1021  0.5421
 6297SOL    HW130524   3.728   4.302  10.890 -1.2933  2.4955  1.4376
 6297SOL    HW230525   3.621   4.259  10.979  0.2091  0.6675  0.5441
 6298SOL     OW30526   4.599   0.794   1.998 -0.1463  0.7977 -0.3734
 6298SOL    HW130527   4.636   0.772   1.912  2.4844  0.1145  0.9310
 6298SOL    HW230528   4.664   0.854   2.033 -1.2071 -0.3472  3.5508
 6299SOL     OW30529   0.206   2.583  15.698  0.2755  0.3185  0.1504
 6299SOL    HW130530   0.196   2.553  15.788  0.5901  0.9896  0.4171
 6299SOL    HW230531   0.209   2.679  15.702 -0.4083  0.3395  0.0556
 6300SOL     OW30532   1.603   2.085   8.762 -0.1697  0.0115  0.5484
 6300SOL    HW130533   1.667   2.020   8.793 -1.1325 -1.8552 -1.4271
 6300SOL    HW230534   1.545   2.094   8.838  0.6142  1.3846  0.9920
 6301SOL     OW30535   4.136   3.152  15.392  0.1814 -0.2268 -0.1982
 6301SOL    HW130536   4.154   3.237  15.352 -0.9939  0.6493  1.1287
 6301SOL    HW230537   4.042   3.154  15.375 -0.2383 -2.2743  1.8653
 6302SOL     OW30538   3.067   1.018  11.297 -0.8106  0.2395 -0.3490
 6302SOL    HW130539   3.084   0.934  11.338 -1.9979  0.4068  0.4744
 6302SOL    HW230540   3.026   1.062  11.372 -1.0263  0.1852 -0.4372
 6303SOL     OW30541   0.777   3.765   4.957  0.1263 -0.0530 -0.1850
 6303SOL    HW130542   0.694   3.744   5.001  1.1036  0.4282  1.8993
 6303SOL    HW230543   0.753   3.733   4.870  1.0035 -0.8736 -0.1221
 6304SOL     OW30544   2.632   3.318   6.951 -0.0233 -0.2643 -0.2638
 6304SOL    HW130545   2.601   3.274   7.031  1.0117 -1.3654 -0.4552
 6304SOL    HW230546   2.714   3.270   6.936  0.7354  0.4286  1.6498
 6305SOL     OW30547   2.948   0.121   0.499 -0.3186  0.2602 -0.5295
 6305SOL    HW130548   3.008   0.112   0.425  1.7585  0.7253  1.0991
 6305SOL    HW230549   2.938   0.029   0.524  0.2113 -0.2338 -2.1442
 6306SOL     OW30550   2.240   1.978   4.937  0.5844  0.4568 -0.0174
 6306SOL    HW130551   2.148   1.953   4.944 -0.0242  2.1505 -1.9156
 6306SOL    HW230552   2.263   1.981   5.030 -1.2409  0.7941  0.4237
 6307SOL     OW30553   0.775   0.905  14.058  0.1422 -0.1540 -0.8333
 6307SOL    HW130554   0.740   0.887  13.971 -0.9238 -2.9932  0.1884
 6307SOL    HW230555   0.771   1.001  14.066  0.0970 -0.2832  0.8436
 6308SOL     OW30556   0.032   0.433   9.227 -0.2703  0.2884 -0.0171
 6308SOL    HW130557   0.078   0.452   9.309 -0.2859 -1.0290  0.3003
 6308SOL    HW230558   0.032   0.338   9.220  1.3179  0.2699  0.1281
 6309SOL     OW30559   4.336   1.484   0.192  0.3424  0.4292 -0.3724
 6309SOL    HW130560   4.261   1.427   0.211 -0.5101  1.9225  0.8256
 6309SOL    HW230561   4.298   1.541   0.125 -0.8123  1.0723  0.8143
 6310SOL     OW30562   1.322   1.896   6.629 -0.2987 -0.1052 -0.7282
 6310SOL    HW130563   1.235   1.902   6.591 -0.9411  0.5086  0.8474
 6310SOL    HW230564   1.357   1.822   6.578 -0.0250 -2.3657  2.7037
 6311SOL     OW30565   1.698   1.842   4.544 -0.4308 -0.2014 -0.2849
 6311SOL    HW130566   1.688   1.878   4.456 -1.9201  1.8724  0.7449
 6311SOL    HW230567   1.623   1.878   4.592 -0.1485  1.0555 -0.7833
 6312SOL     OW30568   2.871   0.795   7.926  0.0328 -0.5965  0.1538
 6312SOL    HW130569   2.916   0.807   7.842 -0.7387  1.9450  0.1127
 6312SOL    HW230570   2.941   0.750   7.973  1.3768  1.3043 -0.0214
 6313SOL     OW30571   2.881   0.670   7.341 -0.2446  0.5161  0.5364
 6313SOL    HW130572   2.791   0.691   7.314  0.4865  3.1714  0.1134
 6313SOL    HW230573   2.922   0.648   7.257 -0.6175 -2.6538  1.1928
 6314SOL     OW30574   0.314   2.940   4.644  0.8705  0.5857  0.0239
 6314SOL    HW130575   0.378   2.904   4.583  0.2375  1.5574 -1.2223
 6314SOL    HW230576   0.276   2.861   4.684  1.0998  1.2013  1.4440
 6315SOL     OW30577   1.330   1.797  17.075 -0.3189  0.4120  0.1228
 6315SOL    HW130578   1.260   1.861  17.060 -0.3401  0.8877  2.2311
 6315SOL    HW230579   1.284   1.717  17.048  2.1343 -0.3817 -1.6894
 6316SOL     OW30580   3.595   1.854  16.188 -0.2295  0.3935  0.3771
 6316SOL    HW130581   3.517   1.888  16.144  1.0298 -0.5411 -2.5695
 6316SOL    HW230582   3.638   1.925  16.237  0.1654  1.7238 -1.8989
 6317SOL     OW30583   3.194   2.249   4.799  0.4002 -0.0665  0.3266
 6317SOL    HW130584   3.104   2.276   4.784  0.9987  1.1085 -1.0963
 6317SOL    HW230585   3.240   2.315   4.747 -2.8167  0.4470 -1.8464
 6318SOL     OW30586   2.104   4.317   4.756 -0.3411 -0.1404 -0.3017
 6318SOL    HW130587   2.109   4.248   4.822 -1.3426 -1.0743 -1.2049
 6318SOL    HW230588   2.021   4.306   4.710 -0.3934  1.7255 -0.6634
 6319SOL     OW30589   0.953   0.874   9.345  0.1876 -0.2300  0.1060
 6319SOL    HW130590   0.946   0.790   9.299  1.3323  0.1898 -0.8349
 6319SOL    HW230591   0.863   0.897   9.367  1.2643  2.6585  1.5250
 6320SOL     OW30592   3.109   3.357   8.375  0.6254  0.1344 -0.1594
 6320SOL    HW130593   3.014   3.353   8.363  0.6429 -1.1696  0.0850
 6320SOL    HW230594   3.112   3.447   8.408  0.1667 -1.1716  3.3913
 6321SOL     OW30595   1.780   0.333   6.417 -0.2107  0.1514 -0.4827
 6321SOL    HW130596   1.806   0.418   6.382  0.5660  0.0443 -0.1643
 6321SOL    HW230597   1.693   0.360   6.448 -0.2985  1.3134 -1.7317
 6322SOL     OW30598   2.435   2.229   5.167  0.6694  0.3712 -0.3218
 6322SOL    HW130599   2.442   2.211   5.073  2.8476  1.7029 -0.3992
 6322SOL    HW230600   2.396   2.315   5.181 -0.1703 -0.1106  0.3703
 6323SOL     OW30601   0.011   3.649   6.488 -0.1429 -0.6689  0.1113
 6323SOL    HW130602   4.690   3.675   6.559 -1.2611  1.7527 -1.7099
 6323SOL    HW230603   0.080   3.610   6.542  0.1161  2.0452  1.7676
 6324SOL     OW30604   1.584   1.842   2.210 -0.3096  0.5159 -0.5018
 6324SOL    HW130605   1.595   1.848   2.116  1.0712  0.8151 -0.3178
 6324SOL    HW230606   1.631   1.918   2.246  1.2826 -0.1935 -1.1060
 6325SOL     OW30607   4.307   3.697   6.573 -0.3695  0.2323 -0.1669
 6325SOL    HW130608   4.263   3.700   6.488  0.4798  2.7558 -0.5046
 6325SOL    HW230609   4.386   3.751   6.574  1.0645 -1.9246  2.1078
 6326SOL     OW30610   4.598   2.611   2.611  0.4444  0.6444  0.5507
 6326SOL    HW130611   4.611   2.601   2.705  1.2675 -0.5795  0.3089
 6326SOL    HW230612   4.536   2.683   2.596  1.0301  0.9502 -0.4086
 6327SOL     OW30613   3.150   3.259   7.271  0.7485  0.1061 -0.0877
 6327SOL    HW130614   3.068   3.300   7.244  0.1830 -0.8318  0.2083
 6327SOL    HW230615   3.183   3.322   7.336 -2.4873  1.2817  0.4133
 6328SOL     OW30616   0.869   1.056   2.306 -0.3061 -0.4528 -0.6820
 6328SOL    HW130617   0.886   0.982   2.249  0.6129  0.9705 -2.2246
 6328SOL    HW230618   0.812   1.107   2.249  0.6299  0.9477 -0.3453
 6329SOL     OW30619   4.647   1.903   4.160  0.2630 -0.0457 -0.7496
 6329SOL    HW130620   4.662   1.969   4.092  3.7906 -0.2993 -0.1889
 6329SOL    HW230621   4.580   1.847   4.120 -1.2410  0.6714  0.7864
 6330SOL     OW30622   0.736   2.352   5.885 -0.1140  0.0537  0.2679
 6330SOL    HW130623   0.784   2.336   5.966 -0.9468  0.2787  0.8105
 6330SOL    HW230624   0.724   2.447   5.879 -0.0224  0.2276  2.5342
 6331SOL     OW30625   2.854   3.909  15.023 -0.6962 -0.3467  0.2306
 6331SOL    HW130626   2.840   3.940  15.113 -3.8723 -0.4685 -0.2414
 6331SOL    HW230627   2.918   3.839  15.037 -0.6797 -0.5863 -1.0488
 6332SOL     OW30628   0.246   0.764   9.347  0.2695  0.0649  0.5981
 6332SOL    HW130629   0.235   0.776   9.253  0.8829  0.0254  0.5186
 6332SOL    HW230630   0.197   0.833   9.391  1.7395  1.2704  0.3403
 6333SOL     OW30631   1.969   2.618   6.684 -0.1697  0.1391 -0.1102
 6333SOL    HW130632   2.007   2.545   6.732  1.2786  1.1173  0.2189
 6333SOL    HW230633   1.923   2.574   6.613  0.9395 -0.1179 -0.6715
 6334SOL     OW30634   0.739   2.144   5.598  0.2659  0.3716  0.2178
 6334SOL    HW130635   0.708   2.179   5.682 -0.9525  0.1043 -0.1151
 6334SOL    HW230636   0.742   2.221   5.541 -0.5113  1.1648  1.2452
 6335SOL     OW30637   1.207   2.932   6.361 -0.2555 -0.1169 -0.1888
 6335SOL    HW130638   1.170   2.872   6.426  0.8828 -0.7712 -0.1387
 6335SOL    HW230639   1.144   3.003   6.362 -0.2470 -0.1143  0.0726
 6336SOL     OW30640   1.266   1.595   3.517  0.7052 -0.2251 -0.7566
 6336SOL    HW130641   1.292   1.678   3.556  0.0431  0.6571 -2.1946
 6336SOL    HW230642   1.313   1.598   3.434  2.2133 -1.9319  0.0440
 6337SOL     OW30643   1.445   1.503   9.189  0.4012 -0.2741  0.0311
 6337SOL    HW130644   1.383   1.430   9.192  0.5296 -0.2512  2.9529
 6337SOL    HW230645   1.502   1.484   9.263 -1.0680 -0.0579  1.2237
 6338SOL     OW30646   1.427   4.650  10.495 -0.1954  0.2521 -0.2932
 6338SOL    HW130647   1.345   4.621  10.454  0.0626  0.2481 -0.8113
 6338SOL    HW230648   1.496   4.672  10.433 -0.6150 -0.8118 -1.1434
 6339SOL     OW30649   4.061   1.931   5.636  0.8381  0.3044  0.3282
 6339SOL    HW130650   4.039   1.848   5.677  1.1882  0.9715  1.8559
 6339SOL    HW230651   4.091   1.977   5.714  0.0853 -1.6459  1.7500
 6340SOL     OW30652   0.568   2.939   4.123 -0.6755  0.4138  0.2648
 6340SOL    HW130653   0.488   2.892   4.098 -0.1396 -0.5964  0.4716
 6340SOL    HW230654   0.579   2.917   4.215  2.5802 -0.0688 -0.2598
 6341SOL     OW30655   2.558   1.608   6.182  0.7077 -0.4691  0.2516
 6341SOL    HW130656   2.563   1.538   6.117 -1.9884 -0.2334 -0.2408
 6341SOL    HW230657   2.554   1.554   6.261 -0.8756  0.1661  0.6214
 6342SOL     OW30658   2.634   4.061   9.295 -0.1799  0.5139 -0.2230
 6342SOL    HW130659   2.701   4.097   9.237 -0.2392  1.3622  0.2517
 6342SOL    HW230660   2.683   4.059   9.377  0.5324 -3.0178 -0.7098
 6343SOL     OW30661   1.733   0.992   2.623 -0.0050  0.9645  0.0609
 6343SOL    HW130662   1.813   0.976   2.574 -0.4685 -0.0075 -0.3818
 6343SOL    HW230663   1.675   0.924   2.588 -0.2662  1.1575  0.1228
 6344SOL     OW30664   4.125   0.194   6.155 -0.1063  0.5721  0.0749
 6344SOL    HW130665   4.079   0.164   6.076  0.6501 -1.5835  0.4767
 6344SOL    HW230666   4.181   0.120   6.175 -2.0720 -1.2604 -1.1367
 6345SOL     OW30667   0.320   4.381   7.836  0.1258  0.2250 -0.3408
 6345SOL    HW130668   0.264   4.311   7.801 -1.2054  1.4437 -0.6345
 6345SOL    HW230669   0.386   4.325   7.877 -1.9819 -1.8170  0.2518
 6346SOL     OW30670   2.066   1.362   1.227 -0.2926 -0.3028 -0.3662
 6346SOL    HW130671   2.154   1.348   1.192  0.6491 -0.5622  2.0520
 6346SOL    HW230672   2.077   1.439   1.284 -1.1462  0.4506 -1.2266
 6347SOL     OW30673   0.463   1.468   8.608  0.7106  0.0939  0.0833
 6347SOL    HW130674   0.541   1.515   8.579  0.8930  0.0549  0.5091
 6347SOL    HW230675   0.430   1.534   8.670 -2.7714  1.0659 -2.8027
 6348SOL     OW30676   0.915   4.618   6.398  0.5295  0.2328  0.3051
 6348SOL    HW130677   0.887   4.667   6.320 -1.5434  1.1866  1.6476
 6348SOL    HW230678   0.943   4.688   6.458  0.5002  0.0270  0.5576
 6349SOL     OW30679   4.311   4.487  14.827 -0.5648 -0.2479  0.2950
 6349SOL    HW130680   4.401   4.519  14.831 -1.5090  2.1315  2.2990
 6349SOL    HW230681   4.311   4.472  14.733 -0.0059  0.5677  0.1635
 6350SOL     OW30682   4.383   3.181   6.437  0.1232 -0.2195 -0.7606
 6350SOL    HW130683   4.296   3.221   6.432 -0.5907 -2.0252 -2.6003
 6350SOL    HW230684   4.435   3.260   6.450 -0.8976  0.2824  0.3010
 6351SOL     OW30685   2.667   2.549  17.415 -0.2720  0.4398  0.3230
 6351SOL    HW130686   2.577   2.553  17.447 -0.0469 -0.7284  1.1159
 6351SOL    HW230687   2.721   2.591  17.482 -0.5235  1.6911 -0.2729
 6352SOL     OW30688   0.070   2.646   4.030 -0.0844  0.3249 -0.4690
 6352SOL    HW130689   0.050   2.553   4.016  2.0180  0.0613 -1.7348
 6352SOL    HW230690   0.070   2.667   3.937  2.0558 -2.2443 -1.0744
 6353SOL     OW30691   0.633   1.849   6.243  0.3098  0.3116 -0.5631
 6353SOL    HW130692   0.564   1.841   6.177 -1.1275 -0.0031  0.9765
 6353SOL    HW230693   0.677   1.929   6.214 -0.5322  0.9468 -0.0829
 6354SOL     OW30694   3.185   3.095   8.370  0.0362 -0.1336  0.5872
 6354SOL    HW130695   3.232   3.087   8.287 -2.4446 -3.6296 -0.4813
 6354SOL    HW230696   3.150   3.184   8.365  0.9950  0.0945 -1.7934
 6355SOL     OW30697   3.438   4.258   2.983 -0.5109 -0.1219  0.0647
 6355SOL    HW130698   3.426   4.166   2.959  1.5417 -0.8426  1.8861
 6355SOL    HW230699   3.353   4.286   3.018 -0.1393  2.0676 -0.7551
 6356SOL     OW30700   3.208   3.394  13.247  0.1400 -0.3366 -0.1724
 6356SOL    HW130701   3.195   3.315  13.195  1.7299 -0.1131 -0.9140
 6356SOL    HW230702   3.301   3.388  13.270  0.4690  1.4214 -1.0176
 6357SOL     OW30703   0.932   3.112   5.299  0.3353 -0.1028  0.0646
 6357SOL    HW130704   0.951   3.070   5.383  1.4258  1.0438  0.3782
 6357SOL    HW230705   0.851   3.151   5.330  0.1437  0.5364 -1.2613
 6358SOL     OW30706   3.507   4.456   9.595 -0.1970  0.1419  0.0180
 6358SOL    HW130707   3.484   4.453   9.502 -3.5353  1.0306  0.8030
 6358SOL    HW230708   3.483   4.547   9.614  0.8770  0.4608 -0.1533
 6359SOL     OW30709   1.958   4.306  11.509  0.3106 -0.0365 -0.4243
 6359SOL    HW130710   1.991   4.322  11.597 -3.7336 -0.4707  1.1561
 6359SOL    HW230711   2.036   4.331  11.459  0.6818  3.3695  1.8879
 6360SOL     OW30712   4.687   3.039   4.739 -0.1562 -0.3623  0.2481
 6360SOL    HW130713   0.006   3.033   4.662 -1.8852 -0.9462 -0.9816
 6360SOL    HW230714   4.643   3.123   4.724 -0.0020 -0.2903  0.1919
 6361SOL     OW30715   3.243   2.449   2.589 -0.6938 -0.5151 -0.0596
 6361SOL    HW130716   3.154   2.415   2.587 -0.2410 -1.7439  0.4721
 6361SOL    HW230717   3.260   2.453   2.683  0.4436  2.7173 -0.4099
 6362SOL     OW30718   4.014   4.293   7.473 -0.1329 -0.4592  0.3445
 6362SOL    HW130719   3.959   4.317   7.399  0.2200  0.4748  0.3834
 6362SOL    HW230720   4.085   4.243   7.433 -0.0078  0.6063 -0.7539
 6363SOL     OW30721   3.481   1.657  15.515  0.5195 -0.4032 -0.5023
 6363SOL    HW130722   3.387   1.640  15.519  0.5312 -0.4375 -0.3681
 6363SOL    HW230723   3.474   1.751  15.497  0.7002 -0.2274  0.3203
 6364SOL     OW30724   2.919   1.088   1.240  0.0276 -0.6476  0.2932
 6364SOL    HW130725   2.945   1.180   1.243 -0.6544 -0.4686  0.5840
 6364SOL    HW230726   2.956   1.053   1.159  1.8800 -0.6895  1.1379
 6365SOL     OW30727   4.144   0.467   3.276 -0.1746 -0.5016  0.2548
 6365SOL    HW130728   4.161   0.539   3.336 -0.9495  2.1529 -2.7493
 6365SOL    HW230729   4.231   0.433   3.253  0.5189  1.0398  0.6475
 6366SOL     OW30730   1.955   4.360   5.662 -0.4529  0.0543  0.7747
 6366SOL    HW130731   1.995   4.436   5.620 -1.0850  0.2580  0.5416
 6366SOL    HW230732   1.864   4.363   5.632 -0.2872 -1.2263  0.1272
 6367SOL     OW30733   0.183   2.267   2.606 -0.5755 -0.3253  0.0820
 6367SOL    HW130734   0.225   2.193   2.563 -1.2802 -0.1929 -0.8559
 6367SOL    HW230735   0.261   2.316   2.631 -0.4026 -0.9488  0.7362
 6368SOL     OW30736   4.354   3.682   6.041  0.1848  0.5347  0.2493
 6368SOL    HW130737   4.408   3.653   6.114 -0.7483 -1.4030  0.1800
 6368SOL    HW230738   4.427   3.686   5.978 -0.9984 -1.7138 -1.2529
 6369SOL     OW30739   2.355   1.820   2.915 -0.0507  0.1879  0.2368
 6369SOL    HW130740   2.443   1.844   2.944  0.1004 -0.2378  0.1352
 6369SOL    HW230741   2.301   1.878   2.968 -1.2003 -0.0395 -0.6987
 6370SOL     OW30742   2.099   2.980   3.470 -0.4756  0.1152 -0.0002
 6370SOL    HW130743   2.080   3.069   3.497  1.8002  0.6965 -0.2751
 6370SOL    HW230744   2.080   2.926   3.547 -0.3166 -2.2954 -1.6265
 6371SOL     OW30745   0.185   0.673   1.139 -0.6965  0.4205 -0.2661
 6371SOL    HW130746   0.248   0.602   1.152 -0.6162  0.8470  1.5830
 6371SOL    HW230747   0.234   0.724   1.074  0.2694  1.0039  0.9345
 6372SOL     OW30748   0.012   3.652   4.995  0.8701 -0.2106  0.0217
 6372SOL    HW130749   0.091   3.654   5.048 -0.3326 -2.2819  1.9134
 6372SOL    HW230750   0.033   3.571   4.949  0.4688  0.8588 -2.0697
 6373SOL     OW30751   0.844   4.124  12.945 -0.1000 -0.0621 -0.4447
 6373SOL    HW130752   0.773   4.180  12.914 -0.4931 -0.1753  0.2443
 6373SOL    HW230753   0.913   4.185  12.968  2.0849 -2.5151 -0.4705
 6374SOL     OW30754   1.738   3.003   5.705 -0.8323 -0.7248  0.0771
 6374SOL    HW130755   1.823   3.033   5.674 -0.2839 -1.3756  0.9666
 6374SOL    HW230756   1.674   3.066   5.674  1.1907 -0.3995 -3.3886
 6375SOL     OW30757   1.623   4.692   5.628  0.3157 -1.2269 -0.0101
 6375SOL    HW130758   1.672   4.684   5.709 -1.1758 -2.7700  0.7456
 6375SOL    HW230759   1.686   4.700   5.557 -1.1606 -3.4837 -1.5848
 6376SOL     OW30760   0.558   0.422   2.846  0.2307 -0.2483  0.5461
 6376SOL    HW130761   0.532   0.361   2.915  2.1487 -2.1690 -0.4270
 6376SOL    HW230762   0.600   0.484   2.905  0.3555  1.2664 -1.1123
 6377SOL     OW30763   0.651   0.183   2.235  0.5924  0.2146  0.4843
 6377SOL    HW130764   0.591   0.234   2.290  1.2700 -0.8136  2.1585
 6377SOL    HW230765   0.670   0.101   2.280 -0.3505  0.0676  0.6185
 6378SOL     OW30766   4.099   2.189   3.558 -0.2355 -0.3027 -0.2378
 6378SOL    HW130767   4.170   2.223   3.504 -0.8446 -0.5050 -1.1585
 6378SOL    HW230768   4.087   2.098   3.531 -0.7889 -0.8830  1.9136
 6379SOL     OW30769   2.690   4.472  14.068  0.3037  0.5948 -0.0673
 6379SOL    HW130770   2.683   4.516  14.153 -0.3856  0.3828 -0.0128
 6379SOL    HW230771   2.608   4.423  14.065  0.6999 -0.0632 -0.1509
 6380SOL     OW30772   4.219   1.743   5.506 -0.5732  0.4129 -0.4521
 6380SOL    HW130773   4.222   1.658   5.550 -2.8803 -0.3698 -1.8538
 6380SOL    HW230774   4.155   1.793   5.557 -0.5555  0.1246 -0.1442
 6381SOL     OW30775   2.821   3.962   2.451  0.0776 -0.2303  0.3904
 6381SOL    HW130776   2.751   3.998   2.506  1.3042  0.5677  1.4246
 6381SOL    HW230777   2.768   3.916   2.385  1.1264 -1.3022  0.2912
 6382SOL     OW30778   3.601   1.082   3.733  0.1753  0.3330  0.0011
 6382SOL    HW130779   3.611   1.072   3.639  3.2547  1.9881  0.1624
 6382SOL    HW230780   3.686   1.052   3.765 -0.1178  0.5134  0.9574
 6383SOL     OW30781   3.847   1.552   1.947  0.1247 -0.0852 -0.0730
 6383SOL    HW130782   3.898   1.471   1.942  2.1021  1.0577  1.2524
 6383SOL    HW230783   3.874   1.583   1.861  0.0497  0.6300  0.1646
 6384SOL     OW30784   1.746   4.058   3.534  0.2130 -0.4565 -0.1569
 6384SOL    HW130785   1.799   4.125   3.577 -0.9740 -0.3989  1.2271
 6384SOL    HW230786   1.778   4.070   3.445  0.2256 -2.1236 -0.3862
 6385SOL     OW30787   0.033   4.207  14.287 -0.0557  0.1665  0.1005
 6385SOL    HW130788   4.724   4.217  14.370 -0.1131 -4.6942  0.6456
 6385SOL    HW230789   0.121   4.179  14.309 -0.1445  0.5697  0.9777
 6386SOL     OW30790   0.067   0.519   4.132 -0.5093 -0.4819 -0.6009
 6386SOL    HW130791   4.735   0.562   4.083  0.7204  1.4507 -0.6692
 6386SOL    HW230792   0.018   0.476   4.202  0.0140 -1.8282 -1.0601
 6387SOL     OW30793   0.909   0.382   1.055 -0.1493 -0.9613  0.2441
 6387SOL    HW130794   0.951   0.320   1.115 -0.0744 -1.4482 -0.3057
 6387SOL    HW230795   0.950   0.466   1.074 -1.9297  0.5306 -2.4920
 6388SOL     OW30796   4.176   0.410   4.018 -0.0454  0.4558  0.1175
 6388SOL    HW130797   4.228   0.409   3.938 -0.3458  0.6998 -0.0797
 6388SOL    HW230798   4.191   0.499   4.052  0.8949  1.4854 -3.0107
 6389SOL     OW30799   2.472   3.228   3.469 -0.7234 -0.0900 -0.1133
 6389SOL    HW130800   2.417   3.248   3.545 -1.7062 -0.3658 -0.7556
 6389SOL    HW230801   2.419   3.256   3.395  1.4640  2.1402 -0.8322
 6390SOL     OW30802   3.886   3.930  15.134 -0.4572 -0.1778  0.8646
 6390SOL    HW130803   3.836   4.011  15.151 -1.9312 -0.7678 -0.6509
 6390SOL    HW230804   3.857   3.876  15.207  0.3452  1.2476  2.2428
 6391SOL     OW30805   2.355   1.285   6.267  0.2751 -0.5225 -0.0889
 6391SOL    HW130806   2.333   1.359   6.325 -1.2637 -0.2632 -1.0192
 6391SOL    HW230807   2.333   1.203   6.311 -1.6100  0.1966  0.2950
 6392SOL     OW30808   1.764   3.213  15.004 -1.0305  0.9392  0.0632
 6392SOL    HW130809   1.846   3.170  15.027 -1.6847  1.0647  2.6783
 6392SOL    HW230810   1.713   3.132  15.011 -2.2507  1.6877 -0.1325
 6393SOL     OW30811   1.522   1.581  14.345 -0.7677 -0.4331  0.2535
 6393SOL    HW130812   1.586   1.512  14.363  0.6486  0.5740 -0.9421
 6393SOL    HW230813   1.463   1.526  14.294  1.6159  0.1949 -3.1513
 6394SOL     OW30814   1.316   2.112   0.587  0.2454  0.4620 -0.1723
 6394SOL    HW130815   1.254   2.177   0.553 -1.8117 -0.8649  1.1144
 6394SOL    HW230816   1.255   2.069   0.647 -0.2027  1.0100 -0.2275
 6395SOL     OW30817   1.209   4.289   2.935  0.0985  1.1753  0.6145
 6395SOL    HW130818   1.131   4.249   2.897  3.1489 -1.3253 -3.0322
 6395SOL    HW230819   1.231   4.236   3.012  2.0463  0.2018 -0.6208
 6396SOL     OW30820   0.034   1.553  10.554 -0.2740  0.6305 -0.2946
 6396SOL    HW130821   0.033   1.511  10.640 -3.0326 -2.7088 -1.9637
 6396SOL    HW230822   0.028   1.482  10.491 -0.1420  0.8843 -0.5936
 6397SOL     OW30823   0.258   1.184   6.449  0.2411 -0.4560  0.4517
 6397SOL    HW130824   0.331   1.210   6.393  1.4777 -1.3617  1.6499
 6397SOL    HW230825   0.256   1.093   6.420  0.2877 -0.4111  0.3072
 6398SOL     OW30826   4.500   1.869   6.068  0.6062 -0.0345 -0.3001
 6398SOL    HW130827   4.484   1.810   5.994 -0.6537  0.9688 -0.8299
 6398SOL    HW230828   4.406   1.882   6.080  0.2531 -1.7698 -1.1838
 6399SOL     OW30829   4.174   4.731   2.098  0.1002 -0.2946  0.2349
 6399SOL    HW130830   4.111   4.684   2.152 -0.8014  1.9980  1.1842
 6399SOL    HW230831   4.150   0.085   2.112  0.2929 -0.0404 -1.1388
 6400SOL     OW30832   0.442   3.507   4.939 -0.3023  0.0958  0.0098
 6400SOL    HW130833   0.450   3.525   4.845  1.7471 -2.6790 -0.3435
 6400SOL    HW230834   0.410   3.592   4.969  0.0984 -0.5287  2.1628
 6401SOL     OW30835   2.718   1.167  11.848  0.0423  0.0398  0.4736
 6401SOL    HW130836   2.629   1.132  11.850  1.3926 -3.2153  2.7470
 6401SOL    HW230837   2.730   1.178  11.942 -1.2865  0.7974  0.5690
 6402SOL     OW30838   3.748   1.803  16.935 -0.0830 -0.5971  0.3153
 6402SOL    HW130839   3.764   1.837  16.847 -2.3490 -3.4991 -1.2083
 6402SOL    HW230840   3.667   1.848  16.957 -0.3573  0.4785 -2.8541
 6403SOL     OW30841   2.202   1.125   7.065  0.5776  0.4326  0.3727
 6403SOL    HW130842   2.290   1.098   7.038  0.3856 -0.1475  0.3230
 6403SOL    HW230843   2.181   1.084   7.148  0.7861 -0.8877 -0.2318
 6404SOL     OW30844   4.621   3.302   9.936 -0.6468  0.2187 -0.1138
 6404SOL    HW130845   4.590   3.280  10.024 -0.1202 -0.9601 -0.2339
 6404SOL    HW230846   4.686   3.233   9.923 -1.2146 -0.3873  0.2651
 6405SOL     OW30847   0.981   3.305  15.284  0.2069  0.0713 -0.5153
 6405SOL    HW130848   0.939   3.335  15.203  2.6147  0.4018 -1.6361
 6405SOL    HW230849   1.042   3.233  15.268  0.5543 -0.4278  3.1726
 6406SOL     OW30850   0.417   2.095  12.702 -0.2655  0.0855  0.0386
 6406SOL    HW130851   0.423   2.070  12.795  1.8611  1.2414  0.1864
 6406SOL    HW230852   0.353   2.027  12.680 -3.0809  2.8149 -0.2110
 6407SOL     OW30853   2.031   2.868  17.389 -0.0274 -0.5444  0.2445
 6407SOL    HW130854   2.075   2.825  17.315  1.1523  0.8792  0.1157
 6407SOL    HW230855   2.096   2.934  17.415 -1.6864  1.5452 -0.9032
 6408SOL     OW30856   0.572   3.975   8.364  0.0661 -0.7350  0.0623
 6408SOL    HW130857   0.582   4.025   8.283 -1.4181 -0.4962  0.0256
 6408SOL    HW230858   0.624   3.900   8.336 -2.0117 -1.0522 -2.9527
 6409SOL     OW30859   3.696   0.383  16.963  0.4492  0.1154 -0.5008
 6409SOL    HW130860   3.631   0.452  16.946 -1.1893 -0.8318  1.8538
 6409SOL    HW230861   3.700   0.339  16.878  2.3444 -0.0623 -0.3120
 6410SOL     OW30862   4.698   2.099  10.456 -0.2181 -0.5314  0.7016
 6410SOL    HW130863   4.724   2.087  10.365  0.1855 -1.4532  0.9277
 6410SOL    HW230864   4.604   2.096  10.440 -0.5718  1.6954  2.4089
 6411SOL     OW30865   1.839   3.048   0.849 -0.2316 -0.1552  0.2090
 6411SOL    HW130866   1.834   3.133   0.894 -3.0775 -1.4421  2.3860
 6411SOL    HW230867   1.793   2.994   0.914 -0.7929 -2.1847 -1.8891
 6412SOL     OW30868   2.660   0.329   8.512  0.6233  0.2112  0.0961
 6412SOL    HW130869   2.749   0.313   8.481  0.6854  0.7624 -0.0081
 6412SOL    HW230870   2.641   0.419   8.486  1.3340  0.4455  0.3682
 6413SOL     OW30871   2.433   0.286   0.547  0.2022 -0.1439 -0.2182
 6413SOL    HW130872   2.497   0.338   0.596  0.4315 -1.1580  0.5663
 6413SOL    HW230873   2.484   0.265   0.468 -0.1622  1.3401 -0.8425
 6414SOL     OW30874   1.082   2.665   2.431  0.3024 -0.3691 -0.0928
 6414SOL    HW130875   1.118   2.587   2.473 -2.1727  0.0966  2.8840
 6414SOL    HW230876   1.099   2.641   2.340  0.5017  0.4945 -0.2874
 6415SOL     OW30877   4.603   0.966   0.790 -0.4087 -0.3841  0.1646
 6415SOL    HW130878   4.648   0.887   0.760 -1.2792 -0.7188 -0.2539
 6415SOL    HW230879   4.573   0.933   0.875 -0.5694 -1.9623 -0.5109
 6416SOL     OW30880   4.512   1.062   1.866 -0.3806  0.0967  0.0883
 6416SOL    HW130881   4.469   0.991   1.819 -2.0013 -0.7510  2.8297
 6416SOL    HW230882   4.561   1.012   1.931 -0.9047  0.2849  0.6322
 6417SOL     OW30883   2.900   2.418   7.312 -0.0197  0.4603  0.3175
 6417SOL    HW130884   2.908   2.432   7.407 -0.9493  2.0518  0.1603
 6417SOL    HW230885   2.980   2.367   7.302  0.5750  1.3377  0.6269
 6418SOL     OW30886   2.659   2.319   5.678 -0.1705 -0.0457  0.3529
 6418SOL    HW130887   2.665   2.374   5.756  0.7069 -0.8401  0.8492
 6418SOL    HW230888   2.574   2.277   5.691  0.3063 -1.3980 -0.8942
 6419SOL     OW30889   3.884   2.968   3.228  0.0632  0.4656 -0.1837
 6419SOL    HW130890   3.828   3.021   3.285 -1.0573 -2.7077  1.6971
 6419SOL    HW230891   3.815   2.917   3.186 -1.1407  0.6965  1.4737
 6420SOL     OW30892   4.686   2.009   7.533  0.5603 -0.2966  0.1392
 6420SOL    HW130893   0.016   2.074   7.513  1.2232 -1.5071 -1.5005
 6420SOL    HW230894   4.613   2.066   7.558  1.6907  0.7053  1.1618
 6421SOL     OW30895   1.914   3.585  10.583 -0.4668  0.3275  0.5464
 6421SOL    HW130896   1.955   3.524  10.644 -0.9695 -0.8746 -0.3297
 6421SOL    HW230897   1.988   3.615  10.531 -1.2707  1.5274  0.0729
 6422SOL     OW30898   3.937   3.022  12.437 -0.2253 -0.2112 -0.3406
 6422SOL    HW130899   3.850   2.998  12.470 -0.3608 -3.0969 -2.7316
 6422SOL    HW230900   3.940   3.111  12.471 -1.3212 -0.4950  0.5043
 6423SOL     OW30901   1.771   3.161  13.652  0.0020 -0.4304  0.3329
 6423SOL    HW130902   1.814   3.247  13.658  2.5429 -1.6770  0.1317
 6423SOL    HW230903   1.798   3.124  13.568 -0.9996 -0.1572 -0.1043
 6424SOL     OW30904   4.562   0.709   1.720  0.1602  0.8856 -0.3100
 6424SOL    HW130905   4.513   0.644   1.670  1.2547 -2.0636  2.4420
 6424SOL    HW230906   4.519   0.789   1.692 -0.2708  1.2200  1.3177
 6425SOL     OW30907   1.106   2.215   3.959 -0.6019 -0.1484 -0.0871
 6425SOL    HW130908   1.182   2.215   3.901  1.1945  1.1439  2.2585
 6425SOL    HW230909   1.073   2.125   3.958 -3.1074  0.7266  3.1356
 6426SOL     OW30910   1.348   2.863  16.297  0.2630  0.1020 -0.0471
 6426SOL    HW130911   1.283   2.877  16.366  1.0387  0.2169  0.6581
 6426SOL    HW230912   1.316   2.787  16.247 -0.6210 -0.6143  1.5868
 6427SOL     OW30913   0.843   3.286  15.046  0.0601 -0.0126  0.0851
 6427SOL    HW130914   0.873   3.231  14.974  0.0405  0.6775 -0.4486
 6427SOL    HW230915   0.748   3.288  15.043  0.0156 -1.0813  0.8097
 6428SOL     OW30916   4.318   3.880   5.502 -0.1994  0.3313 -0.2569
 6428SOL    HW130917   4.366   3.896   5.421 -0.0766 -0.8510 -0.4124
 6428SOL    HW230918   4.341   3.789   5.519 -0.0808  0.8661  2.4116
 6429SOL     OW30919   2.666   4.405   7.987 -0.7142 -0.1339 -0.1309
 6429SOL    HW130920   2.746   4.379   8.032 -2.2685 -0.0666  2.6654
 6429SOL    HW230921   2.636   4.331   7.934 -0.4053 -0.8011  0.6194
 6430SOL     OW30922   3.705   3.539   9.692  0.1134 -0.2204  0.7677
 6430SOL    HW130923   3.744   3.624   9.669 -0.8567  0.1013  0.3120
 6430SOL    HW230924   3.693   3.503   9.605 -0.6525  1.2784  0.2483
 6431SOL     OW30925   3.370   2.959  14.928 -0.3384 -0.5277  0.1658
 6431SOL    HW130926   3.401   3.046  14.904 -1.7328 -0.6724 -2.1326
 6431SOL    HW230927   3.442   2.924  14.982  0.6639 -0.2594 -0.9843
 6432SOL     OW30928   1.316   4.023   7.190  0.1794 -0.2726 -0.6108
 6432SOL    HW130929   1.270   3.942   7.170 -0.6093  0.4240 -1.6026
 6432SOL    HW230930   1.406   3.994   7.207  0.8735  1.8901 -0.5401
 6433SOL     OW30931   1.731   2.493  13.710  0.2363  0.4191 -0.2557
 6433SOL    HW130932   1.671   2.420  13.692 -1.7544  1.8679  0.4601
 6433SOL    HW230933   1.798   2.482  13.643  1.6108  0.9736  1.0509
 6434SOL     OW30934   4.142   0.217   1.792  0.0541  0.1195  0.0995
 6434SOL    HW130935   4.141   0.216   1.888 -0.9715 -1.2356  0.0767
 6434SOL    HW230936   4.055   0.255   1.777 -0.7017 -0.8652  1.9405
 6435SOL     OW30937   4.171   3.590  15.461  0.2148 -0.1990 -0.6330
 6435SOL    HW130938   4.255   3.605  15.504 -0.4417  1.9365 -0.0703
 6435SOL    HW230939   4.121   3.537  15.523 -0.1583  1.5835  0.5956
 6436SOL     OW30940   2.305   0.496  15.796  0.5333  0.5132 -0.1604
 6436SOL    HW130941   2.212   0.497  15.776  0.1544  0.3163  1.6207
 6436SOL    HW230942   2.299   0.506  15.891  0.0127  0.1484 -0.1536
 6437SOL     OW30943   2.342   1.957  10.310  0.0274  0.1843  0.2174
 6437SOL    HW130944   2.289   1.972  10.232  0.9370 -0.1897 -0.4757
 6437SOL    HW230945   2.425   2.003  10.294 -1.6150  2.6797 -0.9946
 6438SOL     OW30946   0.959   1.718  16.644 -0.7153 -0.3310 -0.4328
 6438SOL    HW130947   1.007   1.798  16.664  0.2225 -1.1489  0.5305
 6438SOL    HW230948   0.871   1.730  16.680  0.5181  0.3243  2.3428
 6439SOL     OW30949   2.157   3.045   8.479 -0.3042  0.3551 -0.3178
 6439SOL    HW130950   2.106   3.048   8.560  0.7716  2.4476  0.2764
 6439SOL    HW230951   2.119   2.970   8.433 -0.4551 -0.9462  1.9222
 6440SOL     OW30952   0.702   4.429   5.493  0.4111  0.4101  0.0519
 6440SOL    HW130953   0.627   4.481   5.524 -0.8953 -0.8947 -0.9586
 6440SOL    HW230954   0.765   4.463   5.557 -0.7876  0.7532  1.0347
 6441SOL     OW30955   2.904   2.374  16.188  0.4425  0.0389  0.4917
 6441SOL    HW130956   2.954   2.453  16.210  1.0536 -0.1859 -0.0975
 6441SOL    HW230957   2.879   2.401  16.100 -1.0686 -0.1031  0.8722
 6442SOL     OW30958   1.342   0.895   3.406 -0.8467 -0.5346 -0.0943
 6442SOL    HW130959   1.348   0.975   3.457 -4.2931 -0.5592  0.3518
 6442SOL    HW230960   1.248   0.897   3.385  0.0124  0.9896 -3.7723
 6443SOL     OW30961   3.035   2.231  13.031  0.0879  0.0398 -0.3224
 6443SOL    HW130962   3.007   2.320  13.051 -1.7396 -0.3712 -0.9611
 6443SOL    HW230963   2.962   2.181  13.066 -2.9211  2.9659 -2.3049
 6444SOL     OW30964   0.770   2.930   1.686 -0.5829 -0.8753  0.3345
 6444SOL    HW130965   0.833   2.858   1.691  1.3370  0.7974  0.1563
 6444SOL    HW230966   0.765   2.954   1.594  1.8619 -1.9047 -0.0628
 6445SOL     OW30967   3.812   4.538  16.287 -0.1605  0.1732  0.2535
 6445SOL    HW130968   3.873   4.464  16.277 -1.6683 -0.8825 -1.0214
 6445SOL    HW230969   3.796   4.559  16.196 -0.9296 -0.1148  0.3228
 6446SOL     OW30970   2.350   2.700   1.089  0.1747  0.1887 -0.0903
 6446SOL    HW130971   2.431   2.749   1.102 -0.4901  1.0756  0.7491
 6446SOL    HW230972   2.358   2.682   0.995 -1.0911 -0.8974  0.0001
 6447SOL     OW30973   3.140   2.270   8.520  0.4588 -1.0913 -0.0582
 6447SOL    HW130974   3.164   2.189   8.565 -0.5423 -2.1873 -1.4817
 6447SOL    HW230975   3.213   2.288   8.461  0.6427 -0.5950  0.3247
 6448SOL     OW30976   2.782   1.089   6.915 -0.0603  0.7112 -0.4826
 6448SOL    HW130977   2.793   1.182   6.893  0.0790  1.0223  0.9036
 6448SOL    HW230978   2.784   1.089   7.011 -0.8795  1.3330 -0.4601
 6449SOL     OW30979   1.189   2.134  17.731 -0.2753  0.2418 -0.0844
 6449SOL    HW130980   1.222   2.052  17.694  1.8552  1.4309 -0.8406
 6449SOL    HW230981   1.272   2.175   0.005  1.1710 -2.0989 -1.0666
 6450SOL     OW30982   4.606   3.931   1.037 -0.1761  0.5771  0.0502
 6450SOL    HW130983   4.588   3.838   1.020  0.8976  0.2073  0.9283
 6450SOL    HW230984   4.538   3.959   1.097 -0.9402  0.7729 -0.9044
 6451SOL     OW30985   3.692   4.321   3.718 -0.7872 -0.1615  1.1383
 6451SOL    HW130986   3.649   4.284   3.796 -0.3641 -3.1187 -0.0253
 6451SOL    HW230987   3.635   4.284   3.651 -2.0805  0.1616  2.0527
 6452SOL     OW30988   0.702   3.224   6.974  0.1060 -0.3137  0.0067
 6452SOL    HW130989   0.686   3.284   6.901 -1.6435 -1.1177 -0.2795
 6452SOL    HW230990   0.658   3.262   7.051 -0.1747 -0.0413 -0.2833
 6453SOL     OW30991   3.740   0.072  11.960 -0.5612  0.2821  0.0309
 6453SOL    HW130992   3.684   0.107  11.891 -1.0078  0.4336  0.4715
 6453SOL    HW230993   3.729   4.716  11.946 -0.3206  0.0933  1.0845
 6454SOL     OW30994   2.616   0.790   2.087 -0.1835  0.0348  0.0243
 6454SOL    HW130995   2.532   0.774   2.043 -0.3227  0.7660  0.0243
 6454SOL    HW230996   2.680   0.783   2.016 -0.5051 -0.6122 -0.2067
 6455SOL     OW30997   3.591   4.402  12.293 -0.6100 -0.2508  0.0223
 6455SOL    HW130998   3.593   4.321  12.344  3.3666  0.6029  1.2253
 6455SOL    HW230999   3.676   4.443  12.309  0.2901 -1.3047 -2.1337
 6456SOL     OW31000   2.213   2.732   7.436  0.4239  0.1033  0.5085
 6456SOL    HW131001   2.258   2.714   7.518  0.6042  1.7567  0.7719
 6456SOL    HW231002   2.287   2.765   7.385 -0.3636 -0.9925 -1.3378
 6457SOL     OW31003   4.588   4.534   4.052 -0.2227  0.2932 -0.5494
 6457SOL    HW131004   4.591   4.515   3.959 -1.3773  1.1092 -0.7628
 6457SOL    HW231005   4.595   4.630   4.046  2.8981  0.3425  3.6902
 6458SOL     OW31006   4.588   0.565   5.137  0.1905 -0.3749  0.0788
 6458SOL    HW131007   4.565   0.618   5.213  0.3178 -0.3195  0.0787
 6458SOL    HW231008   4.665   0.516   5.166 -0.4378 -1.7675 -0.6270
 6459SOL     OW31009   2.975   4.372   1.926 -0.1302  0.3044  0.3904
 6459SOL    HW131010   2.973   4.284   1.964  0.2944  0.2330  0.2494
 6459SOL    HW231011   3.015   4.416   2.001 -0.3274 -0.1165  0.7364
 6460SOL     OW31012   2.719   1.244  11.333  0.4246 -0.0558 -0.2346
 6460SOL    HW131013   2.813   1.238  11.318  0.2208  0.5219 -1.7385
 6460SOL    HW231014   2.710   1.157  11.372  1.2008 -0.2199 -0.4246
 6461SOL     OW31015   0.850   4.282   6.055 -0.0063 -0.1336 -0.3616
 6461SOL    HW131016   0.798   4.300   6.133  0.5920 -0.6799  0.1661
 6461SOL    HW231017   0.841   4.187   6.057  0.3159 -0.1557  0.1225
 6462SOL     OW31018   2.530   3.131  14.489  0.0746 -0.0502 -0.0431
 6462SOL    HW131019   2.464   3.184  14.534 -1.5079 -2.5069  0.4881
 6462SOL    HW231020   2.476   3.116  14.411 -0.5652 -0.7859  0.5451
 6463SOL     OW31021   1.400   4.624   7.446  0.1590  0.3907  0.3005
 6463SOL    HW131022   1.316   4.606   7.404 -0.0773 -2.5017  2.0560
 6463SOL    HW231023   1.370   4.626   7.537  0.4847  2.2876  0.3743
 6464SOL     OW31024   1.938   0.895   2.428 -0.0780 -0.6806  0.1073
 6464SOL    HW131025   1.989   0.829   2.474  1.4140 -1.4229 -2.5990
 6464SOL    HW231026   1.939   0.858   2.340 -0.7455 -0.8214  0.1634
 6465SOL     OW31027   3.362   2.671   4.536  0.6418  0.4356 -0.3911
 6465SOL    HW131028   3.303   2.736   4.497  0.3926  0.2857 -0.2597
 6465SOL    HW231029   3.437   2.678   4.477  0.4977  1.3478 -0.4643
 6466SOL     OW31030   1.032   3.852   9.541 -0.0013 -0.1256  0.0703
 6466SOL    HW131031   0.985   3.908   9.602 -1.9136 -2.1409  0.4551
 6466SOL    HW231032   0.987   3.770   9.561 -2.2352  0.5421 -2.1632
 6467SOL     OW31033   2.314   1.350   3.297 -0.2674 -0.3177 -0.2876
 6467SOL    HW131034   2.378   1.288   3.331  0.0992 -0.6701 -1.6520
 6467SOL    HW231035   2.346   1.375   3.211 -1.0790 -0.4883 -0.6397
 6468SOL     OW31036   2.964   2.208   9.024  0.2056 -0.0052 -0.4471
 6468SOL    HW131037   2.987   2.287   8.975 -0.5434 -0.4255 -1.4861
 6468SOL    HW231038   3.050   2.167   9.031  0.3006  0.6183  1.7642
 6469SOL     OW31039   1.469   4.020   4.780 -0.0335  0.3054 -0.2411
 6469SOL    HW131040   1.442   3.969   4.703  0.7259 -2.5392  1.3844
 6469SOL    HW231041   1.565   4.022   4.776  0.0199 -2.1352  0.0168
 6470SOL     OW31042   1.168   2.028   8.779  0.1093 -0.0988 -0.4324
 6470SOL    HW131043   1.127   1.998   8.698 -0.7161 -2.6989  0.9407
 6470SOL    HW231044   1.236   1.963   8.796  0.5161  0.9615  2.0414
 6471SOL     OW31045   2.394   0.057  10.822 -0.3069 -0.0394  0.2748
 6471SOL    HW131046   2.334   0.079  10.752 -0.9221  0.4832  0.9651
 6471SOL    HW231047   2.384   4.701  10.830 -1.8735  0.2788  2.1509
 6472SOL     OW31048   3.748   2.452  13.099  0.1741  0.5227  0.5330
 6472SOL    HW131049   3.821   2.394  13.078 -0.6285 -0.4865  0.5315
 6472SOL    HW231050   3.719   2.403  13.176 -1.5348 -0.6303 -0.8501
 6473SOL     OW31051   2.840   0.806   3.743 -0.0998  0.2530  0.1095
 6473SOL    HW131052   2.825   0.833   3.834  1.2643  0.4099  0.2876
 6473SOL    HW231053   2.901   0.735   3.762  1.3291  1.6480  0.7888
 6474SOL     OW31054   2.284   2.809   3.325  0.1411 -0.3312 -0.1918
 6474SOL    HW131055   2.254   2.761   3.401 -1.0204 -1.0347 -1.0888
 6474SOL    HW231056   2.239   2.893   3.337  1.1551 -0.1304  2.2301
 6475SOL     OW31057   3.531   3.722   1.833  0.5712  0.0750  0.0411
 6475SOL    HW131058   3.554   3.659   1.764  0.7333  1.4875 -1.1748
 6475SOL    HW231059   3.610   3.774   1.844  1.0272 -0.4957 -0.5819
 6476SOL     OW31060   2.123   3.498   7.485 -0.1940 -0.5973  0.1341
 6476SOL    HW131061   2.085   3.568   7.537  1.0162  0.9200 -1.0288
 6476SOL    HW231062   2.125   3.423   7.544 -0.1933  0.1777  1.1018
 6477SOL     OW31063   1.268   0.606   4.091 -0.1505 -0.2290  0.3900
 6477SOL    HW131064   1.363   0.606   4.089 -0.1638 -0.8235 -0.5245
 6477SOL    HW231065   1.253   0.669   4.021 -2.2005 -0.9296  0.1861
 6478SOL     OW31066   1.051   0.480   7.958 -0.0729 -0.9143 -0.3104
 6478SOL    HW131067   1.015   0.395   7.983 -0.6411 -0.2004  1.2754
 6478SOL    HW231068   1.054   0.522   8.043  1.3588  2.3839 -1.9846
 6479SOL     OW31069   0.298   3.210   5.674  0.0298  0.1998  0.1885
 6479SOL    HW131070   0.296   3.170   5.587 -0.3078  1.0544 -0.1918
 6479SOL    HW231071   0.364   3.151   5.712 -0.7905  0.1263  1.5020
 6480SOL     OW31072   4.490   3.371  10.444 -0.5425 -0.1289 -0.0403
 6480SOL    HW131073   4.500   3.413  10.530 -0.9833 -1.1551  0.5074
 6480SOL    HW231074   4.517   3.450  10.397  0.6271  0.0877  0.9992
 6481SOL     OW31075   0.152   2.476  15.940  0.3593 -0.2065  0.3229
 6481SOL    HW131076   0.062   2.490  15.969  0.0683  0.2281 -0.8130
 6481SOL    HW231077   0.188   2.442  16.022 -1.5802 -0.6330  0.9910
 6482SOL     OW31078   1.526   2.580   4.086 -0.1147 -0.1134  0.4999
 6482SOL    HW131079   1.526   2.486   4.066  2.1043 -0.0633  0.3172
 6482SOL    HW231080   1.542   2.624   4.002  0.0991 -2.6483 -0.7966
 6483SOL     OW31081   1.387   1.115  11.201 -0.2324  0.3071  0.0443
 6483SOL    HW131082   1.467   1.153  11.165 -1.4222  2.5839 -0.1625
 6483SOL    HW231083   1.328   1.186  11.176  0.4577 -0.4518 -3.7558
 6484SOL     OW31084   3.728   2.567  17.287  0.0661 -0.1727  0.3852
 6484SOL    HW131085   3.671   2.644  17.293 -1.4640 -1.0760 -2.4703
 6484SOL    HW231086   3.779   2.584  17.207  2.6773 -0.8720  1.9194
 6485SOL     OW31087   3.285   2.534   3.334 -0.0718  0.7502 -0.5260
 6485SOL    HW131088   3.360   2.501   3.383 -1.1128 -0.8277 -0.0128
 6485SOL    HW231089   3.254   2.452   3.295  0.2528  0.9478 -1.2143
 6486SOL     OW31090   4.542   0.545  16.346 -0.3151 -0.2172 -0.2728
 6486SOL    HW131091   4.460   0.507  16.375  0.0128 -0.2729  0.5713
 6486SOL    HW231092   4.546   0.618  16.407 -2.1190  0.2582 -0.7347
 6487SOL     OW31093   2.769   0.121   6.078  0.3139 -0.4096 -0.1789
 6487SOL    HW131094   2.694   0.093   6.132  0.4321  0.4649  0.4348
 6487SOL    HW231095   2.816   0.038   6.077  0.1008 -0.5608  1.4796
 6488SOL     OW31096   1.935   3.415   7.295  0.4954 -0.0602 -0.6398
 6488SOL    HW131097   1.998   3.463   7.349 -1.0439  1.1144  0.0792
 6488SOL    HW231098   1.918   3.341   7.352  0.1203 -0.2217 -0.9635
 6489SOL     OW31099   1.858   0.962   3.906  0.1423  0.3264  0.4712
 6489SOL    HW131100   1.878   0.898   3.838 -0.7280  0.4202  0.1304
 6489SOL    HW231101   1.890   1.042   3.863  0.4994 -0.2521 -0.3463
 6490SOL     OW31102   2.165   2.888   1.283 -0.0695  0.2061  0.0170
 6490SOL    HW131103   2.170   2.831   1.359 -3.1332 -0.6098 -0.3781
 6490SOL    HW231104   2.246   2.881   1.232  1.2606 -1.2402  2.3168
 6491SOL     OW31105   3.901   0.920   3.774 -0.2346 -0.0490  0.4939
 6491SOL    HW131106   3.972   0.859   3.793 -0.4193  0.1689  1.8595
 6491SOL    HW231107   3.928   0.997   3.825 -3.4894  1.5804 -0.2478
 6492SOL     OW31108   2.671   0.080   1.190 -0.2959 -0.1804  0.2148
 6492SOL    HW131109   2.759   0.117   1.199 -0.8163  1.4358 -1.0893
 6492SOL    HW231110   2.700   4.733   1.158 -1.0117 -0.0552 -0.7935
 6493SOL     OW31111   0.644   3.989  15.268  0.2332 -0.4422 -1.2567
 6493SOL    HW131112   0.625   3.919  15.330 -1.0087  1.0732  0.0511
 6493SOL    HW231113   0.561   4.037  15.260  0.6150 -0.0601 -2.8784
 6494SOL     OW31114   1.103   0.634  10.503  0.5753 -0.3630 -0.0708
 6494SOL    HW131115   1.032   0.670  10.556  0.6692  1.0731 -0.9205
 6494SOL    HW231116   1.122   0.707  10.445  0.2305  1.4100  2.0424
 6495SOL     OW31117   1.465   2.244   5.853 -0.4044 -0.1916 -0.4445
 6495SOL    HW131118   1.504   2.247   5.941 -0.4011 -0.8609 -0.4287
 6495SOL    HW231119   1.485   2.159   5.815  1.0825 -0.1080  0.1657
 6496SOL     OW31120   3.584   0.804   5.191 -0.2898  0.2238  0.2011
 6496SOL    HW131121   3.543   0.871   5.136  1.6134  1.5995  0.4422
 6496SOL    HW231122   3.675   0.828   5.173 -0.5803 -0.2789 -2.0203
 6497SOL     OW31123   3.054   2.752   6.293  0.4305  0.0381 -0.3035
 6497SOL    HW131124   3.069   2.720   6.382 -1.4592 -2.0326 -0.7305
 6497SOL    HW231125   3.010   2.671   6.268 -0.5806  0.2819  0.6479
 6498SOL     OW31126   2.434   2.069  17.122 -0.1211  0.3429 -0.3114
 6498SOL    HW131127   2.430   1.992  17.065 -0.0860  0.9335 -1.1105
 6498SOL    HW231128   2.441   2.149  17.070  2.9239  0.1903 -0.1608
 6499SOL     OW31129   3.290   0.175   8.070  0.0435  0.0586  0.1728
 6499SOL    HW131130   3.354   0.112   8.038 -1.2754 -0.3739 -1.6480
 6499SOL    HW231131   3.340   0.257   8.077  0.1323  0.1600 -1.5643
 6500SOL     OW31132   0.668   2.517   6.620  0.3015 -0.3143  0.3285
 6500SOL    HW131133   0.622   2.506   6.703  1.0429  1.3702  0.9709
 6500SOL    HW231134   0.753   2.537   6.659  0.3258  0.9500 -0.3723
 6501SOL     OW31135   0.494   2.296   8.111  0.4187  0.3926  0.1318
 6501SOL    HW131136   0.509   2.390   8.111  1.5427  0.2211 -2.3721
 6501SOL    HW231137   0.453   2.288   8.025  2.6542 -0.8397 -0.8441
 6502SOL     OW31138   0.652   2.252   2.822  0.3493 -0.2064  0.0117
 6502SOL    HW131139   0.745   2.274   2.835  1.0035 -3.5750  0.9110
 6502SOL    HW231140   0.600   2.312   2.876 -0.3812 -1.1228  0.3240
 6503SOL     OW31141   1.357   1.483  16.426  0.2807 -0.1317 -0.3240
 6503SOL    HW131142   1.310   1.542  16.485 -0.0877 -0.6625 -0.0857
 6503SOL    HW231143   1.350   1.523  16.340  0.2838  1.7044  0.5259
 6504SOL     OW31144   2.508   2.820   5.253 -0.0813  0.1158  0.3212
 6504SOL    HW131145   2.598   2.851   5.247  0.6163 -2.1226 -0.9105
 6504SOL    HW231146   2.464   2.902   5.277 -1.4238 -1.2999  2.6560
 6505SOL     OW31147   3.165   3.265  12.505 -0.3195  0.3754 -0.6943
 6505SOL    HW131148   3.253   3.258  12.468  0.5613  0.7741  1.3419
 6505SOL    HW231149   3.183   3.286  12.596 -1.1395 -1.6505 -0.0737
 6506SOL     OW31150   4.549   3.330   6.730 -0.1797 -0.5145 -0.4162
 6506SOL    HW131151   4.500   3.370   6.658  0.5536  0.9654 -0.0963
 6506SOL    HW231152   4.523   3.386   6.804 -1.5521 -2.9559  0.9528
 6507SOL     OW31153   2.601   0.637  15.570 -0.4932  0.0919  0.3812
 6507SOL    HW131154   2.648   0.556  15.551  1.6265  0.8539  2.3500
 6507SOL    HW231155   2.618   0.693  15.494  1.2381 -0.3112  0.4708
 6508SOL     OW31156   1.623   3.105   6.373  0.2267  0.3392 -0.2596
 6508SOL    HW131157   1.601   3.089   6.281  0.0440 -0.7719 -0.0242
 6508SOL    HW231158   1.547   3.068   6.417 -0.3949  1.4295 -0.4134
 6509SOL     OW31159   3.234   0.459  15.212 -0.4604  0.2238 -0.0993
 6509SOL    HW131160   3.234   0.391  15.145  1.5121  0.6946 -0.5685
 6509SOL    HW231161   3.159   0.516  15.196  0.2132  1.3837  0.8126
 6510SOL     OW31162   0.638   1.854  16.688  0.3107 -0.1512  0.1497
 6510SOL    HW131163   0.665   1.936  16.646  3.5522 -2.1388 -1.6248
 6510SOL    HW231164   0.591   1.807  16.619  0.8861  0.3083 -0.5478
 6511SOL     OW31165   1.417   1.993   8.436 -0.1483  0.6442  0.0656
 6511SOL    HW131166   1.457   1.926   8.381 -0.6138  0.5204 -0.1260
 6511SOL    HW231167   1.339   2.019   8.387  0.7209 -0.0743 -1.7020
 6512SOL     OW31168   3.194   2.056   9.071 -0.3224 -0.5533 -0.4032
 6512SOL    HW131169   3.281   2.092   9.052 -0.9155  1.8122  1.3507
 6512SOL    HW231170   3.198   2.050   9.166 -4.1980 -2.2887 -0.3391
 6513SOL     OW31171   0.984   1.531   9.715 -0.2816 -0.7992 -0.1994
 6513SOL    HW131172   0.994   1.560   9.806  0.2584 -1.7498  0.0470
 6513SOL    HW231173   0.980   1.436   9.729  2.5613 -0.7643  0.9743
 6514SOL     OW31174   0.468   2.435   4.246  0.5656  0.2490 -0.3578
 6514SOL    HW131175   0.376   2.412   4.236  1.2626 -2.7138  0.1194
 6514SOL    HW231176   0.510   2.357   4.209  1.6522 -0.1100  1.6336
 6515SOL     OW31177   0.113   4.714   7.486  0.0765  0.6962 -0.7461
 6515SOL    HW131178   0.108   4.714   7.581 -0.7024  0.8524 -0.7816
 6515SOL    HW231179   0.051   0.045   7.463 -0.4190  0.8025  0.8972
 6516SOL     OW31180   4.648   3.606   7.079 -0.3885  0.6595  0.0716
 6516SOL    HW131181   4.600   3.605   7.161 -2.4530  0.0215 -1.1192
 6516SOL    HW231182   0.001   3.589   7.103 -0.6479 -0.3784  0.3302
 6517SOL     OW31183   2.019   4.567   8.907 -0.3769 -0.3115  0.3429
 6517SOL    HW131184   1.972   4.605   8.833  0.0330  1.4180  0.9713
 6517SOL    HW231185   2.086   4.511   8.866 -0.5661  1.3056 -2.1703
 6518SOL     OW31186   1.958   3.554  12.632 -0.7094 -0.1680 -0.2186
 6518SOL    HW131187   2.006   3.530  12.552  1.2360  0.4379  0.7826
 6518SOL    HW231188   1.998   3.640  12.646  0.4023 -0.6710 -0.2843
 6519SOL     OW31189   3.650   1.400   7.042 -0.1127 -0.3499 -0.3872
 6519SOL    HW131190   3.639   1.479   6.989  2.6264  0.2147 -0.1225
 6519SOL    HW231191   3.701   1.435   7.114 -0.0629 -0.7050 -0.2511
 6520SOL     OW31192   4.623   2.513   9.944  0.4140 -0.0188 -0.4268
 6520SOL    HW131193   4.661   2.448   9.885  2.1141  1.5207 -1.0480
 6520SOL    HW231194   4.580   2.574   9.884  2.6516 -0.2032 -2.2308
 6521SOL     OW31195   1.024   1.344   8.448  0.0368  0.3435 -0.6109
 6521SOL    HW131196   1.083   1.397   8.394  1.9783 -0.2652  0.8872
 6521SOL    HW231197   0.939   1.385   8.434  1.1657  2.6212 -0.9253
 6522SOL     OW31198   0.920   4.597  10.461 -0.3039  0.3635 -0.1350
 6522SOL    HW131199   0.979   4.620  10.532 -0.4816 -1.7760  0.6913
 6522SOL    HW231200   0.844   4.588  10.518 -0.0084 -2.2427 -0.1734
 6523SOL     OW31201   1.189   0.557   4.471 -0.0754 -0.3456 -0.2988
 6523SOL    HW131202   1.252   0.624   4.497 -0.8427  0.4686 -0.5286
 6523SOL    HW231203   1.112   0.604   4.503  0.1311 -0.2690  0.0856
 6524SOL     OW31204   3.502   0.825   6.384  0.2258  0.1704 -0.0595
 6524SOL    HW131205   3.558   0.788   6.452 -0.1534  1.1755  0.8069
 6524SOL    HW231206   3.424   0.770   6.387  0.3561  0.0819  1.9199
 6525SOL     OW31207   2.429   4.262   8.387 -0.3312 -0.0638 -0.2230
 6525SOL    HW131208   2.513   4.260   8.340  0.7902 -0.7198  1.7993
 6525SOL    HW231209   2.426   4.356   8.402  1.1045  0.4148 -2.8333
 6526SOL     OW31210   2.856   0.243  13.406 -0.2639 -0.3873 -0.3978
 6526SOL    HW131211   2.771   0.288  13.402 -0.4470 -0.6210  1.1127
 6526SOL    HW231212   2.846   0.159  13.449  1.8352 -0.2171  0.4122
 6527SOL     OW31213   0.852   1.751   8.314 -0.2742 -0.2448  0.4564
 6527SOL    HW131214   0.779   1.808   8.338 -0.8009 -1.7971  2.5528
 6527SOL    HW231215   0.900   1.753   8.397 -1.1441 -0.4047  0.9685
 6528SOL     OW31216   4.306   3.853   0.842 -0.1516  0.4601  0.0346
 6528SOL    HW131217   4.379   3.815   0.792  0.2849 -1.8297  2.4075
 6528SOL    HW231218   4.348   3.854   0.928 -0.6418 -1.4082  0.2884
 6529SOL     OW31219   2.481   0.259   1.964 -0.0902  0.3964  0.0458
 6529SOL    HW131220   2.476   0.176   2.011  0.7093 -0.5550 -1.5142
 6529SOL    HW231221   2.499   0.223   1.877 -2.1081 -2.1629  0.6675
 6530SOL     OW31222   4.197   2.430   0.913  0.8219  0.2065  0.0151
 6530SOL    HW131223   4.291   2.425   0.893  0.8035  1.3666 -0.4257
 6530SOL    HW231224   4.162   2.347   0.883 -1.0481  0.5672  1.2012
 6531SOL     OW31225   0.256   2.836   6.010  0.5488  0.2294  0.2375
 6531SOL    HW131226   0.192   2.765   6.001 -2.6095  2.9744  1.0638
 6531SOL    HW231227   0.225   2.884   6.086  0.2846  0.6713 -0.1534
 6532SOL     OW31228   2.123   3.117   8.070 -0.1299  0.0044 -0.0009
 6532SOL    HW131229   2.047   3.063   8.089 -1.1564  1.5967  0.4182
 6532SOL    HW231230   2.078   3.202   8.070 -1.1053 -0.5059  1.6045
 6533SOL     OW31231   0.874   0.579   1.284  0.6628 -0.4554  0.2066
 6533SOL    HW131232   0.940   0.637   1.322 -0.3397  1.1480 -0.4469
 6533SOL    HW231233   0.796   0.635   1.296  1.8316  0.8559  1.6888
 6534SOL     OW31234   3.765   2.717   1.345  0.3552 -0.1663 -0.5253
 6534SOL    HW131235   3.710   2.747   1.272  1.0563  0.3830 -0.8246
 6534SOL    HW231236   3.704   2.653   1.382  0.4261  0.2306  0.2807
 6535SOL     OW31237   1.930   0.811   6.298 -0.3809 -0.3421 -0.2668
 6535SOL    HW131238   1.983   0.836   6.222 -0.9086  0.5545 -0.3430
 6535SOL    HW231239   1.855   0.869   6.281 -1.2946 -1.9958 -1.8471
 6536SOL     OW31240   3.156   1.229   3.592 -0.2964 -0.3150  0.2674
 6536SOL    HW131241   3.144   1.139   3.564 -0.0534  0.3274 -1.9181
 6536SOL    HW231242   3.082   1.270   3.547 -1.6279 -0.2747  2.4821
 6537SOL     OW31243   1.511   0.064  13.205 -0.2345  0.1430 -0.1546
 6537SOL    HW131244   1.542   0.049  13.295  0.5979  0.7419 -0.3424
 6537SOL    HW231245   1.564   0.011  13.146  0.7792 -0.1972  1.0508
 6538SOL     OW31246   2.526   0.398   9.785 -0.1962 -0.6911  0.1915
 6538SOL    HW131247   2.587   0.401   9.711 -0.2128 -0.9231  0.1698
 6538SOL    HW231248   2.447   0.371   9.736 -1.6743  0.8943  1.7257
 6539SOL     OW31249   1.184   1.808   1.503 -0.0864  0.7275  0.2947
 6539SOL    HW131250   1.114   1.743   1.498 -2.3595  3.3280 -1.9259
 6539SOL    HW231251   1.129   1.887   1.499 -1.8385 -0.4861  0.6222
 6540SOL     OW31252   1.728   0.039   8.840  0.1769 -0.0682 -0.3158
 6540SOL    HW131253   1.689   4.706   8.789 -0.1260 -0.2070  0.1075
 6540SOL    HW231254   1.725   0.011   8.931 -0.6673  0.0511 -0.3066
 6541SOL     OW31255   2.810   4.363  11.771  0.8800  0.4819 -0.1297
 6541SOL    HW131256   2.735   4.306  11.754  2.0299 -1.3330  0.8787
 6541SOL    HW231257   2.852   4.320  11.846  0.4058  0.0306 -0.1213
 6542SOL     OW31258   4.400   2.523  12.881  0.4713  0.3483 -0.0420
 6542SOL    HW131259   4.372   2.506  12.791  0.6369 -2.9350  0.5152
 6542SOL    HW231260   4.411   2.617  12.867  0.5169  0.1504 -1.3909
 6543SOL     OW31261   1.013   0.590   2.970  0.4350  0.5757 -0.0686
 6543SOL    HW131262   1.097   0.574   3.012  1.6556  2.9137 -1.5959
 6543SOL    HW231263   1.037   0.646   2.896  1.0077  0.3584 -0.0508
 6544SOL     OW31264   3.039   4.524   3.358 -0.2426 -0.4918  0.1428
 6544SOL    HW131265   3.012   4.473   3.434 -0.7246  0.0900  0.3640
 6544SOL    HW231266   2.984   4.483   3.291  0.7741  0.6141 -1.3732
 6545SOL     OW31267   2.777   2.109   7.894  0.0345  0.0497  0.2275
 6545SOL    HW131268   2.743   2.196   7.914  0.7582  0.0042  1.6426
 6545SOL    HW231269   2.709   2.064   7.843  0.7169 -2.5054  1.5580
 6546SOL     OW31270   0.973   0.397   9.538 -0.3951 -0.5758 -0.4117
 6546SOL    HW131271   0.910   0.466   9.562 -0.0424  0.2455 -1.8537
 6546SOL    HW231272   1.058   0.439   9.538 -0.7768  0.1974  0.1921
 6547SOL     OW31273   3.683   2.426   7.476 -0.5827 -0.0021  0.4579
 6547SOL    HW131274   3.625   2.386   7.412 -1.9233  1.7032  0.5947
 6547SOL    HW231275   3.687   2.363   7.547  1.4167  1.3577  1.5514
 6548SOL     OW31276   2.857   0.068   7.968 -0.2076  0.1319  0.1164
 6548SOL    HW131277   2.832   0.155   7.936  1.4307  1.4793  2.4963
 6548SOL    HW231278   2.792   0.053   8.036  0.3419  1.2279  0.8865
 6549SOL     OW31279   3.430   2.549   0.815 -0.0205 -0.5146 -0.1442
 6549SOL    HW131280   3.428   2.572   0.722 -1.0811  1.7677  0.4413
 6549SOL    HW231281   3.456   2.459   0.833  1.4120 -0.4985 -2.1432
 6550SOL     OW31282   3.844   4.661   7.680 -0.5518 -0.2075  0.1426
 6550SOL    HW131283   3.924   4.664   7.628 -0.1457  0.4618  0.8021
 6550SOL    HW231284   3.800   4.577   7.675 -1.4394  0.4042 -2.2066
 6551SOL     OW31285   2.200   3.691   3.703  0.0914  0.5443 -0.3425
 6551SOL    HW131286   2.183   3.785   3.708 -0.9873  0.3392 -0.1782
 6551SOL    HW231287   2.260   3.678   3.775  1.6259 -2.2150 -2.1182
 6552SOL     OW31288   1.452   1.543   1.885  0.0864 -0.1491  0.0640
 6552SOL    HW131289   1.495   1.618   1.926 -1.2593  0.5900  0.1299
 6552SOL    HW231290   1.483   1.474   1.943  3.0308 -0.0110 -1.3362
 6553SOL     OW31291   3.553   0.478   4.516 -0.3646  0.0644 -0.7112
 6553SOL    HW131292   3.558   0.386   4.543 -0.1570 -0.8498 -3.8089
 6553SOL    HW231293   3.573   0.524   4.597 -0.8767  0.9783 -1.1001
 6554SOL     OW31294   4.049   1.002  10.977 -0.1012 -0.4923  0.2844
 6554SOL    HW131295   4.084   1.035  11.060 -2.7516  2.0745  0.3816
 6554SOL    HW231296   3.954   1.011  10.986 -0.1008 -1.6263  1.3665
 6555SOL     OW31297   1.505   2.242   6.320 -0.0085  0.3800  0.1251
 6555SOL    HW131298   1.536   2.173   6.380  0.8131 -0.6211 -1.4406
 6555SOL    HW231299   1.442   2.197   6.265 -0.7620  0.9256  0.5430
 6556SOL     OW31300   3.528   0.441   2.607 -0.1252 -0.1212  0.0493
 6556SOL    HW131301   3.440   0.477   2.596  1.3843  3.2826 -1.1605
 6556SOL    HW231302   3.527   0.400   2.693 -2.7310 -0.6523 -0.2486
 6557SOL     OW31303   3.797   4.359  17.104 -0.2564 -0.3995  0.6372
 6557SOL    HW131304   3.733   4.302  17.060 -0.2205 -0.3019  0.4585
 6557SOL    HW231305   3.829   4.301  17.173  0.0924  0.1368  0.9227
 6558SOL     OW31306   0.660   1.059   3.447  0.5677 -0.0255  0.4686
 6558SOL    HW131307   0.647   1.043   3.540  3.0085 -1.5397  0.5407
 6558SOL    HW231308   0.576   1.104   3.443  0.6744  0.4346  3.0597
 6559SOL     OW31309   4.548   0.532   4.319  0.2331 -0.2005 -0.7684
 6559SOL    HW131310   4.472   0.571   4.362  0.2901  0.4162 -1.2240
 6559SOL    HW231311   4.540   0.543   4.224 -1.6076 -1.9352 -0.8192
 6560SOL     OW31312   0.453   3.426   6.618 -0.2360  0.2317 -0.3824
 6560SOL    HW131313   0.437   3.389   6.531  1.2115  1.5053 -1.1982
 6560SOL    HW231314   0.540   3.462   6.599  0.8163 -2.1247 -0.0555
 6561SOL     OW31315   4.460   2.869   3.420  0.7148  0.3997 -0.6143
 6561SOL    HW131316   4.516   2.796   3.448  0.6532  0.7779  0.5028
 6561SOL    HW231317   4.480   2.853   3.328  0.4600 -0.3033 -0.5476
 6562SOL     OW31318   2.759   2.394   9.077 -0.4254  0.0069  0.7291
 6562SOL    HW131319   2.793   2.310   9.045 -0.6497  0.8251 -1.7088
 6562SOL    HW231320   2.742   2.436   8.992  1.6096  1.8857  1.2624
 6563SOL     OW31321   4.707   3.237   0.264 -0.0249 -0.0273 -0.2527
 6563SOL    HW131322   4.640   3.172   0.240  0.3748 -0.8194  0.7642
 6563SOL    HW231323   0.042   3.189   0.227 -0.4531  0.6518 -1.9555
 6564SOL     OW31324   3.707   0.195   2.596  0.4127 -0.1296 -0.4806
 6564SOL    HW131325   3.666   0.278   2.622  0.0224 -1.4749  3.2274
 6564SOL    HW231326   3.735   0.176   2.686  3.8360  3.7380 -0.7196
 6565SOL     OW31327   1.116   2.655   5.218  0.2133 -0.0837  0.2845
 6565SOL    HW131328   1.030   2.656   5.260  0.0043  3.0927 -0.2079
 6565SOL    HW231329   1.087   2.649   5.127 -0.5434 -1.2986  0.6046
 6566SOL     OW31330   2.861   3.381   2.625  0.4890  0.4536 -0.5793
 6566SOL    HW131331   2.943   3.406   2.669 -0.1986  1.6813 -0.0114
 6566SOL    HW231332   2.802   3.450   2.655  0.4570 -0.6290  1.8219
 6567SOL     OW31333   1.061   2.316   5.679 -0.0854 -0.2766 -0.3647
 6567SOL    HW131334   0.984   2.370   5.694 -0.3826 -0.4552 -1.2156
 6567SOL    HW231335   1.131   2.381   5.685 -1.2518  0.7883  1.6492
 6568SOL     OW31336   3.123   3.515   2.598 -0.3010  0.4263  0.7544
 6568SOL    HW131337   3.090   3.500   2.509  0.4657 -0.8339  0.6785
 6568SOL    HW231338   3.212   3.549   2.590 -0.9083  1.9773  0.6226
 6569SOL     OW31339   1.933   4.332   6.175  0.4460 -0.1486 -0.2715
 6569SOL    HW131340   2.011   4.318   6.121 -1.4674  1.4730 -3.4498
 6569SOL    HW231341   1.964   4.273   6.245 -0.2407  1.4095  1.3469
 6570SOL     OW31342   3.860   2.149   4.546 -0.0240 -0.2717  0.5091
 6570SOL    HW131343   3.846   2.216   4.479 -1.9562  1.8649  3.0862
 6570SOL    HW231344   3.817   2.184   4.624  0.5593 -1.8746  1.5584
 6571SOL     OW31345   0.338   4.136  14.372 -0.0747  0.1583 -0.3034
 6571SOL    HW131346   0.378   4.172  14.451 -1.3067  0.0872  0.3480
 6571SOL    HW231347   0.378   4.049  14.368  0.4980  0.5273 -2.7671
 6572SOL     OW31348   2.394   3.095   0.053 -0.6834 -0.5706  0.2074
 6572SOL    HW131349   2.477   3.131   0.085 -1.6405  1.6608  0.1851
 6572SOL    HW231350   2.382   3.154  17.729  2.2419 -0.8860 -0.5061
 6573SOL     OW31351   3.493   4.123  15.873  0.4180  0.3608 -0.4712
 6573SOL    HW131352   3.431   4.176  15.823  1.3959  0.9271 -1.0841
 6573SOL    HW231353   3.546   4.187  15.921 -0.7664  0.5164  0.6170
 6574SOL     OW31354   3.829   3.315   4.844 -0.0230  0.1539  0.6375
 6574SOL    HW131355   3.867   3.389   4.891  0.4364  2.5406 -3.4508
 6574SOL    HW231356   3.896   3.306   4.776 -0.9939 -0.0995 -0.2896
 6575SOL     OW31357   2.772   3.980   4.100 -0.2843 -0.4068 -0.3624
 6575SOL    HW131358   2.834   4.053   4.099  0.2817 -0.8746  0.5883
 6575SOL    HW231359   2.826   3.910   4.137 -0.7927 -0.3730  0.4589
 6576SOL     OW31360   1.413   4.002   0.772  0.0149 -0.5668  0.2258
 6576SOL    HW131361   1.464   3.996   0.691  0.3152  1.3962  0.2840
 6576SOL    HW231362   1.408   3.910   0.798 -0.9225 -0.8390 -0.9024
 6577SOL     OW31363   4.617   0.435  16.636 -0.3361 -0.3739  0.1178
 6577SOL    HW131364   4.640   0.359  16.690 -2.8918 -1.5873 -0.5198
 6577SOL    HW231365   4.664   0.506  16.681  0.0578 -1.4545  1.4217
 6578SOL     OW31366   4.639   1.308   8.533 -0.2508  0.3112 -0.3332
 6578SOL    HW131367   4.591   1.309   8.616  2.2379 -1.2317  1.1738
 6578SOL    HW231368   4.701   1.379   8.549  1.8321 -1.5518 -0.0329
 6579SOL     OW31369   0.868   1.654  14.923 -0.0243 -0.6438  0.0941
 6579SOL    HW131370   0.863   1.743  14.887 -1.7777 -0.3991  0.9405
 6579SOL    HW231371   0.939   1.667  14.987 -0.2143 -0.8704  0.3476
 6580SOL     OW31372   0.154   1.487  17.470  0.2079  0.0279 -0.4614
 6580SOL    HW131373   0.195   1.528  17.546 -1.0820 -1.4663  1.0523
 6580SOL    HW231374   0.212   1.412  17.470  0.4729  0.2309  0.4001
 6581SOL     OW31375   3.552   0.301  10.233  0.3027  0.6810 -0.5295
 6581SOL    HW131376   3.620   0.237  10.255 -1.3994 -1.1434 -0.5273
 6581SOL    HW231377   3.492   0.313  10.306 -0.0824  0.2716 -0.7718
 6582SOL     OW31378   2.483   0.068   5.935  0.0935  0.4502 -0.3866
 6582SOL    HW131379   2.497   0.020   6.016  1.9389  1.4437 -0.1346
 6582SOL    HW231380   2.552   0.039   5.875  1.3107  2.5764  0.0176
 6583SOL     OW31381   4.130   4.245   2.671 -0.5029  0.1017 -0.4253
 6583SOL    HW131382   4.112   4.236   2.578 -2.1801  1.2292 -0.2157
 6583SOL    HW231383   4.041   4.237   2.707 -0.3114 -0.5418 -0.1004
 6584SOL     OW31384   0.056   0.190   5.423  0.4768  0.1476  0.0937
 6584SOL    HW131385   0.092   0.104   5.400 -1.3902 -0.6965  0.3840
 6584SOL    HW231386   4.720   0.165   5.477  1.4324 -4.0592 -0.5203
 6585SOL     OW31387   2.210   0.628   7.908 -0.7584  0.1006  0.3580
 6585SOL    HW131388   2.187   0.706   7.958  1.0564  0.0664  1.2070
 6585SOL    HW231389   2.236   0.670   7.825 -0.0032 -0.5148  0.2838
 6586SOL     OW31390   2.389   2.959   2.252  0.7563 -0.4053 -0.0258
 6586SOL    HW131391   2.409   3.036   2.199  1.9434 -0.1765  0.7510
 6586SOL    HW231392   2.376   2.899   2.178  1.6482  1.5886 -1.7848
 6587SOL     OW31393   2.854   0.009  15.734  0.3399 -0.1486 -0.2332
 6587SOL    HW131394   2.890   4.705  15.812 -1.1606  0.6590  0.9123
 6587SOL    HW231395   2.903   4.710  15.660  0.7251 -1.8082  0.8537
 6588SOL     OW31396   3.448   0.148   4.180  0.0014 -0.2531  0.5632
 6588SOL    HW131397   3.484   0.114   4.261 -0.9594 -1.0299  0.6727
 6588SOL    HW231398   3.485   0.235   4.191  1.7196 -0.8449 -0.5004
 6589SOL     OW31399   0.265   3.687   2.674 -0.2692  0.1709  0.1669
 6589SOL    HW131400   0.219   3.656   2.596 -2.1082  1.0972  0.8833
 6589SOL    HW231401   0.262   3.783   2.667  0.6776  0.2944  1.5568
 6590SOL     OW31402   4.349   0.786   8.799 -0.3386  0.3165 -0.5666
 6590SOL    HW131403   4.318   0.716   8.741  0.6059 -0.3454 -0.2797
 6590SOL    HW231404   4.272   0.842   8.810  0.2256  1.1952 -1.1389
 6591SOL     OW31405   0.926   3.117   6.839 -0.1085  0.0368  0.1852
 6591SOL    HW131406   0.904   3.031   6.803  0.0927 -0.7966  2.0460
 6591SOL    HW231407   0.839   3.138   6.873 -0.3276 -0.0155 -0.3375
 6592SOL     OW31408   1.568   2.695  11.088  1.0684  0.1867  0.6607
 6592SOL    HW131409   1.650   2.737  11.115  1.7803 -0.4274 -0.5340
 6592SOL    HW231410   1.563   2.645  11.169  1.1817  0.1312  0.6332
 6593SOL     OW31411   4.299   4.405   9.053 -0.5544 -0.3853 -0.3564
 6593SOL    HW131412   4.287   4.360   9.137  1.2333  0.2784  0.2516
 6593SOL    HW231413   4.312   4.496   9.079 -1.3082 -0.7310  1.2435
 6594SOL     OW31414   4.735   3.694   6.823  0.0040 -0.4531  0.0079
 6594SOL    HW131415   4.701   3.670   6.909  1.3092 -0.2817  0.5700
 6594SOL    HW231416   0.073   3.636   6.811 -0.2730 -0.8505  0.1546
 6595SOL     OW31417   4.392   4.274   9.300  0.0745 -0.1683  0.0453
 6595SOL    HW131418   4.486   4.285   9.289 -0.1977  0.1010 -2.1274
 6595SOL    HW231419   4.374   4.308   9.387  1.4126  1.0849 -0.1753
 6596SOL     OW31420   1.070   0.605   1.006 -0.1662 -0.4356  0.0614
 6596SOL    HW131421   1.069   0.700   1.012 -1.2151 -0.4939  0.7842
 6596SOL    HW231422   1.152   0.589   1.054 -0.2487 -1.0592 -0.0014
 6597SOL     OW31423   0.858   2.978   1.272  0.3476 -0.0682 -0.1014
 6597SOL    HW131424   0.785   2.916   1.274  1.1614 -1.0018  0.1016
 6597SOL    HW231425   0.826   3.034   1.201  1.6719 -1.1229 -1.5152
 6598SOL     OW31426   1.736   3.672   5.528 -0.6724  0.1606 -0.6274
 6598SOL    HW131427   1.753   3.764   5.548 -1.1526  0.7972 -3.1260
 6598SOL    HW231428   1.740   3.681   5.433 -0.8543  0.8106 -0.5726
 6599SOL     OW31429   4.715   0.962   9.785  0.1783 -0.1038 -0.1360
 6599SOL    HW131430   0.057   0.986   9.737  0.2137 -0.3189 -0.1822
 6599SOL    HW231431   4.645   1.017   9.748 -0.0638  1.3399  2.4748
 6600SOL     OW31432   3.808   2.446   6.781 -0.3100 -0.3811  0.0198
 6600SOL    HW131433   3.715   2.465   6.795  0.0591  1.5008 -0.0627
 6600SOL    HW231434   3.804   2.352   6.801 -2.1014 -0.5090 -0.8948
 6601SOL     OW31435   0.554   3.912  13.363 -0.0909 -0.0029 -0.0969
 6601SOL    HW131436   0.636   3.928  13.409  0.2992  0.7430 -1.0739
 6601SOL    HW231437   0.555   3.989  13.306 -0.1594 -1.0019 -1.4479
 6602SOL     OW31438   4.100   2.898  15.482  0.3248  0.4701  0.2439
 6602SOL    HW131439   4.116   2.992  15.467  1.3928  0.2999  0.3505
 6602SOL    HW231440   4.064   2.875  15.396 -1.9134  1.5885  0.8883
 6603SOL     OW31441   0.169   2.820   8.569  0.0845 -0.5971  0.5282
 6603SOL    HW131442   0.189   2.908   8.602 -1.6311 -0.6156  1.6398
 6603SOL    HW231443   0.082   2.833   8.530 -1.2457 -3.6358  2.5315
 6604SOL     OW31444   2.999   1.869   8.902  0.3112  0.0987 -0.1828
 6604SOL    HW131445   3.061   1.907   8.840 -1.0604  1.5510 -0.6381
 6604SOL    HW231446   3.012   1.928   8.976  0.4086  0.1455 -0.2367
 6605SOL     OW31447   0.004   3.483   2.047  0.1289 -0.0474  0.1916
 6605SOL    HW131448   0.069   3.436   2.099  0.2565 -0.0302  0.0469
 6605SOL    HW231449   0.006   3.433   1.966  1.6349  1.8403 -0.9198
 6606SOL     OW31450   0.429   0.734   5.700 -0.4235 -0.6115 -0.1088
 6606SOL    HW131451   0.427   0.792   5.623 -0.8381  0.6103  0.8212
 6606SOL    HW231452   0.494   0.668   5.677 -0.0378  0.2723 -1.5945
 6607SOL     OW31453   1.820   1.342   9.048  0.1146  0.2214  0.1494
 6607SOL    HW131454   1.893   1.360   9.108 -0.4172 -2.1890  1.4972
 6607SOL    HW231455   1.860   1.321   8.964  0.8185 -1.2398  0.8600
 6608SOL     OW31456   2.162   4.146   4.988 -0.1923 -0.3051  1.1122
 6608SOL    HW131457   2.216   4.177   5.060  0.6765  1.0546 -0.1148
 6608SOL    HW231458   2.182   4.053   4.993 -0.4191 -0.3402  1.3394
 6609SOL     OW31459   2.710   4.122   7.958 -0.3412 -0.1618 -0.6440
 6609SOL    HW131460   2.707   4.053   7.892  1.4223 -1.5368  0.7234
 6609SOL    HW231461   2.792   4.103   8.004  0.0341 -1.5607 -1.8845
 6610SOL     OW31462   1.049   1.818   7.679 -0.2116 -0.1769 -0.0362
 6610SOL    HW131463   0.993   1.879   7.727  1.8944  1.7265 -0.0223
 6610SOL    HW231464   1.132   1.857   7.705  0.8554 -2.8554  0.5580
 6611SOL     OW31465   0.065   1.225  16.793 -0.1419  0.8945 -0.0074
 6611SOL    HW131466   0.043   1.266  16.877 -0.5574 -0.8254  0.7071
 6611SOL    HW231467   0.094   1.140  16.824 -1.4437  0.1094 -0.9550
 6612SOL     OW31468   4.205   3.876   6.767 -0.1851  0.6784  0.1893
 6612SOL    HW131469   4.245   3.814   6.706  1.0944  0.6094  1.0948
 6612SOL    HW231470   4.133   3.825   6.803  2.2387 -0.3854  3.5322
 6613SOL     OW31471   1.277   4.660   6.512  0.1242  0.1443 -0.3828
 6613SOL    HW131472   1.271   4.603   6.436  1.8738 -0.4774 -0.0603
 6613SOL    HW231473   1.276   4.595   6.583  1.4555  1.6316  1.0039
 6614SOL     OW31474   4.609   1.392   2.905 -0.0048 -0.5436 -0.5030
 6614SOL    HW131475   4.615   1.310   2.856 -0.2208  1.1142 -3.3488
 6614SOL    HW231476   4.620   1.455   2.833  2.8405  1.1746  1.4302
 6615SOL     OW31477   3.947   2.272  13.091  0.4468 -0.6773 -0.2324
 6615SOL    HW131478   3.902   2.190  13.114 -0.3922 -0.4877 -1.2314
 6615SOL    HW231479   4.023   2.269  13.149  1.0685  0.8597 -0.9893
 6616SOL     OW31480   1.144   2.606  10.076  0.0472 -0.6250 -0.3028
 6616SOL    HW131481   1.127   2.580   9.986 -0.1904  0.4409 -0.5621
 6616SOL    HW231482   1.174   2.524  10.116 -0.7074 -0.4794  0.5662
 6617SOL     OW31483   1.531   0.803   7.024  0.4624  0.4375 -0.0994
 6617SOL    HW131484   1.478   0.882   7.031  1.2980  1.0781 -1.0805
 6617SOL    HW231485   1.592   0.791   7.097  1.1460 -0.8470 -0.8786
 6618SOL     OW31486   3.162   3.131   7.773  0.6138 -0.3158 -0.2599
 6618SOL    HW131487   3.103   3.194   7.732 -0.5281 -0.7408  0.7226
 6618SOL    HW231488   3.106   3.056   7.752  0.9341 -0.8130  0.6543
 6619SOL     OW31489   2.889   3.465  12.403 -0.7355  0.0672 -0.2971
 6619SOL    HW131490   2.924   3.511  12.327  0.9121  2.7258  2.0422
 6619SOL    HW231491   2.814   3.518  12.432 -1.7408 -2.0452  0.9419
 6620SOL     OW31492   1.472   2.747   4.304 -0.4957 -0.3232 -0.1540
 6620SOL    HW131493   1.516   2.680   4.252  1.9012  1.8462 -0.9027
 6620SOL    HW231494   1.416   2.795   4.244 -2.5200 -0.7655  1.3764
 6621SOL     OW31495   1.432   0.825  10.757  0.2024  0.6207  1.0596
 6621SOL    HW131496   1.377   0.865  10.824 -1.2729 -1.1418  0.8976
 6621SOL    HW231497   1.399   0.735  10.761  2.6218 -0.2557  1.3015
 6622SOL     OW31498   0.534   1.992   7.421 -0.3208  0.0684  0.0495
 6622SOL    HW131499   0.461   2.053   7.413  0.5832  1.2219  0.8098
 6622SOL    HW231500   0.503   1.902   7.407 -3.4299  1.3853 -1.3631
 6623SOL     OW31501   1.559   3.872   5.206 -0.0023 -0.1889  0.1662
 6623SOL    HW131502   1.545   3.910   5.292 -0.9597 -0.5512  0.1649
 6623SOL    HW231503   1.634   3.924   5.176  0.9337 -0.3254  2.2339
 6624SOL     OW31504   2.522   3.921   5.493 -0.4688  0.3387 -0.5597
 6624SOL    HW131505   2.576   3.851   5.531 -1.9511 -2.1018 -2.9815
 6624SOL    HW231506   2.552   3.926   5.403  1.1807  0.4517 -0.0033
 6625SOL     OW31507   1.856   3.027   2.092 -0.0433 -0.0311 -0.0254
 6625SOL    HW131508   1.862   3.022   2.187 -0.1325 -2.1781 -0.1324
 6625SOL    HW231509   1.927   2.966   2.072 -0.0118 -0.5858  1.8470
 6626SOL     OW31510   2.356   2.973   0.516 -0.2847  0.3378  0.0449
 6626SOL    HW131511   2.368   2.920   0.595 -0.4247 -0.8176 -0.7071
 6626SOL    HW231512   2.280   2.932   0.475 -0.1557  0.0734  0.0655
 6627SOL     OW31513   2.360   3.594   2.313 -0.0559 -0.4612  0.0053
 6627SOL    HW131514   2.272   3.611   2.346 -0.8566 -3.0856 -0.7942
 6627SOL    HW231515   2.406   3.671   2.348  0.2321 -0.7128  0.1812
 6628SOL     OW31516   2.482   3.955   7.312  0.5043  0.0844 -0.2545
 6628SOL    HW131517   2.457   3.917   7.228 -1.6789 -1.2623  0.9972
 6628SOL    HW231518   2.426   3.914   7.379  1.0755  2.4860  1.7004
 6629SOL     OW31519   3.492   3.196  14.832  0.8135 -0.1788 -0.3583
 6629SOL    HW131520   3.423   3.261  14.848 -0.1335 -1.0929 -0.7791
 6629SOL    HW231521   3.456   3.171  14.747  0.9869  0.5785 -0.6525
 6630SOL     OW31522   3.309   3.402  17.207  0.1119  0.1231 -0.3278
 6630SOL    HW131523   3.363   3.481  17.210 -1.5978  1.3499 -1.8167
 6630SOL    HW231524   3.352   3.346  17.271 -0.3814 -0.1314 -0.2190
 6631SOL     OW31525   2.851   1.844   3.361  0.3835  0.0180  0.4153
 6631SOL    HW131526   2.923   1.836   3.424 -0.0206 -0.4928  0.8126
 6631SOL    HW231527   2.781   1.870   3.421 -1.0842 -1.2885 -0.7281
 6632SOL     OW31528   0.548   0.039   5.890 -0.1147  0.3140  0.8637
 6632SOL    HW131529   0.455   0.031   5.910 -0.2649 -0.2721 -0.0700
 6632SOL    HW231530   0.594   4.711   5.942  2.3839  0.0159 -1.7092
 6633SOL     OW31531   1.900   3.772   2.673 -0.0484  0.0609  0.2439
 6633SOL    HW131532   1.818   3.735   2.641 -0.1639  1.8456 -1.5087
 6633SOL    HW231533   1.865   3.859   2.694 -1.2704  0.4629 -3.5582
 6634SOL     OW31534   4.500   3.440   4.942  0.6152 -0.3426 -0.1046
 6634SOL    HW131535   4.467   3.465   4.856 -1.4444 -1.9437  0.2133
 6634SOL    HW231536   4.500   3.523   4.989 -0.5572  0.1385 -0.9309
 6635SOL     OW31537   4.497   0.112   3.226 -0.3677  0.3477  0.3988
 6635SOL    HW131538   4.490   0.127   3.320 -0.4037  1.9401  0.1330
 6635SOL    HW231539   4.455   0.027   3.216 -0.9969  0.5266  1.5028
 6636SOL     OW31540   0.297   1.942   0.871 -0.0690 -0.0185  0.2151
 6636SOL    HW131541   0.339   1.856   0.873  0.7160  0.3642  0.0947
 6636SOL    HW231542   0.324   1.979   0.786 -1.2155 -0.9904 -0.5680
 6637SOL     OW31543   0.514   0.601  16.213  0.3661 -0.6952 -0.5217
 6637SOL    HW131544   0.452   0.670  16.189 -0.9283 -0.6086  3.0438
 6637SOL    HW231545   0.478   0.562  16.293  0.3937 -3.3374 -1.8107
 6638SOL     OW31546   4.099   4.511  16.027 -0.7021  0.4530 -0.9660
 6638SOL    HW131547   4.084   4.430  16.076 -0.7253  0.3820 -1.0907
 6638SOL    HW231548   4.186   4.519  16.067 -1.1562 -0.1415  0.1571
 6639SOL     OW31549   2.157   2.887  15.862  0.3764  0.6720 -0.2046
 6639SOL    HW131550   2.128   2.979  15.860  1.7060  1.0991 -0.2026
 6639SOL    HW231551   2.076   2.837  15.869 -0.0054  1.2815 -0.2456
 6640SOL     OW31552   1.664   0.580   8.929  0.0094  0.5018 -0.0414
 6640SOL    HW131553   1.587   0.593   8.984 -0.4893 -1.8718 -0.1891
 6640SOL    HW231554   1.667   0.485   8.938 -0.8629  0.7540  2.8806
 6641SOL     OW31555   3.696   3.210  12.401  0.1300 -0.5385 -0.4084
 6641SOL    HW131556   3.779   3.228  12.444 -1.1816  0.2591  1.7884
 6641SOL    HW231557   3.652   3.294  12.387  2.5887  0.5386 -1.5611
 6642SOL     OW31558   3.132   4.712  10.400 -0.3129 -0.0251  1.2128
 6642SOL    HW131559   3.100   0.062  10.378  2.4984  0.6308 -0.2502
 6642SOL    HW231560   3.124   4.732  10.494  0.1145  0.6452  1.1032
 6643SOL     OW31561   3.997   3.691   6.820 -0.7309 -0.5776 -0.3325
 6643SOL    HW131562   4.016   3.638   6.742 -1.3537 -0.4439 -0.5742
 6643SOL    HW231563   3.933   3.637   6.865  1.1949  0.7827  4.0760
 6644SOL     OW31564   0.564   3.165  14.276 -0.1254  0.5995 -0.3309
 6644SOL    HW131565   0.654   3.132  14.274 -0.8330 -1.3861  1.3365
 6644SOL    HW231566   0.527   3.096  14.221  1.4451 -1.5214  1.2801
 6645SOL     OW31567   0.401   3.048   7.968  0.1506  0.8820 -0.0679
 6645SOL    HW131568   0.334   3.059   7.901 -0.9235  0.8431  1.0075
 6645SOL    HW231569   0.482   3.032   7.919 -0.1120 -1.2917  0.1910
 6646SOL     OW31570   2.551   2.889   0.941  0.2293 -0.2799  0.6035
 6646SOL    HW131571   2.608   2.959   0.907  0.4552 -0.4917  0.5400
 6646SOL    HW231572   2.538   2.920   1.030  1.7735  0.8705  0.4350
 6647SOL     OW31573   0.256   1.297  10.562 -0.6429 -0.1691  0.0391
 6647SOL    HW131574   0.245   1.265  10.651 -0.4654  1.7624  0.7374
 6647SOL    HW231575   0.350   1.285  10.548 -0.4786  1.3582 -0.1646
 6648SOL     OW31576   2.582   3.467   2.976  0.1799 -0.2997  0.2827
 6648SOL    HW131577   2.492   3.490   2.953  0.3260 -1.2244 -1.2295
 6648SOL    HW231578   2.629   3.476   2.893  1.4147  1.5549  1.2015
 6649SOL     OW31579   2.979   2.226   4.121  0.1018  0.1753 -0.0483
 6649SOL    HW131580   3.038   2.273   4.180  1.1249  0.1625 -1.0506
 6649SOL    HW231581   3.027   2.208   4.040  2.3358 -3.8051  2.1682
 6650SOL     OW31582   1.567   2.596   2.033  0.0377 -0.1708  0.0716
 6650SOL    HW131583   1.510   2.667   2.005  0.1818 -0.1147 -0.0804
 6650SOL    HW231584   1.646   2.603   1.979 -0.0617 -1.6677 -0.2585
 6651SOL     OW31585   0.146   1.674   0.487 -0.2058 -0.1116 -0.1393
 6651SOL    HW131586   0.075   1.630   0.535  0.6645  0.4335  1.6733
 6651SOL    HW231587   0.221   1.619   0.512  0.1083 -0.4049 -1.7343
 6652SOL     OW31588   2.208   2.445   7.823  0.4402 -0.2814 -0.3026
 6652SOL    HW131589   2.243   2.363   7.789  0.4386 -0.6290  0.5473
 6652SOL    HW231590   2.119   2.415   7.842  0.1507  0.2194 -0.8263
 6653SOL     OW31591   0.152   0.130  16.628 -0.0612  0.6584  0.1784
 6653SOL    HW131592   0.088   0.148  16.697 -0.2793 -2.0658  0.6871
 6653SOL    HW231593   0.233   0.173  16.657 -0.1444  0.4645  0.6975
 6654SOL     OW31594   0.081   1.985   8.059  0.4393  0.4067  0.9088
 6654SOL    HW131595   0.123   1.941   8.133  2.1183  0.9018  0.2668
 6654SOL    HW231596   0.066   1.912   7.999  0.7725  3.1158 -2.5249
 6655SOL     OW31597   0.118   1.886  15.293  0.0619 -0.7275  0.6160
 6655SOL    HW131598   0.188   1.844  15.343  0.8206 -0.2725 -0.0774
 6655SOL    HW231599   0.057   1.919  15.360  0.4294  1.9156 -0.3721
 6656SOL     OW31600   4.068   1.368   9.603 -0.1427  0.0410 -0.0416
 6656SOL    HW131601   4.085   1.274   9.605  0.1243  0.0261 -3.4024
 6656SOL    HW231602   4.133   1.413   9.657  0.4887  1.2760 -1.8441
 6657SOL     OW31603   3.278   1.521   8.818 -0.1377 -0.3519  0.2302
 6657SOL    HW131604   3.251   1.430   8.804  0.4501 -0.8693  2.5070
 6657SOL    HW231605   3.236   1.575   8.751 -1.3953  0.5915  1.7630
 6658SOL     OW31606   4.438   3.907   6.371 -0.3832 -0.0285 -0.7240
 6658SOL    HW131607   4.482   3.978   6.417 -0.2320 -0.8274  0.3595
 6658SOL    HW231608   4.388   3.955   6.304 -0.4808 -0.5501 -1.0246
 6659SOL     OW31609   0.039   0.372   5.236 -0.2252 -0.2053 -0.5529
 6659SOL    HW131610   0.026   0.324   5.317 -1.9626  1.1844 -0.0200
 6659SOL    HW231611   0.135   0.370   5.239 -0.2813 -1.3175  0.3440
 6660SOL     OW31612   1.411   1.627  10.365  0.7377  0.9534 -0.1067
 6660SOL    HW131613   1.318   1.613  10.345  0.8596 -0.0342  0.0366
 6660SOL    HW231614   1.406   1.675  10.448 -0.6300 -1.5244  1.2655
 6661SOL     OW31615   2.736   3.376   4.168 -0.1903 -0.1355  0.0656
 6661SOL    HW131616   2.772   3.419   4.090 -0.3780 -0.6494 -0.3071
 6661SOL    HW231617   2.801   3.311   4.194 -0.6392 -1.2416 -1.5823
 6662SOL     OW31618   1.795   2.877   8.410 -0.6197 -0.4369  0.1655
 6662SOL    HW131619   1.764   2.882   8.500  0.0131  0.8911  0.3018
 6662SOL    HW231620   1.818   2.968   8.392  0.8395 -1.1633 -1.7001
 6663SOL     OW31621   3.413   3.720  12.472  0.2091  0.2929  0.3941
 6663SOL    HW131622   3.491   3.674  12.442 -1.5619 -1.8240 -0.8858
 6663SOL    HW231623   3.388   3.674  12.552  1.0938 -1.5643 -0.4060
 6664SOL     OW31624   4.305   2.911   6.004 -0.3937  0.4442 -0.0941
 6664SOL    HW131625   4.357   2.841   5.962  1.9451  1.2731  1.4123
 6664SOL    HW231626   4.344   2.992   5.970  1.5084 -0.8117 -0.9671
 6665SOL     OW31627   0.169   1.321  16.552 -0.0931  0.6165 -0.5373
 6665SOL    HW131628   0.153   1.263  16.627 -1.6017  4.5869  2.2445
 6665SOL    HW231629   0.156   1.254  16.485  0.4611  1.0842 -1.1086
 6666SOL     OW31630   2.387   1.406   5.401 -0.1857  0.0873 -0.4698
 6666SOL    HW131631   2.403   1.500   5.412 -3.3061  0.4600  1.1076
 6666SOL    HW231632   2.463   1.385   5.348 -0.1500 -0.5140 -0.1798
 6667SOL     OW31633   3.680   3.789  15.330  0.2920 -0.6635 -0.0370
 6667SOL    HW131634   3.682   3.857  15.398 -0.0735 -3.3381  2.6658
 6667SOL    HW231635   3.758   3.738  15.351 -0.2292 -0.8752  1.3705
 6668SOL     OW31636   2.451   2.148   2.891 -0.3922  0.1860 -0.1096
 6668SOL    HW131637   2.518   2.102   2.942 -1.5230  0.1559  1.3411
 6668SOL    HW231638   2.461   2.093   2.814  0.3427  1.3219 -0.8223
 6669SOL     OW31639   2.589   2.654   7.741  0.2531 -0.3683 -0.5800
 6669SOL    HW131640   2.619   2.581   7.687 -0.1055 -0.9646  0.0369
 6669SOL    HW231641   2.656   2.721   7.723  0.2508  0.6268  3.1805
 6670SOL     OW31642   1.928   4.005  16.746 -0.5633  0.0191 -0.0494
 6670SOL    HW131643   1.980   3.924  16.738 -0.0274  0.3703 -0.1123
 6670SOL    HW231644   1.985   4.070  16.787 -0.5326  0.1424 -0.2892
 6671SOL     OW31645   1.230   0.864   7.888 -0.1547 -0.1024 -0.8169
 6671SOL    HW131646   1.156   0.899   7.939 -0.8152  0.0472 -1.8625
 6671SOL    HW231647   1.188   0.798   7.833 -0.3209 -1.3428  0.7814
 6672SOL     OW31648   1.616   2.178   3.181  0.2583 -0.1879 -0.2052
 6672SOL    HW131649   1.665   2.235   3.240  0.5811  0.3557 -1.0061
 6672SOL    HW231650   1.661   2.101   3.216 -2.3484 -0.5914  2.3580
 6673SOL     OW31651   2.033   0.348   6.842 -0.2576  0.2050 -0.5705
 6673SOL    HW131652   1.949   0.392   6.828 -1.1541 -1.2719  0.0883
 6673SOL    HW231653   2.029   0.296   6.762  0.1436 -0.8333  0.0897
 6674SOL     OW31654   2.839   0.822   0.082  0.0975  0.2561 -0.1780
 6674SOL    HW131655   2.751   0.826   0.122 -0.2149 -1.4636 -0.7162
 6674SOL    HW231656   2.861   0.734   0.111  2.4487  0.5677 -1.0581
 6675SOL     OW31657   4.446   2.751   9.244  0.2341 -0.5766 -0.5368
 6675SOL    HW131658   4.514   2.818   9.239  2.1728 -2.4006  1.2994
 6675SOL    HW231659   4.467   2.697   9.321  0.5432  0.4510  0.0973
 6676SOL     OW31660   2.231   4.229   8.987  0.5533  0.0928  0.1846
 6676SOL    HW131661   2.179   4.239   9.067  1.3285 -0.5785  0.7755
 6676SOL    HW231662   2.162   4.233   8.921 -1.1717 -1.7188  1.8899
 6677SOL     OW31663   3.353   1.333   7.759  0.1281  0.0616  0.3916
 6677SOL    HW131664   3.389   1.302   7.676  0.0291 -0.0638  0.3961
 6677SOL    HW231665   3.407   1.277   7.814 -1.3904 -0.6491  1.1641
 6678SOL     OW31666   2.147   2.230   9.297 -0.5003 -0.2266  0.2662
 6678SOL    HW131667   2.139   2.292   9.370  0.3742  2.0588 -1.5945
 6678SOL    HW231668   2.207   2.160   9.322  0.0453 -0.6657 -2.3090
 6679SOL     OW31669   0.062   0.440   8.715 -0.2873  0.6139 -0.2867
 6679SOL    HW131670   4.714   0.475   8.733 -0.0751  0.2551  1.4280
 6679SOL    HW231671   0.066   0.377   8.787 -0.0041  0.5529 -0.3527
 6680SOL     OW31672   4.639   2.956   6.004  0.1688 -0.6940 -0.1893
 6680SOL    HW131673   4.661   2.987   6.092 -0.9424 -1.6527  0.4273
 6680SOL    HW231674   4.601   2.873   6.031 -0.7352 -0.6017 -1.2258
 6681SOL     OW31675   3.717   0.719   8.440  0.3423  0.8456 -0.4750
 6681SOL    HW131676   3.744   0.627   8.437 -1.0622  0.3912  0.7619
 6681SOL    HW231677   3.801   0.762   8.423  2.2458 -2.4714  0.4422
 6682SOL     OW31678   2.363   1.111   6.488  0.0336  0.1204  0.4179
 6682SOL    HW131679   2.430   1.043   6.489  0.0408  0.1690  2.3667
 6682SOL    HW231680   2.392   1.160   6.565  0.7063  1.1626 -0.4963
 6683SOL     OW31681   2.127   0.995   0.549 -0.1775  0.0934 -0.0763
 6683SOL    HW131682   2.220   1.014   0.535 -0.2868  0.3592 -0.4330
 6683SOL    HW231683   2.115   1.042   0.632  0.9295  1.0799 -0.4756
 6684SOL     OW31684   0.534   4.653   6.822 -0.1941 -0.4619 -0.4001
 6684SOL    HW131685   0.472   4.683   6.888 -0.3428 -0.1303 -0.6946
 6684SOL    HW231686   0.501   4.567   6.797 -1.7710  0.1610 -0.4340
 6685SOL     OW31687   4.578   0.918   8.536 -0.2745 -0.5514 -0.3686
 6685SOL    HW131688   4.661   0.963   8.520 -0.6212  0.1266 -0.2695
 6685SOL    HW231689   4.594   0.866   8.615  2.8708 -1.3647 -1.5749
 6686SOL     OW31690   4.401   0.674   7.268  0.2355  0.6537 -0.2865
 6686SOL    HW131691   4.443   0.691   7.352 -2.1072  0.3202  0.9597
 6686SOL    HW231692   4.309   0.693   7.286 -0.2189 -0.9825 -0.8957
 6687SOL     OW31693   3.482   1.919  10.258 -0.2261 -0.2171 -0.1274
 6687SOL    HW131694   3.457   1.945  10.170 -0.7325 -0.3106 -0.0140
 6687SOL    HW231695   3.552   1.854  10.252  1.1836  1.2562  0.5904
 6688SOL     OW31696   4.149   1.556  14.605 -0.6012  0.0687 -0.2664
 6688SOL    HW131697   4.173   1.465  14.589 -1.4903 -0.3834  0.9965
 6688SOL    HW231698   4.078   1.541  14.666  0.1314  1.2181  0.8730
 6689SOL     OW31699   4.670   3.049   5.378 -0.3605 -0.1325  0.1127
 6689SOL    HW131700   4.580   3.041   5.347 -0.4111 -2.0236  0.7385
 6689SOL    HW231701   4.709   3.129   5.343 -2.1221  2.0953  3.2459
 6690SOL     OW31702   4.455   3.445  13.529 -0.1861 -0.3212 -0.5645
 6690SOL    HW131703   4.518   3.373  13.520  1.0356  0.5185  1.2961
 6690SOL    HW231704   4.450   3.471  13.437 -1.0179  0.0967 -0.3982
 6691SOL     OW31705   2.387   1.565   4.513  0.2392 -0.2271  0.0791
 6691SOL    HW131706   2.347   1.631   4.570 -0.6167  0.0408 -0.8392
 6691SOL    HW231707   2.312   1.539   4.460 -0.4228  0.8395  0.4962
 6692SOL     OW31708   0.994   1.039  15.050  0.1895 -0.1030 -0.1347
 6692SOL    HW131709   0.997   1.130  15.081  0.6318  0.3061 -1.3897
 6692SOL    HW231710   0.971   0.991  15.130  1.1560  0.6472  0.5825
 6693SOL     OW31711   3.556   1.804   2.451 -0.1382 -0.2360 -0.0499
 6693SOL    HW131712   3.540   1.711   2.436 -2.0307  0.2921 -1.2640
 6693SOL    HW231713   3.617   1.819   2.378  1.6495 -1.6767  1.1333
 6694SOL     OW31714   2.580   0.271  10.846  0.1875  0.5513  0.4253
 6694SOL    HW131715   2.519   0.200  10.823  0.9811 -0.1294  0.4031
 6694SOL    HW231716   2.615   0.303  10.762  3.3754 -0.3890  1.3961
 6695SOL     OW31717   2.430   3.755   4.719  0.0715 -0.3032  0.0310
 6695SOL    HW131718   2.385   3.681   4.678  0.2925  0.4309 -1.5473
 6695SOL    HW231719   2.500   3.717   4.771 -0.2836  0.0617  0.7726
 6696SOL     OW31720   0.531   1.171   5.360  0.7255  0.0937 -1.0006
 6696SOL    HW131721   0.576   1.231   5.418 -1.9064 -0.7482  1.9223
 6696SOL    HW231722   0.463   1.230   5.328 -2.2421 -1.8651  1.6976
 6697SOL     OW31723   0.471   2.568   1.860 -0.3524 -0.1468 -0.0321
 6697SOL    HW131724   0.476   2.621   1.939 -1.3400  0.0907 -0.1224
 6697SOL    HW231725   0.562   2.538   1.858 -0.4064 -0.3198  0.0645
 6698SOL     OW31726   4.619   4.168   5.459 -0.5319  0.0158  0.2015
 6698SOL    HW131727   4.540   4.168   5.512 -0.1316 -2.1456  0.7908
 6698SOL    HW231728   4.590   4.221   5.385 -2.8289 -0.3338  0.8651
 6699SOL     OW31729   3.555   3.363   8.443  0.2872 -0.2987 -0.2725
 6699SOL    HW131730   3.553   3.313   8.525 -1.3631 -0.8037 -0.6293
 6699SOL    HW231731   3.569   3.453   8.471 -2.2190  0.4570 -1.5291
 6700SOL     OW31732   0.154   4.711   4.444  0.0215  0.3832 -0.0657
 6700SOL    HW131733   0.195   0.051   4.407  1.1025  0.2386  0.8175
 6700SOL    HW231734   0.224   4.649   4.425  0.5688  1.3964 -1.3273
 6701SOL     OW31735   3.664   2.676  15.836  0.0687  1.0267 -0.0156
 6701SOL    HW131736   3.637   2.766  15.820 -0.5572  0.5822 -1.5124
 6701SOL    HW231737   3.707   2.662  15.752 -3.9109 -0.0762 -1.9223
 6702SOL     OW31738   1.938   4.625  16.946  0.1993  0.2724  0.4989
 6702SOL    HW131739   1.943   4.689  16.875  1.0697  2.0756  2.1941
 6702SOL    HW231740   1.852   4.643  16.984 -0.7891  0.4776 -1.8030
 6703SOL     OW31741   3.240   3.619   6.654 -0.1556  0.7226 -0.1529
 6703SOL    HW131742   3.147   3.597   6.654  0.0158  0.0146 -0.1406
 6703SOL    HW231743   3.233   3.714   6.657  2.0181  0.8268  2.0208
 6704SOL     OW31744   1.016   1.977   3.950  0.0028  0.1980  0.2087
 6704SOL    HW131745   1.006   1.888   3.984  1.3055  0.8900  2.3822
 6704SOL    HW231746   0.979   1.957   3.863  0.7262  0.0137 -0.0578
 6705SOL     OW31747   4.252   3.067   2.863  0.1356  0.4769 -0.0844
 6705SOL    HW131748   4.204   3.089   2.783 -1.0934  1.3464  0.8824
 6705SOL    HW231749   4.187   3.097   2.926  0.1573 -1.6649  0.9512
 6706SOL     OW31750   2.320   1.744  17.647  0.2395 -0.6420 -0.5816
 6706SOL    HW131751   2.357   1.820  17.693 -3.3386  0.3226  0.7226
 6706SOL    HW231752   2.356   1.752  17.559 -0.5142  2.0723 -0.6272
 6707SOL     OW31753   2.250   2.255  15.123  0.3652 -0.1641 -0.3813
 6707SOL    HW131754   2.271   2.330  15.178 -0.7387  1.5704 -2.3300
 6707SOL    HW231755   2.154   2.261  15.132  0.5906  3.4202 -0.5080
 6708SOL     OW31756   1.326   0.031   7.990  0.8744  0.1010  0.0265
 6708SOL    HW131757   1.245   4.724   8.012  1.8143  0.0138  3.2690
 6708SOL    HW231758   1.346   4.736   7.903  1.2790  0.8953 -0.1778
 6709SOL     OW31759   3.817   4.164  13.683 -0.2804 -0.0869 -0.2725
 6709SOL    HW131760   3.809   4.232  13.749 -1.0539  0.4604 -0.9179
 6709SOL    HW231761   3.911   4.148  13.678 -0.6228 -2.0642 -0.5064
 6710SOL     OW31762   2.944   4.327  13.834 -0.2973  0.4156 -0.1656
 6710SOL    HW131763   2.857   4.292  13.856  1.5410 -2.9041  1.7942
 6710SOL    HW231764   2.935   4.361  13.745 -1.9185  0.4207 -0.0019
 6711SOL     OW31765   0.627   4.280   7.382  0.1598 -0.2071  0.4788
 6711SOL    HW131766   0.624   4.340   7.307  0.8250  0.4513  0.9859
 6711SOL    HW231767   0.626   4.350   7.447  1.7639 -1.2134  1.5795
 6712SOL     OW31768   4.711   2.127   9.820 -0.5067  0.6684 -0.3665
 6712SOL    HW131769   4.697   2.032   9.816  1.0741  0.5056 -1.8183
 6712SOL    HW231770   0.030   2.132   9.897  0.0424 -0.3409 -0.7093
 6713SOL     OW31771   3.726   2.849  10.888 -0.0385  0.3390 -0.1034
 6713SOL    HW131772   3.723   2.831  10.982 -2.8057  2.7632  0.2911
 6713SOL    HW231773   3.800   2.910  10.887  1.7535 -1.8239  1.7598
 6714SOL     OW31774   2.932   2.958   5.997  0.1821  0.0959 -0.0436
 6714SOL    HW131775   2.941   2.987   5.906 -1.2153  1.1774  0.1656
 6714SOL    HW231776   2.838   2.938   6.000 -0.0090  1.3536  2.1002
 6715SOL     OW31777   1.279   1.637   6.183 -0.5627  0.2697  0.1989
 6715SOL    HW131778   1.184   1.630   6.178 -0.5244  0.7631 -1.0373
 6715SOL    HW231779   1.303   1.583   6.259 -0.7333 -2.8642 -1.9905
 6716SOL     OW31780   1.429   0.062  16.852  0.0114  0.4566 -0.2158
 6716SOL    HW131781   1.385   4.731  16.901  0.0271  0.1067 -0.7004
 6716SOL    HW231782   1.510   0.018  16.825  0.0443  1.6857 -2.1138
 6717SOL     OW31783   3.190   4.171   4.377  0.8268 -0.4754  0.6569
 6717SOL    HW131784   3.271   4.123   4.391  0.6439 -0.8249  0.5167
 6717SOL    HW231785   3.214   4.262   4.392 -2.0332  0.2500  0.9207
 6718SOL     OW31786   4.362   0.401   2.169 -0.0706  0.2376 -0.0618
 6718SOL    HW131787   4.387   0.446   2.250 -2.8469  0.0801  0.8660
 6718SOL    HW231788   4.402   0.459   2.105 -1.8278 -0.9244 -2.2146
 6719SOL     OW31789   1.058   2.287   6.649 -0.5056 -0.6365 -0.2192
 6719SOL    HW131790   1.115   2.300   6.573  0.9189  1.1152  1.1430
 6719SOL    HW231791   0.974   2.323   6.620 -0.5123 -0.1369  0.4109
 6720SOL     OW31792   3.367   2.915   7.455 -0.3577  0.4509  0.4753
 6720SOL    HW131793   3.403   2.893   7.541 -0.9293 -0.8995  0.3709
 6720SOL    HW231794   3.321   2.996   7.478  0.8068  1.1958  0.1498
 6721SOL     OW31795   3.069   4.411  10.820 -0.1287 -0.1877 -0.0490
 6721SOL    HW131796   3.158   4.434  10.793 -0.6221  0.9085 -0.7510
 6721SOL    HW231797   3.027   4.392  10.736 -0.3595 -0.7019  0.1878
 6722SOL     OW31798   4.126   3.651   1.174 -0.0640  0.7472 -0.2229
 6722SOL    HW131799   4.175   3.710   1.231  3.2898 -3.5724  1.3874
 6722SOL    HW231800   4.041   3.688   1.194 -1.0269 -1.8066  0.3603
 6723SOL     OW31801   0.996   1.272  10.073 -0.1632 -0.5981 -0.3155
 6723SOL    HW131802   0.938   1.318  10.013 -1.6711 -0.2650  1.3810
 6723SOL    HW231803   1.081   1.279  10.030  0.5290  2.7346  1.5791
 6724SOL     OW31804   3.197   4.593  17.404 -0.0628  0.1737 -0.0267
 6724SOL    HW131805   3.145   4.591  17.324  0.9507 -3.1260 -0.5756
 6724SOL    HW231806   3.222   4.501  17.410  2.5051  0.9063  0.6585
 6725SOL     OW31807   1.528   1.151   1.601  0.5541 -0.1599 -0.4466
 6725SOL    HW131808   1.529   1.132   1.695  0.8260 -2.9897 -1.0287
 6725SOL    HW231809   1.468   1.226   1.600 -0.4939 -0.9914  1.8871
 6726SOL     OW31810   3.898   2.245   5.652 -0.2071 -0.5855 -0.0515
 6726SOL    HW131811   3.846   2.298   5.592 -0.0163 -1.2128 -0.7546
 6726SOL    HW231812   3.974   2.299   5.677 -1.0766  1.2117 -1.3200
 6727SOL     OW31813   0.681   1.301  15.174 -0.2173 -0.5107  0.0528
 6727SOL    HW131814   0.647   1.366  15.112 -1.4390 -0.5533  0.6857
 6727SOL    HW231815   0.607   1.242  15.182 -0.8126 -0.0511 -2.0969
 6728SOL     OW31816   3.563   3.314   0.980  0.0043 -0.2020  0.4246
 6728SOL    HW131817   3.566   3.277   0.891 -1.9237  2.4425 -0.7361
 6728SOL    HW231818   3.471   3.331   0.999 -0.0277  1.6414 -1.4339
 6729SOL     OW31819   2.521   1.810   1.046  0.0503  0.6806  0.5364
 6729SOL    HW131820   2.431   1.781   1.063  1.0172 -1.3781  2.1727
 6729SOL    HW231821   2.545   1.865   1.121  0.2678 -1.3728  1.9743
 6730SOL     OW31822   0.905   3.010   4.540  0.1275 -0.3851  0.1323
 6730SOL    HW131823   0.962   3.021   4.616 -0.4153  2.0619  0.1923
 6730SOL    HW231824   0.823   3.038   4.581  0.1331 -0.4997  0.2220
 6731SOL     OW31825   4.611   0.045   1.780  0.2925 -0.7810  0.2032
 6731SOL    HW131826   4.551   0.001   1.839 -1.0098 -2.0022 -2.0504
 6731SOL    HW231827   4.557   0.111   1.736  1.8201  0.1617 -0.2914
 6732SOL     OW31828   2.260   1.546   8.688 -0.3097  0.3957  0.2360
 6732SOL    HW131829   2.181   1.520   8.639 -0.7764 -0.6789  1.5539
 6732SOL    HW231830   2.296   1.457   8.693 -2.6876 -0.4404  2.9789
 6733SOL     OW31831   2.206   0.553   3.062  0.3162  0.6219 -0.2252
 6733SOL    HW131832   2.218   0.554   3.157  1.6431 -0.2223 -0.3759
 6733SOL    HW231833   2.141   0.483   3.058  0.2209  0.6289  1.1100
 6734SOL     OW31834   1.722   1.579  15.499 -0.1921  0.4748 -0.1650
 6734SOL    HW131835   1.708   1.567  15.593 -0.7076 -0.4853 -0.3626
 6734SOL    HW231836   1.806   1.625  15.501  0.8983 -1.4750 -1.1243
 6735SOL     OW31837   3.623   3.342   3.363 -0.3007 -0.5770  0.5218
 6735SOL    HW131838   3.585   3.429   3.370 -2.5626 -1.3942 -1.5162
 6735SOL    HW231839   3.559   3.304   3.303 -0.1714 -0.9434  0.6165
 6736SOL     OW31840   3.597   1.093  15.466  0.0806 -0.0846  0.6293
 6736SOL    HW131841   3.587   1.020  15.527 -0.3822  0.3741  1.0999
 6736SOL    HW231842   3.528   1.150  15.501  0.0374  0.1792  0.1174
 6737SOL     OW31843   1.875   0.755   3.698  0.3895 -0.1701 -0.0275
 6737SOL    HW131844   1.925   0.756   3.617 -0.7721 -2.6917 -0.7559
 6737SOL    HW231845   1.781   0.761   3.679  0.5826  0.2799 -0.8546
 6738SOL     OW31846   0.730   1.534   7.684 -0.3076 -1.1950  0.1104
 6738SOL    HW131847   0.762   1.567   7.600 -0.3775 -0.2856  0.4430
 6738SOL    HW231848   0.727   1.615   7.734  0.4368 -0.0260 -1.7777
 6739SOL     OW31849   1.133   2.600   9.173  0.3877 -0.4709 -0.7763
 6739SOL    HW131850   1.140   2.505   9.167  1.1083 -0.6405  2.5850
 6739SOL    HW231851   1.063   2.614   9.109 -0.2509 -1.1080 -0.2130
 6740SOL     OW31852   0.208   3.643   3.654  0.2833 -0.1930 -0.4886
 6740SOL    HW131853   0.303   3.638   3.667  0.3585 -0.8449 -1.2582
 6740SOL    HW231854   0.205   3.738   3.661 -0.9091 -0.1917 -1.1386
 6741SOL     OW31855   3.287   4.354   3.700  0.1178  0.0305  0.9253
 6741SOL    HW131856   3.230   4.285   3.665 -0.3123  2.0683 -2.4002
 6741SOL    HW231857   3.322   4.391   3.618 -2.1381  1.0062  0.4147
 6742SOL     OW31858   2.887   3.080   4.522  0.3622 -0.1711 -0.3470
 6742SOL    HW131859   2.909   3.046   4.435  1.0338  1.7906 -0.9538
 6742SOL    HW231860   2.967   3.067   4.573 -0.3645 -2.2398  0.2686
 6743SOL     OW31861   2.722   1.824   7.750  0.0583 -0.0022  0.6127
 6743SOL    HW131862   2.627   1.828   7.738  0.4206  0.5878 -2.2309
 6743SOL    HW231863   2.751   1.809   7.660 -2.1767  0.9708 -0.2837
 6744SOL     OW31864   2.530   1.303   7.677  0.2251  0.5990  0.0748
 6744SOL    HW131865   2.608   1.335   7.722  0.0746  0.2655  0.5695
 6744SOL    HW231866   2.469   1.340   7.740 -1.5935 -2.6680  0.2440
 6745SOL     OW31867   0.942   4.254   4.436 -0.1131  0.9396 -0.0771
 6745SOL    HW131868   0.905   4.284   4.518 -0.2327 -1.1281  0.6305
 6745SOL    HW231869   1.016   4.197   4.459 -0.4655  0.3536 -0.3958
 6746SOL     OW31870   4.364   4.730   5.665 -0.1404 -0.0381  0.0522
 6746SOL    HW131871   4.278   0.030   5.647 -0.8668 -1.4175  0.6121
 6746SOL    HW231872   4.342   4.645   5.627  0.4758  0.4415 -1.3627
 6747SOL     OW31873   4.222   0.998  12.916 -0.4312  0.2751 -0.0008
 6747SOL    HW131874   4.232   1.032  12.827  1.6107  1.8632  0.8305
 6747SOL    HW231875   4.290   0.931  12.909 -1.0852 -0.5278  1.5656
 6748SOL     OW31876   0.935   1.975   7.858  0.0260 -0.5972 -0.0379
 6748SOL    HW131877   0.984   2.056   7.871 -2.0953  0.8438 -0.9625
 6748SOL    HW231878   0.861   1.975   7.919 -0.0636 -1.7604 -0.1336
 6749SOL     OW31879   1.941   0.834  11.355 -0.0824 -0.2723  0.1431
 6749SOL    HW131880   2.037   0.840  11.360  0.0274 -0.5358 -1.5915
 6749SOL    HW231881   1.909   0.890  11.426  1.9708  1.4230 -0.2599
 6750SOL     OW31882   0.797   0.079   5.435 -0.5092  0.3370 -0.2494
 6750SOL    HW131883   0.827   0.113   5.519  1.2050 -1.6089 -0.0765
 6750SOL    HW231884   0.702   0.077   5.450 -0.5781 -2.0055 -0.9526
 6751SOL     OW31885   1.258   4.382  10.228  0.3390  0.0296  0.3872
 6751SOL    HW131886   1.311   4.436  10.169  1.9160  0.2748  2.0309
 6751SOL    HW231887   1.309   4.301  10.228 -0.4092 -0.4458  0.4916
 6752SOL     OW31888   3.823   1.307  15.577  0.2508  0.2314  0.0452
 6752SOL    HW131889   3.753   1.356  15.534 -0.8159 -1.8408 -0.5609
 6752SOL    HW231890   3.802   1.221  15.541  0.2646  0.2448  0.0055
 6753SOL     OW31891   1.124   3.678   6.138 -0.1431  0.5571  0.2255
 6753SOL    HW131892   1.210   3.650   6.104  0.8067  1.3749  1.9456
 6753SOL    HW231893   1.097   3.597   6.181  0.8657  0.6742  1.0759
 6754SOL     OW31894   0.175   2.581   3.561 -0.2296  0.2382  0.2694
 6754SOL    HW131895   0.247   2.537   3.515 -0.8305 -1.3611  0.8707
 6754SOL    HW231896   0.118   2.509   3.586 -0.0334  0.3354  1.0016
 6755SOL     OW31897   1.066   3.777   6.828  0.5799 -0.2102  0.3398
 6755SOL    HW131898   1.149   3.730   6.836  0.2130 -0.7292  1.1376
 6755SOL    HW231899   1.099   3.867   6.823  1.0496 -0.4456 -0.6667
 6756SOL     OW31900   1.065   2.007  14.816 -0.8366  0.2395  0.9797
 6756SOL    HW131901   1.076   2.036  14.725  0.2842 -1.7658  0.4763
 6756SOL    HW231902   1.132   2.065  14.852 -1.7299  0.3766  2.4360
 6757SOL     OW31903   4.520   1.766   7.076 -0.3374  0.3363  0.5856
 6757SOL    HW131904   4.459   1.710   7.123 -0.8796  0.9253  0.5714
 6757SOL    HW231905   4.508   1.847   7.126  0.3390  1.3222 -0.8613
 6758SOL     OW31906   2.759   0.721   3.330 -0.1636  0.2469  0.2552
 6758SOL    HW131907   2.667   0.701   3.312  0.2420 -1.1017 -0.3882
 6758SOL    HW231908   2.752   0.773   3.409 -1.3254  0.5483 -0.0454
 6759SOL     OW31909   3.416   3.358   9.927  0.0479 -0.4662  0.1929
 6759SOL    HW131910   3.422   3.405  10.011 -0.3970  1.2820 -0.7428
 6759SOL    HW231911   3.358   3.285   9.945 -0.8114  0.8634  2.8951
 6760SOL     OW31912   0.507   4.023   7.453  0.1832 -0.2862 -0.4003
 6760SOL    HW131913   0.509   4.115   7.428  1.0865 -0.4412 -0.9185
 6760SOL    HW231914   0.583   4.028   7.512  0.1348 -1.4450 -0.2340
 6761SOL     OW31915   1.723   4.007   6.785 -0.0456 -0.0015  0.4291
 6761SOL    HW131916   1.760   4.016   6.873  1.8980  2.2048 -0.6194
 6761SOL    HW231917   1.684   3.920   6.798 -1.3461  0.5613  0.2640
 6762SOL     OW31918   0.094   1.675   3.842 -0.1675  0.4173 -0.3175
 6762SOL    HW131919   0.075   1.638   3.755  3.6205 -0.5207 -0.7329
 6762SOL    HW231920   0.012   1.646   3.882  0.2516  0.1831  0.3700
 6763SOL     OW31921   4.074   4.504   8.009  0.3878  0.2951  0.0898
 6763SOL    HW131922   4.022   4.471   8.082 -0.8730 -2.2291 -1.9278
 6763SOL    HW231923   4.018   4.489   7.933  0.2403 -0.4461  0.3430
 6764SOL     OW31924   1.813   2.341   1.620 -0.1102  0.2332 -0.0921
 6764SOL    HW131925   1.762   2.319   1.542 -1.7866 -0.7492  1.2722
 6764SOL    HW231926   1.902   2.338   1.585  0.0330  0.0757  0.2881
 6765SOL     OW31927   2.681   2.650   7.402  0.2691  0.3769  0.6523
 6765SOL    HW131928   2.699   2.562   7.370 -1.6905  0.0181  0.5225
 6765SOL    HW231929   2.757   2.671   7.456 -1.8749  2.5919  2.8121
 6766SOL     OW31930   1.110   4.487   1.499  0.1224  0.1785 -0.1787
 6766SOL    HW131931   1.078   4.560   1.552  2.2873  0.7404  0.3487
 6766SOL    HW231932   1.123   4.530   1.415  1.8767 -0.7012 -0.3399
 6767SOL     OW31933   0.142   1.040   0.482  0.2668 -0.3039 -0.2993
 6767SOL    HW131934   0.142   1.075   0.393 -1.0096 -0.9115 -0.5302
 6767SOL    HW231935   0.051   1.050   0.508  0.2005  1.7049 -1.3057
 6768SOL     OW31936   3.182   4.399  14.150  0.2495 -0.2658  0.1220
 6768SOL    HW131937   3.105   4.436  14.107  1.2341  1.1950 -0.4072
 6768SOL    HW231938   3.236   4.478  14.156  2.2985 -1.6133 -0.6503
 6769SOL     OW31939   0.119   4.167   3.912  0.0354 -0.3064 -0.0264
 6769SOL    HW131940   0.038   4.169   3.963 -0.1068  1.6629 -0.3169
 6769SOL    HW231941   0.099   4.235   3.848  0.1787 -0.0587  0.1965
 6770SOL     OW31942   0.723   3.899  16.085  0.4714 -0.2838  0.1210
 6770SOL    HW131943   0.660   3.854  16.028  0.1684  0.6163 -0.2615
 6770SOL    HW231944   0.708   3.841  16.160 -1.9337  0.9312  0.5681
 6771SOL     OW31945   3.211   3.346   4.550 -0.0547 -0.1345 -0.1687
 6771SOL    HW131946   3.195   3.263   4.596  0.2548 -0.9204 -1.4789
 6771SOL    HW231947   3.120   3.348   4.519 -0.4068 -1.0523  0.7804
 6772SOL     OW31948   2.395   3.508   0.645  0.4718  0.0004  0.6546
 6772SOL    HW131949   2.340   3.487   0.569 -1.8554  0.8531  2.1051
 6772SOL    HW231950   2.366   3.439   0.705  0.1918 -1.5883 -1.2879
 6773SOL     OW31951   2.452   3.769   9.019 -0.7672  0.2688 -0.4287
 6773SOL    HW131952   2.517   3.833   8.987  0.1827  0.6629  2.3443
 6773SOL    HW231953   2.482   3.688   8.980  0.5088  0.5714 -0.0550
 6774SOL     OW31954   3.194   0.565   7.176  0.0763 -0.6114  0.3290
 6774SOL    HW131955   3.274   0.516   7.196  0.2537 -0.6610 -0.4970
 6774SOL    HW231956   3.231   0.651   7.196 -0.5296 -0.0711 -0.8904
 6775SOL     OW31957   2.051   0.641   5.390 -0.3485  0.2518  0.6197
 6775SOL    HW131958   2.007   0.629   5.306  0.7522 -0.2966  0.1143
 6775SOL    HW231959   2.101   0.561   5.407 -0.7098  0.2768  1.7957
 6776SOL     OW31960   1.830   0.738   8.520  0.4593  0.7134 -0.4219
 6776SOL    HW131961   1.811   0.801   8.589 -0.9266  3.5001 -3.3329
 6776SOL    HW231962   1.913   0.707   8.557 -1.0376 -1.2283  1.3205
 6777SOL     OW31963   1.368   3.432   4.319 -0.1646  0.0048  0.1117
 6777SOL    HW131964   1.294   3.373   4.307 -1.1411  0.5509  3.4859
 6777SOL    HW231965   1.381   3.433   4.414  1.4693  1.1580 -0.1123
 6778SOL     OW31966   0.717   2.130   3.963  0.1508  0.2689  0.9051
 6778SOL    HW131967   0.807   2.157   3.979  0.4049  1.1687 -2.0972
 6778SOL    HW231968   0.690   2.162   3.877 -1.7908 -0.6944  1.1611
 6779SOL     OW31969   3.566   3.418   2.432  0.1209 -0.1258 -0.4760
 6779SOL    HW131970   3.518   3.431   2.350 -1.5907  2.9937  1.0543
 6779SOL    HW231971   3.656   3.446   2.416  0.7482 -0.3366  2.7413
 6780SOL     OW31972   1.733   2.949  16.511 -0.1668 -0.1630 -0.5161
 6780SOL    HW131973   1.691   2.927  16.595  4.1389 -1.4452  1.3310
 6780SOL    HW231974   1.731   2.864  16.467  1.4090 -0.2958 -0.3424
 6781SOL     OW31975   0.772   2.280  15.962 -0.2689  0.0429  0.4162
 6781SOL    HW131976   0.819   2.363  15.959 -0.6507  0.1120 -4.0678
 6781SOL    HW231977   0.826   2.239  16.029  0.2170 -2.0732 -1.2637
 6782SOL     OW31978   3.165   3.825  13.463 -0.8687  0.0306 -0.0938
 6782SOL    HW131979   3.253   3.839  13.498 -1.0556  2.2842 -0.5166
 6782SOL    HW231980   3.139   3.768  13.535  1.8089 -0.0866  0.8068
 6783SOL     OW31981   2.279   0.563  11.080 -0.6240 -0.8130 -0.7520
 6783SOL    HW131982   2.326   0.570  10.996 -0.1705  2.9877 -0.1734
 6783SOL    HW231983   2.219   0.636  11.068 -1.4525 -0.8343  3.2804
 6784SOL     OW31984   4.439   2.189  10.429  0.3080 -0.1282 -0.4130
 6784SOL    HW131985   4.388   2.173  10.508  0.0997  2.5058 -0.0297
 6784SOL    HW231986   4.369   2.204  10.366  0.2162 -0.8394 -0.4744
 6785SOL     OW31987   0.267   2.989   3.877  0.2986 -0.1399  0.2311
 6785SOL    HW131988   0.219   2.913   3.846 -0.4799  1.0514 -1.4970
 6785SOL    HW231989   0.325   3.003   3.802 -1.4800 -0.3193 -1.1692
 6786SOL     OW31990   1.318   2.148   3.506 -0.4360 -0.1124  0.6999
 6786SOL    HW131991   1.252   2.089   3.471  0.7186 -0.6847 -0.5273
 6786SOL    HW231992   1.407   2.120   3.486 -0.9030 -0.1370 -1.4110
 6787SOL     OW31993   2.437   2.039   6.917 -0.3684  0.2453  0.3352
 6787SOL    HW131994   2.377   1.970   6.889 -0.6569  1.6864 -2.5566
 6787SOL    HW231995   2.391   2.088   6.985  1.3390  1.8146  0.3645
 6788SOL     OW31996   3.557   4.138   1.884  0.0403  0.6079  0.2143
 6788SOL    HW131997   3.483   4.081   1.905 -0.0183  0.0485 -1.4668
 6788SOL    HW231998   3.518   4.220   1.913  0.5633  0.6575  0.7767
 6789SOL     OW31999   4.737   1.986  15.531 -0.6492  0.0156 -0.7359
 6789SOL    HW132000   0.031   2.050  15.594  0.5741 -1.8917  0.5516
 6789SOL    HW232001   4.690   1.920  15.581 -0.4258  0.7015  0.3645
 6790SOL     OW32002   1.049   1.321  10.344 -0.2380  0.6011 -0.1108
 6790SOL    HW132003   0.960   1.305  10.377  0.1479  0.1654  0.7192
 6790SOL    HW232004   1.028   1.322  10.251 -1.3137  1.6521  0.1327
 6791SOL     OW32005   4.210   4.130   1.065  0.3385 -0.2222  0.4444
 6791SOL    HW132006   4.232   4.173   0.983  0.9487 -0.3628  0.5359
 6791SOL    HW232007   4.133   4.080   1.038 -0.2048  1.0998 -0.4144
 6792SOL     OW32008   0.173   1.284   3.117 -0.4316  0.3622  0.6086
 6792SOL    HW132009   0.186   1.296   3.023 -1.0083 -0.0796  0.4703
 6792SOL    HW232010   0.202   1.196   3.139  1.0358  0.0627 -2.5612
 6793SOL     OW32011   3.426   4.036   5.503  0.6933  0.1363  0.3072
 6793SOL    HW132012   3.514   4.009   5.529 -0.1662 -3.4333 -0.5861
 6793SOL    HW232013   3.407   4.094   5.578  0.5339 -1.9822  1.8995
 6794SOL     OW32014   3.405   3.368   5.416  0.0572 -0.3681  0.1272
 6794SOL    HW132015   3.436   3.452   5.382  1.4411 -1.1759 -0.6306
 6794SOL    HW232016   3.479   3.310   5.397 -0.1256 -0.5913  0.0930
 6795SOL     OW32017   2.479   1.447   0.281 -0.4972  0.1281 -0.4829
 6795SOL    HW132018   2.404   1.436   0.222  1.7542 -1.7842 -2.9314
 6795SOL    HW232019   2.543   1.498   0.232 -1.0089  0.9117 -0.3276
 6796SOL     OW32020   0.923   1.613  15.252 -0.4047  0.8032  0.0777
 6796SOL    HW132021   0.917   1.689  15.311 -1.9998 -0.7391  1.9176
 6796SOL    HW232022   1.004   1.622  15.202  0.5057  0.7722  1.5340
 6797SOL     OW32023   4.122   4.259   6.285 -0.1981 -0.0402 -0.1461
 6797SOL    HW132024   4.053   4.315   6.321  0.0579 -0.2178  0.6212
 6797SOL    HW232025   4.146   4.210   6.364 -0.7528 -0.9793 -0.5462
 6798SOL     OW32026   2.204   2.578   2.390  0.2808 -0.4354 -0.4366
 6798SOL    HW132027   2.277   2.534   2.347 -1.4067 -2.3197 -1.3921
 6798SOL    HW232028   2.211   2.555   2.483  1.8071 -2.0602 -0.9665
 6799SOL     OW32029   1.313   2.220  11.730  0.3022  0.3073  0.3893
 6799SOL    HW132030   1.297   2.131  11.699  1.1268  0.0004  0.8762
 6799SOL    HW232031   1.253   2.273  11.676  0.6524 -1.1965 -1.4698
 6800SOL     OW32032   0.833   2.466   2.618  0.4118 -0.9360  0.3243
 6800SOL    HW132033   0.760   2.529   2.619  0.5250 -0.7963 -0.1462
 6800SOL    HW232034   0.792   2.387   2.584 -0.3651 -0.2324 -0.4023
 6801SOL     OW32035   1.593   0.059   6.102  0.1810  0.2298 -0.1987
 6801SOL    HW132036   1.528   4.738   6.141  2.8591 -2.1095  0.6650
 6801SOL    HW232037   1.642   0.081   6.181  0.1489  0.1911 -0.1674
 6802SOL     OW32038   3.903   2.719   7.544  0.2436 -0.2023  0.7772
 6802SOL    HW132039   3.858   2.760   7.471 -0.0483  1.8863  2.1304
 6802SOL    HW232040   3.859   2.765   7.615 -1.7643 -0.2772 -0.4412
 6803SOL     OW32041   0.950   0.492   5.197  0.1437  0.7857  0.3563
 6803SOL    HW132042   0.926   0.399   5.194  1.1010  0.5347  0.4573
 6803SOL    HW232043   0.907   0.528   5.119  1.2534 -0.6520 -0.9264
 6804SOL     OW32044   0.333   3.881   3.253  0.0311  0.1438  0.1859
 6804SOL    HW132045   0.426   3.859   3.263  0.1203 -1.2380 -3.6499
 6804SOL    HW232046   0.337   3.976   3.265 -0.9563  0.3625 -1.1246
 6805SOL     OW32047   4.703   1.724   5.041  0.6550 -0.1584 -0.2852
 6805SOL    HW132048   4.657   1.659   5.095  0.1246  0.7450  0.3456
 6805SOL    HW232049   4.727   1.787   5.110  1.9856 -1.7480  0.7106
 6806SOL     OW32050   3.720   0.484   3.494  0.3328  0.0981  0.5953
 6806SOL    HW132051   3.629   0.457   3.508  0.3723  0.1381  0.9254
 6806SOL    HW232052   3.738   0.468   3.402 -2.3697  0.7287 -0.0537
 6807SOL     OW32053   1.643   4.332   3.697 -0.1946 -0.3814 -0.5018
 6807SOL    HW132054   1.607   4.405   3.647 -0.0774 -0.3601 -0.5546
 6807SOL    HW232055   1.602   4.337   3.784  0.7235  0.7093 -0.1307
 6808SOL     OW32056   2.883   3.598   5.206 -0.1003  0.5217 -0.0810
 6808SOL    HW132057   2.947   3.553   5.261  0.5785  0.7574 -0.6753
 6808SOL    HW232058   2.938   3.675   5.193 -0.6607  0.4697 -2.6231
 6809SOL     OW32059   4.612   3.591   8.962 -0.5336  0.4642 -0.4939
 6809SOL    HW132060   4.703   3.579   8.934 -0.6068 -2.1099  0.3904
 6809SOL    HW232061   4.608   3.686   8.953 -3.1485  0.2632 -1.3992
 6810SOL     OW32062   0.279   2.292   5.244  0.6131  0.0041 -0.0652
 6810SOL    HW132063   0.355   2.343   5.272  0.6585 -0.8853  1.4293
 6810SOL    HW232064   0.318   2.241   5.172  0.0347 -0.5254 -0.0018
 6811SOL     OW32065   2.260   0.766   6.596 -0.4975 -0.3332 -0.1484
 6811SOL    HW132066   2.316   0.717   6.657 -0.0876  0.7839  0.3892
 6811SOL    HW232067   2.328   0.827   6.567 -0.5031  0.6357  1.8441
 6812SOL     OW32068   4.730   0.330   3.377  0.0388 -0.3404  0.0070
 6812SOL    HW132069   0.082   0.362   3.375 -0.3179  0.7066  0.6378
 6812SOL    HW232070   0.022   0.240   3.390 -0.8036 -0.7815 -1.1369
 6813SOL     OW32071   3.427   0.395   8.013  0.3231 -0.2537  0.4068
 6813SOL    HW132072   3.429   0.452   8.090  0.9384  1.4691 -0.8793
 6813SOL    HW232073   3.415   0.463   7.946 -0.7930  0.0337  0.9042
 6814SOL     OW32074   0.312   4.267   6.944 -0.1272  0.2041  0.6469
 6814SOL    HW132075   0.242   4.274   6.879  0.2370  0.7339  0.3157
 6814SOL    HW232076   0.277   4.198   7.001 -0.4014 -1.0072 -0.9967
 6815SOL     OW32077   2.428   2.269   3.536 -0.1773  0.4727 -0.3236
 6815SOL    HW132078   2.421   2.174   3.538  0.0574  0.5154  2.9275
 6815SOL    HW232079   2.503   2.286   3.480  0.1911 -0.3072 -0.0633
 6816SOL     OW32080   2.541   0.535  10.926  0.5079  0.1423  0.8629
 6816SOL    HW132081   2.588   0.534  11.010  0.6750  1.0187  0.7710
 6816SOL    HW232082   2.552   0.442  10.907 -2.3553 -0.0418  0.0834
 6817SOL     OW32083   4.517   0.668   5.748 -0.2491 -0.1357  0.8269
 6817SOL    HW132084   4.427   0.653   5.777 -0.2524  0.5280  1.1516
 6817SOL    HW232085   4.523   0.597   5.684 -0.7328 -0.1286  0.7738
 6818SOL     OW32086   4.585   0.012   9.768 -0.1758  0.1732 -0.4419
 6818SOL    HW132087   4.652   4.713   9.825 -0.1901  0.1348 -0.4502
 6818SOL    HW232088   4.541   0.080   9.819  0.1095 -1.8649  2.5237
 6819SOL     OW32089   4.535   0.761   9.410  0.0418 -0.0254  0.4308
 6819SOL    HW132090   4.572   0.807   9.335 -1.1126 -0.0228 -0.1375
 6819SOL    HW232091   4.469   0.708   9.365  0.1186  0.6292 -0.4572
 6820SOL     OW32092   1.461   3.988   7.969 -0.6774 -0.5915 -0.6335
 6820SOL    HW132093   1.469   3.902   7.926 -2.7220 -1.2972  0.3807
 6820SOL    HW232094   1.468   3.958   8.060 -0.4112 -0.9371 -0.7640
 6821SOL     OW32095   1.240   4.020   3.015 -0.4804 -0.1863 -0.1747
 6821SOL    HW132096   1.195   3.969   2.947  0.0437  0.2220 -0.8268
 6821SOL    HW232097   1.182   4.013   3.091  0.9950  2.4520  1.2076
 6822SOL     OW32098   2.733   4.569  10.491  0.4436 -0.4069 -0.5182
 6822SOL    HW132099   2.757   4.648  10.541 -2.0408 -0.9603  1.4963
 6822SOL    HW232100   2.721   4.509  10.564  0.4361  2.5423  1.9309
 6823SOL     OW32101   3.920   3.873   7.612 -0.1237  0.5515 -0.1429
 6823SOL    HW132102   3.983   3.823   7.664  0.5957  0.3563 -1.2024
 6823SOL    HW232103   3.830   3.874   7.644  0.9638  4.1281  2.7754
 6824SOL     OW32104   4.728   3.548   9.895  0.0453  0.3382  1.0655
 6824SOL    HW132105   4.699   3.457   9.893  0.5494  0.1982 -0.3590
 6824SOL    HW232106   0.042   3.545   9.815  0.2420  0.9658  1.1652
 6825SOL     OW32107   3.803   1.932  12.788 -0.4406  0.1219 -0.1597
 6825SOL    HW132108   3.891   1.960  12.764 -0.6316  0.0993 -0.9217
 6825SOL    HW232109   3.827   1.884  12.867 -0.5223  0.2438 -0.0601
 6826SOL     OW32110   2.911   0.340   8.284 -0.0982  0.4720  0.0154
 6826SOL    HW132111   2.865   0.424   8.287 -1.6956 -0.3091 -2.4372
 6826SOL    HW232112   2.925   0.335   8.189 -1.2960  0.0049 -0.1436
 6827SOL     OW32113   3.172   0.611   7.706  0.2160  0.4450  0.3784
 6827SOL    HW132114   3.136   0.645   7.624 -1.0298 -1.7975  0.0028
 6827SOL    HW232115   3.168   0.692   7.756 -0.2478 -0.0232  1.0978
 6828SOL     OW32116   0.232   0.952   9.605 -0.1855  0.1272  0.2737
 6828SOL    HW132117   0.325   0.935   9.619 -0.1217 -1.3435 -1.9701
 6828SOL    HW232118   0.239   1.005   9.525 -1.6065 -2.5019 -1.5608
 6829SOL     OW32119   0.299   2.215   3.880  0.5884  0.2106 -0.3486
 6829SOL    HW132120   0.346   2.193   3.800 -0.5832 -0.8723 -0.7273
 6829SOL    HW232121   0.369   2.190   3.941  1.1704  2.8093  0.0290
 6830SOL     OW32122   1.155   2.052   2.891  0.1210  0.0753  0.2380
 6830SOL    HW132123   1.107   1.971   2.872  2.4701 -0.9249 -1.3480
 6830SOL    HW232124   1.239   2.041   2.847  1.0996  2.0985  1.6142
 6831SOL     OW32125   0.589   1.490   2.058 -0.3061 -0.4233 -0.1627
 6831SOL    HW132126   0.637   1.566   2.090  1.4070 -1.6222  0.1539
 6831SOL    HW232127   0.573   1.526   1.971  0.6760 -0.9594 -0.5725
 6832SOL     OW32128   3.977   1.262  11.402  0.2370  0.2926 -0.2986
 6832SOL    HW132129   4.059   1.213  11.397  0.0700 -0.0794  0.5635
 6832SOL    HW232130   3.921   1.254  11.326  1.7767 -1.3079 -1.2606
 6833SOL     OW32131   4.330   4.511   5.523  1.0618  0.2128  0.0445
 6833SOL    HW132132   4.265   4.524   5.454 -0.2771 -0.2618  1.2328
 6833SOL    HW232133   4.295   4.446   5.584 -2.4438 -0.2099 -2.3865
 6834SOL     OW32134   3.079   4.634  17.163 -0.1893 -0.3290  0.4555
 6834SOL    HW132135   2.986   4.658  17.162  0.2368  1.2426 -0.7460
 6834SOL    HW232136   3.066   4.547  17.125  1.2018  0.3217 -1.5184
 6835SOL     OW32137   3.415   0.691  15.480 -0.3176 -0.0698 -0.0452
 6835SOL    HW132138   3.429   0.741  15.400 -0.8031  0.0583 -0.0535
 6835SOL    HW232139   3.321   0.675  15.476 -0.5099  1.5658 -2.0944
 6836SOL     OW32140   3.711   1.467   3.663  0.2949  0.3824  0.2686
 6836SOL    HW132141   3.679   1.519   3.589  0.3658 -1.5962 -1.1377
 6836SOL    HW232142   3.787   1.523   3.677  0.2795  0.8477 -1.5167
 6837SOL     OW32143   1.359   0.487   0.377 -0.1092 -0.4937  0.5227
 6837SOL    HW132144   1.436   0.430   0.380  0.9906  0.9202 -0.3605
 6837SOL    HW232145   1.394   0.561   0.326 -0.4382  0.1875  1.2975
 6838SOL     OW32146   0.577   2.948   3.686 -0.9779  0.3323  0.3123
 6838SOL    HW132147   0.631   2.940   3.607  0.4021  1.3266  1.1521
 6838SOL    HW232148   0.592   2.864   3.730 -0.9090  0.5262  0.6566
 6839SOL     OW32149   0.479   0.844   3.331  0.3153  0.4460  0.2828
 6839SOL    HW132150   0.539   0.914   3.352  0.1038  0.2905  1.3972
 6839SOL    HW232151   0.483   0.814   3.240  1.0261 -0.1932  0.5191
 6840SOL     OW32152   1.202   3.963  17.145 -0.3154 -0.1139  0.3066
 6840SOL    HW132153   1.213   3.923  17.059 -0.9607  2.1088 -0.8211
 6840SOL    HW232154   1.120   4.013  17.148 -0.1010  0.2741 -0.3292
 6841SOL     OW32155   4.342   0.529   9.283  0.2403 -0.0733  0.2717
 6841SOL    HW132156   4.413   0.469   9.260  0.0521 -0.2600  0.1746
 6841SOL    HW232157   4.300   0.466   9.342 -1.1206  1.1629  0.6071
 6842SOL     OW32158   0.485   3.615   8.586  0.1896  0.2236  0.3778
 6842SOL    HW132159   0.520   3.672   8.655  1.4604  1.2272 -1.1140
 6842SOL    HW232160   0.526   3.530   8.602  0.2135  0.2306  0.3524
 6843SOL     OW32161   2.840   1.163  16.904 -0.1896  0.6180 -0.5478
 6843SOL    HW132162   2.813   1.148  16.994  0.2512  1.4767 -0.2746
 6843SOL    HW232163   2.900   1.237  16.905  1.3365 -0.6221  0.1354
 6844SOL     OW32164   4.402   1.405   9.294 -0.0690  0.3878  0.3927
 6844SOL    HW132165   4.341   1.332   9.296  0.8436 -0.3449  1.3677
 6844SOL    HW232166   4.345   1.460   9.241 -0.7913 -1.7929 -1.1073
 6845SOL     OW32167   0.552   2.870   9.623 -0.1319 -0.0494  0.8248
 6845SOL    HW132168   0.591   2.794   9.667  0.8133  1.0539  1.9014
 6845SOL    HW232169   0.499   2.910   9.692  0.1617  0.8711  0.5192
 6846SOL     OW32170   0.431   3.056   7.635  0.4069 -0.1881  0.3358
 6846SOL    HW132171   0.518   3.015   7.632  0.1072 -0.6964 -1.4790
 6846SOL    HW232172   0.396   3.053   7.546  1.7763 -1.6774 -0.1566
 6847SOL     OW32173   4.654   1.042   7.785  0.3268 -0.0309  0.1787
 6847SOL    HW132174   4.717   1.096   7.738 -0.9855  0.8319 -0.5697
 6847SOL    HW232175   4.695   0.956   7.790  0.1674 -0.1014  0.2830
 6848SOL     OW32176   0.121   3.142   8.135  0.2185 -0.4132 -0.1003
 6848SOL    HW132177   0.194   3.085   8.158  0.3035  0.0696  0.8257
 6848SOL    HW232178   0.138   3.139   8.040 -1.5386 -0.7228 -0.4103
 6849SOL     OW32179   2.045   0.941   0.065 -0.2391 -0.1895  0.0842
 6849SOL    HW132180   2.006   0.905   0.145  1.2665 -0.4921  0.6970
 6849SOL    HW232181   1.967   0.949   0.010 -0.7441 -0.6484  0.7278
 6850SOL     OW32182   0.241   1.684  17.710  0.0108 -0.2868  0.2280
 6850SOL    HW132183   0.220   1.721   0.044  1.2675 -2.8943  1.6872
 6850SOL    HW232184   0.326   1.644  17.729  0.1227 -0.3558 -0.4081
 6851SOL     OW32185   1.835   2.777   4.063  0.1543 -0.0292  0.3668
 6851SOL    HW132186   1.794   2.770   3.977  0.9144 -1.2900  0.1072
 6851SOL    HW232187   1.918   2.732   4.048 -0.0520 -0.9894  2.1165
 6852SOL     OW32188   0.598   3.664   5.868 -0.0759 -0.1199 -0.7344
 6852SOL    HW132189   0.615   3.656   5.962 -0.4998 -1.1189 -0.7327
 6852SOL    HW232190   0.532   3.595   5.863 -1.0936  0.4869  4.2390
 6853SOL     OW32191   0.252   0.159   0.251  0.5601 -0.0811 -0.3083
 6853SOL    HW132192   0.310   0.199   0.316 -1.2382  0.7464  0.8034
 6853SOL    HW232193   0.191   0.105   0.302 -0.5926  0.6986 -0.8639
 6854SOL     OW32194   2.758   3.142   2.695  0.9629  0.0233  0.0379
 6854SOL    HW132195   2.786   3.230   2.670 -0.4375  0.9098  1.6099
 6854SOL    HW232196   2.825   3.082   2.661  0.9424 -0.7406  1.3609
 6855SOL     OW32197   0.416   1.380  10.258  0.0027  0.7354 -0.0812
 6855SOL    HW132198   0.345   1.409  10.315 -0.0633  0.2503  0.0854
 6855SOL    HW232199   0.365   1.351  10.183  0.7251  0.2858 -0.4021
 6856SOL     OW32200   2.789   3.947   6.445  0.6023 -0.6446  0.4315
 6856SOL    HW132201   2.851   3.935   6.374  0.4820 -1.0928  0.4005
 6856SOL    HW232202   2.812   4.037   6.471 -0.3595  0.1482 -1.4792
 6857SOL     OW32203   0.958   0.460   6.339 -0.7804  0.3569 -0.0854
 6857SOL    HW132204   0.997   0.502   6.263  1.4726 -1.4628  0.0574
 6857SOL    HW232205   0.879   0.434   6.292 -1.4827 -0.0557  1.3188
 6858SOL     OW32206   3.569   1.294   4.794  0.2709 -0.6233 -0.6465
 6858SOL    HW132207   3.600   1.306   4.704  1.3416 -2.0292 -0.4567
 6858SOL    HW232208   3.478   1.276   4.774  0.5534 -0.6767 -1.9058
 6859SOL     OW32209   1.595   1.988   5.046  0.0831 -0.1437 -0.1443
 6859SOL    HW132210   1.560   2.049   5.111 -2.8205 -0.6492 -1.2257
 6859SOL    HW232211   1.591   2.046   4.970 -0.0484 -1.9466 -1.4959
 6860SOL     OW32212   4.326   4.250  11.244 -0.6892 -0.8682  0.1305
 6860SOL    HW132213   4.313   4.337  11.206  0.3863 -1.6678 -2.0968
 6860SOL    HW232214   4.283   4.188  11.185 -0.9230 -1.3219  0.7822
 6861SOL     OW32215   1.136   3.192   7.747 -0.0457  0.1587  0.4601
 6861SOL    HW132216   1.161   3.103   7.771 -1.3168 -0.7304 -1.5224
 6861SOL    HW232217   1.062   3.174   7.689  0.9085  1.4526 -1.1436
 6862SOL     OW32218   4.627   1.409   5.542  0.0722  0.4129  0.4781
 6862SOL    HW132219   4.562   1.466   5.500  0.5221  1.4358  1.1634
 6862SOL    HW232220   4.606   1.419   5.635 -1.2515  0.5207  0.1641
 6863SOL     OW32221   3.673   3.510   5.838 -0.3751  0.0110 -0.3059
 6863SOL    HW132222   3.688   3.472   5.751  2.4203  1.4094 -0.4171
 6863SOL    HW232223   3.764   3.535   5.851 -0.4781 -0.2552  0.8916
 6864SOL     OW32224   2.742   0.492   6.739  0.9082 -0.5678 -0.5542
 6864SOL    HW132225   2.702   0.421   6.788  1.0320  0.9137  1.7198
 6864SOL    HW232226   2.706   0.567   6.788 -1.4729 -2.0364 -0.0326
 6865SOL     OW32227   3.113   2.472   5.674 -0.7800 -0.1044 -0.1625
 6865SOL    HW132228   3.166   2.405   5.631  1.0818  2.7535 -2.3722
 6865SOL    HW232229   3.032   2.432   5.642  0.2805 -0.8726 -1.8851
 6866SOL     OW32230   1.559   4.687   2.925 -0.2186  0.6251 -0.1147
 6866SOL    HW132231   1.466   4.670   2.912 -0.4184 -0.4468  2.8210
 6866SOL    HW232232   1.583   4.603   2.885 -1.3090 -0.3330  1.2528
 6867SOL     OW32233   3.462   0.188   0.304 -0.4433 -0.1960 -0.1791
 6867SOL    HW132234   3.545   0.172   0.259 -1.5024 -2.0799 -1.4232
 6867SOL    HW232235   3.421   0.246   0.240 -1.6131 -0.9344 -0.0911
 6868SOL     OW32236   0.425   0.052  13.718 -0.4430  0.0486  0.2561
 6868SOL    HW132237   0.438   0.146  13.699 -2.5675  0.5349  1.2816
 6868SOL    HW232238   0.369   0.064  13.795 -0.2722  1.7360  0.1331
 6869SOL     OW32239   3.007   2.894   7.735  0.3346  0.4874  0.0787
 6869SOL    HW132240   3.059   2.823   7.772  1.3743  0.4178 -1.5000
 6869SOL    HW232241   2.922   2.879   7.776  0.4847  1.1470  0.6276
 6870SOL     OW32242   2.997   3.687  15.052  0.0059  0.8251  0.1356
 6870SOL    HW132243   2.951   3.617  15.098  0.9362 -0.3518 -0.7513
 6870SOL    HW232244   3.086   3.663  15.077 -0.0583  0.2734 -0.1864
 6871SOL     OW32245   0.626   0.380  15.197  0.0584  0.4532 -0.0854
 6871SOL    HW132246   0.563   0.447  15.170 -0.8118 -1.1468 -2.0009
 6871SOL    HW232247   0.685   0.440  15.242  0.5636 -1.5557  1.9493
 6872SOL     OW32248   0.342   2.974   3.523 -0.0347  0.0305  0.2340
 6872SOL    HW132249   0.418   2.985   3.579 -0.6672  0.5570  0.9748
 6872SOL    HW232250   0.364   3.042   3.459 -0.1736 -0.3896 -0.2672
 6873SOL     OW32251   2.060   4.146   3.870 -0.3250 -0.4359 -0.2166
 6873SOL    HW132252   2.017   4.231   3.883 -1.0492 -0.8674  0.1860
 6873SOL    HW232253   2.138   4.173   3.822 -0.8317 -0.7438 -1.2211
 6874SOL     OW32254   0.136   2.323   4.452  0.4436  0.7004  0.6177
 6874SOL    HW132255   0.139   2.379   4.374  0.6317  0.3225  0.3560
 6874SOL    HW232256   0.176   2.255   4.398 -0.2954  1.9210 -1.4875
 6875SOL     OW32257   0.023   2.546   2.396  0.0740 -0.2482 -0.1850
 6875SOL    HW132258   4.713   2.566   2.475  0.9235  1.0105  0.0099
 6875SOL    HW232259   0.111   2.576   2.419 -0.9708  1.1264  1.9460
 6876SOL     OW32260   0.068   1.872   0.687  0.2169 -0.3904  0.4087
 6876SOL    HW132261   0.081   1.803   0.622  0.3200 -0.1022  0.1259
 6876SOL    HW232262   0.148   1.921   0.669 -1.8845  1.9765 -2.3801
 6877SOL     OW32263   0.161   3.105   5.096  0.5737 -0.0360 -0.0892
 6877SOL    HW132264   0.134   3.013   5.086 -1.1477  0.4356  0.1700
 6877SOL    HW232265   0.192   3.116   5.007  1.2244  2.2737  0.4243
 6878SOL     OW32266   2.109   4.280  16.074  0.4217 -0.2925 -0.0891
 6878SOL    HW132267   2.158   4.212  16.119 -0.4171 -1.0557 -0.3361
 6878SOL    HW232268   2.025   4.235  16.064  1.5269 -1.5761 -3.3924
 6879SOL     OW32269   1.322   1.736  12.546 -0.0192  0.3749 -0.0346
 6879SOL    HW132270   1.274   1.741  12.628  2.2454 -1.3756  1.4135
 6879SOL    HW232271   1.281   1.811  12.503  0.9926  0.6121 -0.5867
 6880SOL     OW32272   0.141   1.638  15.573 -0.3231  0.8881  0.1175
 6880SOL    HW132273   0.112   1.579  15.503 -0.0421  0.2448  0.5366
 6880SOL    HW232274   0.218   1.677  15.533 -0.7814 -0.7351 -2.4155
 6881SOL     OW32275   3.970   3.002   7.570 -0.4565 -0.3650  0.2232
 6881SOL    HW132276   3.926   3.086   7.558 -0.9609 -0.2021  3.2102
 6881SOL    HW232277   3.951   2.982   7.661  0.9820 -1.3134  0.3098
 6882SOL     OW32278   2.213   1.770   0.420  0.2264 -0.0603 -0.2197
 6882SOL    HW132279   2.246   1.859   0.407  0.0592 -0.2137 -1.6877
 6882SOL    HW232280   2.246   1.724   0.343  1.7298 -0.4285  0.6405
 6883SOL     OW32281   2.133   0.970   4.773  0.9567  0.0654  0.1603
 6883SOL    HW132282   2.159   0.925   4.853  0.5044 -0.8435 -0.1937
 6883SOL    HW232283   2.140   0.897   4.711 -0.3914 -0.3645  0.5075
 6884SOL     OW32284   2.475   0.415   3.513 -0.7070 -0.2539 -0.0745
 6884SOL    HW132285   2.552   0.358   3.520 -0.8871 -0.1480  2.5846
 6884SOL    HW232286   2.514   0.494   3.477 -0.7294  0.3095  1.1439
 6885SOL     OW32287   1.759   3.525  13.694  0.0718 -0.2036 -0.0321
 6885SOL    HW132288   1.668   3.553  13.687 -0.1521 -0.6893  0.9562
 6885SOL    HW232289   1.782   3.535  13.786 -0.7210 -0.9460  0.2463
 6886SOL     OW32290   2.060   0.739  13.927 -0.6938 -0.1376  0.0438
 6886SOL    HW132291   2.135   0.757  13.983  1.0143  0.2744 -2.3389
 6886SOL    HW232292   2.027   0.652  13.952  0.2449 -0.0573  1.5722
 6887SOL     OW32293   3.687   3.578   6.360  0.0013  0.1196  0.0610
 6887SOL    HW132294   3.712   3.552   6.272 -2.5934  1.7219 -1.1519
 6887SOL    HW232295   3.593   3.564   6.376 -0.0024  3.2483  2.9864
 6888SOL     OW32296   2.328   2.882  13.812 -0.6908  0.2691 -0.0527
 6888SOL    HW132297   2.358   2.806  13.762  0.2601 -0.1099  1.0910
 6888SOL    HW232298   2.307   2.944  13.742 -2.3346 -0.4180 -0.1596
 6889SOL     OW32299   3.833   4.434   1.463 -0.2725 -0.3203  0.2450
 6889SOL    HW132300   3.746   4.430   1.502  0.2047 -0.9752  1.2509
 6889SOL    HW232301   3.823   4.369   1.393 -0.6143 -0.8389  0.7731
 6890SOL     OW32302   3.544   0.035   4.398 -0.0846  0.3495 -0.0864
 6890SOL    HW132303   3.624   0.036   4.345 -0.2258  0.6826 -0.2999
 6890SOL    HW232304   3.564   0.075   4.482  0.9558  1.3423 -0.8006
 6891SOL     OW32305   1.523   0.612   7.293  0.2871  0.9703  0.0420
 6891SOL    HW132306   1.602   0.644   7.250 -0.7264  0.5099 -2.1792
 6891SOL    HW232307   1.556   0.563   7.368  1.5183  2.9359  0.7531
 6892SOL     OW32308   4.592   4.023   4.031 -0.4428 -0.6990  0.2092
 6892SOL    HW132309   4.526   4.077   3.988 -0.1929 -0.6873 -0.1586
 6892SOL    HW232310   4.627   3.976   3.955 -1.1759 -0.6063 -0.1899
 6893SOL     OW32311   0.989   1.655   6.200  0.3348 -0.2691 -0.3495
 6893SOL    HW132312   0.946   1.663   6.285 -1.6282 -1.0640 -1.2854
 6893SOL    HW232313   0.913   1.644   6.143  0.9954 -0.4506 -1.1932
 6894SOL     OW32314   4.083   1.521  16.613  0.8253 -0.3857 -0.2975
 6894SOL    HW132315   4.130   1.555  16.690  2.0326 -0.0024 -1.2053
 6894SOL    HW232316   4.124   1.435  16.607  0.0498 -0.8187  0.5595
 6895SOL     OW32317   4.341   4.518   7.555 -0.1642 -0.2279  0.1247
 6895SOL    HW132318   4.402   4.570   7.504  0.3784 -0.6527  0.3397
 6895SOL    HW232319   4.262   4.569   7.538  1.1272  1.2916 -1.3279
 6896SOL     OW32320   2.701   0.286  10.592  0.1085  0.4382 -0.3550
 6896SOL    HW132321   2.690   0.245  10.507  0.9584  0.0451 -0.2746
 6896SOL    HW232322   2.790   0.266  10.621 -0.1867  1.5459  1.3384
 6897SOL     OW32323   3.457   2.161   4.881 -0.3102  0.6185 -0.3235
 6897SOL    HW132324   3.474   2.068   4.896 -0.7689  0.9404  2.2102
 6897SOL    HW232325   3.363   2.162   4.863 -0.7032 -0.2385  1.5996
 6898SOL     OW32326   0.908   1.867  11.253  0.0538 -0.1309 -0.0833
 6898SOL    HW132327   0.956   1.795  11.210  2.4136  0.8931  0.8093
 6898SOL    HW232328   0.921   1.835  11.342 -1.9267  1.9275  0.9310
 6899SOL     OW32329   0.826   1.554   2.378 -0.1869 -0.2681  0.3361
 6899SOL    HW132330   0.900   1.505   2.412  0.1476  0.1573  0.2238
 6899SOL    HW232331   0.757   1.488   2.383 -0.3459 -0.1556 -0.3891
 6900SOL     OW32332   1.314   0.474   8.192  0.0242  0.1042 -0.1361
 6900SOL    HW132333   1.315   0.381   8.170  3.0305  0.0057  0.4470
 6900SOL    HW232334   1.322   0.476   8.288  2.7996  1.0227 -0.3885
 6901SOL     OW32335   0.270   0.109  13.934 -0.1806 -0.0085  0.2705
 6901SOL    HW132336   0.298   0.155  14.013 -0.3263  0.6063 -0.0333
 6901SOL    HW232337   0.180   0.137  13.920  0.2609  1.0438 -0.4454
 6902SOL     OW32338   3.256   2.234  10.313 -0.2717  0.0502  0.1047
 6902SOL    HW132339   3.261   2.143  10.343  0.1324 -0.2919 -1.0207
 6902SOL    HW232340   3.345   2.260  10.290 -0.0325 -1.6746 -0.8478
 6903SOL     OW32341   3.059   4.383   9.033 -0.2178 -0.0086  0.2087
 6903SOL    HW132342   3.112   4.321   9.083 -1.5141 -0.4317  1.0812
 6903SOL    HW232343   3.007   4.425   9.101 -0.0786 -1.3792  1.1621
 6904SOL     OW32344   0.860   3.669   8.194 -0.6718 -0.2821  0.1451
 6904SOL    HW132345   0.844   3.701   8.106  0.5685  3.0284  1.1209
 6904SOL    HW232346   0.865   3.577   8.170  0.1311 -0.3401  0.5279
 6905SOL     OW32347   1.116   0.981   6.429  0.1216 -0.1385 -0.8680
 6905SOL    HW132348   1.070   0.903   6.460  1.2671 -1.2910 -2.0534
 6905SOL    HW232349   1.201   0.946   6.403  0.7410  1.4699 -0.9622
 6906SOL     OW32350   4.202   1.077   7.233  0.0405  1.0094  0.1386
 6906SOL    HW132351   4.264   1.029   7.288 -0.3902  0.9444  0.5635
 6906SOL    HW232352   4.141   1.103   7.302 -0.3573 -0.4099  0.3155
 6907SOL     OW32353   2.045   2.224   7.118 -0.7161 -0.5165  0.3195
 6907SOL    HW132354   2.124   2.210   7.065  0.5898  0.0663  2.1134
 6907SOL    HW232355   2.091   2.236   7.201 -1.0604  1.5295  0.1961
 6908SOL     OW32356   4.648   3.773   4.468  0.0951  0.1330 -0.2365
 6908SOL    HW132357   4.718   3.838   4.472  0.9100 -0.7433 -0.1535
 6908SOL    HW232358   4.656   3.742   4.378 -0.0191 -1.2036  0.2106
 6909SOL     OW32359   1.124   1.836  10.691 -0.0083 -0.3606  0.0025
 6909SOL    HW132360   1.180   1.842  10.769 -0.8730 -0.4206  0.6252
 6909SOL    HW232361   1.042   1.810  10.733 -0.6448  0.2478 -0.8666
 6910SOL     OW32362   1.521   2.432  12.385 -0.0439  0.5158 -0.3971
 6910SOL    HW132363   1.456   2.362  12.395 -0.4757  1.0694  0.7239
 6910SOL    HW232364   1.588   2.406  12.448 -1.3124  0.7333  1.0536
 6911SOL     OW32365   2.678   0.367   9.570  0.1642  0.1697 -0.7375
 6911SOL    HW132366   2.694   0.453   9.531 -0.7412  0.8038  0.3006
 6911SOL    HW232367   2.653   0.311   9.497 -2.4240 -0.3734  0.5566
 6912SOL     OW32368   0.629   0.327   2.016 -0.0668  0.0617  0.1775
 6912SOL    HW132369   0.553   0.366   2.059  0.6446  0.6634  0.8863
 6912SOL    HW232370   0.639   0.247   2.068  0.2032 -0.9041 -1.3561
 6913SOL     OW32371   3.683   4.402   4.038  0.0510 -0.6416  0.0733
 6913SOL    HW132372   3.642   4.479   3.999 -1.1741  0.3515  3.2894
 6913SOL    HW232373   3.642   4.397   4.125  0.6381 -0.6557  0.3451
 6914SOL     OW32374   1.151   4.570  11.212  0.0003  0.0763  0.6053
 6914SOL    HW132375   1.169   4.664  11.220 -1.7600  0.3913  0.7770
 6914SOL    HW232376   1.240   4.539  11.195 -0.0161  0.2227  0.2482
 6915SOL     OW32377   3.335   4.250   9.624  0.1218  0.4942 -0.4387
 6915SOL    HW132378   3.404   4.317   9.623  0.4659  0.1237 -1.7247
 6915SOL    HW232379   3.366   4.198   9.698  0.4154 -0.7245 -1.4098
 6916SOL     OW32380   4.129   3.825   7.117 -0.4553 -0.0067 -0.0818
 6916SOL    HW132381   4.112   3.817   7.210  0.6695 -0.5394  0.0774
 6916SOL    HW232382   4.054   3.774   7.087 -0.6543 -1.4640  2.9326
 6917SOL     OW32383   4.252   1.465   2.049 -0.7926 -0.2699 -0.4291
 6917SOL    HW132384   4.203   1.435   2.126  1.2004  0.4820  1.1130
 6917SOL    HW232385   4.342   1.436   2.058 -0.3036  1.6638  0.9246
 6918SOL     OW32386   1.633   3.375   9.568  0.2643 -0.3760 -0.0767
 6918SOL    HW132387   1.579   3.446   9.601 -0.1154 -0.7475  0.1088
 6918SOL    HW232388   1.699   3.370   9.637 -0.4036  0.6798  0.6303
 6919SOL     OW32389   3.196   0.778   8.680  0.4009  0.2152  0.0781
 6919SOL    HW132390   3.240   0.849   8.633  0.4282 -1.0039 -1.7147
 6919SOL    HW232391   3.257   0.764   8.752  1.9536  1.8659 -0.9165
 6920SOL     OW32392   4.244   2.718   4.860 -0.2010  0.7887 -0.1931
 6920SOL    HW132393   4.302   2.723   4.936 -2.5872  0.4526  1.6544
 6920SOL    HW232394   4.185   2.643   4.871  1.2016 -0.3088 -0.0701
 6921SOL     OW32395   3.338   3.549  16.636 -0.2027 -0.0276 -0.4666
 6921SOL    HW132396   3.392   3.471  16.624  2.0304  1.1280  2.2445
 6921SOL    HW232397   3.370   3.599  16.561  0.6422  1.2820  0.7695
 6922SOL     OW32398   4.031   2.094   4.331 -0.1436  0.1640  0.3158
 6922SOL    HW132399   3.995   2.128   4.413  0.4263 -2.9599  1.8505
 6922SOL    HW232400   3.951   2.077   4.280 -0.0232 -1.1192  0.5491
 6923SOL     OW32401   1.648   2.204  17.414  0.3751  0.3717  0.2865
 6923SOL    HW132402   1.624   2.269  17.348  0.6380 -0.7201 -0.8819
 6923SOL    HW232403   1.694   2.255  17.481 -0.4803  0.7692  0.5769
 6924SOL     OW32404   3.922   2.867   4.038 -0.1787  0.2994  0.2998
 6924SOL    HW132405   3.878   2.883   3.954 -2.8570 -0.3645  1.5909
 6924SOL    HW232406   4.003   2.832   4.002  0.5583 -0.2082  2.5286
 6925SOL     OW32407   1.805   2.336   4.096 -0.1969  0.3330  0.1300
 6925SOL    HW132408   1.830   2.425   4.071  2.2449 -0.0576  1.1835
 6925SOL    HW232409   1.858   2.281   4.039 -0.1984 -1.8337  2.2154
 6926SOL     OW32410   2.645   4.575   4.393 -0.1213 -0.2014 -0.0327
 6926SOL    HW132411   2.669   4.630   4.467 -1.2302 -3.0026  2.3611
 6926SOL    HW232412   2.592   4.636   4.340 -1.3400 -2.0524 -0.9281
 6927SOL     OW32413   4.168   3.094   7.070 -0.6038 -0.0716  0.3511
 6927SOL    HW132414   4.233   3.045   7.019  0.2116  2.7110 -1.2459
 6927SOL    HW232415   4.142   3.159   7.006 -1.2333 -2.2590 -1.6276
 6928SOL     OW32416   0.193   3.141   0.902  0.2231 -0.1764 -0.4369
 6928SOL    HW132417   0.134   3.111   0.833 -0.9481 -1.0488  0.9482
 6928SOL    HW232418   0.177   3.074   0.969 -3.7698 -0.0341 -1.2328
 6929SOL     OW32419   2.424   0.796   8.790 -0.1135 -0.0173 -0.1405
 6929SOL    HW132420   2.486   0.724   8.778 -1.1627 -0.3087 -3.8140
 6929SOL    HW232421   2.411   0.793   8.884 -1.4600 -2.4337 -0.3739
 6930SOL     OW32422   3.428   4.735   6.135  0.3968 -0.0663 -0.5970
 6930SOL    HW132423   3.462   0.055   6.204  1.9825 -1.1566 -0.4634
 6930SOL    HW232424   3.360   0.051   6.094 -0.5439 -0.1757  0.7975
 6931SOL     OW32425   2.764   2.685   4.947  0.6358  0.5604 -0.1122
 6931SOL    HW132426   2.773   2.769   4.992 -0.6756  1.3921 -1.3868
 6931SOL    HW232427   2.700   2.644   5.005  1.9876 -0.4488  0.6914
 6932SOL     OW32428   1.657   2.238   1.426  0.0621 -0.3042  0.0105
 6932SOL    HW132429   1.567   2.249   1.395 -0.0543  1.2896  0.9156
 6932SOL    HW232430   1.686   2.163   1.374 -0.8020 -1.4403  1.1321
 6933SOL     OW32431   2.695   3.351  16.821  0.3429 -0.0382  0.0185
 6933SOL    HW132432   2.694   3.445  16.804  1.5073 -0.4543 -2.3513
 6933SOL    HW232433   2.604   3.336  16.846  0.4576 -1.0510 -0.1883
 6934SOL     OW32434   0.922   2.873   6.730 -0.2246  0.0420 -0.0165
 6934SOL    HW132435   0.873   2.880   6.648 -0.6580  2.0268  0.4135
 6934SOL    HW232436   0.910   2.780   6.748 -0.6516  0.1951  0.5078
 6935SOL     OW32437   0.004   3.922  11.747  0.5417  0.2096 -0.4698
 6935SOL    HW132438   0.043   3.883  11.668 -0.0389 -0.5381 -0.3972
 6935SOL    HW232439   4.707   4.004  11.711 -1.4830  0.3613  1.8363
 6936SOL     OW32440   4.629   1.048   7.446  0.1872 -0.0277  0.2247
 6936SOL    HW132441   4.662   1.111   7.510  0.4033 -1.4047  1.4665
 6936SOL    HW232442   4.552   1.087   7.404  0.6177 -0.1252 -0.6644
 6937SOL     OW32443   3.109   1.651   4.732  0.1619 -0.4623 -0.3982
 6937SOL    HW132444   3.021   1.635   4.767 -1.1877  0.2422 -3.4769
 6937SOL    HW232445   3.161   1.653   4.812 -0.3850  4.5717 -0.1591
 6938SOL     OW32446   1.448   1.143  13.850  0.4868  1.0722 -0.4217
 6938SOL    HW132447   1.541   1.130  13.869 -1.0233 -2.1096  4.9026
 6938SOL    HW232448   1.442   1.070  13.788  0.7110  1.2059 -0.6004
 6939SOL     OW32449   2.502   1.728  10.234  0.7983 -0.1352  0.1275
 6939SOL    HW132450   2.472   1.697  10.149  3.3511 -1.4442 -0.2921
 6939SOL    HW232451   2.447   1.801  10.261  1.4089 -0.1100  1.3201
 6940SOL     OW32452   4.605   0.424   0.721 -0.2743 -0.1225 -0.2833
 6940SOL    HW132453   4.573   0.510   0.693 -1.1280 -0.2849  0.1763
 6940SOL    HW232454   4.659   0.459   0.791 -1.0204 -0.7152  0.6024
 6941SOL     OW32455   0.164   1.687   4.844  0.3048  0.0413  0.3489
 6941SOL    HW132456   0.108   1.684   4.921 -0.9319 -1.8828 -0.6260
 6941SOL    HW232457   0.153   1.592   4.836  0.0082  0.2884 -2.3543
 6942SOL     OW32458   1.906   0.894   1.913  0.1382  0.4765 -0.4511
 6942SOL    HW132459   1.875   0.843   1.838  0.1852 -1.7903  1.0771
 6942SOL    HW232460   1.923   0.982   1.880  1.7284  0.5205  0.4519
 6943SOL     OW32461   3.994   3.483   8.479  0.0377 -0.1473 -0.1662
 6943SOL    HW132462   3.944   3.402   8.487 -0.9613  0.6173  1.4568
 6943SOL    HW232463   3.975   3.506   8.389  0.3201 -1.1397 -0.4802
 6944SOL     OW32464   0.904   0.925   6.994  0.6425  0.3077 -0.0407
 6944SOL    HW132465   0.953   0.844   7.003 -0.8210 -0.5686  0.0690
 6944SOL    HW232466   0.881   0.934   7.086 -1.2531 -0.1086 -0.4747
 6945SOL     OW32467   0.988   3.987  13.991 -0.1202 -1.2184 -0.2369
 6945SOL    HW132468   0.941   4.015  14.069 -1.3506  0.4450 -1.5780
 6945SOL    HW232469   1.079   4.012  14.007  0.0434 -2.0161  0.0696
 6946SOL     OW32470   2.816   1.923   4.435  0.0854 -0.1755 -0.2085
 6946SOL    HW132471   2.900   1.895   4.472 -1.6000 -1.3675  2.8031
 6946SOL    HW232472   2.839   1.959   4.350  1.2812  0.4830  0.4043
 6947SOL     OW32473   4.412   1.555  12.430  0.0107 -0.1479 -0.1096
 6947SOL    HW132474   4.412   1.624  12.363  2.0284  0.2032  0.2483
 6947SOL    HW232475   4.320   1.566  12.454 -0.4710 -2.0505 -1.1035
 6948SOL     OW32476   3.364   4.068  11.664  0.5562  0.1205  0.1522
 6948SOL    HW132477   3.371   4.093  11.572 -3.0918  1.1054  0.1619
 6948SOL    HW232478   3.290   4.008  11.652  0.5365  0.4886 -1.5603
 6949SOL     OW32479   3.426   0.635   5.829  0.4898  0.0987  0.4082
 6949SOL    HW132480   3.384   0.708   5.783  0.2062 -0.7714 -0.7180
 6949SOL    HW232481   3.513   0.671   5.846  0.6906 -0.3737  0.3827
 6950SOL     OW32482   3.966   0.904   2.155  0.2109 -0.3863  0.2283
 6950SOL    HW132483   3.902   0.873   2.220 -0.2667  0.7886  0.3120
 6950SOL    HW232484   3.982   0.815   2.124 -1.3989 -0.7028  0.3189
 6951SOL     OW32485   0.229   0.973   2.769  0.0233  0.0658  0.0374
 6951SOL    HW132486   0.140   0.977   2.804  0.6677  0.5988  1.6261
 6951SOL    HW232487   0.258   0.887   2.799 -0.5108  0.6416  2.2108
 6952SOL     OW32488   1.290   0.034   2.410 -0.6296 -0.2658 -0.0309
 6952SOL    HW132489   1.283   0.117   2.363  2.4206  0.4112  0.7037
 6952SOL    HW232490   1.360   0.055   2.472 -2.2242  2.3358  0.8779
 6953SOL     OW32491   0.949   4.083   8.544  0.4546  0.1349  0.3301
 6953SOL    HW132492   1.026   4.106   8.596 -0.2982  0.9409  1.0859
 6953SOL    HW232493   0.993   4.060   8.462  0.6984  0.6289  0.3177
 6954SOL     OW32494   0.627   1.927   5.451 -0.0429  0.3161 -0.2435
 6954SOL    HW132495   0.661   1.996   5.508  0.6990 -0.2257 -0.0381
 6954SOL    HW232496   0.553   1.898   5.505 -1.1147  1.1997 -1.2219
 6955SOL     OW32497   3.760   0.059   4.248 -0.3387 -0.6807 -0.0756
 6955SOL    HW132498   3.836   0.077   4.303 -1.4677 -1.5172  1.7506
 6955SOL    HW232499   3.790   0.084   4.161  3.3745  0.3089  1.4880
 6956SOL     OW32500   2.298   2.048   7.946 -0.2191 -0.1184 -0.5248
 6956SOL    HW132501   2.351   2.074   8.021 -0.5544 -2.1358  0.3922
 6956SOL    HW232502   2.277   1.957   7.967  0.3152  0.1281  1.0869
 6957SOL     OW32503   0.067   2.511  17.621 -0.2950  0.0197  0.2647
 6957SOL    HW132504   0.099   2.595  17.653  1.0002 -1.4842  2.9282
 6957SOL    HW232505   0.064   2.530  17.527  0.9683 -0.5660  0.1108
 6958SOL     OW32506   4.375   2.135   0.765 -0.3278 -0.0455 -0.6079
 6958SOL    HW132507   4.425   2.168   0.690 -0.1340  2.5771  0.7077
 6958SOL    HW232508   4.398   2.044   0.747  0.7754 -0.2054  1.6527
 6959SOL     OW32509   0.056   3.054   4.495 -0.3133  0.4676 -0.4697
 6959SOL    HW132510   0.045   3.149   4.491  1.5411  0.7239  0.5496
 6959SOL    HW232511   0.011   3.032   4.413  3.1199  2.8110 -2.9681
 6960SOL     OW32512   2.476   4.202   3.055  0.7662  0.1006  0.4400
 6960SOL    HW132513   2.542   4.240   3.113  2.4891 -2.6733  0.2676
 6960SOL    HW232514   2.436   4.133   3.107  1.2438  0.0286  0.7046
 6961SOL     OW32515   2.359   2.737  12.051  0.3829 -0.0625 -0.1290
 6961SOL    HW132516   2.375   2.721  12.144 -1.1430  1.1089  0.3324
 6961SOL    HW232517   2.418   2.669  12.018 -0.8213 -1.2683  0.1958
 6962SOL     OW32518   0.393   0.793  10.622  0.3288  0.3353  0.0987
 6962SOL    HW132519   0.319   0.744  10.586 -0.3338  0.3194  1.4812
 6962SOL    HW232520   0.431   0.822  10.539  0.2683  1.0583  0.3226
 6963SOL     OW32521   0.407   2.558   6.172 -0.0595 -0.7058  0.7744
 6963SOL    HW132522   0.454   2.559   6.256 -1.2944  0.4185  1.4624
 6963SOL    HW232523   0.316   2.574   6.196 -0.4511 -2.6460  0.5826
 6964SOL     OW32524   3.965   0.460   2.139  0.3499  0.5358  0.2298
 6964SOL    HW132525   3.920   0.427   2.061  3.6659  0.6200 -1.7514
 6964SOL    HW232526   3.893   0.479   2.198 -0.8516  1.0288 -1.3764
 6965SOL     OW32527   1.303   2.698   7.124 -0.0167 -0.1007  0.0558
 6965SOL    HW132528   1.333   2.620   7.170  0.5005 -0.9429 -1.7019
 6965SOL    HW232529   1.334   2.770   7.179  1.7798 -0.2946 -0.7237
 6966SOL     OW32530   1.593   0.117   2.298 -0.9732 -0.4400  0.5040
 6966SOL    HW132531   1.520   0.097   2.239 -1.0358  1.4385 -0.0633
 6966SOL    HW232532   1.669   0.082   2.252 -0.0417  1.6726  0.4069
 6967SOL     OW32533   1.558   1.191  17.396  0.0029  0.6955 -0.1178
 6967SOL    HW132534   1.641   1.157  17.364 -0.2398 -0.1640  0.1455
 6967SOL    HW232535   1.525   1.233  17.317 -0.2732  0.4281 -0.1470
 6968SOL     OW32536   1.309   3.347  11.237 -0.2385  0.0754  0.7866
 6968SOL    HW132537   1.365   3.374  11.310  0.3328  0.6839  0.1264
 6968SOL    HW232538   1.375   3.326  11.172  0.0592  0.7091  0.8789
 6969SOL     OW32539   2.379   2.493   3.686 -0.4587 -0.3123  0.5707
 6969SOL    HW132540   2.415   2.413   3.649 -0.4040  0.1167 -0.3267
 6969SOL    HW232541   2.450   2.523   3.743  2.0920 -0.6598 -2.4000
 6970SOL     OW32542   1.558   2.161   5.275  0.1983 -0.1913  0.4501
 6970SOL    HW132543   1.482   2.181   5.330 -0.8312 -2.5892 -0.0974
 6970SOL    HW232544   1.556   2.220   5.200  1.5559 -0.9907 -0.2155
 6971SOL     OW32545   2.845   0.814  14.989  0.1788  0.0490  0.2441
 6971SOL    HW132546   2.937   0.802  14.969  0.2914  1.9691 -0.3988
 6971SOL    HW232547   2.839   0.910  14.987  1.0187  0.0259 -2.7094
 6972SOL     OW32548   1.658   2.702   5.244 -0.3672  0.1530  0.3979
 6972SOL    HW132549   1.660   2.738   5.333 -0.4451 -2.0366  1.2769
 6972SOL    HW232550   1.572   2.667   5.220  0.2213 -2.3248  1.9626
 6973SOL     OW32551   2.144   1.081   0.862  0.0575 -0.1477  0.3434
 6973SOL    HW132552   2.100   0.997   0.852 -0.6316  0.4224 -1.4716
 6973SOL    HW232553   2.177   1.076   0.952 -1.0909 -0.5163  0.7567
 6974SOL     OW32554   2.350   3.622   8.400  0.2042  0.3287  0.0829
 6974SOL    HW132555   2.289   3.676   8.451 -0.3374 -1.1691  1.0014
 6974SOL    HW232556   2.312   3.629   8.313  3.0745 -0.5826 -1.2563
 6975SOL     OW32557   4.182   4.104   2.067 -0.5266 -0.4045 -0.5878
 6975SOL    HW132558   4.143   4.191   2.075 -1.5855 -0.9267 -0.1896
 6975SOL    HW232559   4.131   4.059   2.134 -1.7961 -0.6390 -1.7095
 6976SOL     OW32560   2.466   3.122   2.630  0.0530 -0.0881  0.1499
 6976SOL    HW132561   2.561   3.126   2.631  0.0464  0.2424 -0.1548
 6976SOL    HW232562   2.459   3.116   2.725  1.5996  1.5991  0.3679
 6977SOL     OW32563   0.837   1.004   7.291 -0.1441  0.5536  0.5101
 6977SOL    HW132564   0.766   1.047   7.245  0.2472 -1.4494 -1.9910
 6977SOL    HW232565   0.860   1.075   7.351  1.0903  1.0443 -0.5659
 6978SOL     OW32566   4.016   1.742  10.869  0.1440 -0.4041  0.1913
 6978SOL    HW132567   4.050   1.661  10.908  1.8086  0.4995  0.6499
 6978SOL    HW232568   3.939   1.704  10.828  0.5357  0.3492 -1.2383
 6979SOL     OW32569   2.576   1.883   8.295  0.1344  0.3457 -0.4737
 6979SOL    HW132570   2.653   1.826   8.289 -0.5665 -0.5151 -1.3554
 6979SOL    HW232571   2.583   1.922   8.382  0.7654  1.3923 -0.9874
 6980SOL     OW32572   1.225   1.536   0.229  0.1066  0.1103 -0.0101
 6980SOL    HW132573   1.213   1.486   0.310  0.7508 -2.0879 -1.2706
 6980SOL    HW232574   1.273   1.470   0.179 -1.5811 -0.2813 -1.1089
 6981SOL     OW32575   1.283   0.981   6.165 -0.2855 -0.5723  0.2676
 6981SOL    HW132576   1.292   1.017   6.077  1.1700  1.9071  1.4019
 6981SOL    HW232577   1.349   0.912   6.161 -0.4503 -0.6765 -0.6143
 6982SOL     OW32578   0.565   4.633   8.725 -0.4585  0.2167  0.1262
 6982SOL    HW132579   0.574   4.714   8.675 -1.1683 -0.0021 -0.3594
 6982SOL    HW232580   0.542   4.669   8.810 -1.4850 -2.2283  0.8963
 6983SOL     OW32581   3.192   0.957   2.889  0.1792 -0.7979  0.0853
 6983SOL    HW132582   3.137   0.993   2.820 -0.9676 -1.2751  0.7499
 6983SOL    HW232583   3.110   0.927   2.929 -0.3059 -1.6197 -1.5051
 6984SOL     OW32584   0.223   4.664  15.883 -0.3534 -0.1160 -0.4005
 6984SOL    HW132585   0.169   4.680  15.805  0.8110 -2.6050 -1.7244
 6984SOL    HW232586   0.243   4.571  15.879  0.8562  0.1611 -0.8276
 6985SOL     OW32587   4.196   1.513   7.690  0.0226  0.2610  0.1473
 6985SOL    HW132588   4.232   1.585   7.741 -0.8788  2.1289 -1.8350
 6985SOL    HW232589   4.258   1.496   7.620  0.0214  0.8941 -0.0095
 6986SOL     OW32590   1.963   4.618   4.108 -0.1459 -0.1911  0.1012
 6986SOL    HW132591   2.035   4.629   4.170 -0.0743  0.1329 -0.0403
 6986SOL    HW232592   1.918   4.700   4.129 -1.6462 -0.6785 -1.1966
 6987SOL     OW32593   3.600   1.620  16.330 -0.2812 -0.1435 -0.2206
 6987SOL    HW132594   3.620   1.702  16.285  0.6851  0.4854  1.3882
 6987SOL    HW232595   3.520   1.590  16.286 -1.2273  0.0828  1.3536
 6988SOL     OW32596   3.006   0.924   5.558  0.5155 -0.3462 -0.0979
 6988SOL    HW132597   3.019   1.006   5.606  1.9434 -0.9506  0.5347
 6988SOL    HW232598   3.034   0.945   5.469 -3.5249 -0.4344 -1.4208
 6989SOL     OW32599   0.181   4.593  12.728  0.0587  0.1521  0.4597
 6989SOL    HW132600   0.264   4.609  12.773  1.3376 -0.1487 -1.7796
 6989SOL    HW232601   0.196   4.633  12.643 -1.8639 -0.4684 -0.1736
 6990SOL     OW32602   3.789   0.427   3.957 -0.1366  0.0989 -0.5003
 6990SOL    HW132603   3.714   0.476   3.923  0.0432  1.3312  0.8949
 6990SOL    HW232604   3.824   0.504   4.002  1.9681 -3.0952  3.3749
 6991SOL     OW32605   0.347   3.918   5.308  0.6307 -0.4161  0.1943
 6991SOL    HW132606   0.319   3.965   5.387  0.0730  0.5803 -0.5904
 6991SOL    HW232607   0.441   3.910   5.322  1.1427  3.4978 -0.9103
 6992SOL     OW32608   0.607   3.732   2.075  0.3250  0.4693 -0.0609
 6992SOL    HW132609   0.675   3.768   2.017  0.6604  0.0549  0.0748
 6992SOL    HW232610   0.543   3.802   2.060  0.7798  0.9215  0.0999
 6993SOL     OW32611   0.408   3.875   8.971 -0.3713  0.3344 -0.0822
 6993SOL    HW132612   0.453   3.934   9.031  1.1038  0.0472 -0.9028
 6993SOL    HW232613   0.389   3.935   8.900  0.4116 -1.7754 -2.0907
 6994SOL     OW32614   2.837   3.903  11.638 -0.4093 -0.0852 -0.3781
 6994SOL    HW132615   2.885   3.821  11.637 -0.5168 -0.1417 -1.4928
 6994SOL    HW232616   2.866   3.942  11.555 -2.8064 -0.2523 -1.2924
 6995SOL     OW32617   3.468   0.515   9.713  0.7417 -0.2960  0.3437
 6995SOL    HW132618   3.416   0.573   9.657  0.1406 -0.8695  0.3131
 6995SOL    HW232619   3.395   0.477   9.760  3.7188 -2.3842  3.2807
 6996SOL     OW32620   0.771   4.260  14.738  0.1383  0.4332  0.1805
 6996SOL    HW132621   0.739   4.350  14.727 -0.2577  0.4787  1.6516
 6996SOL    HW232622   0.768   4.262  14.834 -2.5366  0.6951  0.0916
 6997SOL     OW32623   3.817   0.266  17.563  0.4013  0.0925  0.2415
 6997SOL    HW132624   3.881   0.198  17.584 -0.5067 -1.1584 -1.0745
 6997SOL    HW232625   3.869   0.343  17.539 -0.5788  0.4729 -0.6456
 6998SOL     OW32626   4.637   3.219  10.758 -0.0384  0.4175  0.0500
 6998SOL    HW132627   4.546   3.219  10.787 -0.5374 -0.7099 -1.5292
 6998SOL    HW232628   4.665   3.308  10.778  0.7612  0.0459  0.5940
 6999SOL     OW32629   2.793   1.940  17.551  0.0557 -0.0297  0.0043
 6999SOL    HW132630   2.878   1.982  17.535 -0.8126  1.4847 -0.6496
 6999SOL    HW232631   2.749   1.957  17.467 -1.3889 -0.1978  0.7352
 7000SOL     OW32632   3.886   4.085   7.874 -0.2225  0.7054 -0.0695
 7000SOL    HW132633   3.859   4.035   7.952  1.0290  0.3427  0.1356
 7000SOL    HW232634   3.950   4.022   7.842 -1.1971  0.0775 -0.7533
 7001SOL     OW32635   0.026   0.326   1.666 -0.5490 -0.0970 -0.4094
 7001SOL    HW132636   4.710   0.270   1.610 -0.9714 -0.7750  0.6630
 7001SOL    HW232637   4.701   0.335   1.738  1.4131 -0.9585  1.4205
 7002SOL     OW32638   4.737   0.200   5.041 -0.2583  0.1724  0.5357
 7002SOL    HW132639   0.003   0.281   5.091 -3.5576  0.9291 -0.3913
 7002SOL    HW232640   0.082   0.205   4.994 -0.1578 -0.5250  0.6299
 7003SOL     OW32641   1.987   1.249   6.077 -0.4452  0.5195  0.1685
 7003SOL    HW132642   1.983   1.204   5.993 -1.1320  2.6148 -0.9024
 7003SOL    HW232643   2.043   1.319   6.043 -2.2855  1.4163 -0.9691
 7004SOL     OW32644   4.208   1.099   6.008  0.1641 -0.1810  0.2562
 7004SOL    HW132645   4.232   1.154   6.083  3.1806 -0.3251 -0.6056
 7004SOL    HW232646   4.112   1.102   6.010  0.1245 -1.4234  0.8293
 7005SOL     OW32647   0.761   2.744   8.740 -0.3781 -0.6280  0.8622
 7005SOL    HW132648   0.758   2.761   8.646 -1.4871  0.0765  1.0211
 7005SOL    HW232649   0.721   2.825   8.772 -0.8896  0.2130 -1.8976
 7006SOL     OW32650   0.458   1.785   8.153 -0.6319 -0.6446  0.3213
 7006SOL    HW132651   0.495   1.705   8.114 -0.2329 -0.2765 -0.0562
 7006SOL    HW232652   0.434   1.754   8.240  0.0847 -1.2066  0.3210
 7007SOL     OW32653   1.673   1.211   3.411 -0.1609 -0.2103 -0.1525
 7007SOL    HW132654   1.724   1.292   3.405 -0.4656 -0.0042  0.0903
 7007SOL    HW232655   1.686   1.167   3.327  0.1245  0.8791 -0.6718
 7008SOL     OW32656   3.518   0.685   1.053  0.1418  0.4350  0.3444
 7008SOL    HW132657   3.593   0.727   1.009  0.7185 -0.2925  0.6396
 7008SOL    HW232658   3.544   0.712   1.141  0.4041  1.4581 -0.0454
 7009SOL     OW32659   3.617   1.756  11.382 -0.5731 -0.2335  0.1626
 7009SOL    HW132660   3.693   1.713  11.345 -0.9698 -1.1589  0.4115
 7009SOL    HW232661   3.651   1.821  11.444 -1.4176  0.3829 -0.0147
 7010SOL     OW32662   2.604   3.467   8.907  0.0846  0.0712 -0.3874
 7010SOL    HW132663   2.679   3.511   8.866  2.0008 -4.0021 -1.2491
 7010SOL    HW232664   2.592   3.384   8.861 -1.7378  1.1863 -1.8891
 7011SOL     OW32665   0.206   4.289   6.144  0.3281 -0.3630  0.2051
 7011SOL    HW132666   0.118   4.270   6.177  0.6037 -0.5446  0.8318
 7011SOL    HW232667   0.202   4.236   6.064  3.8673  2.6964 -2.0349
 7012SOL     OW32668   4.594   3.128   4.294  0.4463  0.1255  0.0016
 7012SOL    HW132669   4.577   3.222   4.298 -0.6934 -0.1254  1.0278
 7012SOL    HW232670   4.525   3.106   4.356  3.3031 -1.3942  2.6010
 7013SOL     OW32671   1.942   4.531  10.025 -0.3224 -0.0419 -0.3721
 7013SOL    HW132672   2.037   4.533  10.029 -0.3279  0.9382 -0.6907
 7013SOL    HW232673   1.914   4.453   9.977 -2.1432  1.3766 -1.6241
 7014SOL     OW32674   1.433   1.158  16.665 -0.1623 -1.1589  0.2278
 7014SOL    HW132675   1.446   1.065  16.646  0.0579 -1.3545  1.3233
 7014SOL    HW232676   1.353   1.152  16.718  0.1112  2.1466  1.0326
 7015SOL     OW32677   4.021   4.132  16.636 -0.0812 -0.0432 -0.1806
 7015SOL    HW132678   4.063   4.047  16.652 -0.4830 -0.5422 -1.7402
 7015SOL    HW232679   3.999   4.151  16.727 -0.0244 -0.6297 -0.0417
 7016SOL     OW32680   1.999   2.468  15.872 -0.1129  0.4175 -0.0349
 7016SOL    HW132681   1.981   2.452  15.779  1.2053  0.4520 -0.2950
 7016SOL    HW232682   1.999   2.376  15.897 -1.3812  0.5685  0.4918
 7017SOL     OW32683   0.991   0.725   8.736 -0.0489  0.3635  0.2941
 7017SOL    HW132684   0.951   0.810   8.754 -2.0154  0.0025 -2.4330
 7017SOL    HW232685   0.964   0.708   8.646  0.8623 -1.6859  0.4123
 7018SOL     OW32686   2.308   1.342   2.667  0.3604 -0.9469 -0.0452
 7018SOL    HW132687   2.343   1.412   2.723  0.2547 -0.5472 -0.4784
 7018SOL    HW232688   2.217   1.372   2.670 -0.0942 -2.2414 -1.3468
 7019SOL     OW32689   1.164   0.718   6.348 -0.1401  0.2564  0.0584
 7019SOL    HW132690   1.071   0.700   6.357  0.0833 -1.7633 -1.4961
 7019SOL    HW232691   1.196   0.706   6.258 -0.0483 -1.8164  0.3678
 7020SOL     OW32692   4.284   0.054   2.650  0.1857  0.2592 -0.3882
 7020SOL    HW132693   4.318   0.026   2.565 -0.6723  3.0286 -1.6572
 7020SOL    HW232694   4.269   0.146   2.628  1.1994  0.7961  1.1828
 7021SOL     OW32695   1.306   0.223   8.506  0.2945 -0.0369 -0.2452
 7021SOL    HW132696   1.346   0.182   8.582 -0.0596  0.6935  0.3396
 7021SOL    HW232697   1.222   0.178   8.516  0.6109 -0.3154  1.1090
 7022SOL     OW32698   3.728   3.355   0.437 -0.1123  0.0751  0.1922
 7022SOL    HW132699   3.666   3.365   0.365 -0.2495  1.8137  0.5626
 7022SOL    HW232700   3.767   3.442   0.438 -0.8121  0.3837  0.3153
 7023SOL     OW32701   3.951   0.483  17.391  0.1062  0.6038 -0.2569
 7023SOL    HW132702   3.907   0.456  17.310  1.6094 -2.8989  0.0733
 7023SOL    HW232703   3.985   0.570  17.371  2.4729 -0.3012 -0.2594
 7024SOL     OW32704   2.616   4.397   7.680  0.0267 -0.0272 -0.0424
 7024SOL    HW132705   2.708   4.388   7.654 -0.1142  1.9457 -1.2204
 7024SOL    HW232706   2.602   4.490   7.700  0.7877 -0.1538  1.1227
 7025SOL     OW32707   2.340   4.591   9.168 -0.3745  0.5952 -0.5230
 7025SOL    HW132708   2.428   4.559   9.187 -0.4720  0.5728 -0.1022
 7025SOL    HW232709   2.293   4.508   9.172  0.3575  0.2086  0.2907
 7026SOL     OW32710   3.000   4.655   7.450 -0.1260  0.2654  0.0157
 7026SOL    HW132711   2.930   4.687   7.506  0.7712  1.5009  0.4277
 7026SOL    HW232712   3.064   4.632   7.518 -1.2147 -1.0717  0.6001
 7027SOL     OW32713   2.734   1.628   2.546  0.0348  0.1367  0.0160
 7027SOL    HW132714   2.720   1.598   2.456  1.7741  0.1580 -0.2707
 7027SOL    HW232715   2.806   1.575   2.579 -0.9789 -1.9609 -1.2055
 7028SOL     OW32716   3.308   0.372  14.636 -0.2787  0.3012 -0.5968
 7028SOL    HW132717   3.383   0.381  14.694 -1.3544  0.2796  0.8186
 7028SOL    HW232718   3.237   0.413  14.686 -0.2523  0.9410 -1.0910
 7029SOL     OW32719   2.691   3.808   7.437 -0.5132  0.5209 -0.0995
 7029SOL    HW132720   2.763   3.868   7.419 -0.4456  0.5251  0.1806
 7029SOL    HW232721   2.618   3.853   7.394 -0.9923  0.0623  0.2340
 7030SOL     OW32722   3.875   4.476   3.580  0.1752  0.3279 -0.0516
 7030SOL    HW132723   3.816   4.419   3.629  2.1856 -0.4861  1.4363
 7030SOL    HW232724   3.837   4.558   3.611 -0.6472 -0.0348 -0.1183
 7031SOL     OW32725   2.371   4.201   7.002 -0.1431  0.1712 -0.7244
 7031SOL    HW132726   2.317   4.148   7.061 -1.0830  0.4292 -1.3557
 7031SOL    HW232727   2.299   4.249   6.960  2.1915  4.8698  0.6832
 7032SOL     OW32728   2.406   3.300   5.335  0.1424  0.1027 -0.3405
 7032SOL    HW132729   2.411   3.347   5.251  0.3835 -0.3572 -0.5835
 7032SOL    HW232730   2.489   3.332   5.371  0.7832  0.3418 -2.0130
 7033SOL     OW32731   4.631   4.208   8.222  0.5137  0.3399 -0.2255
 7033SOL    HW132732   4.585   4.251   8.293 -1.8178  0.5835 -1.8816
 7033SOL    HW232733   4.581   4.127   8.217 -2.6632  2.3700 -1.4887
 7034SOL     OW32734   2.382   3.769  10.580 -0.0281 -0.0513  0.0269
 7034SOL    HW132735   2.431   3.694  10.548  2.7596  1.2291  1.2875
 7034SOL    HW232736   2.371   3.813  10.496 -0.2936 -0.7920 -0.3235
 7035SOL     OW32737   0.320   4.208   9.329  0.0309 -0.0890 -0.4598
 7035SOL    HW132738   0.414   4.223   9.325  0.4333 -2.0309  1.9638
 7035SOL    HW232739   0.296   4.197   9.421  3.9951 -1.3322  0.4322
 7036SOL     OW32740   0.742   2.529   9.113 -0.5517  0.1296  0.1740
 7036SOL    HW132741   0.701   2.512   9.029 -0.6640 -2.2191  0.7228
 7036SOL    HW232742   0.826   2.555   9.076 -0.6172  1.8416  1.2084
 7037SOL     OW32743   0.955   1.748   7.439 -0.0686 -0.1326 -0.2064
 7037SOL    HW132744   1.001   1.665   7.425  2.1467  0.7849  1.5739
 7037SOL    HW232745   0.986   1.783   7.522 -0.9942  2.1285 -0.8357
 7038SOL     OW32746   3.638   3.516  12.385  0.1731  0.1552 -0.7584
 7038SOL    HW132747   3.678   3.502  12.471 -2.4632  2.4193  0.8030
 7038SOL    HW232748   3.707   3.485  12.326  1.1132  2.6990 -0.9811
 7039SOL     OW32749   2.430   1.025   1.536  0.1985  0.5876 -0.3113
 7039SOL    HW132750   2.502   0.995   1.481 -1.5557 -0.1748 -2.1977
 7039SOL    HW232751   2.469   1.049   1.620  1.6886 -1.7621 -0.3470
 7040SOL     OW32752   1.005   3.073   8.976 -0.0999 -0.0696  0.0171
 7040SOL    HW132753   0.945   3.093   8.905 -2.7595  0.0769  2.2864
 7040SOL    HW232754   0.967   2.992   9.011 -1.2474 -0.2886 -1.7861
 7041SOL     OW32755   4.496   3.272   5.626 -0.6894 -0.6480 -0.2879
 7041SOL    HW132756   4.477   3.346   5.683  1.8270 -1.0987  1.1544
 7041SOL    HW232757   4.516   3.210   5.696  0.3759 -0.5049 -0.4663
 7042SOL     OW32758   1.749   2.955   4.255  0.2140  0.1506 -0.9237
 7042SOL    HW132759   1.779   2.893   4.188  1.5456  1.2657 -1.3557
 7042SOL    HW232760   1.679   3.005   4.215  0.0551 -0.2335 -1.1236
 7043SOL     OW32761   2.106   4.542  16.146 -0.0220  1.0903  0.3125
 7043SOL    HW132762   2.030   4.582  16.105  1.6810  0.5881 -3.2990
 7043SOL    HW232763   2.101   4.450  16.119  2.3312  1.4660 -1.3570
 7044SOL     OW32764   3.168   1.748   5.980 -0.3241  0.0103 -0.3468
 7044SOL    HW132765   3.132   1.786   5.900  1.9916 -0.6765 -1.7174
 7044SOL    HW232766   3.259   1.775   5.966 -0.8003  0.5822 -2.4210
 7045SOL     OW32767   4.253   3.283   8.838 -0.7864 -0.4526  0.1488
 7045SOL    HW132768   4.323   3.249   8.781 -0.4799 -1.1643  0.9375
 7045SOL    HW232769   4.230   3.203   8.885 -0.8953  0.7608  2.1343
 7046SOL     OW32770   3.691   0.524   2.983 -0.4566 -0.2208 -0.2168
 7046SOL    HW132771   3.770   0.526   3.038 -2.3241 -1.3632  2.4928
 7046SOL    HW232772   3.625   0.490   3.043  0.9926 -1.9058  0.4131
 7047SOL     OW32773   1.108   3.267  15.531 -0.0135 -0.3076  0.2082
 7047SOL    HW132774   1.105   3.171  15.531 -1.2985 -0.2630 -1.0041
 7047SOL    HW232775   1.055   3.283  15.453  2.1247 -0.2196 -1.2223
 7048SOL     OW32776   1.665   0.236  14.203 -0.6816 -0.5504  0.2230
 7048SOL    HW132777   1.749   0.189  14.201 -0.3740  0.1018 -1.7632
 7048SOL    HW232778   1.694   0.321  14.171 -0.1944 -0.5267  0.7145
 7049SOL     OW32779   2.461   2.485   8.624  0.3105 -0.3190  0.3698
 7049SOL    HW132780   2.390   2.479   8.689  0.4953 -2.2531  0.3877
 7049SOL    HW232781   2.414   2.516   8.547 -1.3052 -3.1585  0.2360
 7050SOL     OW32782   2.175   0.398   0.559 -0.0813 -0.5187  0.1124
 7050SOL    HW132783   2.124   0.334   0.509  1.1966 -1.1432 -0.3838
 7050SOL    HW232784   2.265   0.366   0.557 -0.1903 -0.9394  1.6385
 7051SOL     OW32785   2.561   3.290   8.356  0.5496  0.6459 -0.0087
 7051SOL    HW132786   2.580   3.277   8.263 -1.4115  0.5253 -0.3937
 7051SOL    HW232787   2.483   3.234   8.358 -0.3894  1.9136 -1.1578
 7052SOL     OW32788   2.560   0.053   9.135  0.5400  0.0110 -0.4275
 7052SOL    HW132789   2.524   4.706   9.160 -0.1134  0.1429 -0.9138
 7052SOL    HW232790   2.654   0.036   9.143  0.1819 -1.0516  1.6030
 7053SOL     OW32791   2.644   1.376  10.597 -0.6331 -0.1684  0.7979
 7053SOL    HW132792   2.602   1.290  10.598 -0.1762 -0.3822  1.2508
 7053SOL    HW232793   2.566   1.430  10.586 -0.5737 -0.6498 -1.9048
 7054SOL     OW32794   3.369   2.899   5.631 -0.3911  0.3382  0.6467
 7054SOL    HW132795   3.279   2.867   5.636  0.4206 -2.2851 -1.8553
 7054SOL    HW232796   3.373   2.983   5.677 -0.9498 -0.8788  2.9300
 7055SOL     OW32797   2.678   1.874   7.430  0.0543  0.3456 -0.5361
 7055SOL    HW132798   2.698   1.781   7.417 -4.6677 -0.7706 -0.1005
 7055SOL    HW232799   2.582   1.874   7.435 -0.0321  0.0618 -2.0267
 7056SOL     OW32800   2.688   4.648  13.788  0.5289 -0.2427 -0.0217
 7056SOL    HW132801   2.732   4.568  13.760  1.6004  0.7389 -1.1248
 7056SOL    HW232802   2.720   4.665  13.876  0.1949 -1.3652  0.3243
 7057SOL     OW32803   3.835   4.040   3.421 -0.7432 -0.4201  0.7076
 7057SOL    HW132804   3.895   3.991   3.478 -0.3419 -0.1907  0.4805
 7057SOL    HW232805   3.887   4.119   3.408  1.6161 -2.3230 -1.4218
 7058SOL     OW32806   1.524   3.379   4.078  0.4233  0.3455 -0.5515
 7058SOL    HW132807   1.487   3.425   4.154  0.8009  1.2511 -0.9125
 7058SOL    HW232808   1.544   3.454   4.021  0.1789 -0.0085 -1.1064
 7059SOL     OW32809   0.539   2.011   2.877  0.3391  0.4139  0.8343
 7059SOL    HW132810   0.468   2.004   2.813 -0.5886 -0.4261  1.9409
 7059SOL    HW232811   0.589   2.085   2.842  1.1002 -0.3211  0.3600
 7060SOL     OW32812   3.156   0.909   1.554  0.6710 -0.3176 -0.3032
 7060SOL    HW132813   3.102   0.898   1.475  0.9345  2.1979 -0.8354
 7060SOL    HW232814   3.163   1.004   1.555 -0.6699 -0.1742 -3.9362
 7061SOL     OW32815   1.231   3.750  13.573  0.6851  0.2488  0.0365
 7061SOL    HW132816   1.210   3.841  13.551  1.9928  0.2039 -1.4565
 7061SOL    HW232817   1.142   3.722  13.591  0.8682  0.2948  1.0211
 7062SOL     OW32818   2.046   2.286   1.519  0.3238 -0.3206 -1.0750
 7062SOL    HW132819   2.129   2.237   1.521 -0.3015 -1.3680 -0.9711
 7062SOL    HW232820   2.080   2.364   1.474 -2.5462  0.2429 -2.2468
 7063SOL     OW32821   0.587   0.633   3.479 -0.1805 -0.0996 -0.2765
 7063SOL    HW132822   0.565   0.578   3.404 -1.0224  0.3727 -0.3776
 7063SOL    HW232823   0.639   0.698   3.431  0.0244 -0.9005 -1.1451
 7064SOL     OW32824   3.178   4.158   9.143 -0.4689  0.4403  0.0567
 7064SOL    HW132825   3.184   4.154   9.238  2.5159  0.3740 -0.1387
 7064SOL    HW232826   3.120   4.082   9.132 -0.8466  0.8188 -0.5657
 7065SOL     OW32827   3.193   4.238   2.403 -0.0241  0.4964 -0.4208
 7065SOL    HW132828   3.245   4.191   2.468 -1.4943 -0.4432  0.0874
 7065SOL    HW232829   3.266   4.255   2.343  0.4472 -1.9442 -0.5628
 7066SOL     OW32830   1.722   1.614   0.743  0.2349 -0.5466  0.4247
 7066SOL    HW132831   1.676   1.610   0.659  1.6456 -1.8980 -0.2853
 7066SOL    HW232832   1.778   1.691   0.730 -1.3261  0.4028 -0.7372
 7067SOL     OW32833   2.753   2.713   8.950  0.0222  0.1968 -0.4760
 7067SOL    HW132834   2.661   2.738   8.941  0.3054  1.5982  0.4993
 7067SOL    HW232835   2.763   2.707   9.045 -0.8143  0.0827 -0.3937
 7068SOL     OW32836   2.481   4.487  15.694  0.2513 -0.4320 -0.3918
 7068SOL    HW132837   2.409   4.496  15.756 -0.9088  1.0367 -1.9436
 7068SOL    HW232838   2.520   4.568  15.728  1.7297 -0.3382 -2.2752
 7069SOL     OW32839   3.316   1.313   0.093  0.0989 -0.1389  0.0235
 7069SOL    HW132840   3.376   1.372   0.047  1.3867 -0.3491  1.4482
 7069SOL    HW232841   3.298   1.255   0.019  2.1936  0.2712 -0.8187
 7070SOL     OW32842   1.925   2.577   3.308 -0.3434 -0.3363  0.3039
 7070SOL    HW132843   2.006   2.526   3.309 -0.2092 -0.1600 -1.2209
 7070SOL    HW232844   1.869   2.524   3.251 -1.1351 -0.3828  1.1345
 7071SOL     OW32845   4.250   3.720  10.721 -0.1245 -0.4954 -0.7134
 7071SOL    HW132846   4.169   3.718  10.772  2.2491 -0.1716  2.9909
 7071SOL    HW232847   4.212   3.746  10.637 -1.1880  0.9092  0.2015
 7072SOL     OW32848   1.062   0.411   4.181 -0.0450 -0.4535 -0.2467
 7072SOL    HW132849   0.996   0.454   4.235 -0.8279 -1.8312 -0.1159
 7072SOL    HW232850   1.137   0.471   4.185 -0.0827 -0.3635 -0.8881
 7073SOL     OW32851   4.209   2.777   9.499 -0.2871 -0.1269  0.3695
 7073SOL    HW132852   4.284   2.836   9.485  0.7660 -1.6535 -0.5138
 7073SOL    HW232853   4.240   2.689   9.478  0.9535  0.1663  0.9516
 7074SOL     OW32854   0.649   2.455  10.697  0.4061  0.2200  0.5542
 7074SOL    HW132855   0.556   2.440  10.712  0.7178 -1.4821  0.8288
 7074SOL    HW232856   0.666   2.530  10.754 -1.1138  1.1378 -0.2131
 7075SOL     OW32857   1.685   4.640   8.427  0.0373 -0.4181  0.4070
 7075SOL    HW132858   1.675   4.634   8.332  0.2927  0.9241  0.2969
 7075SOL    HW232859   1.695   4.551   8.461  2.1048 -1.1745 -2.1788
 7076SOL     OW32860   3.453   0.829   8.893  0.5973  0.2993 -0.2519
 7076SOL    HW132861   3.377   0.869   8.936 -0.5100 -2.0734 -0.0396
 7076SOL    HW232862   3.524   0.843   8.956  0.0686 -1.5784  0.7604
 7077SOL     OW32863   2.190   0.533   0.146 -0.0478 -0.1133  0.3734
 7077SOL    HW132864   2.156   0.579   0.070  0.4825  1.3630  1.0143
 7077SOL    HW232865   2.108   0.505   0.188 -0.5814 -2.8740 -2.5447
 7078SOL     OW32866   2.056   0.832  10.139  0.0001  0.2372  0.1341
 7078SOL    HW132867   2.046   0.769  10.210  0.5348  1.9694  1.7584
 7078SOL    HW232868   1.968   0.820  10.102  0.1616 -1.0428  0.1908
 7079SOL     OW32869   4.243   0.843   5.299 -0.1671 -0.0078  0.2943
 7079SOL    HW132870   4.172   0.879   5.352 -0.8555 -0.3940 -0.3631
 7079SOL    HW232871   4.266   0.780   5.367 -2.4532 -0.5474  0.5700
 7080SOL     OW32872   2.301   2.930   8.041  0.4360 -0.1221 -0.9526
 7080SOL    HW132873   2.244   2.908   8.114  0.4729  1.3926 -0.4660
 7080SOL    HW232874   2.256   3.011   8.017 -0.7240 -0.6703 -0.6266
 7081SOL     OW32875   3.496   2.851   8.002 -0.1079 -0.4053 -0.0058
 7081SOL    HW132876   3.482   2.757   8.016  1.2420 -0.4162  1.3589
 7081SOL    HW232877   3.566   2.863   8.067  0.0342 -1.9448  0.1425
 7082SOL     OW32878   4.032   3.420   9.670  0.0455  0.4538  0.0226
 7082SOL    HW132879   3.999   3.508   9.687 -2.1969 -0.3355 -0.3111
 7082SOL    HW232880   4.024   3.381   9.758 -2.7623  1.2414  0.1180
 7083SOL     OW32881   1.667   1.850   6.258 -0.1476 -0.2241  0.6874
 7083SOL    HW132882   1.721   1.829   6.182 -2.3816  0.9062 -1.2060
 7083SOL    HW232883   1.580   1.863   6.220  0.1292 -1.3406 -0.3187
 7084SOL     OW32884   2.211   2.947  10.488 -0.3205 -0.0982 -0.4699
 7084SOL    HW132885   2.224   2.889  10.413 -0.1236 -1.4530  0.6188
 7084SOL    HW232886   2.127   2.992  10.481  0.3847  1.0102 -1.8039
 7085SOL     OW32887   2.112   1.855   6.322  0.2962  0.3270  0.8340
 7085SOL    HW132888   2.099   1.807   6.404  0.1547 -2.7440 -0.9952
 7085SOL    HW232889   2.094   1.786   6.258 -0.0607  0.6974  0.5392
 7086SOL     OW32890   4.137   3.899   8.396 -0.1288  0.1913 -0.4115
 7086SOL    HW132891   4.164   3.818   8.353 -1.6267 -0.9994  0.8867
 7086SOL    HW232892   4.135   3.952   8.316 -2.2220 -1.3566 -1.4022
 7087SOL     OW32893   0.449   0.148   8.611 -0.4901 -0.3157 -0.3816
 7087SOL    HW132894   0.434   0.158   8.517 -0.7427  1.0883 -0.2045
 7087SOL    HW232895   0.367   0.171   8.657 -0.5495  0.6825 -0.9812
 7088SOL     OW32896   1.612   3.263   3.206  0.1463  0.1158  0.2581
 7088SOL    HW132897   1.580   3.295   3.121 -0.4465 -0.5884  0.2177
 7088SOL    HW232898   1.699   3.302   3.212  0.8855 -1.3724 -0.8919
 7089SOL     OW32899   2.766   0.301   1.825 -0.4492 -0.1943 -0.4866
 7089SOL    HW132900   2.708   0.368   1.862  0.1294  0.8926 -1.5307
 7089SOL    HW232901   2.771   0.249   1.905 -0.7465 -1.6597 -1.4460
 7090SOL     OW32902   3.194   2.849  17.086  0.3158  0.0762  0.1263
 7090SOL    HW132903   3.241   2.768  17.071  2.0875  1.8085 -3.6024
 7090SOL    HW232904   3.182   2.887  16.999  1.4273  1.5495  0.6130
 7091SOL     OW32905   1.171   3.820  16.893  0.2734  0.4499 -0.5147
 7091SOL    HW132906   1.252   3.850  16.852  2.0946 -1.1110  1.9687
 7091SOL    HW232907   1.113   3.887  16.858 -0.8690  0.6998  1.8632
 7092SOL     OW32908   3.210   1.606  15.999 -0.0794 -0.2498  0.1510
 7092SOL    HW132909   3.142   1.548  15.965 -0.1611 -0.4766  0.6899
 7092SOL    HW232910   3.162   1.688  16.016 -0.5612 -0.3253 -0.8849
 7093SOL     OW32911   4.161   0.015   6.481  0.2038 -0.1672  0.0586
 7093SOL    HW132912   4.193   4.671   6.519  0.4172  0.1632  0.5939
 7093SOL    HW232913   4.076   4.730   6.442 -0.4247  0.0550  1.3000
 7094SOL     OW32914   2.271   3.591   0.071  0.0840 -0.3017  0.1324
 7094SOL    HW132915   2.293   3.503   0.103 -1.1999 -0.0190  1.7911
 7094SOL    HW232916   2.220   3.617   0.147 -0.9553 -0.3388 -0.5586
 7095SOL     OW32917   4.259   3.576   2.731  0.5509 -0.1005 -0.8772
 7095SOL    HW132918   4.332   3.514   2.737  0.9390  0.4945  0.4202
 7095SOL    HW232919   4.227   3.552   2.644  1.0156  1.7880 -1.5715
 7096SOL     OW32920   3.377   1.856   8.189  0.1639  0.3890 -0.0966
 7096SOL    HW132921   3.282   1.858   8.179 -0.1385 -1.7464  2.5787
 7096SOL    HW232922   3.403   1.778   8.236  1.4830  0.4197 -0.7490
 7097SOL     OW32923   2.920   1.616   3.764 -0.4042 -0.4294  0.5572
 7097SOL    HW132924   2.896   1.623   3.856 -0.2827  2.4217  0.3544
 7097SOL    HW232925   3.014   1.597   3.757 -0.3911  0.2967 -1.1704
 7098SOL     OW32926   1.550   1.881   1.485  0.1244  0.6069 -0.0116
 7098SOL    HW132927   1.518   1.803   1.530  1.4883 -0.2408 -0.5207
 7098SOL    HW232928   1.532   1.940   1.557 -1.8421 -1.1886  1.0022
 7099SOL     OW32929   2.047   3.451  11.183  0.1559 -0.6747 -0.0732
 7099SOL    HW132930   2.060   3.361  11.210  0.2438  0.0979  2.4437
 7099SOL    HW232931   1.952   3.459  11.189  0.0732 -0.1472 -1.8263
 7100SOL     OW32932   0.894   0.036   3.624  0.3306  0.2211 -0.3106
 7100SOL    HW132933   0.919   4.697   3.676 -0.5685  0.3099  0.2523
 7100SOL    HW232934   0.853   0.098   3.685  0.2491  1.1583 -1.3246
 7101SOL     OW32935   3.065   3.960   8.319  0.4357  0.2327 -0.2764
 7101SOL    HW132936   2.983   3.915   8.298  0.5545 -0.2871  0.3750
 7101SOL    HW232937   3.116   3.938   8.241  1.5664  0.8348  0.2853
 7102SOL     OW32938   0.879   4.672  11.020 -0.1985 -0.1741  0.2125
 7102SOL    HW132939   0.827   0.001  10.975 -0.9665 -0.1920  1.0732
 7102SOL    HW232940   0.954   4.729  11.036  0.9893 -1.8512  0.5856
 7103SOL     OW32941   3.251   1.136  11.553  0.4321 -0.3257 -0.3704
 7103SOL    HW132942   3.256   1.195  11.629  1.3546  0.4619 -1.0416
 7103SOL    HW232943   3.159   1.118  11.533 -0.2225  0.3383  2.0016
 7104SOL     OW32944   4.454   0.219   4.661  0.1432  0.3509 -0.4382
 7104SOL    HW132945   4.379   0.278   4.669  0.6692  0.9634 -0.0118
 7104SOL    HW232946   4.469   0.187   4.750  0.0964  3.3132  0.6591
 7105SOL     OW32947   0.262   2.718   9.693 -0.6600  0.7419  0.2227
 7105SOL    HW132948   0.306   2.745   9.774 -1.0189 -1.1792  1.0512
 7105SOL    HW232949   0.334   2.672   9.649 -2.1200 -0.7171 -0.6210
 7106SOL     OW32950   1.235   4.128   5.387  0.0222  0.0865 -0.3375
 7106SOL    HW132951   1.168   4.063   5.365  0.2503 -0.7043  1.3327
 7106SOL    HW232952   1.212   4.152   5.476  3.1899 -0.9260  0.7469
 7107SOL     OW32953   0.813   0.642   8.966 -0.0995 -0.1215 -0.2026
 7107SOL    HW132954   0.732   0.635   8.915 -0.3461  3.1506 -0.2469
 7107SOL    HW232955   0.831   0.735   8.954  0.2287 -0.0856  0.5617
 7108SOL     OW32956   3.177   1.096   8.018  0.2963  0.6122 -0.2442
 7108SOL    HW132957   3.246   1.163   8.024  0.6913  0.2089 -0.2476
 7108SOL    HW232958   3.231   1.024   7.985  1.1720  0.5470  1.3586
 7109SOL     OW32959   3.155   3.636  13.690  0.6236  0.0227 -0.2106
 7109SOL    HW132960   3.233   3.585  13.670  0.3384  0.2120 -1.7768
 7109SOL    HW232961   3.167   3.663  13.782  1.0971 -0.4339 -0.1451
 7110SOL     OW32962   2.837   3.777   5.585  0.3787 -0.9472 -0.3405
 7110SOL    HW132963   2.759   3.748   5.631  1.0691 -1.7679  0.3185
 7110SOL    HW232964   2.816   3.759   5.494  1.3865  2.2969 -1.2479
 7111SOL     OW32965   2.156   0.999   9.304  0.6200  0.0399 -0.3291
 7111SOL    HW132966   2.079   0.958   9.345  0.5409 -1.5053 -2.0192
 7111SOL    HW232967   2.125   1.005   9.214  1.7303  1.0766 -0.6411
 7112SOL     OW32968   0.612   0.863  11.704 -0.2288 -0.3553 -0.5426
 7112SOL    HW132969   0.685   0.801  11.710 -1.4331 -1.3954  3.2538
 7112SOL    HW232970   0.622   0.931  11.771 -2.3913 -1.3250  0.7620
 7113SOL     OW32971   3.143   0.075   3.722 -0.3291 -0.4048  0.2877
 7113SOL    HW132972   3.175   4.735   3.677  1.6213  0.0948  0.8158
 7113SOL    HW232973   3.177   0.055   3.809 -0.5892 -0.1784  0.4433
 7114SOL     OW32974   0.863   1.414   3.241 -0.3631 -0.0728  0.6770
 7114SOL    HW132975   0.926   1.349   3.208  0.6075  1.3275 -0.2383
 7114SOL    HW232976   0.856   1.477   3.170  1.5348 -0.0484  0.5015
 7115SOL     OW32977   2.132   1.126  13.301 -0.0525 -0.3450  0.3403
 7115SOL    HW132978   2.223   1.131  13.331  0.7079 -0.4441 -1.8895
 7115SOL    HW232979   2.127   1.031  13.314  1.3522 -0.1032  2.5769
 7116SOL     OW32980   1.329   0.518   7.122 -0.5355  0.1759 -0.1410
 7116SOL    HW132981   1.368   0.553   7.202 -0.6610  1.2671 -0.5562
 7116SOL    HW232982   1.237   0.541   7.133 -0.2870  0.7174  0.8424
 7117SOL     OW32983   0.855   3.428  12.242  0.0445 -0.2137  0.0503
 7117SOL    HW132984   0.910   3.486  12.293  0.6631  1.1663 -2.1588
 7117SOL    HW232985   0.866   3.344  12.285 -0.2328  0.0609  0.6478
 7118SOL     OW32986   1.357   0.726   2.263 -0.0530 -0.3133 -0.4921
 7118SOL    HW132987   1.374   0.797   2.202  0.6658 -0.8906 -0.9656
 7118SOL    HW232988   1.293   0.766   2.321 -0.5801 -0.2538 -1.1180
 7119SOL     OW32989   1.518   3.567  11.133 -0.2197 -0.3260 -0.4684
 7119SOL    HW132990   1.439   3.587  11.084 -0.8099 -0.2054  0.5353
 7119SOL    HW232991   1.518   3.648  11.184  2.2748 -0.6281  0.0197
 7120SOL     OW32992   2.273   2.966   6.993 -0.1477 -0.0701  0.4367
 7120SOL    HW132993   2.271   3.003   6.905  0.8157 -0.2063  0.3572
 7120SOL    HW232994   2.276   2.872   6.975 -0.4863 -0.0219  0.1273
 7121SOL     OW32995   2.890   3.763   8.206  0.2932  0.8367  0.2047
 7121SOL    HW132996   2.917   3.694   8.147 -1.0965  1.6931 -1.4442
 7121SOL    HW232997   2.814   3.723   8.248  0.9703  1.2541  1.8430
 7122SOL     OW32998   1.075   0.907   4.190  0.0356  0.3428  0.2652
 7122SOL    HW132999   1.168   0.913   4.169 -0.6188 -0.7433 -2.9197
 7122SOL    HW233000   1.078   0.911   4.285 -1.4880 -3.7651  0.4504
 7123SOL     OW33001   3.243   2.068   7.141  0.0833 -0.1362 -0.5435
 7123SOL    HW133002   3.335   2.083   7.163  0.3070 -0.6615 -1.1358
 7123SOL    HW233003   3.235   2.071   7.046  0.4318 -0.4261 -0.5807
 7124SOL     OW33004   2.015   3.145  10.442 -0.0874 -0.0471  0.0837
 7124SOL    HW133005   2.056   3.199  10.375 -0.1408 -0.5708 -0.3697
 7124SOL    HW233006   1.953   3.205  10.484  0.5052 -0.9571  2.2980
 7125SOL     OW33007   3.224   4.321  17.429  0.7883 -0.3616 -0.4480
 7125SOL    HW133008   3.314   4.291  17.417  0.0738 -1.2877 -3.2905
 7125SOL    HW233009   3.209   4.290  17.519  4.3768  1.5820  0.8261
 7126SOL     OW33010   1.260   0.312   6.517  0.1376  0.0362 -0.4288
 7126SOL    HW133011   1.303   0.397   6.519  3.4956 -1.7157  2.8376
 7126SOL    HW233012   1.293   0.278   6.433  0.3159  0.8790 -0.6954
 7127SOL     OW33013   2.224   3.073   4.247 -0.1487 -0.0864  0.6634
 7127SOL    HW133014   2.242   3.107   4.334 -2.3165  2.4461  0.1080
 7127SOL    HW233015   2.184   3.150   4.206 -1.2486 -1.1944 -0.3549
 7128SOL     OW33016   1.242   3.454   2.698 -0.1833  0.6425 -0.5718
 7128SOL    HW133017   1.333   3.430   2.682  0.6073  1.3615  2.8494
 7128SOL    HW233018   1.266   3.544   2.720  2.7985 -0.7874  1.9735
 7129SOL     OW33019   0.491   0.458  12.864  0.4715  0.0916  0.2452
 7129SOL    HW133020   0.544   0.489  12.790  1.1248 -1.6549 -0.0204
 7129SOL    HW233021   0.524   0.504  12.942  1.7177  1.1376 -0.8848
 7130SOL     OW33022   0.864   0.226   5.181  0.1161 -0.0653  0.0622
 7130SOL    HW133023   0.867   0.164   5.255 -1.4298  1.0116  1.0274
 7130SOL    HW233024   0.925   0.178   5.125  0.2851  1.4821 -1.0719
 7131SOL     OW33025   4.322   4.389   4.546  0.6954  0.3209 -0.1634
 7131SOL    HW133026   4.287   4.335   4.617 -0.3745  0.4607 -0.5797
 7131SOL    HW233027   4.408   4.347   4.548  0.8502  0.7394  3.5931
 7132SOL     OW33028   2.518   1.973  11.926  0.1114 -0.5118 -0.0728
 7132SOL    HW133029   2.499   2.003  12.016  0.2416  0.9789 -0.5328
 7132SOL    HW233030   2.477   1.887  11.924  0.6914 -0.7862  0.0271
 7133SOL     OW33031   0.036   1.531   8.917 -0.1578  0.1561  0.0698
 7133SOL    HW133032   0.110   1.478   8.945 -1.2175 -1.1684  0.3366
 7133SOL    HW233033   0.034   1.528   8.821  0.6181  1.9959 -0.0122
 7134SOL     OW33034   1.412   2.157  12.411 -0.8298 -1.0271 -0.0319
 7134SOL    HW133035   1.470   2.148  12.335  1.0671  0.8837  1.1933
 7134SOL    HW233036   1.401   2.067  12.441 -0.3157 -0.8520  0.6979
 7135SOL     OW33037   4.244   0.373   6.003  0.2624  0.6958  0.0403
 7135SOL    HW133038   4.233   0.302   5.940 -1.8119  0.7767  0.3192
 7135SOL    HW233039   4.201   0.336   6.081  1.3225 -1.3717 -0.3696
 7136SOL     OW33040   2.909   1.929  14.117  0.1819 -0.5369  0.5421
 7136SOL    HW133041   2.881   1.873  14.189  0.5877 -0.4387  0.7758
 7136SOL    HW233042   2.862   1.891  14.043 -0.6660 -1.8007  1.7113
 7137SOL     OW33043   3.568   1.661   4.616 -0.5189  0.5302 -0.0202
 7137SOL    HW133044   3.489   1.676   4.564 -1.0219  1.0443  0.8967
 7137SOL    HW233045   3.613   1.581   4.587  1.2370  0.5198  2.7448
 7138SOL     OW33046   4.138   3.035   1.079 -0.2517  0.0396  0.1455
 7138SOL    HW133047   4.095   3.028   0.994 -1.0109 -1.9823  0.7152
 7138SOL    HW233048   4.167   2.947   1.100  1.3421  0.7393  0.8759
 7139SOL     OW33049   0.897   1.701  13.906 -0.2700  0.4140  0.2168
 7139SOL    HW133050   0.877   1.794  13.920  0.9709  0.6237  0.5525
 7139SOL    HW233051   0.992   1.705  13.899 -0.2947  2.5715  1.2904
 7140SOL     OW33052   0.386   4.008   4.359  0.5201 -0.3374  0.1904
 7140SOL    HW133053   0.368   4.036   4.269  0.2616 -0.0084  0.3468
 7140SOL    HW233054   0.355   4.087   4.403  1.0579  0.0200 -0.0770
 7141SOL     OW33055   0.504   0.364   3.876  0.0708  0.0812 -0.3694
 7141SOL    HW133056   0.463   0.327   3.797  0.6013 -1.4989  0.0987
 7141SOL    HW233057   0.435   0.420   3.911  0.0659  0.2752 -0.6843
 7142SOL     OW33058   0.673   1.287   3.908 -0.3308 -0.2623  0.4006
 7142SOL    HW133059   0.757   1.325   3.934 -0.9428 -0.4680  2.7226
 7142SOL    HW233060   0.645   1.238   3.985  0.1180 -1.2799 -0.0928
 7143SOL     OW33061   1.929   1.386   4.291  0.6707  0.3312 -0.7296
 7143SOL    HW133062   1.911   1.467   4.243 -1.5910 -0.4970 -1.2773
 7143SOL    HW233063   1.937   1.321   4.221  0.8143 -0.0725 -0.3344
 7144SOL     OW33064   2.485   0.640   1.757  0.7739  0.3236 -0.0343
 7144SOL    HW133065   2.479   0.644   1.661  0.3685 -1.4421 -0.0857
 7144SOL    HW233066   2.412   0.694   1.785  1.5287  1.2013  0.2278
 7145SOL     OW33067   4.101   1.637   4.450  0.7294  0.1547 -0.0710
 7145SOL    HW133068   4.156   1.572   4.407  0.2795 -1.3394  1.5798
 7145SOL    HW233069   4.058   1.590   4.522  0.4336  1.4598  0.6048
 7146SOL     OW33070   0.788   1.571   0.056 -0.0142 -0.1218  0.2211
 7146SOL    HW133071   0.721   1.539  17.747  0.4460  2.3046 -1.5709
 7146SOL    HW233072   0.808   1.488   0.100 -0.7293  0.7142  2.1349
 7147SOL     OW33073   1.825   3.987   3.041 -0.3455 -0.0706  0.1451
 7147SOL    HW133074   1.856   4.059   2.986 -2.3286  1.0206  0.4607
 7147SOL    HW233075   1.731   3.989   3.023 -0.3110  1.3788  0.1180
 7148SOL     OW33076   1.220   1.127  16.808 -0.3489  0.8214 -0.4509
 7148SOL    HW133077   1.171   1.209  16.811  0.3959  1.1681  1.7562
 7148SOL    HW233078   1.159   1.066  16.767  0.7003 -0.9263  0.5809
 7149SOL     OW33079   1.661   4.468  12.360  0.1847 -0.3715  0.3785
 7149SOL    HW133080   1.650   4.494  12.269  1.1450 -0.2580  0.2878
 7149SOL    HW233081   1.581   4.415  12.357 -0.3430  0.4237  0.6390
 7150SOL     OW33082   4.464   2.263  10.099 -0.2912 -0.6036  0.3660
 7150SOL    HW133083   4.425   2.249  10.013  0.1126  0.2647  0.0406
 7150SOL    HW233084   4.391   2.247  10.159  0.5182 -1.3466  1.1727
 7151SOL     OW33085   4.341   1.872   2.332  0.0916  0.2111  0.1627
 7151SOL    HW133086   4.420   1.924   2.347  0.5063  0.0369 -1.5143
 7151SOL    HW233087   4.279   1.915   2.392  0.1715 -0.0340  0.4243
 7152SOL     OW33088   0.746   2.311   5.391  0.0233 -0.3243  0.1393
 7152SOL    HW133089   0.821   2.342   5.341 -0.8082 -1.9169 -2.0941
 7152SOL    HW233090   0.701   2.272   5.316 -1.5702  1.2403  0.2827
 7153SOL     OW33091   0.875   2.524  17.395  0.0106  0.0349 -1.0117
 7153SOL    HW133092   0.926   2.601  17.371 -0.1690  0.5700  0.3199
 7153SOL    HW233093   0.910   2.511  17.483 -0.7741 -0.5084 -0.7783
 7154SOL     OW33094   1.971   3.658   3.966  0.4836 -0.4643  0.5609
 7154SOL    HW133095   2.038   3.676   4.033  1.1304 -0.7524 -0.0140
 7154SOL    HW233096   1.971   3.745   3.927  0.4692 -0.8912 -0.3764
 7155SOL     OW33097   2.272   3.367   9.079  0.1288  0.1453  0.8390
 7155SOL    HW133098   2.245   3.357   8.988  1.9305  1.7946  0.1100
 7155SOL    HW233099   2.188   3.371   9.125  0.1932  1.5902  0.8244
 7156SOL     OW33100   1.168   2.052   8.286  0.1991 -0.7455 -0.3138
 7156SOL    HW133101   1.228   2.125   8.269  0.9904 -1.1907  0.5560
 7156SOL    HW233102   1.099   2.053   8.219  0.5449  0.1345 -0.6613
 7157SOL     OW33103   0.212   2.932  10.474  0.3643  0.2283 -0.2448
 7157SOL    HW133104   0.132   2.963  10.515  0.0649  0.6073 -1.1112
 7157SOL    HW233105   0.209   2.844  10.510 -2.6791  0.8373  0.9781
 7158SOL     OW33106   1.032   3.227   1.784  0.0557 -0.1465 -0.3398
 7158SOL    HW133107   1.091   3.302   1.787  0.4682 -0.5476  1.1605
 7158SOL    HW233108   1.082   3.162   1.735  0.9347 -0.4305  0.9446
 7159SOL     OW33109   4.101   1.990  10.289  0.1368  0.2232 -0.0145
 7159SOL    HW133110   4.011   1.958  10.291  0.3650 -0.6514 -3.7745
 7159SOL    HW233111   4.141   1.909  10.256 -1.0917  0.1723 -1.3517
 7160SOL     OW33112   4.233   4.184   3.422  0.3678 -0.3668 -0.2825
 7160SOL    HW133113   4.154   4.206   3.372 -0.4005 -0.9205  0.6991
 7160SOL    HW233114   4.261   4.121   3.356  0.2531 -1.3825  0.6527
 7161SOL     OW33115   2.835   4.222   4.418 -0.2930 -0.0674 -0.2142
 7161SOL    HW133116   2.903   4.216   4.484  0.5954 -0.4685 -1.1579
 7161SOL    HW233117   2.871   4.293   4.364 -0.8485  1.7590  1.8219
 7162SOL     OW33118   1.331   1.352   6.785  0.0074  0.1935  0.0550
 7162SOL    HW133119   1.395   1.348   6.714  0.3420  1.1099  0.2999
 7162SOL    HW233120   1.354   1.276   6.839  3.1199  1.2487  0.2494
 7163SOL     OW33121   1.636   0.553   4.775  0.2839 -0.0171  0.2910
 7163SOL    HW133122   1.574   0.527   4.708  0.3021 -2.5130  1.2446
 7163SOL    HW233123   1.661   0.469   4.813  1.9725  1.4692  2.4816
 7164SOL     OW33124   2.646   0.245   7.973  0.0126  0.0149  0.0086
 7164SOL    HW133125   2.645   0.329   7.927 -0.3924 -0.9360 -1.7152
 7164SOL    HW233126   2.596   0.265   8.053  0.8512  1.1005  0.2722
 7165SOL     OW33127   1.456   0.437   6.159 -0.1731  0.1437 -0.0415
 7165SOL    HW133128   1.402   0.372   6.204 -0.8114  0.8903  0.2823
 7165SOL    HW233129   1.511   0.462   6.234  0.3222 -0.9078 -0.0586
 7166SOL     OW33130   3.539   2.539  16.044 -0.0568 -0.1288  0.2056
 7166SOL    HW133131   3.600   2.576  15.980 -0.7964 -0.2682 -0.5796
 7166SOL    HW233132   3.598   2.492  16.103  0.1768  0.5240  0.4923
 7167SOL     OW33133   0.736   3.740   2.311  0.3584  0.3689  0.2581
 7167SOL    HW133134   0.699   3.712   2.227  2.8405 -2.7443  0.2238
 7167SOL    HW233135   0.669   3.706   2.370 -0.5709  0.0632 -0.9563
 7168SOL     OW33136   0.369   3.428  13.446  0.3159  0.4628 -0.2311
 7168SOL    HW133137   0.381   3.516  13.412  0.3166  0.4042 -0.3829
 7168SOL    HW233138   0.312   3.454  13.518  0.6287 -0.9563  0.5318
 7169SOL     OW33139   2.539   0.046   4.218  0.1880  0.5724  0.5907
 7169SOL    HW133140   2.493   0.116   4.264 -0.1815  0.4057  0.4748
 7169SOL    HW233141   2.630   0.075   4.226  0.3648 -0.0211  0.7736
 7170SOL     OW33142   2.829   1.663   7.008 -0.6452 -0.7258 -0.2702
 7170SOL    HW133143   2.925   1.665   7.001 -0.5434 -3.1733  0.5482
 7170SOL    HW233144   2.807   1.755   6.990 -2.0948 -0.6046  2.2240
 7171SOL     OW33145   1.716   1.652   9.144 -0.1065 -0.3526 -0.2309
 7171SOL    HW133146   1.707   1.657   9.239 -2.2887  0.7969 -0.4947
 7171SOL    HW233147   1.654   1.584   9.118  2.2408 -1.5142 -2.7778
 7172SOL     OW33148   3.524   1.461   1.448 -0.1202 -0.1559 -0.0681
 7172SOL    HW133149   3.434   1.437   1.423 -0.7795 -0.1788  2.2991
 7172SOL    HW233150   3.514   1.519   1.523  1.0786  0.0606 -0.0748
 7173SOL     OW33151   0.676   4.362  15.314 -0.4435  0.2918  0.3141
 7173SOL    HW133152   0.699   4.453  15.297 -0.4638  0.2072 -0.1838
 7173SOL    HW233153   0.725   4.347  15.395 -1.4479  0.3433  0.9256
 7174SOL     OW33154   3.679   1.307   6.099  0.5598  0.1883 -0.1031
 7174SOL    HW133155   3.705   1.377   6.039  2.7313 -0.9215 -0.4494
 7174SOL    HW233156   3.583   1.308   6.095  0.6042  0.5541 -1.0739
 7175SOL     OW33157   3.987   2.202   0.594 -0.4518  0.3021 -0.1226
 7175SOL    HW133158   3.942   2.285   0.610 -0.4559  0.1696  0.5533
 7175SOL    HW233159   4.015   2.181   0.683  0.0733 -1.0587 -0.5991
 7176SOL     OW33160   2.102   0.686   7.432  0.5583  0.2769 -0.1190
 7176SOL    HW133161   2.144   0.604   7.404 -1.4114  0.0961 -2.6112
 7176SOL    HW233162   2.013   0.665   7.461 -0.1199  1.8119 -1.0799
 7177SOL     OW33163   3.284   2.147  11.899 -0.3455  0.1293 -0.0903
 7177SOL    HW133164   3.336   2.083  11.947  0.1932  1.0054  0.4959
 7177SOL    HW233165   3.288   2.117  11.808  1.4797  2.2252 -0.7015
 7178SOL     OW33166   1.373   3.961   3.880 -0.7077  0.3800  0.5435
 7178SOL    HW133167   1.446   3.977   3.820 -0.4793  0.5833  0.8751
 7178SOL    HW233168   1.393   4.007   3.961 -0.5643  0.5180  0.4301
 7179SOL     OW33169   3.483   3.283   9.498  0.4969  0.0721  0.0964
 7179SOL    HW133170   3.568   3.327   9.502  0.6510 -0.2936  0.8827
 7179SOL    HW233171   3.433   3.363   9.481  1.2277  0.5455  0.1348
 7180SOL     OW33172   3.852   3.715   8.856  0.0825 -0.3030  0.0424
 7180SOL    HW133173   3.928   3.658   8.871 -0.1673  0.1677  3.0828
 7180SOL    HW233174   3.813   3.680   8.776 -0.4613 -0.0986  0.2212
 7181SOL     OW33175   1.145   2.810   8.377  0.4022 -0.3489  0.4264
 7181SOL    HW133176   1.172   2.780   8.290 -0.7885 -0.5675  0.1235
 7181SOL    HW233177   1.161   2.738   8.437  1.4953  0.1870  0.7763
 7182SOL     OW33178   3.329   2.116  17.395  0.3829 -0.3640  0.0192
 7182SOL    HW133179   3.303   2.048  17.457 -3.7491  0.6536 -0.6436
 7182SOL    HW233180   3.396   2.076  17.340  0.2711  1.5167 -1.4787
 7183SOL     OW33181   3.441   1.252   7.502  0.1807 -0.6605  0.4515
 7183SOL    HW133182   3.535   1.265   7.491  0.2176  0.4535  2.0875
 7183SOL    HW233183   3.415   1.185   7.439 -1.0727  0.2510  0.0135
 7184SOL     OW33184   3.935   0.240   4.089 -0.0337  0.0559  0.3461
 7184SOL    HW133185   3.905   0.312   4.034  0.6462  0.6754  0.7872
 7184SOL    HW233186   4.028   0.246   4.066 -0.3441  0.5372 -0.7661
 7185SOL     OW33187   4.024   4.559   8.870  0.4115  0.1085  0.3485
 7185SOL    HW133188   3.931   4.535   8.865 -0.0649  1.7859  1.0314
 7185SOL    HW233189   4.057   4.470   8.880 -1.1519 -0.2350  2.5371
 7186SOL     OW33190   0.672   2.918   7.585  0.0868 -0.4174 -0.2674
 7186SOL    HW133191   0.729   2.842   7.587  1.9583  0.9285 -2.6637
 7186SOL    HW233192   0.692   2.945   7.495  0.4430  1.6268  0.4156
 7187SOL     OW33193   1.780   3.556  11.699 -0.4147  0.2956  0.2913
 7187SOL    HW133194   1.844   3.565  11.628  0.4128 -0.1761  0.9775
 7187SOL    HW233195   1.711   3.608  11.657  1.2583  1.0877 -1.5046
 7188SOL     OW33196   2.191   4.496  14.412 -0.6726  0.0874  0.4495
 7188SOL    HW133197   2.155   4.516  14.498 -0.5623  0.3496  0.4319
 7188SOL    HW233198   2.165   4.577  14.369 -0.0175  0.9257  1.6244
 7189SOL     OW33199   2.975   3.043   3.071 -0.1151 -0.0235 -0.0768
 7189SOL    HW133200   3.033   3.017   3.000  0.5666 -1.8150  1.1397
 7189SOL    HW233201   2.896   3.079   3.031 -0.7881 -1.0856  0.2798
 7190SOL     OW33202   0.579   0.671   7.240  0.1678 -0.3789  0.3201
 7190SOL    HW133203   0.496   0.714   7.257  0.6627 -0.0443  1.8270
 7190SOL    HW233204   0.584   0.709   7.152 -3.2669  1.3033  0.8500
 7191SOL     OW33205   3.781   1.751   7.115 -0.2162  0.1251  0.3186
 7191SOL    HW133206   3.803   1.772   7.206 -0.0839  0.1536  0.2806
 7191SOL    HW233207   3.701   1.699   7.117  0.3448 -0.7169  1.3962
 7192SOL     OW33208   2.303   3.983   3.202  0.2803 -0.2001 -0.3045
 7192SOL    HW133209   2.232   4.047   3.198  1.6336  1.4130  1.4233
 7192SOL    HW233210   2.266   3.925   3.268  0.8213 -2.8239 -2.3319
 7193SOL     OW33211   4.081   3.087   4.632 -0.1495  0.1393  0.0770
 7193SOL    HW133212   4.077   3.063   4.539 -2.1133 -3.0372  1.0005
 7193SOL    HW233213   4.058   3.003   4.671 -2.2518 -0.4109 -2.4117
 7194SOL     OW33214   0.858   2.038   2.436  0.1121  0.2034 -0.1711
 7194SOL    HW133215   0.926   2.095   2.472  0.8818  0.6558 -2.3605
 7194SOL    HW233216   0.899   2.026   2.351 -0.0981 -0.8561 -0.1233
 7195SOL     OW33217   0.372   1.724   5.890  0.5594 -0.5287  0.2528
 7195SOL    HW133218   0.440   1.777   5.931  0.3669 -0.5634  0.6272
 7195SOL    HW233219   0.300   1.783   5.915  0.0782 -0.4911 -1.2451
 7196SOL     OW33220   3.238   0.191   2.891  0.5835 -0.3231  0.2223
 7196SOL    HW133221   3.223   0.202   2.985 -0.4174  0.1193  0.0246
 7196SOL    HW233222   3.270   0.101   2.892  1.0290 -0.1744 -1.1057
 7197SOL     OW33223   1.066   2.505   8.745  0.2872 -0.3100 -0.0396
 7197SOL    HW133224   1.091   2.508   8.652  2.7547 -1.4875  0.5876
 7197SOL    HW233225   1.030   2.417   8.755 -0.1726 -0.0963  0.1625
 7198SOL     OW33226   3.691   0.302  14.553 -0.2736  0.5061 -0.4718
 7198SOL    HW133227   3.717   0.292  14.461 -2.2404  2.1409 -1.2049
 7198SOL    HW233228   3.659   0.392  14.551  0.1016  0.6048 -3.1374
 7199SOL     OW33229   4.709   1.093   5.654 -0.8500 -0.1991  0.3015
 7199SOL    HW133230   0.009   1.012   5.620  0.1227  0.6268 -0.5933
 7199SOL    HW233231   4.722   1.155   5.582  1.6812 -2.1547 -0.9016
 7200SOL     OW33232   2.082   2.194   7.864  0.0857 -0.0008  0.5443
 7200SOL    HW133233   2.151   2.128   7.872  0.3435  0.2692  0.5450
 7200SOL    HW233234   2.027   2.150   7.799 -1.2760  2.1882  0.1744
 7201SOL     OW33235   2.907   1.789   0.960  0.3626  0.0936  0.0187
 7201SOL    HW133236   2.829   1.761   0.913  0.0786  0.1227  0.4717
 7201SOL    HW233237   2.978   1.758   0.903 -0.0103  1.2079 -1.0553
 7202SOL     OW33238   3.908   1.313   2.003 -0.1852 -0.1847 -0.0048
 7202SOL    HW133239   3.887   1.231   1.957 -1.4874 -1.1537  2.3392
 7202SOL    HW233240   3.842   1.312   2.072 -1.8643  0.7621 -1.5781
 7203SOL     OW33241   1.957   2.864   4.864 -0.3764 -0.5446  0.2600
 7203SOL    HW133242   2.041   2.905   4.842 -0.7774  1.2861  2.0961
 7203SOL    HW233243   1.954   2.797   4.795 -0.4717  0.9606 -1.2145
 7204SOL     OW33244   4.635   0.528   6.563  0.1801 -0.0854 -0.0639
 7204SOL    HW133245   4.630   0.550   6.470 -0.2995 -0.0800 -0.0361
 7204SOL    HW233246   4.705   0.463   6.557  0.0920 -0.2141  0.3029
 7205SOL     OW33247   1.007   3.981   5.259  0.0158 -0.2549 -0.1518
 7205SOL    HW133248   0.945   4.023   5.199  0.3450  1.3327  0.6403
 7205SOL    HW233249   1.012   3.893   5.221  0.6158 -0.1946 -0.2051
 7206SOL     OW33250   1.862   1.275   7.235 -0.3832  0.4651  0.1250
 7206SOL    HW133251   1.951   1.308   7.227  0.2226 -1.6732 -1.7456
 7206SOL    HW233252   1.831   1.336   7.168 -0.1544  1.0159  0.5138
 7207SOL     OW33253   0.972   0.243   8.084 -0.6954 -0.1810 -0.0818
 7207SOL    HW133254   0.894   0.255   8.030 -2.0802  0.1290  1.9522
 7207SOL    HW233255   0.939   0.179   8.147  0.8071 -0.8831 -0.0017
 7208SOL     OW33256   1.553   3.966   5.797 -0.1008  0.4215  0.0053
 7208SOL    HW133257   1.504   4.026   5.740 -1.8718  0.3322  1.4470
 7208SOL    HW233258   1.593   4.040   5.843 -0.3411 -0.5663  1.8138
 7209SOL     OW33259   2.614   1.957   4.039 -0.3894  0.0367  0.7453
 7209SOL    HW133260   2.533   1.998   4.008 -0.1272  0.5459  0.7355
 7209SOL    HW233261   2.651   1.913   3.962 -0.8314 -0.1496  0.6401
 7210SOL     OW33262   1.681   3.010   0.624  0.3057 -0.6727  0.2923
 7210SOL    HW133263   1.699   3.086   0.570  1.2543  0.3007  1.9728
 7210SOL    HW233264   1.739   3.040   0.694  2.2230  0.9014 -1.9908
 7211SOL     OW33265   0.751   4.346  13.554  0.1107 -0.2066  0.2783
 7211SOL    HW133266   0.791   4.412  13.610 -0.6873 -0.5246  1.2309
 7211SOL    HW233267   0.669   4.343  13.603  0.9502  1.7484  1.7774
 7212SOL     OW33268   1.127   3.957  11.143 -0.1208 -0.5149  0.7851
 7212SOL    HW133269   1.121   3.891  11.212  0.8634 -1.6798 -0.2422
 7212SOL    HW233270   1.034   3.965  11.123  0.2696  2.1972  0.1454
 7213SOL     OW33271   3.503   4.270  12.558 -0.0480 -0.2900 -0.2389
 7213SOL    HW133272   3.479   4.266  12.650 -1.2577  0.7417 -0.5206
 7213SOL    HW233273   3.426   4.319  12.529 -0.2949  0.2474  1.3634
 7214SOL     OW33274   2.419   1.481   3.558 -0.0478 -0.0412 -0.5568
 7214SOL    HW133275   2.404   1.387   3.550 -0.3159 -0.2918  2.7492
 7214SOL    HW233276   2.514   1.478   3.553  0.0235 -0.2133  1.0303
 7215SOL     OW33277   0.259   1.988   7.229  0.6474  0.7089  0.1208
 7215SOL    HW133278   0.338   1.963   7.182  0.7110  0.9381  0.1030
 7215SOL    HW233279   0.213   2.048   7.170  2.3539  0.6318 -1.2643
 7216SOL     OW33280   1.993   0.822   6.587 -0.5342 -0.2067  0.2097
 7216SOL    HW133281   1.981   0.815   6.492  1.0831 -1.7104  0.1240
 7216SOL    HW233282   2.088   0.817   6.591 -0.4260  0.9638 -1.1120
 7217SOL     OW33283   0.774   1.920  15.211 -0.4021  0.3401  0.3461
 7217SOL    HW133284   0.818   1.907  15.127  0.2365 -0.9912  0.8973
 7217SOL    HW233285   0.688   1.942  15.173  0.7978  2.2677 -1.2347
 7218SOL     OW33286   1.733   3.815   7.589  0.3033  0.0753 -0.7410
 7218SOL    HW133287   1.828   3.827   7.593  0.5055 -0.7416 -2.5707
 7218SOL    HW233288   1.711   3.894   7.539 -0.3270  1.2256  1.3856
 7219SOL     OW33289   3.109   0.486  16.508 -0.1319 -0.2466 -0.3316
 7219SOL    HW133290   3.050   0.514  16.438  0.1149  1.3255  0.1034
 7219SOL    HW233291   3.088   0.394  16.524 -1.9347 -0.1639 -2.2008
 7220SOL     OW33292   3.358   0.853   2.663  0.0621 -0.3905 -0.0380
 7220SOL    HW133293   3.444   0.893   2.651 -0.2807  0.1969 -0.5896
 7220SOL    HW233294   3.346   0.839   2.757 -0.7730  1.8072  0.1951
 7221SOL     OW33295   0.639   2.867   2.655 -0.0620  0.2591 -0.3809
 7221SOL    HW133296   0.693   2.940   2.624  0.3254  0.7195  1.3724
 7221SOL    HW233297   0.612   2.893   2.743  0.5365 -0.2295 -0.0533
 7222SOL     OW33298   2.499   2.815   9.004 -0.2262  0.2855 -0.0607
 7222SOL    HW133299   2.506   2.768   9.088 -0.9694  0.0501 -0.1295
 7222SOL    HW233300   2.528   2.905   9.019  0.1581  0.2702 -0.7429
 7223SOL     OW33301   0.930   1.302   2.465 -0.2762  0.8754  0.0424
 7223SOL    HW133302   0.905   1.211   2.450  1.2938  0.7657 -1.9208
 7223SOL    HW233303   0.948   1.298   2.559 -1.7065  0.8422  0.3157
 7224SOL     OW33304   0.465   0.913   0.735 -0.1671 -0.1790 -0.2559
 7224SOL    HW133305   0.501   0.999   0.712  1.1086 -1.0123 -1.4241
 7224SOL    HW233306   0.480   0.874   0.648 -0.3089 -1.8164  0.4592
 7225SOL     OW33307   4.681   2.748   4.571  0.2141  0.0484  0.1580
 7225SOL    HW133308   4.627   2.826   4.584 -0.3192 -0.2960  0.0339
 7225SOL    HW233309   4.609   2.690   4.545 -0.9104  0.2694  2.8125
 7226SOL     OW33310   4.678   1.594   6.077 -0.3786  0.3272  0.2046
 7226SOL    HW133311   4.656   1.535   6.149  2.9443  0.3497  1.2221
 7226SOL    HW233312   4.662   1.679   6.117 -0.5741 -0.3923  1.6729
 7227SOL     OW33313   0.975   3.231  15.945 -0.0605 -0.1957 -0.4531
 7227SOL    HW133314   0.985   3.152  15.891  0.3681  0.8194 -1.8730
 7227SOL    HW233315   1.059   3.275  15.929  1.1159 -2.5003 -0.7065
 7228SOL     OW33316   2.771   4.101  17.197 -0.2002 -0.3605  0.1525
 7228SOL    HW133317   2.793   4.008  17.197  4.5210  0.7750  3.8922
 7228SOL    HW233318   2.730   4.110  17.110 -1.1217 -1.4749  0.4718
 7229SOL     OW33319   4.090   1.199   3.312 -0.4742  0.2455  0.1241
 7229SOL    HW133320   4.020   1.155   3.265  1.6270 -3.0596  0.0408
 7229SOL    HW233321   4.076   1.284   3.271  0.5109 -0.7247 -2.2065
 7230SOL     OW33322   4.256   0.486   8.619  0.0568  0.5306 -0.0604
 7230SOL    HW133323   4.332   0.464   8.565 -0.4159 -0.3000 -0.3939
 7230SOL    HW233324   4.205   0.406   8.605 -0.9360  1.0597  0.5957
 7231SOL     OW33325   0.652   0.453   2.587  0.2816  0.0078 -0.7144
 7231SOL    HW133326   0.744   0.464   2.612  0.0632 -1.3023  0.6566
 7231SOL    HW233327   0.605   0.429   2.667  1.2243  1.7222  0.3623
 7232SOL     OW33328   4.369   3.797   9.081 -1.1773  0.2964  0.0961
 7232SOL    HW133329   4.414   3.796   8.996 -0.3667  0.3718  0.5250
 7232SOL    HW233330   4.381   3.703   9.098 -1.7558  0.0562 -0.8195
 7233SOL     OW33331   3.806   0.681   9.028  0.4437 -0.4205 -0.2553
 7233SOL    HW133332   3.725   0.637   9.052 -0.5674 -0.4932 -3.7176
 7233SOL    HW233333   3.833   0.655   8.939 -0.6800 -2.3886 -0.0168
 7234SOL     OW33334   1.424   3.632  15.562 -0.1737 -0.0471  0.5082
 7234SOL    HW133335   1.478   3.647  15.640  1.5167 -3.6103  0.0305
 7234SOL    HW233336   1.339   3.607  15.599  0.7295 -0.5785  2.2226
 7235SOL     OW33337   3.657   0.906   6.765 -0.6551  0.2395  0.0316
 7235SOL    HW133338   3.655   0.992   6.807  1.9285 -0.2978  1.2058
 7235SOL    HW233339   3.747   0.873   6.767  0.2708  2.7832  0.4150
 7236SOL     OW33340   2.966   4.236   4.656 -0.2209  0.6745 -0.2210
 7236SOL    HW133341   2.981   4.331   4.663 -1.6381  0.8313  0.5816
 7236SOL    HW233342   3.036   4.205   4.714 -0.3910  0.2386 -0.2532
 7237SOL     OW33343   4.483   4.391   6.499 -0.4878  0.2600 -0.2844
 7237SOL    HW133344   4.389   4.384   6.486 -0.5209 -1.1746  0.6962
 7237SOL    HW233345   4.482   4.412   6.593  0.5053 -0.5573 -0.0795
 7238SOL     OW33346   4.013   2.577  17.711  0.8741 -0.2621 -0.1576
 7238SOL    HW133347   4.064   2.499  17.688 -0.6046 -1.1540 -0.3739
 7238SOL    HW233348   3.939   2.586  17.651  1.4338 -1.7005 -1.0658
 7239SOL     OW33349   2.404   1.307   8.673 -0.3014  0.3813  0.1579
 7239SOL    HW133350   2.479   1.366   8.665 -0.6449  1.2650  3.0885
 7239SOL    HW233351   2.435   1.217   8.666  3.5660  1.7901 -0.5793
 7240SOL     OW33352   0.081   3.712  10.767  0.2576 -0.4026  0.0242
 7240SOL    HW133353   0.127   3.779  10.818  0.0351  1.3485 -2.0748
 7240SOL    HW233354   0.150   3.700  10.701  0.7834  0.9546  0.3314
 7241SOL     OW33355   2.754   0.322   4.844 -0.2642  0.0274  0.3249
 7241SOL    HW133356   2.822   0.268   4.886 -0.3870 -0.3020  0.1047
 7241SOL    HW233357   2.733   0.275   4.763  0.7488  1.5959 -0.8421
 7242SOL     OW33358   2.640   1.629   1.963  0.3516 -0.2135 -0.2064
 7242SOL    HW133359   2.643   1.545   2.008 -0.9160 -0.5106 -0.6785
 7242SOL    HW233360   2.577   1.685   2.009  0.7323 -0.6858  0.8826
 7243SOL     OW33361   1.235   2.413  15.094  0.6707 -0.8849  0.2759
 7243SOL    HW133362   1.208   2.480  15.157  0.0740 -0.9686  0.1154
 7243SOL    HW233363   1.206   2.332  15.136 -0.9614  0.4244  1.7021
 7244SOL     OW33364   1.452   2.699   8.497 -0.4499  0.1762  0.0823
 7244SOL    HW133365   1.439   2.607   8.473 -0.4418  0.8364 -2.4407
 7244SOL    HW233366   1.391   2.704   8.571 -2.1115 -0.6233 -1.2411
 7245SOL     OW33367   2.964   4.507  14.025  0.1977  0.1938  0.2878
 7245SOL    HW133368   2.964   4.452  13.946  0.0711  0.3000  0.2137
 7245SOL    HW233369   2.878   4.492  14.063 -0.2772 -1.1427 -1.3372
 7246SOL     OW33370   4.630   1.388  12.420 -0.1657 -0.5108  0.6480
 7246SOL    HW133371   4.552   1.440  12.439 -0.8140 -0.3028 -2.5249
 7246SOL    HW233372   4.663   1.441  12.348 -1.8123 -1.0500 -0.4992
 7247SOL     OW33373   0.054   2.391   3.941  0.4047  0.7406 -0.0835
 7247SOL    HW133374   0.135   2.348   3.968  0.6918  0.9138 -0.6730
 7247SOL    HW233375   0.062   2.387   3.846 -1.4420  0.4776 -0.2318
 7248SOL     OW33376   0.049   0.041   8.271 -0.3702  0.3948 -0.2773
 7248SOL    HW133377   0.031   4.685   8.273 -1.0183  0.5563  1.3607
 7248SOL    HW233378   0.086   0.055   8.184 -0.2999 -1.3893 -0.5325
 7249SOL     OW33379   0.283   4.192   8.996  0.3033  0.0465 -0.4534
 7249SOL    HW133380   0.353   4.175   8.934 -0.4166 -0.1547 -1.2029
 7249SOL    HW233381   0.323   4.183   9.083 -0.2061  0.7041 -0.1484
 7250SOL     OW33382   3.508   1.445   0.503  0.1882  0.1001 -0.0104
 7250SOL    HW133383   3.595   1.427   0.538 -0.5840 -1.3704  1.1293
 7250SOL    HW233384   3.482   1.358   0.471  1.0455 -0.5189  0.9886
 7251SOL     OW33385   2.240   2.246  14.394 -0.2500  0.5534  0.5249
 7251SOL    HW133386   2.313   2.300  14.365 -0.5114  1.2387  1.1284
 7251SOL    HW233387   2.248   2.241  14.490  1.9313 -0.3040  0.2968
 7252SOL     OW33388   0.850   0.373   4.664  0.0844 -0.2142  0.1862
 7252SOL    HW133389   0.803   0.393   4.745 -2.1541 -1.3090 -0.8691
 7252SOL    HW233390   0.872   0.462   4.637  0.0954 -0.8278 -1.7991
 7253SOL     OW33391   0.426   2.105   8.347  0.3285 -0.0123  0.6064
 7253SOL    HW133392   0.406   2.146   8.263 -1.7732 -2.5927 -0.1591
 7253SOL    HW233393   0.402   2.169   8.414 -1.2342 -0.0260  0.0601
 7254SOL     OW33394   0.050   0.798   5.543 -0.5148 -0.1319 -0.1229
 7254SOL    HW133395   0.120   0.737   5.522 -0.8604  0.2316 -2.3096
 7254SOL    HW233396   0.056   0.795   5.638 -0.0806 -0.0836 -0.1503
 7255SOL     OW33397   3.538   2.819   2.702 -0.2342 -0.0550  0.1333
 7255SOL    HW133398   3.545   2.734   2.744  1.9224  0.3960  0.6842
 7255SOL    HW233399   3.589   2.879   2.756 -0.9552 -0.2116  0.9918
 7256SOL     OW33400   3.673   1.496  15.412  0.4140 -0.1626 -0.0674
 7256SOL    HW133401   3.612   1.551  15.460  1.2246 -0.9098  1.8072
 7256SOL    HW233402   3.624   1.475  15.333 -1.5102 -1.2814  1.4201
 7257SOL     OW33403   2.123   2.042   6.551 -1.3268  0.9582  0.6033
 7257SOL    HW133404   2.110   1.999   6.467  0.1511  1.4669  0.1142
 7257SOL    HW233405   2.215   2.070   6.555 -0.6882 -0.7316 -2.5862
 7258SOL     OW33406   4.123   3.929   2.896  0.6478  0.3240 -0.2501
 7258SOL    HW133407   4.170   4.008   2.869 -0.1981  0.4240 -1.4232
 7258SOL    HW233408   4.195   3.887   2.944  1.0932  0.1094 -1.0964
 7259SOL     OW33409   2.016   2.913   7.386 -0.1194  0.0990  0.6798
 7259SOL    HW133410   2.091   2.856   7.400 -0.8249 -0.5145  1.9850
 7259SOL    HW233411   2.051   2.977   7.324 -1.1112  0.2759  0.3027
 7260SOL     OW33412   1.784   0.211  10.378 -0.1663  0.3540  0.0603
 7260SOL    HW133413   1.722   0.139  10.388 -0.6332  1.0788  2.4346
 7260SOL    HW233414   1.821   0.179  10.296 -0.5107 -0.4173  0.2071
 7261SOL     OW33415   4.364   2.846  16.692 -0.0766  0.1620  0.1681
 7261SOL    HW133416   4.283   2.891  16.718  1.7735  2.6335  1.6948
 7261SOL    HW233417   4.342   2.767  16.643 -0.6445  0.2375  0.2960
 7262SOL     OW33418   0.023   3.970  17.274 -0.0009 -0.5325 -0.2052
 7262SOL    HW133419   4.724   4.040  17.328 -0.5523  0.5019 -1.8901
 7262SOL    HW233420   0.073   4.022  17.211  1.9598 -1.7831  0.3315
 7263SOL     OW33421   4.210   1.751   2.733  0.0785  0.2065 -0.2655
 7263SOL    HW133422   4.210   1.846   2.750  2.7590  0.0101  0.8943
 7263SOL    HW233423   4.242   1.734   2.644 -0.8838 -0.7290 -0.4224
 7264SOL     OW33424   0.232   4.558   9.719  0.0879 -0.5831  0.5837
 7264SOL    HW133425   0.301   4.536   9.657 -0.8447 -1.6376 -0.0921
 7264SOL    HW233426   0.287   4.579   9.795  1.4810  0.6796 -0.7858
 7265SOL     OW33427   3.561   4.159   9.219  0.1195 -0.5470 -0.1726
 7265SOL    HW133428   3.528   4.112   9.295  1.5208 -1.6953 -0.2829
 7265SOL    HW233429   3.542   4.090   9.156 -0.8198 -0.2706 -0.1978
 7266SOL     OW33430   3.543   0.452   3.210  0.2349  0.1994 -0.1882
 7266SOL    HW133431   3.554   0.363   3.242  0.9643  0.6287  0.7879
 7266SOL    HW233432   3.463   0.479   3.255 -0.3455  0.1154 -1.1709
 7267SOL     OW33433   0.105   0.776   6.123  0.3346  0.0869 -0.1706
 7267SOL    HW133434   0.033   0.760   6.062  0.0934 -1.0426  0.4008
 7267SOL    HW233435   0.164   0.707   6.094  2.1753  1.3289  0.6602
 7268SOL     OW33436   1.994   3.456  17.682 -0.0318  0.5140  0.6437
 7268SOL    HW133437   1.916   3.502  17.651 -0.8636  0.4256  2.5725
 7268SOL    HW233438   1.963   3.418   0.014 -0.6451  1.3855  0.8123
 7269SOL     OW33439   1.222   0.534   9.543  0.7304 -0.3464  0.8334
 7269SOL    HW133440   1.315   0.545   9.558  1.0138  0.8579 -1.9618
 7269SOL    HW233441   1.204   0.599   9.475 -0.2510  1.1296  2.4990
 7270SOL     OW33442   3.140   4.522   4.993  0.4986  0.2353  0.2419
 7270SOL    HW133443   3.124   4.428   5.006 -2.7583  0.4304 -2.5824
 7270SOL    HW233444   3.057   4.555   5.026 -0.3801 -1.5108 -0.2068
 7271SOL     OW33445   1.140   0.399  16.146  0.0277  1.2928 -0.3886
 7271SOL    HW133446   1.148   0.491  16.123 -1.0910  1.4456 -0.1546
 7271SOL    HW233447   1.050   0.376  16.122 -0.0377  1.0009  0.1226
 7272SOL     OW33448   1.106   3.628  15.399 -0.5658  0.0044  0.2513
 7272SOL    HW133449   1.058   3.609  15.318  1.8078  0.2156 -1.1853
 7272SOL    HW233450   1.147   3.710  15.374 -2.0450  1.2819  1.9857
 7273SOL     OW33451   0.754   0.832   6.054  0.0221  0.2400 -0.6486
 7273SOL    HW133452   0.734   0.902   5.992 -1.4631 -0.5895 -1.0945
 7273SOL    HW233453   0.673   0.837   6.106  0.2086 -1.5469 -0.1725
 7274SOL     OW33454   3.251   3.899   2.497  0.3915  0.7750 -0.3738
 7274SOL    HW133455   3.308   3.972   2.521 -1.8068  1.6299  2.2516
 7274SOL    HW233456   3.227   3.869   2.585  1.0290  2.3666  0.3541
 7275SOL     OW33457   3.762   3.672   5.429  0.2780  0.2790 -0.0300
 7275SOL    HW133458   3.834   3.710   5.379 -0.7760  1.3006 -0.7449
 7275SOL    HW233459   3.733   3.748   5.480  2.3117 -1.2928  3.5354
 7276SOL     OW33460   2.617   1.264   0.013 -0.2241 -0.4487 -0.1342
 7276SOL    HW133461   2.589   1.181  17.724 -2.1275 -0.1256  0.5563
 7276SOL    HW233462   2.620   1.243   0.106 -1.9080 -0.6614 -0.1321
 7277SOL     OW33463   2.940   2.713   1.602 -0.6430 -0.4236 -0.0350
 7277SOL    HW133464   2.853   2.677   1.617 -0.8972  0.4451  0.5640
 7277SOL    HW233465   2.954   2.751   1.689 -0.6918  2.8612 -1.4661
 7278SOL     OW33466   3.586   1.596   8.831  0.1890  0.0730  0.1495
 7278SOL    HW133467   3.580   1.661   8.901  2.2270 -0.0770  0.4669
 7278SOL    HW233468   3.681   1.587   8.826  0.3127  0.4070  1.6750
 7279SOL     OW33469   0.432   4.569   8.029  0.5083 -0.4747 -0.0436
 7279SOL    HW133470   0.468   4.485   8.001 -2.2577 -0.4742 -3.6138
 7279SOL    HW233471   0.506   4.600   8.080  0.8837 -0.4368 -0.6162
 7280SOL     OW33472   1.422   2.284   7.532 -0.3169  0.3425 -0.2797
 7280SOL    HW133473   1.347   2.226   7.518 -0.2098  0.3296 -0.7961
 7280SOL    HW233474   1.381   2.365   7.503 -0.1431  0.2838 -0.6916
 7281SOL     OW33475   1.989   2.934   9.354  0.2361  0.0905 -0.3227
 7281SOL    HW133476   1.933   2.977   9.418  1.4132  2.0770 -0.6317
 7281SOL    HW233477   2.078   2.961   9.376 -0.0746 -0.3872  1.5422
 7282SOL     OW33478   3.943   0.282  12.308 -0.8070  0.0063 -0.5365
 7282SOL    HW133479   3.886   0.324  12.373  1.2741  1.3293  0.4289
 7282SOL    HW233480   3.881   0.217  12.274  1.0591 -1.7642 -0.5735
 7283SOL     OW33481   0.766   0.537   3.063  0.1538 -0.2177  0.0434
 7283SOL    HW133482   0.782   0.481   3.139  0.0203 -0.6227 -0.2285
 7283SOL    HW233483   0.855   0.539   3.027  1.1690 -0.4186  2.5686
 7284SOL     OW33484   0.649   0.859  14.300  0.5157 -0.6747  0.0549
 7284SOL    HW133485   0.666   0.881  14.209 -1.0132  0.7429  0.1099
 7284SOL    HW233486   0.735   0.871  14.340  0.1006 -0.8552  1.0053
 7285SOL     OW33487   0.645   1.763   3.411  0.4532  0.3265  0.2397
 7285SOL    HW133488   0.723   1.789   3.361 -0.6694  1.0622 -1.1131
 7285SOL    HW233489   0.643   1.671   3.385 -0.3528  0.6459 -0.8048
 7286SOL     OW33490   0.730   0.181   2.616  0.3548 -0.1029 -0.2036
 7286SOL    HW133491   0.645   0.211   2.585 -0.0133 -1.0975 -0.1767
 7286SOL    HW233492   0.707   0.120   2.687  0.2612 -0.1122 -0.2426
 7287SOL     OW33493   0.520   1.559   6.679 -0.7094  0.0812  0.3407
 7287SOL    HW133494   0.546   1.633   6.624 -1.0775 -0.9402 -1.1840
 7287SOL    HW233495   0.565   1.484   6.642 -0.1470  0.4666  0.2444
 7288SOL     OW33496   1.134   3.865   8.284 -0.1910 -0.3934 -0.3911
 7288SOL    HW133497   1.152   3.859   8.378 -0.6601 -0.7264 -0.3253
 7288SOL    HW233498   1.204   3.816   8.240  0.3082  1.1848 -1.3758
 7289SOL     OW33499   0.351   0.086  13.097  0.3190  0.1246  0.1341
 7289SOL    HW133500   0.332   4.731  13.108  0.7235 -0.1213 -1.3173
 7289SOL    HW233501   0.323   0.108  13.008 -0.5436  0.9444  0.5984
 7290SOL     OW33502   3.670   0.097   7.509 -0.0522 -0.1194 -0.0712
 7290SOL    HW133503   3.694   0.057   7.593  1.1382 -0.7977 -0.7311
 7290SOL    HW233504   3.607   0.163   7.540 -0.0463  0.0750 -0.4683
 7291SOL     OW33505   0.281   1.504   4.247 -0.0492 -0.0046 -0.1844
 7291SOL    HW133506   0.262   1.414   4.273  0.4250 -0.0183  0.1135
 7291SOL    HW233507   0.206   1.544   4.291 -0.7399 -1.2506 -0.1980
 7292SOL     OW33508   3.862   4.179   6.749  0.5675  0.3723 -0.3976
 7292SOL    HW133509   3.878   4.091   6.783 -2.3219 -0.1747 -0.4091
 7292SOL    HW233510   3.766   4.183   6.757  0.6460  0.7104  0.2887
 7293SOL     OW33511   0.731   0.482   2.329 -0.3207  0.5097  0.2771
 7293SOL    HW133512   0.709   0.391   2.309 -1.5698  0.4547  1.8742
 7293SOL    HW233513   0.691   0.480   2.416 -1.0845 -0.0357 -0.0839
 7294SOL     OW33514   2.306   2.402   1.427 -0.1568 -0.4094 -0.0680
 7294SOL    HW133515   2.278   2.337   1.362 -0.5166  1.4860 -1.8160
 7294SOL    HW233516   2.399   2.381   1.431 -0.1660 -0.4656 -0.1387
 7295SOL     OW33517   2.918   1.852  11.953  0.3214 -0.4533  0.0130
 7295SOL    HW133518   2.986   1.882  12.013 -0.9605 -1.9111  2.1937
 7295SOL    HW233519   2.885   1.772  11.993  1.3932 -0.7874  0.2407
 7296SOL     OW33520   2.460   3.361   5.066  0.0682 -0.0251 -0.1763
 7296SOL    HW133521   2.485   3.433   5.009  0.2535  0.2011  0.1894
 7296SOL    HW233522   2.477   3.277   5.022  1.5514  0.9261 -1.4119
 7297SOL     OW33523   2.694   3.912   1.459  0.0994 -0.9381 -0.2891
 7297SOL    HW133524   2.717   4.005   1.463  2.0311 -1.3675 -1.5651
 7297SOL    HW233525   2.748   3.871   1.526  0.9540  1.0112  0.2192
 7298SOL     OW33526   3.813   1.875   6.782  0.8916 -0.1145  0.2488
 7298SOL    HW133527   3.878   1.812   6.814  1.4308 -0.8361 -2.3238
 7298SOL    HW233528   3.735   1.842   6.829  0.7970  2.6919  2.0226
 7299SOL     OW33529   0.759   0.638  17.546  0.9018  0.5968 -0.1832
 7299SOL    HW133530   0.720   0.556  17.574 -0.7186  2.1007  1.9369
 7299SOL    HW233531   0.844   0.613  17.510  0.4032 -1.6736  0.2483
 7300SOL     OW33532   0.684   1.258   4.728  0.5817 -0.0770 -0.5591
 7300SOL    HW133533   0.592   1.285   4.726  1.1557  1.8588 -0.7586
 7300SOL    HW233534   0.712   1.263   4.819  0.3185 -2.2134 -0.3421
 7301SOL     OW33535   3.223   1.174   1.516  0.1993 -0.0009 -0.1607
 7301SOL    HW133536   3.143   1.211   1.555 -0.4228 -1.2315 -0.2960
 7301SOL    HW233537   3.206   1.204   1.427  1.1545 -1.3557 -0.7908
 7302SOL     OW33538   4.390   3.069   9.865  0.3268 -0.5993  0.1648
 7302SOL    HW133539   4.476   3.111   9.857  1.5822 -3.1681 -0.1319
 7302SOL    HW233540   4.331   3.120   9.810  0.7072  0.1026  0.4004
 7303SOL     OW33541   4.264   3.470   6.713 -0.5478 -0.0723  0.6265
 7303SOL    HW133542   4.305   3.537   6.657  2.6398 -2.0552  0.5541
 7303SOL    HW233543   4.302   3.482   6.800 -1.3985  1.5060  0.7705
 7304SOL     OW33544   0.556   3.425   8.935 -0.3500 -0.1185 -0.1704
 7304SOL    HW133545   0.570   3.508   8.888 -2.0789  1.4891  2.1838
 7304SOL    HW233546   0.626   3.425   9.001  1.1624  1.5919 -1.7560
 7305SOL     OW33547   2.818   3.439  14.605 -0.1330 -0.2278  0.1757
 7305SOL    HW133548   2.780   3.413  14.521  1.2133  0.2952 -0.5981
 7305SOL    HW233549   2.902   3.394  14.596  0.6261  0.8866  1.6855
 7306SOL     OW33550   4.331   2.116   9.005 -0.5176 -0.3426  0.0730
 7306SOL    HW133551   4.381   2.081   8.931 -0.5264 -0.1143 -0.0421
 7306SOL    HW233552   4.340   2.208   8.979  1.9684 -0.7989 -0.7194
 7307SOL     OW33553   1.470   2.615  11.784  0.2006 -0.3767 -0.5251
 7307SOL    HW133554   1.478   2.541  11.724  0.7474 -0.5858 -0.1991
 7307SOL    HW233555   1.397   2.589  11.840  1.3910 -2.0030  0.2760
 7308SOL     OW33556   0.065   2.824   0.814 -0.4307  0.2834 -0.0838
 7308SOL    HW133557   4.722   2.873   0.827  0.6029  2.4082 -1.5564
 7308SOL    HW233558   0.123   2.847   0.887  1.0821  0.4589 -1.3400
 7309SOL     OW33559   2.691   0.634   6.420  0.1720  0.1488  0.0239
 7309SOL    HW133560   2.628   0.563   6.434 -0.3547  0.7405  0.6385
 7309SOL    HW233561   2.691   0.681   6.503  0.0364 -1.5084  0.9526
 7310SOL     OW33562   2.451   1.182   4.906 -0.7817 -0.8195  0.3670
 7310SOL    HW133563   2.506   1.245   4.859 -0.5079 -1.0274  0.4096
 7310SOL    HW233564   2.501   1.165   4.986  1.2804  1.2670 -0.4770
 7311SOL     OW33565   1.026   2.262   2.468 -0.7575 -0.0358  0.1802
 7311SOL    HW133566   1.040   2.268   2.374 -4.7079 -0.6102 -0.4593
 7311SOL    HW233567   1.078   2.336   2.498  0.4337 -0.3165 -1.1713
 7312SOL     OW33568   0.900   3.371   5.058 -0.2404 -0.0768 -0.4865
 7312SOL    HW133569   0.966   3.407   5.118 -0.8054  0.3354 -0.1097
 7312SOL    HW233570   0.939   3.378   4.971 -0.1441  1.3731 -0.3335
 7313SOL     OW33571   0.852   3.240   2.915 -0.0693  0.0918  0.0234
 7313SOL    HW133572   0.798   3.314   2.945  0.0533  0.2332 -0.1033
 7313SOL    HW233573   0.876   3.267   2.826  1.0454 -0.6795  0.1055
 7314SOL     OW33574   2.833   4.224  11.298 -0.2937 -0.4991 -0.4796
 7314SOL    HW133575   2.777   4.284  11.347 -0.4535 -1.0026 -0.0500
 7314SOL    HW233576   2.772   4.180  11.239 -0.2540 -1.3607  0.1271
 7315SOL     OW33577   1.232   4.713   9.089 -0.1763  0.2093 -0.6822
 7315SOL    HW133578   1.312   4.737   9.042 -0.0287 -0.0592 -0.5687
 7315SOL    HW233579   1.172   0.047   9.073  0.5145  0.6545 -1.2620
 7316SOL     OW33580   3.786   4.577  15.320  0.1413  0.1703 -0.4449
 7316SOL    HW133581   3.798   4.491  15.362 -0.6397  0.0301 -0.5116
 7316SOL    HW233582   3.867   4.579  15.268  0.5114  0.6374  0.1616
 7317SOL     OW33583   1.560   3.536   7.187 -0.0426  0.3082  0.3753
 7317SOL    HW133584   1.652   3.541   7.162  0.0970  2.9656  1.3633
 7317SOL    HW233585   1.574   3.484   7.266  1.4552  0.2453  0.0594
 7318SOL     OW33586   0.822   1.832  16.889 -0.1185 -0.1075 -0.1348
 7318SOL    HW133587   0.747   1.807  16.834 -1.6088  0.7506  1.4834
 7318SOL    HW233588   0.765   1.852  16.964  1.1210  0.6209  0.6038
 7319SOL     OW33589   1.027   2.881   2.144 -0.0308 -0.1496  0.4753
 7319SOL    HW133590   1.037   2.869   2.050  1.9007 -0.2755  0.6914
 7319SOL    HW233591   1.119   2.888   2.171  0.3823  0.3098 -1.0453
 7320SOL     OW33592   2.545   2.934   8.272 -0.4264 -0.2876  0.2058
 7320SOL    HW133593   2.496   3.009   8.305  1.0209  0.9900 -0.5452
 7320SOL    HW233594   2.548   2.875   8.348 -2.8279 -1.1429 -0.3762
 7321SOL     OW33595   0.439   3.124   8.482  0.2465  0.1910  0.0776
 7321SOL    HW133596   0.383   3.202   8.480 -3.1663 -2.2393  1.1873
 7321SOL    HW233597   0.442   3.104   8.389  1.4684  0.4288  0.0594
 7322SOL     OW33598   1.203   3.302   8.391 -0.3307 -0.3448 -0.2131
 7322SOL    HW133599   1.251   3.220   8.378  0.0121 -0.5013  1.9651
 7322SOL    HW233600   1.116   3.262   8.382 -1.6578  2.2135  1.3054
 7323SOL     OW33601   2.542   4.088  11.999 -0.8788  0.0520  0.2717
 7323SOL    HW133602   2.462   4.140  12.008 -1.2275 -0.3599 -0.4748
 7323SOL    HW233603   2.536   4.040  12.081 -1.6648 -0.7728 -0.2650
 7324SOL     OW33604   2.331   1.324   1.168  0.8074  0.5068 -0.1457
 7324SOL    HW133605   2.387   1.315   1.245  0.9697 -1.2622 -0.4659
 7324SOL    HW233606   2.397   1.325   1.098  0.2687 -3.3101 -0.7303
 7325SOL     OW33607   3.331   1.194   4.755  0.3184  0.7853 -0.0792
 7325SOL    HW133608   3.254   1.175   4.807  0.9223  1.0549  0.9052
 7325SOL    HW233609   3.298   1.244   4.680 -0.5083  0.6049  0.1719
 7326SOL     OW33610   2.455   2.132  13.831 -0.2269 -0.4593  0.6491
 7326SOL    HW133611   2.483   2.184  13.756 -2.3088 -0.9907 -0.5020
 7326SOL    HW233612   2.536   2.114  13.878  0.7648 -0.7451 -1.1415
 7327SOL     OW33613   1.122   2.735  11.105  0.3114  0.1940 -0.0114
 7327SOL    HW133614   1.170   2.798  11.159 -1.1225  0.8695  0.4873
 7327SOL    HW233615   1.094   2.668  11.167  2.2960  1.6490  2.4283
 7328SOL     OW33616   2.831   0.395  14.816  0.0879  0.3062  0.1519
 7328SOL    HW133617   2.813   0.437  14.901 -3.5557 -1.1592  0.1001
 7328SOL    HW233618   2.751   0.348  14.793  0.1583  1.1621 -1.8268
 7329SOL     OW33619   2.721   3.578   8.323 -0.5271  0.0268  0.1140
 7329SOL    HW133620   2.666   3.624   8.386 -0.6670  1.2565 -0.8950
 7329SOL    HW233621   2.719   3.488   8.357 -1.8123  0.3755  0.9429
 7330SOL     OW33622   0.565   4.136  15.770  0.3144 -0.0490  0.7466
 7330SOL    HW133623   0.495   4.083  15.808  0.6682 -1.4891 -0.6369
 7330SOL    HW233624   0.521   4.220  15.752  2.7474  1.5286  2.2254
 7331SOL     OW33625   1.690   0.748  13.966 -0.2322 -1.0318  0.2945
 7331SOL    HW133626   1.649   0.818  13.914 -2.0863 -1.6180  0.9661
 7331SOL    HW233627   1.769   0.792  13.998 -0.5277 -0.5915  0.4254
 7332SOL     OW33628   1.825   4.013   4.085 -0.2155 -0.3126  0.0550
 7332SOL    HW133629   1.859   3.986   4.000 -3.4392 -0.2139 -1.2810
 7332SOL    HW233630   1.761   3.944   4.099 -1.1737  0.4616 -0.4847
 7333SOL     OW33631   1.249   0.923   5.815  0.3511 -0.2287 -0.2472
 7333SOL    HW133632   1.190   0.989   5.779 -0.7712 -1.0003  0.1862
 7333SOL    HW233633   1.328   0.935   5.761  1.8412 -0.6418  1.8206
 7334SOL     OW33634   0.175   1.477  12.086 -0.2390 -0.4295  0.5144
 7334SOL    HW133635   0.174   1.387  12.119  1.2682 -1.5956 -2.6851
 7334SOL    HW233636   0.084   1.505  12.100  0.0242  0.5129  0.2962
 7335SOL     OW33637   3.550   3.597   7.638  0.3387 -0.0468 -0.3419
 7335SOL    HW133638   3.499   3.608   7.557  0.8832  0.2975 -0.6415
 7335SOL    HW233639   3.609   3.522   7.627 -0.9691 -1.1142 -0.1101
 7336SOL     OW33640   1.286   0.629   3.325  0.2601 -0.0646  0.0218
 7336SOL    HW133641   1.313   0.626   3.233  0.5581 -0.4929  0.1194
 7336SOL    HW233642   1.328   0.707   3.360  0.2439  0.6390 -1.5572
 7337SOL     OW33643   3.815   4.496   9.117  0.4722  0.0922  0.3142
 7337SOL    HW133644   3.785   4.538   9.197 -4.4541 -0.8821 -1.0058
 7337SOL    HW233645   3.823   4.408   9.153 -1.2875 -0.5036 -0.7261
 7338SOL     OW33646   0.653   1.891   2.568 -0.3482  0.2467 -0.0375
 7338SOL    HW133647   0.723   1.925   2.513 -1.5242  1.2663 -0.9131
 7338SOL    HW233648   0.603   1.846   2.500  0.8794  1.0429 -1.4705
 7339SOL     OW33649   3.876   0.297   4.880  0.0764 -0.1539 -0.1560
 7339SOL    HW133650   3.874   0.312   4.974  1.9254  0.0715 -0.1611
 7339SOL    HW233651   3.819   0.221   4.865  0.6759 -0.3397 -1.5564
 7340SOL     OW33652   3.877   2.143   7.784  0.5030  0.0272 -0.1142
 7340SOL    HW133653   3.910   2.223   7.744  0.2581 -0.0293 -0.4268
 7340SOL    HW233654   3.932   2.119   7.859  0.1049  0.6050  0.3600
 7341SOL     OW33655   3.370   0.939   3.102  0.5051 -0.1282 -0.3770
 7341SOL    HW133656   3.409   0.880   3.038  2.0581  1.1603 -0.6185
 7341SOL    HW233657   3.286   0.961   3.062  0.2332  0.0254  0.2788
 7342SOL     OW33658   1.339   1.494  12.435  0.3182 -0.1433  0.1830
 7342SOL    HW133659   1.334   1.584  12.467  0.1910 -0.6939  1.7381
 7342SOL    HW233660   1.406   1.459  12.495 -0.8137 -1.5030  0.6601
 7343SOL     OW33661   3.729   3.262  14.962  0.4446  0.0015  0.1124
 7343SOL    HW133662   3.656   3.238  14.905  2.0700  1.2808 -2.5290
 7343SOL    HW233663   3.677   3.283  15.039  0.5966  2.1253 -0.3706
 7344SOL     OW33664   1.867   3.201   7.465 -0.6482 -0.0734 -0.3112
 7344SOL    HW133665   1.808   3.232   7.534  3.6996 -0.4241  3.5683
 7344SOL    HW233666   1.950   3.195   7.512 -0.0479 -0.7273 -1.4654
 7345SOL     OW33667   3.360   1.236   3.320 -0.3114  0.5196 -0.3468
 7345SOL    HW133668   3.363   1.250   3.415 -3.5063 -3.2623  0.3066
 7345SOL    HW233669   3.444   1.194   3.300 -1.6475 -2.3712  0.0206
 7346SOL     OW33670   2.776   4.356   3.011 -0.1686 -0.7346  0.3646
 7346SOL    HW133671   2.721   4.342   3.089  1.6703  2.7843  2.3083
 7346SOL    HW233672   2.823   4.273   3.012 -1.4222 -1.4486 -1.0356
 7347SOL     OW33673   2.689   1.511   3.002 -0.3310  0.3898  0.3657
 7347SOL    HW133674   2.784   1.514   2.989 -0.0961 -1.9674  1.3800
 7347SOL    HW233675   2.655   1.467   2.924 -0.9408  0.0243  0.8294
 7348SOL     OW33676   1.500   4.159   1.329  0.2740 -0.7923 -0.5440
 7348SOL    HW133677   1.533   4.190   1.414  0.5079  1.0334 -1.2965
 7348SOL    HW233678   1.488   4.236   1.274 -1.2180  0.4425  1.4886
 7349SOL     OW33679   4.222   2.119   5.256  0.3661  0.2076 -0.6036
 7349SOL    HW133680   4.284   2.102   5.327  0.8117 -3.4124 -1.8371
 7349SOL    HW233681   4.149   2.062   5.282  1.8808 -1.0819  0.8074
 7350SOL     OW33682   1.362   0.465   2.206 -0.5361 -0.0850 -0.0911
 7350SOL    HW133683   1.266   0.458   2.202 -0.2875 -1.8936 -2.7046
 7350SOL    HW233684   1.363   0.561   2.207  0.3672 -0.1148  1.7138
 7351SOL     OW33685   4.080   0.922  13.787  0.6322  0.2509  0.1377
 7351SOL    HW133686   4.132   0.919  13.707 -1.5466  1.6247 -1.3260
 7351SOL    HW233687   4.156   0.948  13.840 -1.2592 -2.0196  3.9130
 7352SOL     OW33688   3.261   0.854   7.199 -0.5809 -0.1080 -0.0120
 7352SOL    HW133689   3.348   0.887   7.174  0.6482 -2.3754  1.2587
 7352SOL    HW233690   3.209   0.933   7.189  0.5735  0.3075 -2.9568
 7353SOL     OW33691   2.186   2.064   2.046  0.0768  0.1235  0.1776
 7353SOL    HW133692   2.128   2.109   2.107  0.1340 -0.7150  0.8533
 7353SOL    HW233693   2.120   2.014   1.998  0.1461  2.0122 -1.8867
 7354SOL     OW33694   2.300   1.458   8.261 -0.3536 -0.6020  0.2427
 7354SOL    HW133695   2.308   1.507   8.178  0.6369 -2.3470 -0.6824
 7354SOL    HW233696   2.355   1.507   8.322 -0.6698  0.6588 -0.4826
 7355SOL     OW33697   0.086   1.051   6.019 -0.7608  0.1185 -0.0675
 7355SOL    HW133698   0.120   1.122   5.965  1.4669  0.8655  2.3331
 7355SOL    HW233699   0.121   0.971   5.978  0.4052  1.7658 -2.2850
 7356SOL     OW33700   0.031   1.214   8.965 -0.4483  0.3032  0.0713
 7356SOL    HW133701   0.088   1.147   9.002  0.0950  0.8763  0.2678
 7356SOL    HW233702   4.735   1.256   9.044 -0.7187 -1.6318  0.9586
 7357SOL     OW33703   2.504   2.587   8.019  0.4928  0.7708  0.0018
 7357SOL    HW133704   2.437   2.519   8.014  0.2770  0.8616  1.4732
 7357SOL    HW233705   2.523   2.616   7.930 -3.7242 -1.6365 -1.6830
 7358SOL     OW33706   1.853   2.199   2.637  0.0481  0.4079  0.3125
 7358SOL    HW133707   1.922   2.194   2.570 -1.0931  1.3761 -0.9357
 7358SOL    HW233708   1.886   2.274   2.687  0.0915  0.8694 -0.4097
 7359SOL     OW33709   0.343   0.654   7.752 -0.2717 -0.4908  0.3560
 7359SOL    HW133710   0.290   0.601   7.692  1.2734 -1.6897  0.0482
 7359SOL    HW233711   0.318   0.612   7.834  0.4400 -1.4296  0.0937
 7360SOL     OW33712   4.606   4.620   2.200  0.0200  0.3605 -0.1662
 7360SOL    HW133713   4.546   4.559   2.157  0.1931 -0.1805  0.3642
 7360SOL    HW233714   4.559   4.703   2.200 -0.3320  0.1576 -0.7455
 7361SOL     OW33715   3.029   0.459   4.546 -0.2990  0.0783  0.1071
 7361SOL    HW133716   3.083   0.537   4.562 -1.6048  0.7763  1.1038
 7361SOL    HW233717   2.958   0.504   4.500 -0.1270  1.4687  1.1828
 7362SOL     OW33718   4.522   3.137   9.033 -0.8047 -0.6171 -0.1954
 7362SOL    HW133719   4.597   3.157   8.977  0.0468 -3.6370 -0.1500
 7362SOL    HW233720   4.514   3.205   9.100 -0.5737 -1.8376  1.0778
 7363SOL     OW33721   2.553   1.888   1.771 -0.0125  0.6417  0.0312
 7363SOL    HW133722   2.531   1.814   1.715 -1.4115 -0.1132  1.5979
 7363SOL    HW233723   2.585   1.842   1.848 -0.2286 -3.0754 -2.1300
 7364SOL     OW33724   0.005   3.584   2.811 -0.0366  0.4035  0.5279
 7364SOL    HW133725   4.683   3.588   2.737  0.6620 -1.7650 -0.1310
 7364SOL    HW233726   0.093   3.589   2.774  0.1275  0.5023  0.9236
 7365SOL     OW33727   3.546   3.306  16.633 -0.0363 -0.1929 -0.0539
 7365SOL    HW133728   3.495   3.231  16.663 -1.5925 -0.3167 -3.0265
 7365SOL    HW233729   3.609   3.310  16.705 -0.9159 -0.1042  0.7117
 7366SOL     OW33730   2.511   3.945   3.493 -0.1370  0.2210 -0.4491
 7366SOL    HW133731   2.455   3.967   3.567  1.0220  0.9356  0.2108
 7366SOL    HW233732   2.456   3.942   3.414  0.5182 -0.0065 -0.8916
 7367SOL     OW33733   2.576   0.533   2.423  0.0842  0.0599  0.2734
 7367SOL    HW133734   2.532   0.493   2.349  2.0337 -0.9119 -0.3409
 7367SOL    HW233735   2.641   0.579   2.370  1.7595 -1.5654  0.9369
 7368SOL     OW33736   2.637   1.216   4.271  0.3642  0.0304  0.3881
 7368SOL    HW133737   2.632   1.290   4.331 -1.2300 -1.4967  2.1748
 7368SOL    HW233738   2.719   1.180   4.304  0.3478 -2.1067 -1.8623
 7369SOL     OW33739   2.570   0.012  10.372  0.3684  0.0369 -0.7081
 7369SOL    HW133740   2.494   4.692  10.369  1.4786 -1.6020  2.2137
 7369SOL    HW233741   2.639   4.697  10.413  1.0629  0.4180 -1.3901
 7370SOL     OW33742   1.047   1.887   0.193 -0.4371 -0.2202 -0.0479
 7370SOL    HW133743   1.135   1.853   0.181 -0.6165  0.0624 -2.0730
 7370SOL    HW233744   1.063   1.970   0.238 -2.2275  0.8651 -1.3983
 7371SOL     OW33745   2.262   4.725   8.697 -0.3983 -0.1175 -0.3664
 7371SOL    HW133746   2.350   0.011   8.728  0.5568 -0.1789 -3.0041
 7371SOL    HW233747   2.245   0.059   8.637 -0.9279 -0.6634 -0.8677
 7372SOL     OW33748   4.537   3.405  15.026 -0.1356 -0.7838 -0.0726
 7372SOL    HW133749   4.617   3.451  15.002 -0.7422  1.2313  1.7566
 7372SOL    HW233750   4.514   3.353  14.949  0.9837 -3.3412  1.3079
 7373SOL     OW33751   4.171   3.163   8.420 -0.1637  0.0510  0.1246
 7373SOL    HW133752   4.142   3.190   8.332 -0.8646 -0.1916  0.2826
 7373SOL    HW233753   4.103   3.197   8.478 -1.4526 -2.4562  0.0751
 7374SOL     OW33754   3.982   0.836   4.375  0.3594 -0.2332  0.3443
 7374SOL    HW133755   3.967   0.749   4.412  1.2653  0.0645  1.4166
 7374SOL    HW233756   3.966   0.885   4.455  0.3945 -1.1717  0.9337
 7375SOL     OW33757   0.339   2.184   2.996  0.0655 -0.0624  0.0072
 7375SOL    HW133758   0.265   2.178   2.936  0.2233 -2.1402  0.0074
 7375SOL    HW233759   0.360   2.092   3.015 -1.1240  0.1009  2.0309
 7376SOL     OW33760   2.476   0.334  16.602 -0.0929  0.2529 -0.0493
 7376SOL    HW133761   2.539   0.403  16.618  2.0842 -1.9019  0.5855
 7376SOL    HW233762   2.524   0.252  16.590  1.7310  1.0649  1.7920
 7377SOL     OW33763   3.268   3.102  10.118  0.1381 -0.6069 -0.0626
 7377SOL    HW133764   3.306   3.111  10.206 -0.6780 -0.5897  0.2919
 7377SOL    HW233765   3.243   3.010  10.125  0.6685 -0.8163 -0.9789
 7378SOL     OW33766   1.458   0.113   9.004  0.1179 -0.3075  0.3669
 7378SOL    HW133767   1.478   0.183   9.065  1.9370  1.4371 -2.2470
 7378SOL    HW233768   1.545   0.083   8.979 -0.3883 -0.9600 -0.6492
 7379SOL     OW33769   4.320   2.798   6.268 -0.5948  0.5325 -0.0874
 7379SOL    HW133770   4.303   2.836   6.182 -0.8956 -1.9277 -1.1107
 7379SOL    HW233771   4.271   2.857   6.326 -0.7095  0.6646 -0.3216
 7380SOL     OW33772   3.843   1.892   7.381  0.3309 -0.3485  0.6016
 7380SOL    HW133773   3.917   1.837   7.408  1.6727 -0.0700 -2.4820
 7380SOL    HW233774   3.885   1.978   7.377  1.3877 -0.9680 -1.8919
 7381SOL     OW33775   4.139   3.540  12.407 -0.0735  0.1639  0.0613
 7381SOL    HW133776   4.125   3.629  12.439 -1.3842 -0.1347  0.3283
 7381SOL    HW233777   4.091   3.499  12.479 -2.8978  1.2171 -1.2065
 7382SOL     OW33778   2.547   3.237  10.286  0.6605  0.8978  0.1841
 7382SOL    HW133779   2.505   3.152  10.302  1.0542  0.3969 -1.4565
 7382SOL    HW233780   2.575   3.227  10.195  0.8713  1.9244  0.1396
 7383SOL     OW33781   4.688   1.307   5.282  0.1764  0.2494  0.3661
 7383SOL    HW133782   4.657   1.342   5.366 -2.8944  1.9761 -1.4844
 7383SOL    HW233783   4.617   1.330   5.222  0.9760  0.5445 -0.4574
 7384SOL     OW33784   4.733   2.594   9.558  0.1941 -0.1174  0.8395
 7384SOL    HW133785   4.659   2.565   9.505  1.5100 -2.9371  0.5785
 7384SOL    HW233786   0.010   2.524   9.621 -1.8231 -1.5751 -0.2961
 7385SOL     OW33787   3.183   1.803  15.534 -0.5093  0.4628  0.2401
 7385SOL    HW133788   3.186   1.823  15.628  1.3655 -0.1598  0.3017
 7385SOL    HW233789   3.261   1.854  15.514 -0.6482  0.1623 -1.0979
 7386SOL     OW33790   1.604   1.697  13.200  0.3771  0.4565  0.1237
 7386SOL    HW133791   1.517   1.697  13.160  1.2056  0.4963 -1.6349
 7386SOL    HW233792   1.574   1.710  13.290 -0.1657  1.8349 -0.2629
 7387SOL     OW33793   0.003   2.389   8.906 -0.5831  0.1446 -0.2525
 7387SOL    HW133794   4.725   2.476   8.871 -0.3992  0.2057 -0.1874
 7387SOL    HW233795   4.704   2.394   8.994 -0.0272  2.0359 -0.1305
 7388SOL     OW33796   3.054   2.440   8.897  0.3314 -0.0150 -0.0245
 7388SOL    HW133797   3.121   2.505   8.874 -0.1014  0.4180 -0.0456
 7388SOL    HW233798   3.022   2.425   8.808 -2.2603  2.1653  0.5696
 7389SOL     OW33799   0.070   1.209   7.610 -0.0455 -0.4035 -0.2648
 7389SOL    HW133800   0.132   1.138   7.621  1.9828  1.8777  2.9813
 7389SOL    HW233801   0.129   1.278   7.640 -1.3214  0.1103  1.0819
 7390SOL     OW33802   4.573   0.623   6.304  0.7673  0.5411 -0.2151
 7390SOL    HW133803   4.633   0.673   6.248  1.5795 -0.7924 -0.5160
 7390SOL    HW233804   4.496   0.610   6.249  0.0725  0.1692  0.8417
 7391SOL     OW33805   4.047   1.473   7.968  0.3666 -0.2755 -0.3457
 7391SOL    HW133806   4.136   1.459   8.002 -0.3884 -3.4333  0.3459
 7391SOL    HW233807   4.054   1.513   7.881  0.3158  0.4180 -0.0327
 7392SOL     OW33808   1.134   1.828   3.235  0.0824 -0.3338  1.0176
 7392SOL    HW133809   1.197   1.756   3.236 -0.4013 -0.7892 -0.0730
 7392SOL    HW233810   1.145   1.850   3.327  3.0184  1.7079  0.1631
 7393SOL     OW33811   4.032   4.229   8.627  0.0363  0.3881 -0.0290
 7393SOL    HW133812   4.065   4.270   8.707 -0.6822  1.6871 -0.3874
 7393SOL    HW233813   4.112   4.208   8.579  0.3004  1.9427 -0.2758
 7394SOL     OW33814   2.699   4.706   5.639  0.4446  0.2137  0.6795
 7394SOL    HW133815   2.765   4.676   5.701 -0.2366 -1.4077  0.5997
 7394SOL    HW233816   2.638   4.634   5.648 -1.5757  1.9225  0.6142
 7395SOL     OW33817   3.662   1.916   2.854  0.4138 -0.3623  0.6804
 7395SOL    HW133818   3.672   1.962   2.938  0.6774  2.6693 -1.0105
 7395SOL    HW233819   3.752   1.894   2.829  0.8408  1.7522  0.3635
 7396SOL     OW33820   0.390   2.584  12.096  0.1441  0.6284 -0.3305
 7396SOL    HW133821   0.410   2.653  12.032  2.1733 -0.4953 -0.8880
 7396SOL    HW233822   0.320   2.617  12.153  0.3746  0.9508 -0.2306
 7397SOL     OW33823   3.007   0.446  12.257 -0.6388  0.0843  0.1128
 7397SOL    HW133824   3.094   0.408  12.256 -0.6376  0.1003 -0.2889
 7397SOL    HW233825   2.984   0.443  12.350  0.6795 -1.7231  0.3714
 7398SOL     OW33826   3.660   3.063   9.768  0.1631 -0.1622  0.0103
 7398SOL    HW133827   3.707   3.110   9.837 -0.0177 -1.4248  0.9739
 7398SOL    HW233828   3.724   3.055   9.697 -0.8835 -2.8675 -0.5920
 7399SOL     OW33829   3.179   4.590   7.668 -0.0800 -0.5017 -0.2865
 7399SOL    HW133830   3.126   4.668   7.688 -1.9101 -1.9692  0.6242
 7399SOL    HW233831   3.210   4.568   7.756 -1.0885  1.3436  0.5377
 7400SOL     OW33832   1.245   2.112   4.887  0.4175 -0.5011  0.1161
 7400SOL    HW133833   1.195   2.096   4.807  1.3353  1.3528 -0.8299
 7400SOL    HW233834   1.270   2.027   4.923  1.5069 -0.5823 -0.8383
 7401SOL     OW33835   1.081   0.243   6.186  0.9150  0.2929 -0.3796
 7401SOL    HW133836   1.062   0.296   6.264 -2.4392  1.6443 -2.1004
 7401SOL    HW233837   0.997   0.261   6.143 -0.4350  0.1722  2.2007
 7402SOL     OW33838   1.777   2.823  11.228 -0.0973 -0.2534 -0.4253
 7402SOL    HW133839   1.820   2.791  11.307 -0.1792  1.9685  0.5085
 7402SOL    HW233840   1.774   2.915  11.252  2.5555 -0.5606  1.0125
 7403SOL     OW33841   0.695   3.382   2.368  0.3200  0.7998 -0.0037
 7403SOL    HW133842   0.696   3.350   2.278 -0.7717 -1.1478  0.6880
 7403SOL    HW233843   0.602   3.365   2.383  0.6517 -0.5963  0.5090
 7404SOL     OW33844   1.606   2.765   1.748 -0.0355 -0.2904 -0.1261
 7404SOL    HW133845   1.616   2.784   1.841 -1.7082  0.5186 -0.1070
 7404SOL    HW233846   1.629   2.846   1.702 -0.3720  0.6018  1.2795
 7405SOL     OW33847   3.934   1.023  17.449 -0.3614 -0.5454 -0.0540
 7405SOL    HW133848   3.898   0.987  17.368  1.2677  0.7198 -1.3376
 7405SOL    HW233849   3.911   1.115  17.438  1.8026 -0.1264 -1.2005
 7406SOL     OW33850   0.366   3.048   2.400 -1.1048  0.2471  1.0823
 7406SOL    HW133851   0.433   2.979   2.402 -2.7445 -1.3349  1.5203
 7406SOL    HW233852   0.400   3.111   2.464 -0.3346  0.0437  0.8802
 7407SOL     OW33853   3.603   0.185   0.990  0.1001 -0.6224 -0.9119
 7407SOL    HW133854   3.561   0.171   0.905 -2.0956  0.1887  0.0403
 7407SOL    HW233855   3.598   0.281   0.993 -1.2198 -0.7377  0.3644
 7408SOL     OW33856   1.481   3.393  11.429 -0.0580  0.5870 -0.5123
 7408SOL    HW133857   1.460   3.482  11.457  0.2620  0.4923  0.0353
 7408SOL    HW233858   1.567   3.387  11.472 -0.6278 -2.1552  0.2619
 7409SOL     OW33859   0.307   2.666   4.988  0.3770 -0.8385 -0.3142
 7409SOL    HW133860   0.242   2.682   4.919 -0.5076  1.6590  1.0659
 7409SOL    HW233861   0.370   2.738   4.990 -2.8102  2.0757 -2.5079
 7410SOL     OW33862   2.740   3.776  12.147  0.2674  0.0338 -0.0261
 7410SOL    HW133863   2.776   3.692  12.117  0.3628 -0.2093  0.7677
 7410SOL    HW233864   2.678   3.742  12.211  1.0143  0.0808  0.7263
 7411SOL     OW33865   3.723   3.005  17.313 -0.0137  0.5062  0.0239
 7411SOL    HW133866   3.669   2.930  17.290  0.6030  0.4741 -1.3427
 7411SOL    HW233867   3.807   2.970  17.342 -0.5211 -0.0945  0.7440
 7412SOL     OW33868   0.576   1.136   2.609 -0.1947  0.1545  0.9925
 7412SOL    HW133869   0.564   1.152   2.703 -1.8575  1.9392  0.4797
 7412SOL    HW233870   0.563   1.041   2.611  0.5666  0.0564  1.2177
 7413SOL     OW33871   3.934   3.561   7.642  0.1944 -0.2742  0.2113
 7413SOL    HW133872   3.856   3.594   7.687  0.4709 -0.9709  1.2073
 7413SOL    HW233873   3.990   3.531   7.714  2.7823 -1.8466 -2.4644
 7414SOL     OW33874   4.198   0.281   7.112  0.0980  0.5807  0.0922
 7414SOL    HW133875   4.109   0.280   7.148  0.1123  1.2115  0.1407
 7414SOL    HW233876   4.216   0.375   7.107  1.0882  0.4597  1.3100
 7415SOL     OW33877   0.523   4.673   3.919  0.5361 -0.1649 -0.2677
 7415SOL    HW133878   0.456   4.719   3.968  0.6906  0.0905 -0.2966
 7415SOL    HW233879   0.543   4.609   3.987 -1.6371 -0.3376  0.2085
 7416SOL     OW33880   2.340   1.492   6.941 -0.6926 -0.0454 -0.2309
 7416SOL    HW133881   2.273   1.441   6.896  1.2070 -1.8212 -1.0345
 7416SOL    HW233882   2.348   1.460   7.031 -1.1006 -1.8245 -0.8250
 7417SOL     OW33883   3.955   1.115   6.802  0.4421 -0.5218  0.4468
 7417SOL    HW133884   3.939   1.040   6.744  0.7995 -0.2542  0.0001
 7417SOL    HW233885   4.022   1.162   6.752  1.3050 -0.9859  1.1765
 7418SOL     OW33886   0.932   1.324   4.019 -0.0640  0.5102  0.3891
 7418SOL    HW133887   0.923   1.277   4.102  2.8852  1.3028  1.1820
 7418SOL    HW233888   1.020   1.291   3.998 -0.5292 -1.4446  1.5167
 7419SOL     OW33889   4.079   1.491  12.785  0.0189 -0.1075  0.0324
 7419SOL    HW133890   4.078   1.432  12.860  1.2344  1.6788  1.4445
 7419SOL    HW233891   3.991   1.526  12.777 -0.5651 -2.0806 -2.3585
 7420SOL     OW33892   1.625   1.069  13.131  0.2346 -0.1955  0.2682
 7420SOL    HW133893   1.556   1.050  13.194 -0.4710 -1.6100 -0.9371
 7420SOL    HW233894   1.698   1.098  13.186 -0.8787  1.8923  0.6329
 7421SOL     OW33895   2.739   3.574   2.360  0.0893 -0.3884 -0.2881
 7421SOL    HW133896   2.703   3.485   2.358  0.9878 -0.7455 -0.3841
 7421SOL    HW233897   2.832   3.558   2.371  0.1712 -0.8428 -1.6285
 7422SOL     OW33898   3.716   1.405  16.682 -0.3921  0.1908  0.1509
 7422SOL    HW133899   3.742   1.411  16.590 -1.8503  0.0974 -0.2833
 7422SOL    HW233900   3.626   1.439  16.675 -0.3359  0.0071 -1.6280
 7423SOL     OW33901   3.654   4.311   5.450  0.1991 -0.1047  0.2813
 7423SOL    HW133902   3.643   4.271   5.536  0.2708  0.9354  0.7753
 7423SOL    HW233903   3.610   4.395   5.466 -1.2076 -0.9848  0.9711
 7424SOL     OW33904   4.325   1.765   4.556 -0.2057 -0.0934 -0.8422
 7424SOL    HW133905   4.260   1.836   4.546  0.8831  1.2371  1.3695
 7424SOL    HW233906   4.276   1.687   4.533 -0.3639 -0.6481  1.3722
 7425SOL     OW33907   0.716   4.284   6.547  0.0097  0.8224  0.0621
 7425SOL    HW133908   0.647   4.218   6.553  0.8124 -0.0129  0.1946
 7425SOL    HW233909   0.745   4.285   6.638 -0.3591  0.8426  0.1794
 7426SOL     OW33910   0.874   2.959  12.436  0.8089  0.0970  0.6760
 7426SOL    HW133911   0.818   2.963  12.359 -2.2799 -3.8785  2.7023
 7426SOL    HW233912   0.928   3.036  12.421  0.8910  0.1335  1.1630
 7427SOL     OW33913   4.716   0.440  10.389  0.3857  0.6630 -0.1432
 7427SOL    HW133914   0.074   0.438  10.388  0.2991 -2.0514 -2.1608
 7427SOL    HW233915   4.698   0.424  10.482 -0.8161 -2.0532 -0.8715
 7428SOL     OW33916   2.213   0.361  16.631 -0.4106 -0.5420 -0.8672
 7428SOL    HW133917   2.192   0.304  16.705  0.9124 -0.3798 -0.3618
 7428SOL    HW233918   2.309   0.361  16.622 -0.3935 -0.7772 -0.6730
 7429SOL     OW33919   0.643   3.365   5.147 -0.0526  0.5067  0.1794
 7429SOL    HW133920   0.735   3.362   5.120  0.0391  1.0597  0.4420
 7429SOL    HW233921   0.598   3.411   5.076 -0.9510 -0.4939  0.0873
 7430SOL     OW33922   0.224   2.108  17.626  0.4165  0.2674 -0.4291
 7430SOL    HW133923   0.141   2.128  17.583  1.1621  0.4328 -1.7783
 7430SOL    HW233924   0.255   2.196  17.643  1.2930 -0.2221  0.4582
 7431SOL     OW33925   4.293   3.195   9.455  0.2355 -0.0178  0.1666
 7431SOL    HW133926   4.218   3.146   9.424  1.7995 -2.3181  0.0297
 7431SOL    HW233927   4.260   3.223   9.540  0.4182 -0.2151  0.3029
 7432SOL     OW33928   2.338   4.515   3.683  0.3240 -0.0647 -0.0363
 7432SOL    HW133929   2.430   4.537   3.693  0.0195  1.1931 -0.0003
 7432SOL    HW233930   2.297   4.554   3.761 -2.7428 -0.8398 -1.2621
 7433SOL     OW33931   1.520   0.560   9.517  0.6459 -0.4612 -0.6189
 7433SOL    HW133932   1.545   0.553   9.609  2.2035 -0.6306 -1.0482
 7433SOL    HW233933   1.602   0.563   9.469  0.0304 -0.0581 -1.6432
 7434SOL     OW33934   0.463   1.720  11.014  0.6952 -0.5117 -0.4726
 7434SOL    HW133935   0.381   1.724  10.964 -0.9003 -3.2462  1.9246
 7434SOL    HW233936   0.444   1.658  11.084  0.3740  1.0538  0.8279
 7435SOL     OW33937   1.559   2.914   3.642  0.0788  0.9316 -0.0683
 7435SOL    HW133938   1.475   2.929   3.599  0.1708  0.2948 -0.4680
 7435SOL    HW233939   1.623   2.904   3.571 -1.2760 -0.6804 -1.0682
 7436SOL     OW33940   4.080   4.317  10.721  0.3985 -0.4548  0.2365
 7436SOL    HW133941   4.137   4.351  10.790 -0.4567  0.5515  0.4500
 7436SOL    HW233942   4.077   4.223  10.738 -3.9461 -0.2756  0.5386
 7437SOL     OW33943   2.205   2.679   6.891 -0.0271  0.1724  0.2888
 7437SOL    HW133944   2.268   2.608   6.904 -0.4288  0.2372  2.6620
 7437SOL    HW233945   2.141   2.658   6.960 -0.8504  0.4802 -0.3864
 7438SOL     OW33946   0.866   3.989   3.611  0.8311 -0.0780  0.3913
 7438SOL    HW133947   0.909   3.925   3.667  0.5002  2.2979  3.3307
 7438SOL    HW233948   0.886   4.075   3.648  3.1630 -0.3374 -0.2456
 7439SOL     OW33949   2.040   1.101   6.679 -0.6319  0.7050  0.1246
 7439SOL    HW133950   2.013   1.122   6.589 -3.3433 -2.0056  0.2970
 7439SOL    HW233951   2.036   1.008   6.657 -0.4614  1.5379 -3.5462
 7440SOL     OW33952   1.051   2.199   6.917 -0.3484 -0.1713 -0.5214
 7440SOL    HW133953   1.037   2.200   6.822 -0.6668  0.6432 -0.4663
 7440SOL    HW233954   1.142   2.229   6.907  0.0771 -1.3216 -0.0353
 7441SOL     OW33955   3.119   3.913  10.272  0.3781 -0.2604  0.2154
 7441SOL    HW133956   3.204   3.922  10.315  0.8897 -1.5275 -0.5080
 7441SOL    HW233957   3.106   3.818  10.283  3.1992 -0.7849 -1.0260
 7442SOL     OW33958   3.349   0.637  14.916  0.1076 -0.2297  0.3646
 7442SOL    HW133959   3.388   0.633  15.003  1.0354 -4.6463 -0.2539
 7442SOL    HW233960   3.397   0.570  14.867  0.6129  0.7969 -0.5652
 7443SOL     OW33961   2.141   3.901   8.758 -0.3832  0.2636 -0.2803
 7443SOL    HW133962   2.160   3.887   8.851  0.3719 -0.4445 -0.5360
 7443SOL    HW233963   2.155   3.995   8.746 -0.7157  0.0280 -2.6798
 7444SOL     OW33964   3.925   1.593  14.752  0.2968  0.0265 -0.1306
 7444SOL    HW133965   3.937   1.535  14.827  0.5646  0.1612 -0.0716
 7444SOL    HW233966   3.924   1.681  14.790 -0.4463 -0.5282  1.1438
 7445SOL     OW33967   1.693   2.973   7.390 -0.6917  0.4012  0.3414
 7445SOL    HW133968   1.711   2.923   7.469  1.7275  2.2294  0.9462
 7445SOL    HW233969   1.770   3.030   7.384 -0.0911 -0.3403  1.0451
 7446SOL     OW33970   3.452   2.978  10.518 -0.3674  0.1705  0.4785
 7446SOL    HW133971   3.450   2.925  10.438 -2.3005  1.2190 -0.1919
 7446SOL    HW233972   3.436   2.912  10.586  1.5636 -0.3579  0.4060
 7447SOL     OW33973   0.600   0.381   8.788 -0.5129  0.4265  0.2673
 7447SOL    HW133974   0.571   0.429   8.711  1.3113 -0.2647 -0.8380
 7447SOL    HW233975   0.518   0.359   8.833 -0.7732  0.0812 -0.3888
 7448SOL     OW33976   4.372   2.015   3.673 -0.4270 -0.3628  0.8340
 7448SOL    HW133977   4.411   1.930   3.695 -0.5001 -0.5519  0.2397
 7448SOL    HW233978   4.392   2.013   3.579 -0.5464  3.1043  0.7471
 7449SOL     OW33979   2.017   2.366   2.835  0.7115  0.0264 -0.1329
 7449SOL    HW133980   2.035   2.289   2.890 -0.7295 -0.9929 -1.1001
 7449SOL    HW233981   2.106   2.397   2.819  1.3048 -0.8043  1.5110
 7450SOL     OW33982   0.782   4.209   2.385 -0.0129 -0.0530 -0.1030
 7450SOL    HW133983   0.770   4.267   2.309  2.4338  1.7156  0.8810
 7450SOL    HW233984   0.819   4.129   2.349  0.4013  1.1967 -2.4730
 7451SOL     OW33985   1.377   0.293   2.801  0.0436  0.8598  0.1667
 7451SOL    HW133986   1.416   0.380   2.794  1.1246  0.4529  1.1465
 7451SOL    HW233987   1.458   0.245   2.816  0.0141  1.0147  0.8051
 7452SOL     OW33988   4.136   0.063   2.973  0.1118  0.2134 -0.3541
 7452SOL    HW133989   4.061   0.003   2.972 -1.3112  1.9523  1.0199
 7452SOL    HW233990   4.174   0.026   2.894  2.3756  0.9084  0.4169
 7453SOL     OW33991   2.643   2.295   2.340  0.1171  0.5397  0.0217
 7453SOL    HW133992   2.658   2.340   2.423 -0.9750 -2.1270  1.6633
 7453SOL    HW233993   2.638   2.205   2.374 -0.7190  0.9309  0.9233
 7454SOL     OW33994   1.969   3.293   3.475  0.0286 -0.5183  0.2977
 7454SOL    HW133995   1.990   3.387   3.477 -0.3999 -0.4375  0.9084
 7454SOL    HW233996   1.880   3.296   3.510 -0.6525 -1.5032 -1.3927
 7455SOL     OW33997   3.094   2.545   4.033  0.3764  0.6984 -0.5184
 7455SOL    HW133998   3.152   2.609   4.075  2.3928 -1.5409  0.1047
 7455SOL    HW233999   3.120   2.463   4.075 -0.0758  1.6671  1.6358
 7456SOL     OW34000   2.190   3.537  10.934  0.3808  0.3424 -0.4417
 7456SOL    HW134001   2.122   3.557  10.998  1.8745  2.3844  0.5385
 7456SOL    HW234002   2.264   3.518  10.992  1.8055 -1.4579 -2.8306
 7457SOL     OW34003   0.661   1.622   8.550  0.2967  0.2011  0.1809
 7457SOL    HW134004   0.723   1.680   8.595  0.4232 -0.9679  1.5070
 7457SOL    HW234005   0.723   1.569   8.500  2.0191  0.3983  2.1395
 7458SOL     OW34006   3.416   1.274  15.578  0.5207 -0.4351 -0.3898
 7458SOL    HW134007   3.420   1.311  15.667  1.3433  1.8635 -1.3730
 7458SOL    HW234008   3.371   1.348  15.537 -2.4135 -2.4392 -0.7121
 7459SOL     OW34009   0.538   2.371  11.015 -0.0876 -0.0892  0.2912
 7459SOL    HW134010   0.591   2.429  10.960  0.6631 -0.8817  0.1785
 7459SOL    HW234011   0.575   2.381  11.103  2.7685  1.0188 -1.0435
 7460SOL     OW34012   1.069   1.209   5.905  0.0033 -0.2504  1.1494
 7460SOL    HW134013   1.068   1.141   5.972  0.5876 -1.1021  0.3064
 7460SOL    HW234014   1.041   1.291   5.944  2.3645  1.1053 -0.0227
 7461SOL     OW34015   0.477   2.137   3.695 -0.0176 -0.0439 -0.1789
 7461SOL    HW134016   0.530   2.059   3.708  1.3322  0.8819 -0.1278
 7461SOL    HW234017   0.537   2.194   3.648  0.4663 -0.3885  0.0199
 7462SOL     OW34018   0.851   0.617   4.934  0.1672 -0.1850 -0.2557
 7462SOL    HW134019   0.832   0.524   4.939 -0.0388 -0.1580 -0.5639
 7462SOL    HW234020   0.932   0.622   4.882  0.5666  1.2355  0.5103
 7463SOL     OW34021   2.196   0.454   7.295  0.0468  0.4032 -0.4508
 7463SOL    HW134022   2.273   0.459   7.351  0.0648 -0.8708 -0.3503
 7463SOL    HW234023   2.212   0.372   7.249 -1.8504 -0.1816 -0.0753
 7464SOL     OW34024   4.241   2.174   7.615 -0.6424  0.5663  0.1255
 7464SOL    HW134025   4.191   2.093   7.603 -0.6980  0.5404  0.5312
 7464SOL    HW234026   4.186   2.233   7.564  1.7707  1.5844 -1.3229
 7465SOL     OW34027   3.365   0.942   9.673 -0.2743  0.3674 -0.4213
 7465SOL    HW134028   3.317   0.952   9.756  0.4945 -2.2500  0.3323
 7465SOL    HW234029   3.458   0.929   9.690 -0.4715  0.2743  0.5781
 7466SOL     OW34030   1.028   0.477   8.466 -0.0851 -0.4608  0.1958
 7466SOL    HW134031   1.038   0.461   8.372 -2.0755 -0.5949  0.0132
 7466SOL    HW234032   1.004   0.570   8.466 -3.0091 -1.2055 -1.5671
 7467SOL     OW34033   0.632   2.107   1.159 -0.1282  0.5931 -0.1657
 7467SOL    HW134034   0.671   2.188   1.193  2.0040 -0.9484  1.0720
 7467SOL    HW234035   0.556   2.149   1.120  0.0341 -0.1069 -1.2242
 7468SOL     OW34036   4.039   4.715   8.628 -0.3888 -0.3011 -0.3160
 7468SOL    HW134037   4.032   4.651   8.699 -1.9962 -2.4916 -2.4772
 7468SOL    HW234038   4.017   0.058   8.674 -0.0840 -0.1480 -0.4341
 7469SOL     OW34039   4.692   1.457   3.156  0.1284  0.0395  0.7377
 7469SOL    HW134040   4.633   1.436   3.083  2.2219  3.2681 -1.8563
 7469SOL    HW234041   0.022   1.396   3.127 -1.0767 -0.8016 -0.3402
 7470SOL     OW34042   3.151   1.835   3.488 -0.5418 -1.0825  0.2146
 7470SOL    HW134043   3.189   1.781   3.420 -0.4819 -0.5024 -0.2135
 7470SOL    HW234044   3.192   1.916   3.457  0.0407 -0.7566  1.8472
 7471SOL     OW34045   0.690   2.155  14.932  0.0071  0.3388  0.3404
 7471SOL    HW134046   0.635   2.124  15.004  1.7501 -0.6993  1.2355
 7471SOL    HW234047   0.760   2.196  14.984  2.6749 -1.6332 -1.6893
 7472SOL     OW34048   1.897   1.925   2.628 -0.0952  0.1144 -0.1218
 7472SOL    HW134049   1.904   2.021   2.623 -0.5751  0.0879 -1.6154
 7472SOL    HW234050   1.931   1.894   2.711 -0.3902  2.9114  1.0616
 7473SOL     OW34051   2.620   2.545  16.766  0.2273 -0.0172 -0.1854
 7473SOL    HW134052   2.690   2.552  16.702 -0.9549 -1.5788 -1.6275
 7473SOL    HW234053   2.542   2.560  16.712  0.6400 -0.0835 -0.7928
 7474SOL     OW34054   2.499   0.158   5.134  0.7441  0.0603  0.1826
 7474SOL    HW134055   2.524   0.155   5.226 -1.9226  0.4395  0.9154
 7474SOL    HW234056   2.516   0.249   5.111  1.1821  0.2089  1.0786
 7475SOL     OW34057   0.496   0.772   4.062 -0.0571  0.3295  0.2570
 7475SOL    HW134058   0.476   0.764   3.968  0.9960  1.2665 -0.0548
 7475SOL    HW234059   0.494   0.868   4.064 -0.3924  0.4374 -3.4947
 7476SOL     OW34060   1.500   2.641   5.989  0.8388  0.5930 -0.1994
 7476SOL    HW134061   1.446   2.565   6.010 -0.8461  1.9541  0.3858
 7476SOL    HW234062   1.513   2.690   6.071  0.1054  0.5378 -0.0512
 7477SOL     OW34063   3.457   0.028  10.903  0.7540  0.1178 -0.0660
 7477SOL    HW134064   3.377   0.044  10.953  0.2313 -2.6931  0.0459
 7477SOL    HW234065   3.502   4.691  10.942 -0.9521 -1.1403 -0.5218
 7478SOL     OW34066   1.138   1.000  11.291  0.0036  0.4273 -0.0928
 7478SOL    HW134067   1.227   1.028  11.270 -0.0165  0.0324 -0.7075
 7478SOL    HW234068   1.111   1.072  11.347  2.7044  1.4625 -0.1092
 7479SOL     OW34069   3.990   1.873  17.112  0.4782 -0.0586 -0.1112
 7479SOL    HW134070   4.013   1.784  17.137  0.6521 -0.2022 -0.7949
 7479SOL    HW234071   3.903   1.861  17.073  0.2878 -0.3808  0.4053
 7480SOL     OW34072   4.586   2.233   7.198  0.1898  0.3503  0.1560
 7480SOL    HW134073   4.587   2.251   7.292 -1.9026 -0.1752  0.2769
 7480SOL    HW234074   4.587   2.318   7.153  0.5058  0.1424 -0.2279
 7481SOL     OW34075   4.269   0.871  12.267  0.0981  0.2868 -0.1719
 7481SOL    HW134076   4.183   0.834  12.245 -0.7064  1.0855  1.6148
 7481SOL    HW234077   4.250   0.959  12.233 -0.5700 -0.0413 -0.6521
 7482SOL     OW34078   3.422   4.253  12.873 -0.0863 -0.3310  0.4683
 7482SOL    HW134079   3.454   4.167  12.899 -1.4114 -0.3355  2.0743
 7482SOL    HW234080   3.494   4.310  12.899  0.0350 -0.3317  0.1369
 7483SOL     OW34081   4.085   2.747  17.087  0.0290 -0.4098 -0.3491
 7483SOL    HW134082   4.039   2.709  17.012 -0.9372 -1.0059  0.5463
 7483SOL    HW234083   4.029   2.730  17.163  1.3945 -2.0206  0.2997
 7484SOL     OW34084   3.632   1.352  11.314  0.1563  0.6401 -0.9581
 7484SOL    HW134085   3.549   1.304  11.318 -0.6592  2.0447 -1.2893
 7484SOL    HW234086   3.595   1.439  11.306 -1.4942 -0.2129 -2.6572
 7485SOL     OW34087   2.167   3.298   5.540 -0.0779  0.1199 -0.4072
 7485SOL    HW134088   2.199   3.255   5.460  0.0405 -2.3586  0.9792
 7485SOL    HW234089   2.245   3.294   5.595  1.1475  0.6440 -2.0876
 7486SOL     OW34090   4.253   1.921  17.317 -0.0063  0.3815 -0.3547
 7486SOL    HW134091   4.289   1.834  17.334 -0.1864  0.7876  2.1831
 7486SOL    HW234092   4.246   1.914  17.222  0.1439  0.9442 -0.4074
 7487SOL     OW34093   2.663   3.976  16.579 -0.4783  0.0060 -0.1721
 7487SOL    HW134094   2.682   3.937  16.493 -0.2275 -0.6521  0.1847
 7487SOL    HW234095   2.694   3.898  16.625  2.2712 -0.3067 -2.5026
 7488SOL     OW34096   3.609   0.121  17.018  0.2551 -0.3328  0.1626
 7488SOL    HW134097   3.612   0.214  16.995  2.0991 -0.8013 -1.5349
 7488SOL    HW234098   3.524   0.110  17.060 -1.7073 -3.0967 -4.4749
 7489SOL     OW34099   4.646   0.079   4.075 -0.2351  0.1726 -0.0398
 7489SOL    HW134100   4.587   0.150   4.047 -0.9939 -0.4635 -0.0618
 7489SOL    HW234101   4.666   0.106   4.164  1.1695  1.7319 -0.8421
 7490SOL     OW34102   1.290   4.569   2.940  0.1058 -0.1158 -0.1119
 7490SOL    HW134103   1.210   4.618   2.961 -1.2936 -1.9917 -1.0831
 7490SOL    HW234104   1.275   4.479   2.969 -1.1995 -0.4192 -1.7277
 7491SOL     OW34105   0.833   2.073   6.248  1.0509 -0.1158 -0.4787
 7491SOL    HW134106   0.864   2.015   6.318  1.9182  0.0152 -0.7556
 7491SOL    HW234107   0.800   2.145   6.301 -1.3188  0.9431 -3.3585
 7492SOL     OW34108   2.557   3.959   4.261 -0.4125 -0.3175  0.1834
 7492SOL    HW134109   2.629   3.967   4.199 -0.4523  0.4031  0.2265
 7492SOL    HW234110   2.569   3.872   4.298 -1.8324 -0.7585 -0.4035
 7493SOL     OW34111   3.698   2.773  10.447  0.5280 -0.5072 -0.1059
 7493SOL    HW134112   3.699   2.863  10.415  2.3935 -0.3834  0.3109
 7493SOL    HW234113   3.620   2.742  10.401  0.7611 -0.3129 -0.6289
 7494SOL     OW34114   0.173   0.629   0.799 -0.4427 -0.9837  0.4054
 7494SOL    HW134115   0.189   0.679   0.879 -1.7218 -0.5615  0.3975
 7494SOL    HW234116   0.156   0.696   0.733 -0.1167  0.4422  1.7637
 7495SOL     OW34117   0.319   1.223  10.024  0.0424  0.7248 -0.0661
 7495SOL    HW134118   0.331   1.311   9.986  2.0752 -0.3149 -1.8257
 7495SOL    HW234119   0.230   1.211   9.992  0.3256  2.6492 -1.5741
 7496SOL     OW34120   0.207   4.430   0.655  0.5989  0.5254  0.3496
 7496SOL    HW134121   0.271   4.497   0.631  1.9382 -0.7254  0.4296
 7496SOL    HW234122   0.155   4.460   0.580  1.6762 -1.5791 -1.2381
 7497SOL     OW34123   0.909   4.415   5.707 -0.2363  0.2587  0.1178
 7497SOL    HW134124   0.859   4.344   5.748  0.5674 -0.1686  0.3439
 7497SOL    HW234125   0.973   4.421   5.778 -0.2677  1.2780  0.0510
 7498SOL     OW34126   0.980   4.203  13.523 -0.4184 -0.2050 -0.0901
 7498SOL    HW134127   0.923   4.280  13.521  2.2826  1.7624 -0.8231
 7498SOL    HW234128   0.980   4.175  13.615  1.0861 -3.2768 -1.0206
 7499SOL     OW34129   2.854   4.324  10.370  0.3454  0.8250 -0.3671
 7499SOL    HW134130   2.898   4.247  10.408 -1.1084 -0.2810 -0.9200
 7499SOL    HW234131   2.914   4.388  10.409  3.1159 -3.1283  1.9299
 7500SOL     OW34132   0.274   2.650   2.459 -0.3116  0.4903 -0.2428
 7500SOL    HW134133   0.298   2.633   2.550 -1.1445  0.0637 -0.0972
 7500SOL    HW234134   0.333   2.722   2.438  0.1559  0.4446  0.9006
 7501SOL     OW34135   1.947   2.075   6.062 -0.1988 -0.0560  0.2391
 7501SOL    HW134136   1.891   2.065   6.140 -1.6904 -0.3824 -0.8774
 7501SOL    HW234137   1.960   2.170   6.059 -1.4780  0.1370  0.6760
 7502SOL     OW34138   4.278   0.737  11.871 -0.2732  0.2969 -0.0653
 7502SOL    HW134139   4.305   0.828  11.857 -1.6177  0.6797 -0.1334
 7502SOL    HW234140   4.213   0.751  11.940 -1.2506 -0.8577 -0.7622
 7503SOL     OW34141   3.370   1.118  10.421  0.0793 -0.2358 -0.0890
 7503SOL    HW134142   3.315   1.092  10.348 -0.9163  0.3468  0.4487
 7503SOL    HW234143   3.332   1.206  10.423  0.5685 -0.0896  3.4699
 7504SOL     OW34144   2.267   2.187  15.950  0.6625  0.0980 -0.2017
 7504SOL    HW134145   2.261   2.245  16.026 -1.2785 -1.6966  1.0309
 7504SOL    HW234146   2.324   2.121  15.989 -0.5130 -0.8462 -0.0638
 7505SOL     OW34147   3.590   3.407   4.962 -0.3251 -0.2757 -0.1227
 7505SOL    HW134148   3.670   3.360   4.938  0.6597  1.1122  0.4846
 7505SOL    HW234149   3.599   3.493   4.921 -1.1792 -0.9480 -1.7243
 7506SOL     OW34150   4.018   2.573   2.586 -0.2424 -0.1465  0.6303
 7506SOL    HW134151   3.944   2.627   2.557  0.6700  1.2346  0.8773
 7506SOL    HW234152   4.043   2.528   2.505 -0.0631  0.5763  0.2867
 7507SOL     OW34153   3.917   4.127  11.032 -0.0759  0.1164 -0.1696
 7507SOL    HW134154   3.924   4.038  11.067 -0.1851 -0.2049 -0.9559
 7507SOL    HW234155   3.844   4.165  11.081  1.3743  1.0169  1.3099
 7508SOL     OW34156   3.351   1.580   6.373 -0.2903  0.1613  0.0949
 7508SOL    HW134157   3.402   1.527   6.434 -0.8367 -1.3776 -0.7919
 7508SOL    HW234158   3.269   1.578   6.422  0.7708  1.8380  1.9136
 7509SOL     OW34159   1.690   1.130   8.057  0.1577  0.8809 -0.2885
 7509SOL    HW134160   1.618   1.167   8.109  0.8761  0.8833  0.6992
 7509SOL    HW234161   1.684   1.038   8.081 -2.4753  0.7120 -1.5520
 7510SOL     OW34162   0.529   1.070   2.237  0.2701 -0.5139  0.5964
 7510SOL    HW134163   0.551   0.978   2.251 -0.6696 -0.9208 -0.5536
 7510SOL    HW234164   0.609   1.101   2.194 -0.3649  2.5431  1.6386
 7511SOL     OW34165   0.308   3.925  15.546 -0.4849 -0.3034 -0.2049
 7511SOL    HW134166   0.401   3.929  15.523 -0.4507 -0.9240 -0.1558
 7511SOL    HW234167   0.290   4.018  15.561  0.0729 -0.1709 -0.3447
 7512SOL     OW34168   0.767   2.253  15.689  0.2656 -0.0410 -0.0866
 7512SOL    HW134169   0.730   2.247  15.777  2.3648 -0.3256  0.7815
 7512SOL    HW234170   0.741   2.342  15.665  1.5766 -0.2311 -2.2323
 7513SOL     OW34171   0.214   2.457   2.911  0.1304  0.4948 -0.3664
 7513SOL    HW134172   0.216   2.386   2.847  0.9201  1.8306 -1.8167
 7513SOL    HW234173   0.275   2.421   2.976  0.1659  0.0459 -0.6513
 7514SOL     OW34174   0.496   2.825   0.054 -0.4329  0.3810  0.1219
 7514SOL    HW134175   0.492   2.916   0.085  0.3017  1.0459 -1.7261
 7514SOL    HW234176   0.416   2.783   0.086 -0.8762  0.5057 -0.8201
 7515SOL     OW34177   4.359   2.816   4.577 -0.2008  0.3613  0.0429
 7515SOL    HW134178   4.370   2.779   4.665 -0.4811  0.7303  0.2352
 7515SOL    HW234179   4.289   2.765   4.538 -0.9156  2.3963 -1.3342
 7516SOL     OW34180   2.446   2.883   2.514  0.1697 -0.5115  0.4356
 7516SOL    HW134181   2.444   2.969   2.556 -1.2705 -0.7413  0.8340
 7516SOL    HW234182   2.416   2.904   2.426 -0.7067  0.3029  0.9301
 7517SOL     OW34183   3.285   3.519   5.599  0.2257  0.5378 -0.3173
 7517SOL    HW134184   3.353   3.581   5.623  0.3911  0.1863  0.1207
 7517SOL    HW234185   3.329   3.461   5.538 -0.5047 -0.4692  0.1120
 7518SOL     OW34186   0.655   3.397  14.155  0.1516 -0.0890  0.6455
 7518SOL    HW134187   0.625   3.310  14.181 -1.2324  0.0589 -0.4690
 7518SOL    HW234188   0.660   3.433  14.243  1.0621 -0.7473  0.8692
 7519SOL     OW34189   2.894   0.312   0.186  0.0666  0.2445  0.3057
 7519SOL    HW134190   2.965   0.277   0.239  0.0444 -1.6990 -0.9390
 7519SOL    HW234191   2.815   0.310   0.239 -0.9859 -1.3663 -1.3391
 7520SOL     OW34192   0.514   3.160  10.469  0.2483  0.0680 -0.1955
 7520SOL    HW134193   0.584   3.109  10.509 -0.9597  0.1904  2.0824
 7520SOL    HW234194   0.531   3.250  10.496 -0.2169  0.0360  0.2095
 7521SOL     OW34195   1.610   3.302   9.317  0.0488 -0.1816 -0.1381
 7521SOL    HW134196   1.623   3.325   9.409 -2.0142  1.5744 -0.2794
 7521SOL    HW234197   1.557   3.374   9.283  1.4154  0.8962 -0.0230
 7522SOL     OW34198   0.576   0.173  10.509  0.2290  0.2320 -0.9403
 7522SOL    HW134199   0.672   0.181  10.509  0.1706  0.8999 -1.2946
 7522SOL    HW234200   0.562   0.261  10.543  3.6020  1.3210 -2.3183
 7523SOL     OW34201   0.442   3.690   6.247  0.1335  0.0018 -0.4729
 7523SOL    HW134202   0.444   3.781   6.218 -2.5909  0.1349 -0.2626
 7523SOL    HW234203   0.377   3.642   6.195 -0.1704  0.0946 -0.1754
 7524SOL     OW34204   3.860   0.993   5.836 -0.6551  0.2567  0.3530
 7524SOL    HW134205   3.935   0.937   5.814 -2.4468 -1.8452 -0.3756
 7524SOL    HW234206   3.807   0.927   5.880  0.5659 -1.1023 -0.1892
 7525SOL     OW34207   0.086   2.314   3.627  0.0850 -0.0442  0.2423
 7525SOL    HW134208   0.181   2.305   3.625  0.0686  0.0259 -0.9413
 7525SOL    HW234209   0.066   2.225   3.658  1.0904 -0.8902 -1.5275
 7526SOL     OW34210   2.813   1.046  15.487 -0.4286 -0.5433  0.1453
 7526SOL    HW134211   2.784   1.122  15.437  1.7528  0.8039  0.8913
 7526SOL    HW234212   2.741   0.988  15.464 -2.5461 -0.1158  5.6689
 7527SOL     OW34213   3.442   1.335   3.636  0.1526 -0.1848  0.5861
 7527SOL    HW134214   3.401   1.252   3.660  3.6121 -1.8898  0.6103
 7527SOL    HW234215   3.522   1.324   3.687  1.3157 -1.5187 -1.5121
 7528SOL     OW34216   2.954   1.794   5.134  0.3941  0.9608 -0.2246
 7528SOL    HW134217   3.049   1.805   5.144  0.9498 -2.0037 -2.0615
 7528SOL    HW234218   2.926   1.866   5.190 -2.9178 -1.5320  1.2872
 7529SOL     OW34219   4.143   3.558   5.286  0.6447 -0.0450  0.0310
 7529SOL    HW134220   4.186   3.513   5.213  0.3182  0.2777 -0.3627
 7529SOL    HW234221   4.205   3.531   5.353 -0.9721  0.0849  1.5789
 7530SOL     OW34222   0.984   0.771  15.379  0.1801 -0.0091 -0.0004
 7530SOL    HW134223   1.071   0.740  15.353 -0.6774 -1.4759 -1.1277
 7530SOL    HW234224   0.994   0.866  15.384 -0.3513  0.0052  0.7678
 7531SOL     OW34225   2.598   4.108   4.507 -0.0620 -0.0652 -0.0847
 7531SOL    HW134226   2.685   4.128   4.472 -0.9417  1.6733 -1.2364
 7531SOL    HW234227   2.553   4.064   4.435 -1.0504 -0.1059  0.5614
 7532SOL     OW34228   0.254   0.025  14.864  0.1771  0.5073 -1.1342
 7532SOL    HW134229   0.226   4.682  14.822  0.6256 -0.5123  0.5241
 7532SOL    HW234230   0.179   0.041  14.922 -1.4031 -1.6702 -2.5990
 7533SOL     OW34231   0.337   1.261   8.028 -0.0825 -0.7952  0.3151
 7533SOL    HW134232   0.363   1.311   8.105  1.4048 -2.3020  0.7829
 7533SOL    HW234233   0.421   1.219   8.011  0.0540  0.2675 -1.6203
 7534SOL     OW34234   1.325   3.020   3.530  0.1835  0.2799 -0.0879
 7534SOL    HW134235   1.238   3.053   3.505 -0.0352  0.7823  1.3244
 7534SOL    HW234236   1.372   3.089   3.483  1.1777  0.8527  1.7549
 7535SOL     OW34237   3.386   1.034  12.073 -0.1410 -0.3269  0.2569
 7535SOL    HW134238   3.360   1.125  12.058  2.4426  0.2497 -0.7784
 7535SOL    HW234239   3.304   0.986  12.085  0.1887 -0.9392  0.0656
 7536SOL     OW34240   3.283   3.034   8.125  0.6795 -0.1921  0.3457
 7536SOL    HW134241   3.320   2.952   8.094  2.1936  1.2864 -1.7912
 7536SOL    HW234242   3.333   3.092   8.068  0.0348 -0.9848 -1.0149
 7537SOL     OW34243   0.344   2.786   4.101 -0.9599  0.2073  0.2383
 7537SOL    HW134244   0.289   2.775   4.024  0.1448 -2.4451 -0.1804
 7537SOL    HW234245   0.285   2.840   4.154  0.4612  1.0558  0.9715
 7538SOL     OW34246   0.801   2.420   7.456  0.1879 -0.2750 -0.2698
 7538SOL    HW134247   0.885   2.459   7.478  0.6678  0.1086 -2.8089
 7538SOL    HW234248   0.818   2.365   7.379 -1.2681  1.8210 -2.1050
 7539SOL     OW34249   0.407   0.504  16.455  0.3205 -0.2464  0.2319
 7539SOL    HW134250   0.409   0.424  16.507 -0.2558  0.3850  1.2101
 7539SOL    HW234251   0.353   0.473  16.382 -0.8905 -0.3859  1.1820
 7540SOL     OW34252   1.424   4.275  17.340  0.2935 -0.5729 -0.3945
 7540SOL    HW134253   1.378   4.219  17.278  0.2916  0.0005 -0.9176
 7540SOL    HW234254   1.355   4.320  17.389  1.9673 -0.7647  2.1505
 7541SOL     OW34255   0.263   4.361   5.240 -0.2147 -0.3874 -0.2240
 7541SOL    HW134256   0.240   4.284   5.188 -3.4059 -0.5830  1.4633
 7541SOL    HW234257   0.180   4.409   5.243  0.2856  0.5143 -1.0220
 7542SOL     OW34258   4.314   3.429   9.959  0.4164  0.0900  0.3281
 7542SOL    HW134259   4.335   3.396  10.046 -2.2015  3.1939  2.1668
 7542SOL    HW234260   4.365   3.511   9.958  0.6027 -0.0222  0.5563
 7543SOL     OW34261   2.057   0.389   1.240  0.0126  0.2927  0.1018
 7543SOL    HW134262   2.032   0.318   1.300  0.8630 -0.9108 -0.9639
 7543SOL    HW234263   2.134   0.427   1.282 -0.5966 -0.1539  1.6221
 7544SOL     OW34264   1.253   2.112  11.056 -0.0962  0.2688  0.2019
 7544SOL    HW134265   1.262   2.206  11.037  2.5222  0.2189  1.2285
 7544SOL    HW234266   1.199   2.098  11.134  0.7806  0.4616  0.8405
 7545SOL     OW34267   3.814   0.043   5.618 -0.3477 -0.0374  0.3886
 7545SOL    HW134268   3.760   0.039   5.540  1.5531  0.8203 -0.9621
 7545SOL    HW234269   3.772   0.116   5.665 -0.7875  0.4879 -0.8291
 7546SOL     OW34270   2.814   3.669   1.296 -0.0790  0.3146  0.2279
 7546SOL    HW134271   2.891   3.712   1.334 -0.3958  0.6432  0.5027
 7546SOL    HW234272   2.750   3.717   1.349  1.3120 -0.9971  3.1342
 7547SOL     OW34273   3.848   3.896   2.949  0.2596 -0.0437  1.2557
 7547SOL    HW134274   3.942   3.892   2.935  0.1374  1.3301  0.0360
 7547SOL    HW234275   3.816   3.861   2.866  2.8717  0.2749  0.1322
 7548SOL     OW34276   0.274   3.608   3.275  0.0386 -0.1175  0.1927
 7548SOL    HW134277   0.221   3.615   3.195 -0.5952 -0.0167  0.6200
 7548SOL    HW234278   0.278   3.699   3.306 -1.5529 -0.2545  0.7948
 7549SOL     OW34279   1.045   1.733   2.211  0.1488 -0.1667  0.4810
 7549SOL    HW134280   0.993   1.653   2.212 -1.8266  1.0717 -2.0432
 7549SOL    HW234281   1.120   1.690   2.171 -1.0761 -1.7441 -0.1168
 7550SOL     OW34282   3.177   0.727   7.439  0.4548 -0.2452  0.1986
 7550SOL    HW134283   3.123   0.652   7.414  1.7982 -1.3980  0.8226
 7550SOL    HW234284   3.196   0.777   7.359  3.7014  1.3227  1.9870
 7551SOL     OW34285   3.835   0.250   9.923  0.0930  0.0829  0.4871
 7551SOL    HW134286   3.833   0.332   9.973  3.4350  0.7297 -0.4217
 7551SOL    HW234287   3.913   0.272   9.872 -0.7165 -0.6840 -1.0741
 7552SOL     OW34288   0.588   3.604   7.832 -0.1014  0.0064 -0.2510
 7552SOL    HW134289   0.522   3.621   7.899  0.7409  0.4814  0.4607
 7552SOL    HW234290   0.605   3.689   7.790  0.5935 -0.4535 -0.9024
 7553SOL     OW34291   1.378   2.202   0.925 -0.2060  0.3640 -0.4676
 7553SOL    HW134292   1.336   2.116   0.914  0.0088  0.0251  1.3568
 7553SOL    HW234293   1.467   2.177   0.951 -0.5290 -0.4116 -0.0949
 7554SOL     OW34294   2.566   4.083   5.054  0.4848  0.6188 -0.1988
 7554SOL    HW134295   2.489   4.137   5.033 -0.5651  0.2416  2.7429
 7554SOL    HW234296   2.630   4.116   4.990  0.8316 -0.4871 -0.4166
 7555SOL     OW34297   4.181   1.031   6.501  0.0650  0.3579 -0.2247
 7555SOL    HW134298   4.175   0.955   6.559 -0.0947  0.2653 -0.3637
 7555SOL    HW234299   4.204   1.094   6.570  0.6348  0.6637 -0.6978
 7556SOL     OW34300   2.096   2.664  13.714  0.2916 -0.5322 -0.0666
 7556SOL    HW134301   2.022   2.643  13.657  1.1622  0.4368 -1.5597
 7556SOL    HW234302   2.167   2.625  13.664  0.1451 -0.0895 -0.6197
 7557SOL     OW34303   2.547   2.586   6.695 -1.0665 -0.1812 -0.1886
 7557SOL    HW134304   2.550   2.662   6.636  4.4705 -0.4327 -0.2929
 7557SOL    HW234305   2.547   2.517   6.630 -1.5348 -0.4326  0.0826
 7558SOL     OW34306   0.955   3.429   3.162  0.0641 -0.0739 -0.6186
 7558SOL    HW134307   0.871   3.417   3.118  0.4632 -4.4274 -0.2036
 7558SOL    HW234308   1.014   3.448   3.089 -1.5691  0.6007 -1.7660
 7559SOL     OW34309   3.303   3.423   6.849 -0.2671 -0.7194  0.0101
 7559SOL    HW134310   3.258   3.476   6.914 -0.4723  0.8305 -1.3919
 7559SOL    HW234311   3.255   3.450   6.771 -3.7323  0.6151  2.6102
 7560SOL     OW34312   4.348   1.728   6.603 -0.2557 -0.8215  0.5893
 7560SOL    HW134313   4.407   1.739   6.678  0.4834  0.9450 -0.2542
 7560SOL    HW234314   4.321   1.637   6.615 -4.0139  0.3227  1.0428
 7561SOL     OW34315   3.218   1.196   8.752 -0.3554  0.8220 -0.3756
 7561SOL    HW134316   3.263   1.124   8.708 -1.4734 -0.4292  0.5598
 7561SOL    HW234317   3.181   1.155   8.829 -1.4742 -1.3233 -2.0529
 7562SOL     OW34318   2.017   0.709  11.672  0.8132  0.2212 -0.0234
 7562SOL    HW134319   2.051   0.624  11.643  0.6982 -1.1262  3.8061
 7562SOL    HW234320   2.089   0.744  11.724  0.7881  0.2918 -0.0359
 7563SOL     OW34321   3.879   0.960   4.585 -0.1186 -0.3418 -0.6075
 7563SOL    HW134322   3.817   0.910   4.638  0.5586  0.5086  0.9655
 7563SOL    HW234323   3.834   1.045   4.576 -0.6063 -0.7354 -1.8880
 7564SOL     OW34324   1.957   0.608   1.485 -0.1365  0.3949  0.4158
 7564SOL    HW134325   2.030   0.548   1.501 -0.9331 -1.2495 -2.2436
 7564SOL    HW234326   1.989   0.672   1.422 -0.3482  0.6555  0.5727
 7565SOL     OW34327   0.723   1.421  15.666 -0.1783 -0.1021 -0.2124
 7565SOL    HW134328   0.628   1.421  15.659 -0.2058  0.3127  0.0865
 7565SOL    HW234329   0.745   1.451  15.578  1.6492  1.0927  0.6348
 7566SOL     OW34330   3.180   4.674   5.810 -0.2496 -0.0023 -0.3165
 7566SOL    HW134331   3.196   0.029   5.802 -0.7799  0.0921 -0.2939
 7566SOL    HW234332   3.084   4.663   5.811 -0.2335 -0.0922  0.1627
 7567SOL     OW34333   1.959   2.414   8.596 -0.1201 -0.4200 -0.0627
 7567SOL    HW134334   1.917   2.491   8.634  1.6733  0.1556  0.7240
 7567SOL    HW234335   1.946   2.348   8.664  2.4259 -0.3365  0.4938
 7568SOL     OW34336   0.269   1.720   9.025 -0.0497  0.2811 -0.6162
 7568SOL    HW134337   0.279   1.642   8.970 -0.4036 -0.4808  0.3857
 7568SOL    HW234338   0.337   1.777   8.989 -0.1203  1.7974  1.6560
 7569SOL     OW34339   2.646   0.259   2.905 -0.1317  0.5536  0.3145
 7569SOL    HW134340   2.551   0.252   2.894 -0.0012 -1.0119  0.1816
 7569SOL    HW234341   2.673   0.174   2.868 -0.9657  1.3103 -2.0723
 7570SOL     OW34342   4.390   3.826   4.546 -0.1903 -0.2202 -0.6584
 7570SOL    HW134343   4.482   3.805   4.527 -0.0685 -0.6275  0.3973
 7570SOL    HW234344   4.364   3.839   4.455 -0.6275 -0.0008 -0.4981
 7571SOL     OW34345   3.726   3.880   4.265 -0.3141  0.5799 -0.6363
 7571SOL    HW134346   3.731   3.834   4.349  0.2517 -1.0351 -1.5780
 7571SOL    HW234347   3.740   3.972   4.290  2.0339  0.3466 -1.0975
 7572SOL     OW34348   2.857   1.979   4.167  0.2918 -0.0178  0.2059
 7572SOL    HW134349   2.778   1.980   4.113 -0.6000  1.4764  1.5170
 7572SOL    HW234350   2.905   2.055   4.132 -0.6568  0.6715  0.3849
 7573SOL     OW34351   1.865   0.055   8.109  0.1077  0.7389 -0.6198
 7573SOL    HW134352   1.880   0.057   8.203  0.6898 -0.3082 -0.6970
 7573SOL    HW234353   1.863   0.148   8.085 -1.3684  1.0193  0.5728
 7574SOL     OW34354   1.567   4.691   1.743 -0.0578 -0.3048  0.4218
 7574SOL    HW134355   1.659   4.717   1.734 -0.0843 -0.7541 -1.0743
 7574SOL    HW234356   1.523   0.004   1.675  0.4866  0.4099  0.5994
 7575SOL     OW34357   0.924   2.569   1.995  0.5576 -0.0243  0.4028
 7575SOL    HW134358   0.981   2.559   2.072 -0.6839 -0.1238  1.3202
 7575SOL    HW234359   0.846   2.608   2.035 -0.2664 -0.3498 -0.9035
 7576SOL     OW34360   1.419   2.195   1.299  0.2424 -0.0595 -0.0284
 7576SOL    HW134361   1.433   2.115   1.249 -0.0522 -0.0536 -0.1172
 7576SOL    HW234362   1.324   2.183   1.295  0.5525 -2.4815  0.2862
 7577SOL     OW34363   2.017   1.713  12.320 -0.3432  0.7249 -0.4349
 7577SOL    HW134364   2.091   1.674  12.366 -0.7680  0.2649 -0.1290
 7577SOL    HW234365   1.945   1.649  12.324  0.6538 -0.4676 -1.5109
 7578SOL     OW34366   0.875   2.540   9.562 -0.0128  0.1407  0.5196
 7578SOL    HW134367   0.947   2.477   9.572  0.7244  0.6453 -1.6194
 7578SOL    HW234368   0.812   2.497   9.621  2.1945 -0.6693  2.3037
 7579SOL     OW34369   3.940   3.278  12.504 -0.3717 -0.6465 -0.2128
 7579SOL    HW134370   3.932   3.266  12.599  3.0997 -2.6219 -0.1799
 7579SOL    HW234371   3.923   3.371  12.495 -0.5826 -0.4884  1.8093
 7580SOL     OW34372   2.744   3.349   9.375  0.9641  0.1143 -0.2914
 7580SOL    HW134373   2.762   3.258   9.349 -1.9918 -0.8261  0.8704
 7580SOL    HW234374   2.664   3.373   9.328 -0.3416 -3.2845  0.1162
 7581SOL     OW34375   4.607   1.360   6.257  0.3700 -0.2933  0.2543
 7581SOL    HW134376   4.591   1.379   6.349  0.3078  0.9402 -0.0122
 7581SOL    HW234377   4.651   1.277   6.272 -1.3782 -1.0132  1.3988
 7582SOL     OW34378   2.766   0.703   2.852 -0.0964  0.3757  0.0099
 7582SOL    HW134379   2.829   0.702   2.780  1.6735  0.1756  1.5771
 7582SOL    HW234380   2.790   0.788   2.889  2.8781  1.1280 -3.5835
 7583SOL     OW34381   2.233   3.130  16.278 -0.1472  0.2267 -0.5058
 7583SOL    HW134382   2.142   3.152  16.257 -0.4424 -0.1080  0.3820
 7583SOL    HW234383   2.267   3.218  16.291 -2.4650  1.3810 -2.1988
 7584SOL     OW34384   4.104   0.097   4.752  0.1078 -0.2669  0.5003
 7584SOL    HW134385   4.049   0.051   4.816 -0.2769 -0.8278 -0.2319
 7584SOL    HW234386   4.155   0.025   4.714  2.4483  1.8350 -0.3027
 7585SOL     OW34387   2.993   2.562   8.377  0.1907  0.0378  0.4756
 7585SOL    HW134388   2.922   2.513   8.419 -0.8238 -0.1631 -1.4508
 7585SOL    HW234389   2.955   2.648   8.359 -0.2647 -0.2434  0.0905
 7586SOL     OW34390   2.746   3.791   3.533 -0.4763 -0.4033 -0.0255
 7586SOL    HW134391   2.737   3.758   3.622 -1.5259 -0.6512 -0.2201
 7586SOL    HW234392   2.690   3.869   3.529 -0.9625 -0.7447  0.1490
 7587SOL     OW34393   0.244   1.942   7.490  0.3376 -0.1594 -0.5374
 7587SOL    HW134394   0.235   1.954   7.395  1.9662 -0.5888 -0.7412
 7587SOL    HW234395   0.211   2.027   7.521  1.0619 -0.6568  1.5266
 7588SOL     OW34396   1.970   1.280   0.847 -0.4581 -0.2998 -0.5208
 7588SOL    HW134397   1.910   1.239   0.785 -1.8111  1.1529 -0.1624
 7588SOL    HW234398   2.034   1.210   0.833 -0.0791  0.0913 -0.7684
 7589SOL     OW34399   4.584   2.935   1.495 -0.3508 -0.3290  0.1308
 7589SOL    HW134400   4.522   2.866   1.517 -0.1293 -0.2265  1.0641
 7589SOL    HW234401   4.522   3.007   1.482 -2.0987 -2.2884 -2.3930
 7590SOL     OW34402   1.906   0.469  13.781  0.5239 -0.5875  0.0903
 7590SOL    HW134403   1.961   0.484  13.858  0.0703 -0.3622  0.3703
 7590SOL    HW234404   1.883   0.377  13.791  1.8429 -0.6001  3.1224
 7591SOL     OW34405   3.157   2.516   7.562  0.2409  0.0667 -0.2337
 7591SOL    HW134406   3.166   2.560   7.646  1.0708  1.1549 -0.8918
 7591SOL    HW234407   3.220   2.444   7.569  0.9950  0.6268 -1.1518
 7592SOL     OW34408   0.567   2.044  15.917  0.1597 -0.2077 -0.3052
 7592SOL    HW134409   0.474   2.050  15.938  0.3372 -2.3020  1.0495
 7592SOL    HW234410   0.604   2.119  15.965 -2.1291  0.7329 -0.0141
 7593SOL     OW34411   4.296   3.685   8.312 -0.2786 -0.2171 -0.1841
 7593SOL    HW134412   4.391   3.693   8.324 -0.6355  3.7361 -0.0705
 7593SOL    HW234413   4.274   3.609   8.366  0.8707  0.6477  1.5033
 7594SOL     OW34414   4.003   1.707   6.938  0.1930 -0.1033 -0.0788
 7594SOL    HW134415   3.943   1.687   7.010 -1.2604 -1.8218 -1.7692
 7594SOL    HW234416   4.072   1.641   6.943  0.8054  0.5601  0.2951
 7595SOL     OW34417   2.148   2.786  13.980 -0.4906  0.6186 -0.2472
 7595SOL    HW134418   2.217   2.819  13.922  2.8288  0.5411  3.6607
 7595SOL    HW234419   2.092   2.738  13.919 -0.6685 -0.6938  0.9545
 7596SOL     OW34420   2.242   0.131   3.587 -0.5264 -0.1404 -0.0976
 7596SOL    HW134421   2.327   0.092   3.567 -1.5321 -1.1140 -2.4370
 7596SOL    HW234422   2.280   0.218   3.598  0.7389 -0.7616  0.4047
 7597SOL     OW34423   1.839   0.228   7.229 -0.2147 -0.1091  0.0033
 7597SOL    HW134424   1.777   0.166   7.267  0.3014  0.4444  1.7624
 7597SOL    HW234425   1.866   0.189   7.146 -1.0014  0.8697 -0.7126
 7598SOL     OW34426   0.088   3.065   9.511  0.2677  0.3722  0.1845
 7598SOL    HW134427   0.158   3.096   9.569 -1.6915  0.8568  2.2939
 7598SOL    HW234428   0.063   2.981   9.550 -2.5055  1.5585  0.9670
 7599SOL     OW34429   2.207   2.203   4.174 -0.0310  0.0898  0.1028
 7599SOL    HW134430   2.300   2.190   4.155 -0.7391 -1.0676 -2.4913
 7599SOL    HW234431   2.195   2.160   4.259  1.4220 -1.6373 -0.5780
 7600SOL     OW34432   1.378   4.653   6.176  0.6283  0.0962 -0.3249
 7600SOL    HW134433   1.331   4.623   6.098 -1.0017  2.7043 -0.3347
 7600SOL    HW234434   1.335   4.605   6.247 -0.7652  2.6070  0.5505
 7601SOL     OW34435   2.545   4.060  11.346 -0.3194 -1.3528  0.0367
 7601SOL    HW134436   2.556   4.143  11.392 -2.1401 -0.4686 -1.1259
 7601SOL    HW234437   2.563   4.079  11.254 -0.8873  1.2598  0.4792
 7602SOL     OW34438   4.544   1.562   4.108 -0.6710  0.3705 -0.0747
 7602SOL    HW134439   4.533   1.537   4.017 -0.2186  2.4262 -0.6941
 7602SOL    HW234440   4.467   1.617   4.116 -0.7480  0.0792  1.3159
 7603SOL     OW34441   3.733   2.020   5.676  0.2811  0.1842  0.2352
 7603SOL    HW134442   3.739   2.015   5.581 -1.1540  0.6141  0.1132
 7603SOL    HW234443   3.812   2.071   5.691  0.5885 -0.3550  0.4428
 7604SOL     OW34444   3.383   1.690   4.854 -0.2912 -0.0417  0.3098
 7604SOL    HW134445   3.442   1.696   4.779  0.0943 -0.2804  0.5998
 7604SOL    HW234446   3.353   1.780   4.868 -0.3041  0.0635 -0.3865
 7605SOL     OW34447   4.333   1.461   8.109 -0.2069  0.0096 -0.0841
 7605SOL    HW134448   4.328   1.396   8.039 -0.2015 -0.1784  0.0925
 7605SOL    HW234449   4.406   1.417   8.153 -0.9833  0.1505  1.3451
 7606SOL     OW34450   1.980   1.852   4.884  0.1476  0.5200  0.6822
 7606SOL    HW134451   1.889   1.826   4.868  0.3883 -0.7171  1.3105
 7606SOL    HW234452   2.026   1.844   4.801 -0.1416 -3.1610  0.8622
 7607SOL     OW34453   2.929   3.346   4.511  0.0246 -0.2784  0.2400
 7607SOL    HW134454   2.904   3.254   4.519  3.1625 -1.3010 -1.7458
 7607SOL    HW234455   2.899   3.383   4.594 -0.2779  1.3718 -0.5956
 7608SOL     OW34456   1.590   0.640   1.609 -0.1837 -0.4309 -0.4817
 7608SOL    HW134457   1.514   0.657   1.664 -0.4337  0.2251 -1.0484
 7608SOL    HW234458   1.610   0.731   1.589  1.1566 -0.0044  2.6973
 7609SOL     OW34459   2.116   3.142   2.830 -0.2001 -0.0951  0.0704
 7609SOL    HW134460   2.184   3.180   2.885 -1.2916  1.8974  0.0241
 7609SOL    HW234461   2.140   3.181   2.746  1.6624  1.8157  1.5179
 7610SOL     OW34462   4.508   3.700   2.611  0.0189  0.4782  0.4331
 7610SOL    HW134463   4.422   3.706   2.568 -1.0815  0.6605  2.6443
 7610SOL    HW234464   4.544   3.626   2.562 -1.8630  1.1567 -2.0064
 7611SOL     OW34465   1.351   0.607   7.608 -0.2581 -0.0845 -0.1526
 7611SOL    HW134466   1.263   0.644   7.622 -0.8223 -1.3367 -0.3957
 7611SOL    HW234467   1.358   0.549   7.683 -3.1627  2.6769  2.2926
 7612SOL     OW34468   1.105   3.696   5.402  0.1050 -0.4551 -0.1398
 7612SOL    HW134469   1.057   3.723   5.324  0.1968  0.8143  0.2417
 7612SOL    HW234470   1.088   3.767   5.464  0.6067  0.3784 -0.9669
 7613SOL     OW34471   0.347   4.244  14.131 -0.1772  0.5336 -0.1281
 7613SOL    HW134472   0.327   4.212  14.219 -1.7620 -0.2456 -0.7627
 7613SOL    HW234473   0.425   4.195  14.105  1.0273  1.1755  2.2700
 7614SOL     OW34474   0.314   3.105   4.397 -0.3651 -0.1558 -0.4435
 7614SOL    HW134475   0.288   3.068   4.313  1.9280 -1.1182 -0.7570
 7614SOL    HW234476   0.254   3.069   4.462 -1.1799  1.7090 -0.1908
 7615SOL     OW34477   1.177   4.023   6.844  0.2256  0.4682  0.2701
 7615SOL    HW134478   1.208   4.059   6.761 -1.3603 -0.0225 -0.5361
 7615SOL    HW234479   1.260   4.014   6.891  2.0851  1.1338 -2.8808
 7616SOL     OW34480   4.578   0.224  12.080  0.4488 -0.1519 -0.3947
 7616SOL    HW134481   4.558   0.298  12.137  0.4225  1.9694 -3.1278
 7616SOL    HW234482   4.629   0.264  12.009  1.0216  1.1793  0.7627
 7617SOL     OW34483   2.376   0.032   6.842 -0.9980 -0.5224  0.6800
 7617SOL    HW134484   2.451   0.012   6.786 -0.3871 -0.3561  1.4476
 7617SOL    HW234485   2.307   0.055   6.779 -0.3334 -0.4974 -0.0378
 7618SOL     OW34486   2.980   1.684   3.151 -0.7913  0.0618  0.2990
 7618SOL    HW134487   3.031   1.637   3.217 -0.2089  1.8424  1.1211
 7618SOL    HW234488   2.923   1.737   3.208 -3.0150 -1.4609 -0.5222
 7619SOL     OW34489   2.112   4.726   1.199  0.6689  0.2857  0.0365
 7619SOL    HW134490   2.021   0.015   1.213  0.6851  1.6324 -2.5169
 7619SOL    HW234491   2.170   0.037   1.258 -0.9937  0.1324  1.7863
 7620SOL     OW34492   4.202   1.742  12.755 -0.3515 -0.4179 -0.3717
 7620SOL    HW134493   4.291   1.733  12.788  0.3579 -0.2534 -2.2310
 7620SOL    HW234494   4.160   1.658  12.774 -0.8865  0.7209  3.4968
 7621SOL     OW34495   0.013   0.388   7.894 -0.4515 -0.3032 -0.1858
 7621SOL    HW134496   0.055   0.349   7.818  0.6021 -0.8715  0.6910
 7621SOL    HW234497   0.068   0.456   7.931  1.3355 -1.1646 -1.2778
 7622SOL     OW34498   4.703   4.430  15.966 -0.1003  0.6602 -0.5025
 7622SOL    HW134499   4.663   4.469  15.888 -1.0626  1.9030  0.6069
 7622SOL    HW234500   4.707   4.508  16.021  1.9411  1.0163 -1.1709
 7623SOL     OW34501   3.729   4.419   8.130  0.6379 -0.3874  0.5444
 7623SOL    HW134502   3.748   4.512   8.145  0.5145 -0.1463 -0.7664
 7623SOL    HW234503   3.810   4.394   8.085 -0.7802 -0.9713 -1.6805
 7624SOL     OW34504   4.407   3.234   2.260  0.4312  0.3039  0.1755
 7624SOL    HW134505   4.406   3.325   2.228  0.3430  1.1125  2.5017
 7624SOL    HW234506   4.488   3.231   2.310  0.8074  2.3873 -0.2850
 7625SOL     OW34507   0.876   1.809   5.459 -0.5671  0.3125 -0.3286
 7625SOL    HW134508   0.793   1.850   5.434  0.0519  1.4347 -0.5548
 7625SOL    HW234509   0.944   1.861   5.417 -2.1197  2.6651  0.0745
 7626SOL     OW34510   1.551   2.804   8.280 -0.5541 -0.4590  0.7061
 7626SOL    HW134511   1.501   2.789   8.360 -1.5522 -2.3283 -0.2485
 7626SOL    HW234512   1.639   2.821   8.314 -0.7256  0.5204  0.6615
 7627SOL     OW34513   0.651   3.350  10.915 -0.1594 -0.4036  0.1443
 7627SOL    HW134514   0.632   3.267  10.871 -1.9079 -0.0526  0.2317
 7627SOL    HW234515   0.690   3.308  10.993  0.7608 -1.6726 -0.9976
 7628SOL     OW34516   1.325   2.566   6.589 -0.5465  0.5717  0.9710
 7628SOL    HW134517   1.415   2.586   6.618  0.4949 -0.3223 -1.6948
 7628SOL    HW234518   1.355   2.527   6.507  0.0670  1.8326  0.5939
 7629SOL     OW34519   1.717   2.978   2.803  0.4297  0.2182 -0.2721
 7629SOL    HW134520   1.775   3.048   2.775  0.4047 -0.7049 -2.6524
 7629SOL    HW234521   1.726   2.969   2.898 -1.5173 -2.0946 -0.2945
 7630SOL     OW34522   2.125   3.745   3.275 -0.2173 -0.7143  0.2303
 7630SOL    HW134523   2.062   3.747   3.204 -0.0103 -1.7493  0.0176
 7630SOL    HW234524   2.195   3.688   3.243 -0.4707  0.0723 -1.6961
 7631SOL     OW34525   3.517   4.373  11.412 -0.1015  0.0395  0.3059
 7631SOL    HW134526   3.451   4.343  11.474 -2.8637 -0.3431 -2.7653
 7631SOL    HW234527   3.584   4.412  11.467  0.0961 -0.2666  0.2807
 7632SOL     OW34528   4.018   0.408   0.790 -0.5875 -0.1874  0.3371
 7632SOL    HW134529   3.984   0.448   0.870 -2.2129 -3.2940  1.1964
 7632SOL    HW234530   4.108   0.441   0.791 -1.0058  0.9651 -0.4015
 7633SOL     OW34531   0.413   0.082   8.334  0.0238 -0.2130  0.2162
 7633SOL    HW134532   0.375   4.732   8.326 -2.6789  1.0749 -1.0221
 7633SOL    HW234533   0.346   0.141   8.369  1.2525  0.9029  0.6917
 7634SOL     OW34534   0.011   0.317   6.923 -0.4542  0.0814  0.5469
 7634SOL    HW134535   0.103   0.331   6.945 -0.1210 -2.2156  0.5907
 7634SOL    HW234536   4.711   0.402   6.946  0.6296  0.9759 -0.9240
 7635SOL     OW34537   3.851   2.257   2.502 -0.3907 -0.1642  0.3029
 7635SOL    HW134538   3.879   2.301   2.582  2.2442  1.2751 -1.4303
 7635SOL    HW234539   3.845   2.165   2.529 -0.9615 -0.6029 -1.3054
 7636SOL     OW34540   1.040   2.621  12.944  0.2319  0.2370  0.8485
 7636SOL    HW134541   1.000   2.621  12.857 -0.7863  0.6758  1.3135
 7636SOL    HW234542   1.124   2.582  12.920 -0.7912 -1.2533 -0.2913
 7637SOL     OW34543   2.110   2.715  12.530 -0.2228 -0.0330  0.6892
 7637SOL    HW134544   2.158   2.636  12.555  2.8080  1.4531 -0.4391
 7637SOL    HW234545   2.181   2.779  12.531  1.3141 -1.7485  1.1999
 7638SOL     OW34546   0.504   3.836  16.993 -0.4805  0.3644  0.3243
 7638SOL    HW134547   0.575   3.893  17.023  1.9301 -3.5739  2.0807
 7638SOL    HW234548   0.500   3.773  17.065  1.1754 -1.7643 -1.4369
 7639SOL     OW34549   1.241   0.841   9.031  0.0113 -0.1248 -0.1867
 7639SOL    HW134550   1.277   0.808   8.949  1.4592  0.6237  0.1556
 7639SOL    HW234551   1.213   0.758   9.070  0.4340 -0.6726 -1.0403
 7640SOL     OW34552   2.514   4.590   1.922 -0.5745 -0.4978  0.7031
 7640SOL    HW134553   2.609   4.589   1.913 -0.4245  2.5285  2.2004
 7640SOL    HW234554   2.497   4.514   1.977  1.3646 -1.1180  0.4613
 7641SOL     OW34555   0.417   3.137  13.056 -0.3825  0.5506 -0.3470
 7641SOL    HW134556   0.357   3.081  13.007 -1.5928  1.4887  0.0829
 7641SOL    HW234557   0.503   3.112  13.021 -0.4379  0.1253 -0.1748
 7642SOL     OW34558   2.539   1.722   2.686  0.5609 -0.1594 -0.4901
 7642SOL    HW134559   2.606   1.699   2.621  1.6787 -1.5079  1.1217
 7642SOL    HW234560   2.523   1.816   2.684 -0.6681 -0.3108  2.0979
 7643SOL     OW34561   0.685   1.400  14.482  0.0877  0.1733 -0.0008
 7643SOL    HW134562   0.604   1.386  14.530  0.4286 -2.0343 -0.0556
 7643SOL    HW234563   0.754   1.363  14.537 -1.2629 -0.6527  1.1392
 7644SOL     OW34564   0.629   3.725   8.910  0.1980  0.5497 -0.3913
 7644SOL    HW134565   0.693   3.732   8.981 -0.1830  2.3458 -0.2429
 7644SOL    HW234566   0.552   3.771   8.944  2.5835  2.1097  2.9332
 7645SOL     OW34567   1.718   0.296   4.853  0.1015  0.3407 -0.1247
 7645SOL    HW134568   1.805   0.285   4.891 -0.3306 -1.6264  0.3225
 7645SOL    HW234569   1.734   0.280   4.760  1.1802  1.0480 -0.0609
 7646SOL     OW34570   4.248   3.292   3.510  0.1544 -0.1725 -0.0564
 7646SOL    HW134571   4.308   3.285   3.436  1.3452  1.2605  0.7673
 7646SOL    HW234572   4.293   3.230   3.569  0.8615  1.5701  1.2396
 7647SOL     OW34573   0.431   2.028   7.957 -0.3163  0.2103  0.1265
 7647SOL    HW134574   0.417   1.962   8.025 -1.2621 -0.0032 -0.2839
 7647SOL    HW234575   0.483   1.977   7.895  1.9662  1.0762  1.3236
 7648SOL     OW34576   4.282   3.235  16.740  0.6707  0.4311 -0.2940
 7648SOL    HW134577   4.306   3.199  16.655 -1.3704 -1.2053 -0.1835
 7648SOL    HW234578   4.359   3.286  16.765 -0.6751  1.0840  2.5126
 7649SOL     OW34579   3.575   0.042  14.662  0.3336  0.5717  0.1263
 7649SOL    HW134580   3.635   4.706  14.657 -0.1135  0.2821 -0.9288
 7649SOL    HW234581   3.626   0.123  14.660  0.5933  0.4065  0.0436
 7650SOL     OW34582   4.510   2.754   9.846 -0.0034 -0.2082  0.0656
 7650SOL    HW134583   4.557   2.778   9.926 -0.3815 -0.0434  0.2407
 7650SOL    HW234584   4.539   2.830   9.796  0.5069  1.1052  2.3432
 7651SOL     OW34585   3.419   2.636   6.086  0.0317 -0.2462 -0.3222
 7651SOL    HW134586   3.364   2.620   6.009 -2.1962  2.0781  0.7876
 7651SOL    HW234587   3.359   2.609   6.155  2.6155 -1.8534  1.2951
 7652SOL     OW34588   2.986   3.709  16.937  0.4623  0.0250 -0.4284
 7652SOL    HW134589   2.961   3.620  16.913  0.0279  0.3273 -1.1027
 7652SOL    HW234590   3.079   3.696  16.951  0.4697  1.5386  0.9907
 7653SOL     OW34591   1.644   2.062   6.046 -0.1033 -0.5467 -0.1680
 7653SOL    HW134592   1.732   2.067   6.009 -0.2633 -0.9416 -0.6009
 7653SOL    HW234593   1.597   2.023   5.972  0.8238 -1.0695 -0.4744
 7654SOL     OW34594   3.957   3.999   6.471 -0.3341 -0.1479 -0.0334
 7654SOL    HW134595   3.898   4.046   6.531  0.9173  1.9684 -0.4588
 7654SOL    HW234596   3.916   3.913   6.479 -1.5527  0.3376 -0.9956
 7655SOL     OW34597   1.375   0.604   0.735  0.7350 -0.1471 -0.9385
 7655SOL    HW134598   1.435   0.586   0.807 -1.2698  0.2368  0.7900
 7655SOL    HW234599   1.346   0.695   0.731 -1.4731 -0.7841  0.9640
 7656SOL     OW34600   0.950   0.695   5.405 -0.3825  0.1958  0.3756
 7656SOL    HW134601   0.975   0.653   5.323 -2.0264 -1.3533  0.6620
 7656SOL    HW234602   1.018   0.757   5.431  0.0472 -1.0588  2.2860
 7657SOL     OW34603   2.552   2.856   1.215  0.1004  0.0664  0.5323
 7657SOL    HW134604   2.516   2.808   1.290 -1.6411  1.7801  0.8229
 7657SOL    HW234605   2.638   2.865   1.256  0.7533 -0.2052 -0.7986
 7658SOL     OW34606   0.106   2.528   6.899  0.5864  0.0208 -0.2354
 7658SOL    HW134607   0.104   2.568   6.986 -2.1364 -0.2692 -0.1555
 7658SOL    HW234608   0.181   2.564   6.852 -0.0559  0.2571 -1.0742
 7659SOL     OW34609   1.443   0.231   7.429 -0.6559 -0.2965  0.3884
 7659SOL    HW134610   1.525   0.187   7.405 -1.6151 -1.0156 -1.5731
 7659SOL    HW234611   1.478   0.320   7.423  1.3356 -1.0974 -0.1659
 7660SOL     OW34612   4.435   4.573  10.770  0.1664 -0.0271  0.1784
 7660SOL    HW134613   4.373   4.559  10.698  1.8115 -0.9968 -1.0368
 7660SOL    HW234614   4.391   4.518  10.834 -1.9777  1.3879 -0.0585
 7661SOL     OW34615   4.491   3.114   5.847 -0.7152 -0.3196  0.1988
 7661SOL    HW134616   4.520   3.189   5.898 -0.1061 -1.2144  1.1692
 7661SOL    HW234617   4.544   3.046   5.889  0.6608 -0.9169 -2.4613
 7662SOL     OW34618   2.364   2.834  17.255  0.0207 -0.1708 -0.0418
 7662SOL    HW134619   2.412   2.906  17.214  1.5114 -0.5241  1.0387
 7662SOL    HW234620   2.275   2.868  17.259  0.2443  0.4712 -0.5145
 7663SOL     OW34621   4.132   0.790   6.307  0.2248  0.3394  0.3602
 7663SOL    HW134622   4.065   0.786   6.376  0.6360  0.0127  0.7407
 7663SOL    HW234623   4.165   0.877   6.328  0.1187  0.7578 -1.1929
 7664SOL     OW34624   4.164   0.001   9.007  0.0523  0.0923 -0.2272
 7664SOL    HW134625   4.100   4.698   8.948 -2.3769  3.4892  0.0154
 7664SOL    HW234626   4.120   4.728   9.091  0.5476  0.7502  0.1170
 7665SOL     OW34627   3.059   3.464   7.739 -0.3237 -0.3689  0.3162
 7665SOL    HW134628   3.148   3.471   7.774 -0.9365  1.9981  1.3923
 7665SOL    HW234629   3.081   3.483   7.647 -0.7969 -0.7641  0.1208
 7666SOL     OW34630   2.952   0.456   2.256  0.1709 -0.6839 -0.5921
 7666SOL    HW134631   2.879   0.510   2.287  1.5661  0.5042  0.6159
 7666SOL    HW234632   2.941   0.387   2.321 -1.2156  1.5840  1.5667
 7667SOL     OW34633   0.582   0.606  13.083 -0.1982  0.2953 -0.3165
 7667SOL    HW134634   0.544   0.686  13.045  1.6716  0.3560 -2.1250
 7667SOL    HW234635   0.664   0.643  13.118 -0.4975 -1.0284  1.7144
 7668SOL     OW34636   3.525   2.801  16.965  0.1460  0.0176  0.3318
 7668SOL    HW134637   3.473   2.725  16.940  0.8206 -0.2827 -0.1663
 7668SOL    HW234638   3.506   2.874  16.907 -1.9370  0.3120  1.3796
 7669SOL     OW34639   3.839   1.778   8.535 -0.0017  0.1408 -1.1950
 7669SOL    HW134640   3.926   1.760   8.569 -0.6552  0.4664  0.6590
 7669SOL    HW234641   3.828   1.870   8.560  1.8352  0.2792 -0.9005
 7670SOL     OW34642   3.666   2.442   5.757  0.0183  0.1277 -0.4683
 7670SOL    HW134643   3.592   2.488   5.718 -0.6443 -0.2875  0.2939
 7670SOL    HW234644   3.702   2.403   5.678  1.0750 -0.7004  0.4154
 7671SOL     OW34645   1.300   3.517   9.053 -0.0267  0.1485 -0.6782
 7671SOL    HW134646   1.282   3.428   9.024 -0.8895 -0.2356  1.0547
 7671SOL    HW234647   1.217   3.554   9.083 -0.0109 -1.8709  1.8115
 7672SOL     OW34648   1.057   2.099   1.938 -0.1129 -0.1460  0.5518
 7672SOL    HW134649   1.113   2.042   1.886 -1.9049 -0.1487 -1.3512
 7672SOL    HW234650   1.051   2.174   1.880  1.0223  0.5011  1.2700
 7673SOL     OW34651   2.802   3.587  10.183  0.5820  0.0560 -0.1035
 7673SOL    HW134652   2.751   3.650  10.132  0.1683  0.7510  1.1940
 7673SOL    HW234653   2.741   3.560  10.251 -0.3363  0.2837 -0.8328
 7674SOL     OW34654   0.646   2.883   4.707 -0.3149  0.2311 -0.3721
 7674SOL    HW134655   0.639   2.940   4.630  2.6712 -0.4570 -1.1455
 7674SOL    HW234656   0.692   2.946   4.763  0.6052 -1.6933  1.0308
 7675SOL     OW34657   2.716   3.364   3.542  0.2119  0.2526 -0.0171
 7675SOL    HW134658   2.628   3.331   3.523  0.8653 -3.3300  3.1912
 7675SOL    HW234659   2.693   3.442   3.593  0.6395  1.1488 -1.1980
 7676SOL     OW34660   2.780   0.813   4.332 -0.4838 -0.2017 -0.3025
 7676SOL    HW134661   2.704   0.830   4.387 -1.5334  0.0826 -1.8419
 7676SOL    HW234662   2.751   0.835   4.243 -1.8612  0.5540  0.3320
 7677SOL     OW34663   2.176   3.653   5.866  0.4832  0.1596  0.1966
 7677SOL    HW134664   2.215   3.670   5.952 -0.9159 -1.4041  1.1519
 7677SOL    HW234665   2.248   3.651   5.803 -0.8110 -0.5700 -1.2830
 7678SOL     OW34666   2.441   3.947  10.188 -0.0737  0.7081 -0.5110
 7678SOL    HW134667   2.392   3.872  10.222  2.2261  0.0350  1.2843
 7678SOL    HW234668   2.375   4.017  10.187 -1.2291 -0.3763  0.2665
 7679SOL     OW34669   3.579   3.271  15.878 -0.3115 -0.1238 -0.4588
 7679SOL    HW134670   3.491   3.287  15.843 -0.1397  0.2177 -0.7326
 7679SOL    HW234671   3.599   3.359  15.910 -0.8720  0.2232 -1.0775
 7680SOL     OW34672   3.898   0.641   8.670 -0.2097 -0.5119  0.0433
 7680SOL    HW134673   3.931   0.593   8.595  0.8544 -0.8701  0.7367
 7680SOL    HW234674   3.954   0.598   8.735 -2.1344 -0.9004  1.4460
 7681SOL     OW34675   1.087   1.946  16.660  0.3823 -0.2103  0.3922
 7681SOL    HW134676   1.125   1.945  16.748 -0.7836  1.8450  0.9326
 7681SOL    HW234677   1.012   2.005  16.665  0.3106 -0.2073 -0.7219
 7682SOL     OW34678   1.140   1.717  15.043  0.2179 -1.0739 -0.2963
 7682SOL    HW134679   1.192   1.745  14.967  0.9133  0.4669  0.7368
 7682SOL    HW234680   1.201   1.655  15.083  0.1450 -1.9034 -1.4801
 7683SOL     OW34681   3.158   1.929   1.896 -0.5940  0.4194  0.8779
 7683SOL    HW134682   3.081   1.960   1.943 -0.5007  0.9330  0.6944
 7683SOL    HW234683   3.214   2.005   1.913 -0.8478  0.4590  1.5513
 7684SOL     OW34684   1.347   2.726  15.839  0.7842 -0.0685 -0.3682
 7684SOL    HW134685   1.403   2.666  15.887  0.5475 -1.2988 -1.6251
 7684SOL    HW234686   1.387   2.808  15.870  3.2167 -0.9578 -1.0858
 7685SOL     OW34687   1.607   1.231  17.100 -0.1182  0.2425 -0.1268
 7685SOL    HW134688   1.634   1.139  17.112 -0.4599  0.3180  1.2170
 7685SOL    HW234689   1.693   1.262  17.072  1.1659 -1.2282  2.1494
 7686SOL     OW34690   3.673   3.625   4.838 -0.2637  0.4842 -0.4281
 7686SOL    HW134691   3.705   3.619   4.928 -0.2739 -0.4784 -0.4859
 7686SOL    HW234692   3.756   3.615   4.792 -0.5114 -1.0509 -0.5638
 7687SOL     OW34693   4.339   3.896   2.077 -0.0155 -0.1164  0.1528
 7687SOL    HW134694   4.287   3.976   2.073  0.3325  0.2113  2.3702
 7687SOL    HW234695   4.421   3.921   2.033  0.0167 -0.4677  0.0086
 7688SOL     OW34696   2.916   0.039  14.001  0.0603  0.2697  0.0020
 7688SOL    HW134697   2.859   0.059  14.075 -0.0961  1.3752 -0.4144
 7688SOL    HW234698   2.942   4.689  14.027 -0.4039 -0.0872 -0.7321
 7689SOL     OW34699   0.777   3.215  16.987  0.7538 -0.3672  0.4803
 7689SOL    HW134700   0.850   3.249  17.038 -0.9182  0.3517  2.4005
 7689SOL    HW234701   0.745   3.290  16.937  1.8478  0.9383  1.7550
 7690SOL     OW34702   3.131   2.435   1.943  0.1822  0.2906 -0.0280
 7690SOL    HW134703   3.174   2.356   1.976  1.2416  1.2708  0.8897
 7690SOL    HW234704   3.060   2.446   2.006 -2.2883 -3.0543 -2.1663
 7691SOL     OW34705   4.054   1.284   2.718 -0.2829 -0.2003 -0.7770
 7691SOL    HW134706   3.999   1.237   2.656 -1.5687 -0.5279  0.6060
 7691SOL    HW234707   4.069   1.373   2.685 -0.7457  1.2519  2.8523
 7692SOL     OW34708   0.872   2.506   5.660  0.2826  0.0941 -0.2437
 7692SOL    HW134709   0.856   2.563   5.736  0.1040  1.2700 -1.1512
 7692SOL    HW234710   0.786   2.465   5.648 -0.9928  2.1759  1.7766
 7693SOL     OW34711   0.623   0.546   7.803  0.1730 -0.2133  0.0926
 7693SOL    HW134712   0.535   0.546   7.842 -0.2191  0.5296 -0.7989
 7693SOL    HW234713   0.596   0.575   7.716 -1.3802 -3.4302 -0.5185
 7694SOL     OW34714   4.393   1.188   5.822  0.0222 -0.3571 -0.3153
 7694SOL    HW134715   4.428   1.259   5.876 -0.0914 -0.2551 -0.3757
 7694SOL    HW234716   4.321   1.161   5.880  0.6942 -0.5646  0.4287
 7695SOL     OW34717   4.572   3.991   1.941 -0.1661  0.1957  0.2035
 7695SOL    HW134718   4.587   4.057   2.008 -1.3774 -0.3246  1.0067
 7695SOL    HW234719   4.621   3.912   1.964 -0.6595 -0.0774  0.3146
 7696SOL     OW34720   2.190   3.005  11.641  0.1065  0.0797  0.1680
 7696SOL    HW134721   2.102   3.034  11.663  0.4311 -0.8521  2.6147
 7696SOL    HW234722   2.221   2.957  11.717  0.1001 -0.6331 -0.2771
 7697SOL     OW34723   1.949   0.930  15.461 -0.0458  0.6287  0.8815
 7697SOL    HW134724   2.041   0.921  15.437 -0.1997  0.6297  0.2929
 7697SOL    HW234725   1.952   0.977  15.545 -1.6202  0.8173  0.8290
 7698SOL     OW34726   3.595   0.769   3.601 -0.2662 -0.3192 -0.3103
 7698SOL    HW134727   3.682   0.792   3.569 -0.5491  2.6199  0.9865
 7698SOL    HW234728   3.559   0.736   3.519  1.5143 -0.3123 -1.1028
 7699SOL     OW34729   0.216   0.608   4.874 -0.4438  0.1247 -0.1981
 7699SOL    HW134730   0.177   0.599   4.787  0.3944 -1.3415 -0.4294
 7699SOL    HW234731   0.156   0.672   4.913 -0.1358  0.6987 -0.6696
 7700SOL     OW34732   2.711   2.725   5.812 -0.1543 -0.0163  0.6770
 7700SOL    HW134733   2.797   2.684   5.826 -0.5716 -1.5660 -1.4043
 7700SOL    HW234734   2.713   2.739   5.718 -0.8266 -2.7026  0.2773
 7701SOL     OW34735   1.749   0.465  14.051 -0.4331 -0.3102  0.1645
 7701SOL    HW134736   1.836   0.460  14.089  0.6998 -1.4249 -2.5869
 7701SOL    HW234737   1.754   0.555  14.020 -0.4127 -0.0038  1.0708
 7702SOL     OW34738   1.691   0.691   8.279  0.3614  0.9465  0.4400
 7702SOL    HW134739   1.758   0.726   8.338  1.6693 -1.1455  0.1969
 7702SOL    HW234740   1.630   0.642   8.333 -0.6609  0.6032 -1.0136
 7703SOL     OW34741   3.893   0.166  14.683  0.5474  0.2778 -0.1213
 7703SOL    HW134742   3.872   0.084  14.639  0.7933  1.1081 -1.7973
 7703SOL    HW234743   3.845   0.229  14.630 -0.9019  0.1395  1.0183
 7704SOL     OW34744   4.170   4.498   2.752 -0.3043 -0.2546  0.1827
 7704SOL    HW134745   4.173   4.409   2.717 -1.6735  0.3288 -1.4042
 7704SOL    HW234746   4.191   4.548   2.674 -0.5510 -0.3738  0.0381
 7705SOL     OW34747   1.436   1.832  15.210  0.4894 -0.0895  0.4460
 7705SOL    HW134748   1.375   1.837  15.284 -0.4524 -1.5482 -0.2426
 7705SOL    HW234749   1.406   1.905  15.156  1.7959  1.4381  1.7679
 7706SOL     OW34750   3.847   1.860   4.492 -0.0951  0.9424 -0.0102
 7706SOL    HW134751   3.835   1.948   4.528 -0.5917  0.4336  1.0722
 7706SOL    HW234752   3.933   1.825   4.518  0.7861  2.7848 -0.4314
 7707SOL     OW34753   4.426   0.583   1.950  0.2990  0.4866 -0.2676
 7707SOL    HW134754   4.492   0.652   1.953 -2.5069  3.2230 -1.6067
 7707SOL    HW234755   4.363   0.622   1.889  1.3838  2.0743 -0.3958
 7708SOL     OW34756   3.121   1.530   6.541 -0.0202 -0.3730  0.0325
 7708SOL    HW134757   3.080   1.460   6.490  0.6802 -0.3743 -0.5208
 7708SOL    HW234758   3.125   1.491   6.629  1.6815  0.4050  0.3021
 7709SOL     OW34759   2.021   2.732   3.049 -0.1351 -0.0033  0.5374
 7709SOL    HW134760   2.105   2.686   3.052 -0.5066 -0.8526 -2.7472
 7709SOL    HW234761   1.989   2.719   3.139  0.6192  1.5536  1.0420
 7710SOL     OW34762   3.834   4.520  12.194  0.4462  0.3646  0.0417
 7710SOL    HW134763   3.866   4.554  12.277  0.3053 -3.4679  1.6765
 7710SOL    HW234764   3.914   4.512  12.141 -0.4284  1.2873 -1.4283
 7711SOL     OW34765   2.401   1.078  13.092  0.1759  0.0125  0.3467
 7711SOL    HW134766   2.329   1.109  13.147  0.5212  0.6100  0.4631
 7711SOL    HW234767   2.456   1.028  13.153  0.8529  0.9107  0.4748
 7712SOL     OW34768   0.395   1.713   8.751  0.1533 -0.0803 -0.3946
 7712SOL    HW134769   0.341   1.783   8.717  1.4258  2.5082  2.8963
 7712SOL    HW234770   0.466   1.767   8.784 -0.3073 -0.0179  0.4976
 7713SOL     OW34771   2.626   4.620   1.390 -0.0323 -0.2091  0.5078
 7713SOL    HW134772   2.561   4.558   1.356 -2.1326  0.8534  2.6094
 7713SOL    HW234773   2.618   4.699   1.337 -2.0189 -0.7547 -0.0005
 7714SOL     OW34774   3.270   2.861   4.391 -0.1517  0.1308 -0.3128
 7714SOL    HW134775   3.285   2.954   4.375  0.4844 -0.1730 -1.4621
 7714SOL    HW234776   3.271   2.829   4.301 -2.5111  2.1691 -1.0556
 7715SOL     OW34777   3.976   3.571   5.589  0.1494  0.7253  0.1422
 7715SOL    HW134778   4.037   3.500   5.568 -0.4876  0.0285  0.6929
 7715SOL    HW234779   3.934   3.592   5.506  3.1205  3.3353 -0.7339
 7716SOL     OW34780   0.482   3.837  15.820  0.1311  0.2679  0.3546
 7716SOL    HW134781   0.420   3.902  15.853 -0.3434  0.2565 -0.4986
 7716SOL    HW234782   0.491   3.776  15.893  2.2944 -1.1733 -1.1327
 7717SOL     OW34783   4.237   2.115   6.684  0.0180 -1.1123 -0.3156
 7717SOL    HW134784   4.228   2.208   6.704  2.9508 -1.2273  1.5684
 7717SOL    HW234785   4.199   2.064   6.755  2.0946 -1.7903  0.3146
 7718SOL     OW34786   1.805   0.870  10.006  0.3054 -0.0749  0.0655
 7718SOL    HW134787   1.714   0.862   9.978  0.9881 -0.8185 -1.9852
 7718SOL    HW234788   1.844   0.917   9.932  0.0232  0.7922  0.4594
 7719SOL     OW34789   4.376   3.924   5.191  0.6213  0.8864 -0.4273
 7719SOL    HW134790   4.449   3.986   5.199  2.3121 -1.3574  1.5740
 7719SOL    HW234791   4.421   3.852   5.148  0.3433 -0.0787  0.8795
 7720SOL     OW34792   1.660   3.404   4.489 -0.3900  0.0584  0.2448
 7720SOL    HW134793   1.740   3.414   4.437  0.3488 -1.0519  1.1742
 7720SOL    HW234794   1.625   3.493   4.495  3.1161  1.2710  2.6495
 7721SOL     OW34795   1.385   1.832   0.516  0.5574 -0.6945 -0.2350
 7721SOL    HW134796   1.380   1.737   0.514 -0.7514 -0.6797  1.2685
 7721SOL    HW234797   1.479   1.845   0.517  0.8613 -3.0340  0.1697
 7722SOL     OW34798   4.519   3.087   2.657  0.1583 -0.2949  0.0973
 7722SOL    HW134799   4.523   3.060   2.748 -3.9581  1.1595  0.6921
 7722SOL    HW234800   4.565   3.016   2.613  0.9747 -0.2974  0.9446
 7723SOL     OW34801   2.988   3.060   5.375 -0.3642  0.2313  0.5172
 7723SOL    HW134802   3.010   2.982   5.324  0.4234  2.0140 -1.8740
 7723SOL    HW234803   3.069   3.112   5.378  0.1151 -0.6386  2.9592
 7724SOL     OW34804   3.518   0.153   1.602  0.3332  0.1904  0.1479
 7724SOL    HW134805   3.439   0.206   1.596 -1.2506 -2.2959 -0.6693
 7724SOL    HW234806   3.504   0.122   1.692 -1.0526 -0.6018 -0.3461
 7725SOL     OW34807   2.936   3.189   7.445 -0.3525  0.0244 -0.0442
 7725SOL    HW134808   3.024   3.164   7.416  1.4395  5.1290  0.9572
 7725SOL    HW234809   2.886   3.107   7.441  0.7140 -0.6374  0.3522
 7726SOL     OW34810   1.842   2.547   5.473  0.2095 -0.3390  0.1341
 7726SOL    HW134811   1.808   2.529   5.560  1.6233 -0.6039  0.6274
 7726SOL    HW234812   1.845   2.461   5.431  0.5568 -0.4579  0.3957
 7727SOL     OW34813   4.554   2.586  15.437  0.1089  0.0433  0.2671
 7727SOL    HW134814   4.566   2.495  15.409  1.2324 -0.2839  1.8259
 7727SOL    HW234815   4.578   2.575  15.529  1.7510 -0.1504 -0.1907
 7728SOL     OW34816   0.028   1.434   4.569 -0.0617  0.1626  0.1068
 7728SOL    HW134817   0.062   1.361   4.516  0.5994 -0.2401  1.0746
 7728SOL    HW234818   0.005   1.504   4.509  0.9812 -1.8056 -2.5781
 7729SOL     OW34819   4.117   3.891   7.387 -0.5083 -0.0913  0.0117
 7729SOL    HW134820   4.101   3.982   7.360 -1.3800 -0.2144  0.0914
 7729SOL    HW234821   4.049   3.880   7.454 -1.2171 -0.5115 -0.7680
 7730SOL     OW34822   1.804   3.760   1.088 -0.2987 -0.6658  0.4668
 7730SOL    HW134823   1.748   3.717   1.152 -2.0596 -0.4298 -0.9371
 7730SOL    HW234824   1.760   3.842   1.066 -0.6775 -0.8997  0.3578
 7731SOL     OW34825   2.476   2.445   1.170 -0.7843 -0.2115  0.6479
 7731SOL    HW134826   2.431   2.529   1.178 -0.0663  0.1899  0.4273
 7731SOL    HW234827   2.437   2.420   1.086  0.0147 -0.3810  0.3261
 7732SOL     OW34828   3.854   3.213   6.907  0.4357  0.4486  0.7081
 7732SOL    HW134829   3.847   3.306   6.929  0.3403  1.0182 -1.7890
 7732SOL    HW234830   3.946   3.205   6.882  0.0277 -0.6949 -0.3928
 7733SOL     OW34831   1.786   1.517  12.387 -0.2711 -0.7494 -0.0951
 7733SOL    HW134832   1.700   1.484  12.410 -0.4838 -0.4027 -0.3994
 7733SOL    HW234833   1.830   1.532  12.471 -1.8264 -1.8011  0.8861
 7734SOL     OW34834   4.093   1.486   5.241 -0.6760 -0.3329 -0.3735
 7734SOL    HW134835   4.036   1.409   5.236 -1.8196  0.3187  2.3443
 7734SOL    HW234836   4.176   1.439   5.247  0.4796  1.6382 -0.9245
 7735SOL     OW34837   2.384   1.897  14.169  0.6975  0.1595 -0.3438
 7735SOL    HW134838   2.387   1.993  14.174  3.4052 -0.0063  1.0611
 7735SOL    HW234839   2.295   1.879  14.200  1.2808 -0.6851  0.8147
 7736SOL     OW34840   1.912   0.120   3.327 -0.3373  0.0067 -0.5902
 7736SOL    HW134841   1.826   0.151   3.353 -0.3005 -0.7521  0.4191
 7736SOL    HW234842   1.935   0.067   3.403 -1.2545 -1.4329 -1.3140
 7737SOL     OW34843   2.493   4.046  12.737  0.1137 -0.0065 -0.1040
 7737SOL    HW134844   2.484   4.037  12.832  1.6375 -0.8984 -0.0379
 7737SOL    HW234845   2.425   4.104  12.704  0.3027 -0.7004 -1.7467
 7738SOL     OW34846   2.994   0.014   4.571  0.1832  0.6905 -0.4324
 7738SOL    HW134847   3.066   0.075   4.554 -2.4648  3.9740  0.1014
 7738SOL    HW234848   2.912   0.058   4.546  0.5350  2.0813  0.8794
 7739SOL     OW34849   1.621   0.326   0.315  0.4149  0.4662 -0.2710
 7739SOL    HW134850   1.617   0.342   0.220  2.0998 -0.8879 -0.5673
 7739SOL    HW234851   1.702   0.366   0.345  1.6424 -0.0139 -2.9005
 7740SOL     OW34852   3.514   0.242   2.798  0.2661 -0.5597  0.5208
 7740SOL    HW134853   3.430   0.245   2.844  1.0512 -2.5879  2.0712
 7740SOL    HW234854   3.548   0.168   2.848 -0.0830 -0.8790  0.2892
 7741SOL     OW34855   3.566   4.493  16.363 -0.1138  0.2329  0.2772
 7741SOL    HW134856   3.583   4.493  16.457  1.3743 -1.5698  0.0232
 7741SOL    HW234857   3.658   4.502  16.338 -0.0147 -1.4009  0.0149
 7742SOL     OW34858   0.817   3.177   6.149 -0.6403 -0.4174  0.0626
 7742SOL    HW134859   0.745   3.121   6.177 -0.1109 -1.4780 -0.7354
 7742SOL    HW234860   0.788   3.223   6.071  1.0387  0.8142  0.1549
 7743SOL     OW34861   2.885   4.007   7.400  0.1007  0.6243 -0.5523
 7743SOL    HW134862   2.949   4.022   7.330  0.2412 -1.5304 -0.8889
 7743SOL    HW234863   2.823   4.080   7.396 -0.4612  0.1538 -0.3049
 7744SOL     OW34864   1.333   2.912   8.052 -0.3643  0.5518 -0.6490
 7744SOL    HW134865   1.254   2.967   8.054  0.2440  1.4411 -1.5307
 7744SOL    HW234866   1.395   2.973   8.092  0.2706  0.0101 -0.8100
 7745SOL     OW34867   4.671   0.180   9.230  0.0352 -0.2152 -0.2859
 7745SOL    HW134868   4.671   0.107   9.292  1.0066  2.0751  2.3989
 7745SOL    HW234869   4.577   0.196   9.217  0.1206  2.2277  2.1134
 7746SOL     OW34870   0.303   1.890  13.816 -0.2628  0.6323  0.0030
 7746SOL    HW134871   0.378   1.877  13.875  0.5606 -0.2914 -1.2496
 7746SOL    HW234872   0.354   1.949  13.760  0.7947  0.0216  0.3236
 7747SOL     OW34873   0.287   2.603   7.809 -0.1792 -0.1619  0.5712
 7747SOL    HW134874   0.250   2.680   7.851 -1.3748 -0.4411  0.0080
 7747SOL    HW234875   0.288   2.629   7.717 -0.8221  0.7079  0.8142
 7748SOL     OW34876   0.191   1.854   3.587 -0.2871  0.0874 -0.0406
 7748SOL    HW134877   0.271   1.877   3.541  0.7121 -0.3380  1.5057
 7748SOL    HW234878   0.174   1.762   3.566 -0.7556 -0.4871  2.9548
 7749SOL     OW34879   3.574   2.899   8.396  0.1324 -0.3619  0.1472
 7749SOL    HW134880   3.591   2.993   8.403 -0.7118 -0.1958 -0.0688
 7749SOL    HW234881   3.484   2.890   8.426 -0.3980  0.2265 -1.2950
 7750SOL     OW34882   0.737   2.823   8.481 -0.1723  0.1855  0.4672
 7750SOL    HW134883   0.646   2.839   8.458 -0.2272  0.4635  0.8689
 7750SOL    HW234884   0.754   2.759   8.411 -2.9502  0.8021 -0.7266
 7751SOL     OW34885   4.112   0.175  12.748  0.3236 -0.3190 -0.4062
 7751SOL    HW134886   4.125   0.086  12.715 -0.7142 -0.5064 -0.3074
 7751SOL    HW234887   4.073   0.215  12.670  2.5938  0.4505 -1.1376
 7752SOL     OW34888   3.539   1.479  15.162 -0.2034  0.3017  0.6506
 7752SOL    HW134889   3.444   1.485  15.152 -0.2697 -0.2936  0.9306
 7752SOL    HW234890   3.555   1.438  15.077 -0.8405 -1.0635  1.1959
 7753SOL     OW34891   4.231   0.361   1.470  0.1290 -0.1149 -0.2043
 7753SOL    HW134892   4.150   0.310   1.476  0.4894 -0.7103 -0.3191
 7753SOL    HW234893   4.242   0.354   1.375 -0.9256  1.6610 -0.4536
 7754SOL     OW34894   3.021   0.795  14.259  0.2777  0.3079  0.1943
 7754SOL    HW134895   2.940   0.766  14.218 -0.6696  0.9960  1.5791
 7754SOL    HW234896   2.988   0.869  14.309  2.7085 -0.4489  2.9058
 7755SOL     OW34897   1.427   4.233  11.692  0.2428  0.4526  0.1270
 7755SOL    HW134898   1.460   4.322  11.705 -0.3419  0.8817 -1.3265
 7755SOL    HW234899   1.336   4.248  11.663  0.0467 -0.1015  0.4607
 7756SOL     OW34900   1.114   3.518   2.955 -0.3278  0.5035  0.4942
 7756SOL    HW134901   1.077   3.477   2.877  0.5164 -1.0952  0.9281
 7756SOL    HW234902   1.104   3.610   2.933 -0.2785  0.3671 -0.0794
 7757SOL     OW34903   1.969   4.137   6.422  0.6194 -0.4973 -0.0898
 7757SOL    HW134904   1.984   4.098   6.508 -0.9599 -0.7532  0.0762
 7757SOL    HW234905   1.880   4.107   6.400  0.8020 -1.2303  0.1921
 7758SOL     OW34906   4.423   3.926   1.707  0.4905 -0.3035  0.3747
 7758SOL    HW134907   4.453   3.952   1.794  3.4895  0.5046 -0.9117
 7758SOL    HW234908   4.332   3.954   1.716  0.8263  1.1291 -0.6518
 7759SOL     OW34909   0.184   4.126   7.471 -0.1369  0.0523 -0.0773
 7759SOL    HW134910   0.249   4.189   7.440 -1.3581  0.0219 -2.6252
 7759SOL    HW234911   0.120   4.131   7.400  0.5944  1.2689 -0.6567
 7760SOL     OW34912   2.111   2.536   8.240 -0.2204 -0.0464  0.6578
 7760SOL    HW134913   2.031   2.584   8.261  0.2975  0.7492  0.7995
 7760SOL    HW234914   2.073   2.469   8.184 -1.5586  0.8526  0.4928
 7761SOL     OW34915   4.430   0.749   3.192  0.0532  0.0902  0.0075
 7761SOL    HW134916   4.487   0.809   3.240  0.6939 -1.7632  1.5876
 7761SOL    HW234917   4.483   0.670   3.201 -0.7110 -0.2990  1.1389
 7762SOL     OW34918   3.512   3.360  13.623  0.1708  0.8032 -0.0017
 7762SOL    HW134919   3.495   3.430  13.560 -0.3059  0.3180 -0.4164
 7762SOL    HW234920   3.553   3.413  13.691 -2.1593  1.2342  1.0855
 7763SOL     OW34921   0.818   1.788  10.441 -0.3705  0.1151  0.1785
 7763SOL    HW134922   0.730   1.818  10.463 -0.6144  0.4013 -1.1934
 7763SOL    HW234923   0.808   1.693  10.448  0.7234 -0.0942 -0.9507
 7764SOL     OW34924   0.936   4.545   3.761 -0.0563  0.3436 -0.6008
 7764SOL    HW134925   0.974   4.457   3.762  0.5451  0.6188  0.5916
 7764SOL    HW234926   0.983   4.573   3.840  2.0850  0.8409 -2.0410
 7765SOL     OW34927   0.023   4.262  17.171 -0.2985 -0.0570 -0.3836
 7765SOL    HW134928   4.673   4.229  17.152  0.0653 -0.9972 -0.4519
 7765SOL    HW234929   0.017   4.247  17.265  1.4466 -2.8556 -0.7054
 7766SOL     OW34930   0.875   0.361   6.852  0.4533  0.1129 -0.0125
 7766SOL    HW134931   0.939   0.355   6.782 -0.1095 -2.5305 -0.2978
 7766SOL    HW234932   0.869   0.270   6.882  1.1088  0.6087  1.5756
 7767SOL     OW34933   4.066   4.527  14.529  0.1085 -0.6520  0.0260
 7767SOL    HW134934   4.160   4.539  14.543  0.3022 -0.4016 -1.4661
 7767SOL    HW234935   4.058   4.433  14.543  1.0389 -0.5129  1.4802
 7768SOL     OW34936   4.227   1.691   1.890  0.3113 -0.1839 -0.5496
 7768SOL    HW134937   4.223   1.611   1.943  1.5257  0.1969  0.1004
 7768SOL    HW234938   4.291   1.668   1.823  0.9512  0.8700 -0.2847
 7769SOL     OW34939   0.627   3.863   8.683 -0.9283 -0.1926  0.5455
 7769SOL    HW134940   0.702   3.852   8.625 -1.6395  1.6243 -0.7346
 7769SOL    HW234941   0.664   3.831   8.765  5.0538  1.6288 -1.5151
 7770SOL     OW34942   2.111   2.810   4.486 -0.0687 -0.4222  0.2054
 7770SOL    HW134943   2.058   2.774   4.558  1.1071 -2.3875  0.0805
 7770SOL    HW234944   2.132   2.901   4.510 -1.8221  0.1251 -0.2773
 7771SOL     OW34945   3.180   1.479   6.154 -0.1804  0.0686  0.2704
 7771SOL    HW134946   3.228   1.516   6.228 -1.1666  1.5742  0.1692
 7771SOL    HW234947   3.145   1.561   6.119  0.2174  0.7563  1.4947
 7772SOL     OW34948   1.355   0.385   8.858 -0.1405 -1.2923 -0.2529
 7772SOL    HW134949   1.319   0.323   8.922 -2.4738  0.7512  0.4032
 7772SOL    HW234950   1.445   0.358   8.842  0.2149 -0.6987  0.7259
 7773SOL     OW34951   0.626   2.957   7.859 -0.1127  0.2745 -0.0626
 7773SOL    HW134952   0.643   2.906   7.780 -0.1319 -0.8759  0.6716
 7773SOL    HW234953   0.665   3.041   7.836 -0.0619 -0.0723 -1.2402
 7774SOL     OW34954   1.599   3.501  16.591  0.1534  0.6149  0.2839
 7774SOL    HW134955   1.534   3.564  16.622  1.6984  1.6410  1.4312
 7774SOL    HW234956   1.564   3.422  16.633 -0.8170  1.6926  1.5180
 7775SOL     OW34957   4.478   0.444   2.419 -0.7467 -0.3249 -0.2686
 7775SOL    HW134958   4.414   0.431   2.489 -0.7006  0.3464 -0.0945
 7775SOL    HW234959   4.496   0.535   2.443  4.0341 -0.3151 -3.8972
 7776SOL     OW34960   1.967   2.884   6.639 -0.2764  0.1972 -0.0009
 7776SOL    HW134961   1.975   2.798   6.679  0.6917  0.1894 -0.2032
 7776SOL    HW234962   2.045   2.891   6.583  0.7907 -1.9322  1.2133
 7777SOL     OW34963   1.414   4.551   5.315 -0.1505 -0.5112 -0.7843
 7777SOL    HW134964   1.343   4.599   5.273  0.4278  0.9765 -0.0722
 7777SOL    HW234965   1.398   4.459   5.295  0.5414 -0.6483 -0.7156
 7778SOL     OW34966   1.812   1.828   4.129 -0.1477 -0.3252 -0.1272
 7778SOL    HW134967   1.863   1.840   4.049  0.7650  0.2130  0.5344
 7778SOL    HW234968   1.891   1.815   4.181 -0.9849 -0.2958  1.1625
 7779SOL     OW34969   4.068   1.128  11.814  0.1181 -0.2703  0.0908
 7779SOL    HW134970   4.133   1.063  11.840  1.2278  0.9648  0.4366
 7779SOL    HW234971   4.116   1.169  11.741  0.9647 -1.4235  0.0028
 7780SOL     OW34972   0.548   4.620   3.365  0.5632  0.1568 -0.2826
 7780SOL    HW134973   0.568   4.532   3.396  1.2186  0.7448  0.9380
 7780SOL    HW234974   0.555   4.670   3.446  0.3958  0.1883 -0.2878
 7781SOL     OW34975   1.321   4.046   1.008  0.3558  0.1330  0.3948
 7781SOL    HW134976   1.249   3.993   0.974 -0.2172  0.3441  1.2802
 7781SOL    HW234977   1.379   4.038   0.932  1.0302  0.5512  0.8692
 7782SOL     OW34978   0.457   0.358   6.832 -0.0051 -0.0589  0.3628
 7782SOL    HW134979   0.529   0.417   6.856  0.0180  0.4677 -0.9967
 7782SOL    HW234980   0.508   0.300   6.775  0.5827  0.8906 -0.0766
 7783SOL     OW34981   0.496   3.860   4.672  0.2275 -0.5802  0.1496
 7783SOL    HW134982   0.502   3.816   4.588 -0.9950  1.2909 -0.9205
 7783SOL    HW234983   0.543   3.941   4.652 -1.3420  0.7061  1.6353
 7784SOL     OW34984   2.223   2.394  10.315  0.0936  0.4261  0.2654
 7784SOL    HW134985   2.283   2.366  10.384 -2.4667  0.6545  2.5519
 7784SOL    HW234986   2.249   2.486  10.308 -0.0191  0.4594  0.2837
 7785SOL     OW34987   0.517   1.622   3.764  0.0378  0.8417 -0.5790
 7785SOL    HW134988   0.487   1.562   3.696  0.2501  1.1216 -0.9207
 7785SOL    HW234989   0.504   1.564   3.839 -0.3193 -1.4884 -2.4381
 7786SOL     OW34990   0.006   1.619   4.305  0.1523  0.1380  0.0732
 7786SOL    HW134991   4.685   1.581   4.240  3.2961 -2.4823 -1.2825
 7786SOL    HW234992   4.735   1.711   4.283  0.2154 -0.5306 -2.7975
 7787SOL     OW34993   4.650   0.385   4.597 -0.6631  0.2381 -0.1517
 7787SOL    HW134994   4.718   0.339   4.646 -1.3379  0.3160  0.8548
 7787SOL    HW234995   4.582   0.323   4.624  0.5954 -0.9569  0.2231
 7788SOL     OW34996   2.270   3.954  16.880  0.4587  0.5495 -1.2637
 7788SOL    HW134997   2.240   4.035  16.922  0.8853 -0.2162  0.5347
 7788SOL    HW234998   2.316   3.998  16.809  1.7189  1.9271  0.3991
 7789SOL     OW34999   0.905   4.371  10.702 -0.0532  0.2336 -0.5937
 7789SOL    HW135000   0.864   4.437  10.646  1.6116  1.1241 -0.7441
 7789SOL    HW235001   0.858   4.389  10.783  1.0449 -0.9955  0.3193
 7790SOL     OW35002   1.729   1.756   4.858  0.3225 -0.1915 -0.0868
 7790SOL    HW135003   1.689   1.727   4.776  0.3071 -0.0562 -0.1270
 7790SOL    HW235004   1.663   1.810   4.902 -0.2600 -0.1165 -1.0593
 7791SOL     OW35005   4.597   1.506  16.824 -0.4184  0.4434 -0.3173
 7791SOL    HW135006   4.525   1.488  16.884 -0.9092  1.2466 -0.6602
 7791SOL    HW235007   4.661   1.443  16.855  1.0726  0.0514 -4.0899
 7792SOL     OW35008   0.947   1.656   8.062  0.5927  0.8247  0.2530
 7792SOL    HW135009   0.889   1.688   8.131 -2.0944 -1.0097 -1.1703
 7792SOL    HW235010   1.011   1.728   8.057  0.8394  0.4280 -2.0465
 7793SOL     OW35011   3.425   4.610  10.211 -0.3750 -0.2005  0.2009
 7793SOL    HW135012   3.369   4.534  10.229  0.1712 -0.3632  1.2198
 7793SOL    HW235013   3.464   4.632  10.296  0.6817 -0.2240 -0.2808
 7794SOL     OW35014   0.737   1.451   8.901 -0.4193 -0.2375  0.3628
 7794SOL    HW135015   0.763   1.388   8.969  0.9483 -0.9246 -0.8087
 7794SOL    HW235016   0.713   1.401   8.823 -2.1329  2.0908 -0.5944
 7795SOL     OW35017   2.802   0.567  10.600 -0.4759 -0.8295  0.1821
 7795SOL    HW135018   2.748   0.540  10.525  0.1252  0.9555 -0.8774
 7795SOL    HW235019   2.780   0.489  10.651  1.0182 -1.5290 -0.2170
 7796SOL     OW35020   4.393   0.814   6.905  0.8048  0.1194 -0.0072
 7796SOL    HW135021   4.399   0.901   6.945  1.8340  0.6593 -1.3248
 7796SOL    HW235022   4.462   0.826   6.839  1.7342  2.2978  1.3604
 7797SOL     OW35023   3.080   0.756   0.353  0.4650 -0.0224  0.3332
 7797SOL    HW135024   3.019   0.821   0.386  0.1337  1.2513 -2.8444
 7797SOL    HW235025   3.124   0.803   0.282  0.8717 -1.3369 -0.2836
 7798SOL     OW35026   0.731   4.174   7.656  0.0874 -0.3829  0.3823
 7798SOL    HW135027   0.772   4.260   7.641  0.6486 -1.4029 -3.9942
 7798SOL    HW235028   0.675   4.189   7.732 -1.6220  0.8210 -1.1016
 7799SOL     OW35029   3.936   0.241   1.472 -0.5672 -0.4463  0.1540
 7799SOL    HW135030   3.884   0.177   1.520 -1.0818  0.1672  0.4008
 7799SOL    HW235031   3.897   0.219   1.387  0.4610  1.9221 -0.9279
 7800SOL     OW35032   2.166   3.074   5.928 -0.0117  0.9993 -0.1228
 7800SOL    HW135033   2.113   3.142   5.887 -2.8358 -0.3739  1.2879
 7800SOL    HW235034   2.176   3.108   6.018  0.3493 -2.0596  0.9880
 7801SOL     OW35035   0.653   2.360   8.533 -0.0635  0.3539 -0.0252
 7801SOL    HW135036   0.647   2.455   8.543 -1.4717  0.0173  2.3586
 7801SOL    HW235037   0.740   2.351   8.494 -1.0474 -2.3125 -1.5858
 7802SOL     OW35038   3.854   3.231  17.180 -0.0482 -0.1377  0.7471
 7802SOL    HW135039   3.915   3.214  17.108 -0.1247  0.0616  0.6349
 7802SOL    HW235040   3.838   3.145  17.219  1.4231 -0.8385 -0.2139
 7803SOL     OW35041   0.885   0.821   2.127 -0.1701 -0.4187  0.2286
 7803SOL    HW135042   0.883   0.726   2.116 -2.2026 -0.3662  0.1178
 7803SOL    HW235043   0.858   0.848   2.039 -0.6809  0.0317  0.5218
 7804SOL     OW35044   2.266   0.325  11.174  0.2941  0.5983 -0.1537
 7804SOL    HW135045   2.264   0.420  11.167 -2.0572  0.8714  4.3714
 7804SOL    HW235046   2.172   0.316  11.193  0.3652  2.8285  1.2930
 7805SOL     OW35047   0.197   2.991   7.158 -0.2914  0.6489  0.2425
 7805SOL    HW135048   0.120   3.047   7.167 -0.2926  0.7129 -0.1630
 7805SOL    HW235049   0.174   2.943   7.079 -0.7663 -0.7875  1.2405
 7806SOL     OW35050   4.455   1.112  11.598 -0.3223 -0.3609 -0.3575
 7806SOL    HW135051   4.475   1.065  11.678  0.6729  2.1978  0.9122
 7806SOL    HW235052   4.380   1.162  11.631  2.1266  2.0437  1.5948
 7807SOL     OW35053   3.496   1.120   1.616  0.1843  0.1312  0.2420
 7807SOL    HW135054   3.405   1.131   1.590  0.6048  1.6525 -0.6075
 7807SOL    HW235055   3.492   1.146   1.709  1.4286  2.0438 -0.2330
 7808SOL     OW35056   4.190   1.009   8.261  0.2058 -0.4617  0.1051
 7808SOL    HW135057   4.133   1.019   8.337  0.4254 -0.4819  0.2725
 7808SOL    HW235058   4.268   1.036   8.310  0.0095  0.6472 -0.1861
 7809SOL     OW35059   1.182   3.270   9.017 -0.7208 -0.2372  0.3851
 7809SOL    HW135060   1.253   3.227   8.970 -0.2730  0.4300  0.4555
 7809SOL    HW235061   1.123   3.195   9.023 -1.1206  0.1337  1.0884
 7810SOL     OW35062   3.084   2.316   8.241 -0.2812 -0.4438 -0.5840
 7810SOL    HW135063   3.077   2.226   8.275 -1.1218 -0.6198 -1.2077
 7810SOL    HW235064   3.044   2.361   8.316 -0.3118  0.9307 -1.4241
 7811SOL     OW35065   3.102   4.337   1.318  0.6219 -0.1230  0.0117
 7811SOL    HW135066   3.149   4.414   1.348  1.8542 -1.9419  2.7599
 7811SOL    HW235067   3.015   4.375   1.306  0.5286  0.1553  1.6220
 7812SOL     OW35068   0.021   4.657   4.996  0.2027 -0.5668  0.2156
 7812SOL    HW135069   0.034   0.010   5.020  0.2510  0.1559 -2.6301
 7812SOL    HW235070   4.667   4.649   5.019 -0.2578 -0.8761 -1.8093
 7813SOL     OW35071   0.676   0.156   7.105  0.4722 -0.7514  0.1742
 7813SOL    HW135072   0.677   0.249   7.084 -2.1609 -0.8777 -0.4971
 7813SOL    HW235073   0.605   0.126   7.048 -0.9224  0.8375  1.0762
 7814SOL     OW35074   3.076   3.434  17.046 -0.4523 -0.7118 -0.3840
 7814SOL    HW135075   3.122   3.490  16.984 -0.3823  1.5924  1.7356
 7814SOL    HW235076   3.141   3.408  17.111 -0.1611  0.0132 -0.3847
 7815SOL     OW35077   4.071   1.059   9.121 -0.0197  0.0168 -0.6464
 7815SOL    HW135078   4.070   0.968   9.149  1.1208 -0.3808 -1.8925
 7815SOL    HW235079   3.979   1.082   9.130 -0.0057  0.4741 -1.6620
 7816SOL     OW35080   1.713   2.310  15.185 -0.6264 -0.6040 -0.1991
 7816SOL    HW135081   1.708   2.269  15.272 -2.3886 -0.9614 -0.4704
 7816SOL    HW235082   1.753   2.245  15.128  0.4600  1.2500 -1.5618
 7817SOL     OW35083   1.695   2.462   4.899  0.6702 -0.6461  0.5870
 7817SOL    HW135084   1.703   2.553   4.928  2.5291 -1.4971  2.6701
 7817SOL    HW235085   1.788   2.441   4.891  1.1699  1.6193  0.5481
 7818SOL     OW35086   3.235   2.711   8.285  0.0204  0.5816  0.5466
 7818SOL    HW135087   3.175   2.675   8.349  1.6536  0.4426  2.0085
 7818SOL    HW235088   3.274   2.779   8.342  0.2530 -0.1705  1.2818
 7819SOL     OW35089   0.816   2.146   5.170  0.0307  0.1556  0.0675
 7819SOL    HW135090   0.891   2.088   5.159 -0.5338 -0.6753  0.5661
 7819SOL    HW235091   0.839   2.216   5.108 -3.1379  1.0092 -0.1541
 7820SOL     OW35092   2.858   0.523   3.850  0.6234  0.3233  0.0270
 7820SOL    HW135093   2.931   0.461   3.847 -0.3182 -0.6904 -1.8649
 7820SOL    HW235094   2.787   0.480   3.803  1.5563  0.2159 -1.2814
 7821SOL     OW35095   1.487   1.342   6.531  0.2695  0.1675 -0.1504
 7821SOL    HW135096   1.491   1.247   6.518  1.7653  0.0026  1.3645
 7821SOL    HW235097   1.438   1.378   6.458 -1.7032 -3.8332 -0.8120
 7822SOL     OW35098   1.552   4.170  10.912 -0.2123  0.3095  0.1444
 7822SOL    HW135099   1.482   4.126  10.961  0.9939 -1.0185  0.6649
 7822SOL    HW235100   1.503   4.249  10.889 -0.4951 -0.1189 -0.6964
 7823SOL     OW35101   2.112   1.948  12.473  0.1569 -0.6374  0.6074
 7823SOL    HW135102   2.150   1.904  12.549  1.0724 -0.6954  0.1175
 7823SOL    HW235103   2.070   1.874  12.429 -2.2312  0.2011  1.4819
 7824SOL     OW35104   1.052   0.322   8.687  0.0607 -0.0247  0.7056
 7824SOL    HW135105   1.055   0.388   8.757  1.8839  1.4422 -0.7561
 7824SOL    HW235106   1.070   0.377   8.610  1.7699 -0.0836  1.0620
 7825SOL     OW35107   4.658   2.849  15.316  0.0560 -0.1278  0.0901
 7825SOL    HW135108   0.004   2.810  15.292 -0.2967 -0.9553  0.1968
 7825SOL    HW235109   4.638   2.803  15.397 -0.3642 -1.4539 -0.7743
 7826SOL     OW35110   1.935   3.498   6.252 -0.2247 -0.1295 -0.1639
 7826SOL    HW135111   1.916   3.535   6.338 -1.1821 -1.5971  0.2500
 7826SOL    HW235112   1.965   3.575   6.205 -2.1089  0.6333 -0.1311
 7827SOL     OW35113   2.781   1.643   9.609  0.0853  0.1381  1.0319
 7827SOL    HW135114   2.759   1.559   9.570  2.6074  0.2568 -0.6340
 7827SOL    HW235115   2.796   1.632   9.703  0.7035  1.4335  1.0876
 7828SOL     OW35116   3.639   4.353  12.958 -0.0201  0.2602  0.3140
 7828SOL    HW135117   3.688   4.428  12.924  0.4954 -0.3727 -0.3390
 7828SOL    HW235118   3.700   4.306  13.015 -0.0662  0.0099  0.1577
 7829SOL     OW35119   0.032   0.120   2.280 -0.1451 -0.4347 -0.0668
 7829SOL    HW135120   0.015   0.133   2.187 -0.9343 -1.1793 -0.0343
 7829SOL    HW235121   0.029   0.212   2.306  2.2716 -0.2269 -0.5565
 7830SOL     OW35122   2.305   3.796   8.019 -0.1203  0.3564  0.1466
 7830SOL    HW135123   2.320   3.875   7.966  1.4928 -0.0820 -0.0489
 7830SOL    HW235124   2.251   3.820   8.094  0.3020  0.9436  0.2665
 7831SOL     OW35125   2.009   3.248  15.665 -0.0517 -0.1985  0.0099
 7831SOL    HW135126   2.007   3.338  15.697  0.5090  0.0424 -0.6420
 7831SOL    HW235127   2.000   3.258  15.571 -0.0511  2.9407  0.3389
 7832SOL     OW35128   4.356   1.765  11.243  0.1577  0.3896 -0.0703
 7832SOL    HW135129   4.272   1.811  11.239  0.2156  0.5065  0.0309
 7832SOL    HW235130   4.348   1.712  11.164  0.3300  2.0022 -1.1838
 7833SOL     OW35131   1.218   2.573   2.153  0.3846 -0.1216  0.1322
 7833SOL    HW135132   1.257   2.486   2.163  0.6677 -0.1046 -0.8637
 7833SOL    HW235133   1.262   2.605   2.074  1.0960 -3.7054 -0.9471
 7834SOL     OW35134   1.429   1.865   8.663  0.2100 -0.3951  0.0076
 7834SOL    HW135135   1.416   1.897   8.574  0.0179  2.7242  1.1715
 7834SOL    HW235136   1.496   1.923   8.698  2.1750 -1.6511 -1.6500
 7835SOL     OW35137   3.514   0.817   6.111  0.4797 -0.5038 -0.5302
 7835SOL    HW135138   3.513   0.898   6.061 -0.0470 -0.7399 -0.8975
 7835SOL    HW235139   3.527   0.844   6.202 -3.8577 -1.3555  0.3535
 7836SOL     OW35140   1.439   3.917   1.226  0.2245 -0.2668  0.1061
 7836SOL    HW135141   1.391   3.952   1.151  0.7466  1.5696  0.6222
 7836SOL    HW235142   1.461   4.004   1.261 -2.1009 -0.0782  1.1363
 7837SOL     OW35143   2.807   1.019   4.881  0.1900 -0.3567  0.8602
 7837SOL    HW135144   2.879   1.075   4.851  0.2555 -1.2494 -0.6521
 7837SOL    HW235145   2.852   0.968   4.949  0.2118 -1.5375 -0.0409
 7838SOL     OW35146   4.076   3.813   2.545  0.2345  0.3079 -0.0301
 7838SOL    HW135147   4.140   3.854   2.486  0.0452 -1.8842 -1.7780
 7838SOL    HW235148   4.111   3.842   2.629 -0.7407 -0.1664  0.5481
 7839SOL     OW35149   3.605   3.351   5.221 -0.4549  0.0618  0.3208
 7839SOL    HW135150   3.580   3.359   5.129  0.7155 -1.0147 -0.0805
 7839SOL    HW235151   3.680   3.410   5.220 -0.4019 -0.0211 -0.7774
 7840SOL     OW35152   3.108   3.895  12.966  0.6085  0.6168  0.1111
 7840SOL    HW135153   3.157   3.949  12.903  0.9481 -0.3921 -0.4986
 7840SOL    HW235154   3.181   3.847  13.006 -0.7246 -2.1703 -0.8002
 7841SOL     OW35155   3.023   2.659   4.885  0.1433  0.6006 -0.1172
 7841SOL    HW135156   3.076   2.705   4.950  1.1867 -1.6855  0.6393
 7841SOL    HW235157   2.937   2.665   4.929 -0.8839  3.1968 -2.4619
 7842SOL     OW35158   2.198   2.632  15.217  0.0886 -0.3814 -0.3825
 7842SOL    HW135159   2.258   2.678  15.159 -0.1893  1.3980  0.7324
 7842SOL    HW235160   2.114   2.677  15.213  0.3032  0.0993  0.4012
 7843SOL     OW35161   4.204   2.682   3.083  0.3104  0.1218 -0.2249
 7843SOL    HW135162   4.183   2.732   3.162 -0.8249 -0.9185  0.1345
 7843SOL    HW235163   4.249   2.749   3.031  0.3891  0.1876 -0.0731
 7844SOL     OW35164   1.284   2.217  17.199  0.0695  0.3090 -0.2390
 7844SOL    HW135165   1.205   2.248  17.242 -0.7783 -0.1464 -1.4525
 7844SOL    HW235166   1.239   2.186  17.120 -0.9942  0.8986  0.1345
 7845SOL     OW35167   1.014   2.208   1.037 -0.1765  0.4943 -0.1132
 7845SOL    HW135168   1.045   2.254   0.959 -1.6940  1.0764 -0.3559
 7845SOL    HW235169   0.962   2.134   1.005 -0.0830 -0.8076  2.6844
 7846SOL     OW35170   0.203   4.441  15.686 -0.2752 -0.4830 -0.4797
 7846SOL    HW135171   0.226   4.524  15.645 -1.9373  0.1330 -0.1696
 7846SOL    HW235172   0.121   4.422  15.640 -1.1466  1.2899  0.3453
 7847SOL     OW35173   3.936   1.273   4.252  0.4335  0.4125 -0.3404
 7847SOL    HW135174   3.890   1.197   4.216  0.4648  0.2791 -0.0997
 7847SOL    HW235175   4.025   1.263   4.218  0.5720  0.1201  0.1139
 7848SOL     OW35176   0.130   0.465   3.656  0.4635  0.4436  0.4208
 7848SOL    HW135177   0.149   0.458   3.749 -0.2894  0.2073  0.5561
 7848SOL    HW235178   0.216   0.499   3.629  0.7994 -0.5056  0.2799
 7849SOL     OW35179   0.619   4.403  14.321  0.2184 -0.8245 -0.5531
 7849SOL    HW135180   0.694   4.405  14.381 -0.2138 -0.2156 -0.0340
 7849SOL    HW235181   0.553   4.398  14.391  0.3943 -2.0855 -0.4764
 7850SOL     OW35182   2.446   2.499  16.441  0.0211 -0.8794 -0.1069
 7850SOL    HW135183   2.400   2.416  16.454  1.8352 -1.6084  1.6840
 7850SOL    HW235184   2.528   2.468  16.403  0.3123  0.5713 -0.6328
 7851SOL     OW35185   0.884   3.469   4.034  0.0500  0.0642  0.3507
 7851SOL    HW135186   0.918   3.391   3.990 -0.0474  1.0499 -1.4344
 7851SOL    HW235187   0.814   3.430   4.087  0.0331 -1.1037 -0.5372
 7852SOL     OW35188   4.535   4.560   5.120 -0.4539  0.0322 -0.5696
 7852SOL    HW135189   4.518   4.634   5.178 -1.1927 -0.2959 -0.3638
 7852SOL    HW235190   4.452   4.562   5.071 -0.3871  1.3240 -0.6332
 7853SOL     OW35191   3.183   2.016   4.662 -0.1279  0.0627 -0.2738
 7853SOL    HW135192   3.267   2.028   4.617 -0.0086  0.7430  0.1373
 7853SOL    HW235193   3.154   2.107   4.665  0.4288  0.1756  1.7047
 7854SOL     OW35194   3.600   4.489  14.095 -0.6893 -0.0003 -0.1713
 7854SOL    HW135195   3.525   4.535  14.133 -1.1626  0.9590 -2.2934
 7854SOL    HW235196   3.653   4.469  14.172 -1.7947 -0.2679  0.5141
 7855SOL     OW35197   2.874   0.307   2.456 -0.2047  0.2235 -0.1887
 7855SOL    HW135198   2.883   0.324   2.549 -1.7344  0.5049 -0.0991
 7855SOL    HW235199   2.780   0.297   2.441 -1.0281  3.0849  3.2908
 7856SOL     OW35200   4.210   0.413   2.445 -0.0021  0.3591  0.2057
 7856SOL    HW135201   4.157   0.337   2.423 -0.5753  0.5599  0.9116
 7856SOL    HW235202   4.200   0.422   2.540 -0.3837 -0.6926  0.2604
 7857SOL     OW35203   1.941   1.538   1.516 -0.8392 -0.5941 -0.2147
 7857SOL    HW135204   1.856   1.504   1.487 -0.4751  0.1604 -2.2070
 7857SOL    HW235205   1.950   1.615   1.459 -1.0713 -1.1034 -0.9350
 7858SOL     OW35206   0.289   3.816   8.189  0.0449 -0.5689 -0.2118
 7858SOL    HW135207   0.363   3.856   8.235 -1.0575  0.1948  0.8960
 7858SOL    HW235208   0.225   3.832   8.258  0.4392 -1.2288  0.3117
 7859SOL     OW35209   2.378   3.367   0.201 -0.1405  0.1039  0.0607
 7859SOL    HW135210   2.387   3.329   0.288 -0.9759  1.9096  0.9437
 7859SOL    HW235211   2.464   3.408   0.191 -0.0041 -0.1371  0.2735
 7860SOL     OW35212   2.075   3.744   6.181  0.5259  0.0844 -0.0011
 7860SOL    HW135213   2.146   3.730   6.119 -0.8309  0.0326 -1.5272
 7860SOL    HW235214   2.117   3.799   6.247 -0.7003 -1.2623  1.9000
 7861SOL     OW35215   3.778   3.743  13.400 -0.1135  0.4619  0.1827
 7861SOL    HW135216   3.701   3.796  13.420  0.0427  0.6820  0.2009
 7861SOL    HW235217   3.820   3.761  13.484 -0.1761 -0.5399  0.4253
 7862SOL     OW35218   1.643   1.987  15.287  0.1449  0.3013  0.4930
 7862SOL    HW135219   1.586   1.914  15.259  1.3990  0.0860 -1.5026
 7862SOL    HW235220   1.573   2.047  15.313  0.9961  0.9790  1.1871
 7863SOL     OW35221   2.885   0.932   0.480  0.1442 -0.2137 -0.6361
 7863SOL    HW135222   2.849   0.989   0.411  1.5309 -0.1601 -1.3207
 7863SOL    HW235223   2.805   0.936   0.533  0.8765 -0.5031  0.4719
 7864SOL     OW35224   3.243   2.527  12.027 -0.2301 -0.3660 -0.3065
 7864SOL    HW135225   3.240   2.622  12.015  0.5147 -0.8250 -4.0259
 7864SOL    HW235226   3.297   2.520  12.106 -0.1116  1.4764 -0.2288
 7865SOL     OW35227   1.595   1.805   7.305  0.2894 -0.0470  0.1893
 7865SOL    HW135228   1.669   1.744   7.302 -0.0656 -0.5646  1.7595
 7865SOL    HW235229   1.612   1.873   7.240 -1.8012 -1.6046 -1.9897
 7866SOL     OW35230   0.997   1.532  11.331  0.4785  0.8343  0.4015
 7866SOL    HW135231   0.922   1.490  11.289  1.2534  1.4494 -1.6038
 7866SOL    HW235232   1.030   1.587  11.260 -0.1297 -0.0458 -0.5653
 7867SOL     OW35233   1.939   0.160   9.345 -0.3645 -0.0910 -0.0709
 7867SOL    HW135234   1.967   0.130   9.259  0.2455 -1.3476  0.5700
 7867SOL    HW235235   1.936   0.080   9.397  0.6546 -1.5078 -2.1983
 7868SOL     OW35236   1.900   2.187   4.990 -0.4775  0.8054 -0.1665
 7868SOL    HW135237   1.821   2.176   4.938  0.3368  1.5473 -1.5592
 7868SOL    HW235238   1.930   2.098   5.008 -2.4300  0.4653  1.3315
 7869SOL     OW35239   3.233   2.139   4.345  0.1160  0.0810  0.4383
 7869SOL    HW135240   3.177   2.174   4.413 -1.5638 -1.4111 -0.1686
 7869SOL    HW235241   3.304   2.106   4.400  1.3392  0.7772 -0.7122
 7870SOL     OW35242   3.322   0.864   4.543  0.0531 -0.2546  0.5487
 7870SOL    HW135243   3.251   0.864   4.478  0.8776  0.2491 -0.3481
 7870SOL    HW235244   3.397   0.834   4.492 -3.1041 -2.4479 -2.8715
 7871SOL     OW35245   1.526   3.387   2.644  0.3163  0.9279 -0.6764
 7871SOL    HW135246   1.570   3.363   2.562  2.8368  1.6317  0.4697
 7871SOL    HW235247   1.594   3.444   2.680 -0.2286  1.2142 -0.0884
 7872SOL     OW35248   0.733   3.999   6.373 -0.6710 -0.1247  0.3734
 7872SOL    HW135249   0.786   4.053   6.432 -3.7788  1.4170  1.7769
 7872SOL    HW235250   0.753   3.914   6.410  2.6418  1.4880  2.2496
 7873SOL     OW35251   1.460   2.400  11.591  0.2390  0.2063  0.6937
 7873SOL    HW135252   1.411   2.346  11.654  0.1804 -0.3364  0.1880
 7873SOL    HW235253   1.504   2.327  11.547  0.6183  0.1553  1.1638
 7874SOL     OW35254   3.718   1.159   4.484 -0.2011 -1.2322 -0.6702
 7874SOL    HW135255   3.681   1.151   4.396  1.1613 -1.3275 -1.2279
 7874SOL    HW235256   3.650   1.132   4.545  0.4161 -3.9402 -1.1773
 7875SOL     OW35257   0.606   2.710   3.822 -0.0686 -0.6429 -0.1666
 7875SOL    HW135258   0.574   2.698   3.911  0.6875 -3.7097 -0.3091
 7875SOL    HW235259   0.694   2.673   3.835 -1.1742 -2.2407  2.6071
 7876SOL     OW35260   3.193   0.612   3.859  0.4785 -0.3046  1.1420
 7876SOL    HW135261   3.127   0.670   3.896 -0.6228 -0.5054 -0.5327
 7876SOL    HW235262   3.256   0.600   3.930 -0.3536 -3.7436  1.2948
 7877SOL     OW35263   4.519   4.180   5.161  0.1996 -0.1907  0.0772
 7877SOL    HW135264   4.553   4.185   5.072  2.0273  3.4773  0.9590
 7877SOL    HW235265   4.471   4.263   5.169  0.5216  0.1958 -1.9739
 7878SOL     OW35266   1.272   0.088   4.762 -0.2700  0.4091  0.1101
 7878SOL    HW135267   1.308   0.175   4.744  2.0622 -1.0411 -2.2360
 7878SOL    HW235268   1.211   0.075   4.689  2.6531 -0.8269 -2.0822
 7879SOL     OW35269   3.625   1.020   0.599  0.3369  0.3700  0.2852
 7879SOL    HW135270   3.702   0.996   0.650  0.3818  0.3995  0.2314
 7879SOL    HW235271   3.553   0.982   0.649 -0.1598  0.7013 -0.1763
 7880SOL     OW35272   0.183   3.556  15.285 -0.5011 -0.5506 -0.2855
 7880SOL    HW135273   0.172   3.478  15.340  1.1141  0.0282  0.8699
 7880SOL    HW235274   0.279   3.561  15.293 -0.4754 -1.1220 -0.1616
 7881SOL     OW35275   0.452   2.555   3.150  0.3068  0.3001  0.1583
 7881SOL    HW135276   0.473   2.479   3.205  0.6887 -0.7098 -1.4052
 7881SOL    HW235277   0.452   2.622   3.219  1.9800 -0.2288  0.6674
 7882SOL     OW35278   2.510   0.421   2.175  0.8181  0.0361 -0.6949
 7882SOL    HW135279   2.528   0.349   2.237 -1.8942  0.2390  0.3264
 7882SOL    HW235280   2.488   0.368   2.098 -1.3976  1.1698 -0.8265
 7883SOL     OW35281   2.342   4.153   2.420 -0.0618  0.3018 -0.4333
 7883SOL    HW135282   2.292   4.186   2.346 -0.0020 -0.4916 -0.8252
 7883SOL    HW235283   2.430   4.153   2.382 -0.9220 -0.2036 -2.4021
 7884SOL     OW35284   2.820   1.163   0.925  0.3232  0.3228 -0.5841
 7884SOL    HW135285   2.804   1.248   0.966  1.0308  0.1611  0.0403
 7884SOL    HW235286   2.913   1.167   0.901  0.2100  0.7984 -0.9311
 7885SOL     OW35287   3.548   4.495   7.917 -0.0840  0.3675  0.4277
 7885SOL    HW135288   3.616   4.479   7.983 -0.4835 -1.4073  0.4129
 7885SOL    HW235289   3.500   4.413   7.925 -0.1828  0.4782  1.0249
 7886SOL     OW35290   4.536   4.504   4.800 -0.5465  0.6860  0.6085
 7886SOL    HW135291   4.567   4.427   4.848  2.5109 -0.2794 -2.9257
 7886SOL    HW235292   4.596   4.502   4.726 -3.1767 -0.7068 -1.4943
 7887SOL     OW35293   0.562   0.134   3.525 -0.1992 -0.3677  0.1188
 7887SOL    HW135294   0.630   0.092   3.578 -0.4244 -1.1352 -0.2037
 7887SOL    HW235295   0.490   0.129   3.587  0.1124 -0.1194  0.5045
 7888SOL     OW35296   4.708   1.984  12.470 -0.1858 -0.2228 -0.3470
 7888SOL    HW135297   4.625   1.974  12.515 -0.1334 -0.1015 -0.2221
 7888SOL    HW235298   4.693   2.059  12.413  2.0025 -0.1463 -0.8405
 7889SOL     OW35299   1.067   2.108   4.659 -0.3783 -0.1017  0.2502
 7889SOL    HW135300   1.030   2.065   4.582 -0.1195  1.4639 -0.7521
 7889SOL    HW235301   1.045   2.197   4.630 -1.6535 -0.8384 -1.0605
 7890SOL     OW35302   4.635   2.059   9.199 -0.5587  0.0725  0.5458
 7890SOL    HW135303   4.590   1.975   9.186  0.6581 -0.7824  1.7773
 7890SOL    HW235304   4.671   2.037   9.286 -0.5189 -2.1591 -0.0288
 7891SOL     OW35305   2.801   3.356   6.281  0.2278  0.8236 -0.3811
 7891SOL    HW135306   2.837   3.373   6.194  0.5063 -0.9865 -0.6235
 7891SOL    HW235307   2.736   3.291   6.256  1.4453 -0.3778 -0.4154
 7892SOL     OW35308   4.646   2.186   8.684  0.7302  0.1475  0.1762
 7892SOL    HW135309   4.703   2.225   8.750  2.5724 -2.4018  0.0921
 7892SOL    HW235310   4.577   2.252   8.679  0.5569 -0.0497 -0.0502
 7893SOL     OW35311   1.927   3.330   8.050  0.3730 -0.5002  0.4266
 7893SOL    HW135312   1.902   3.343   7.959  0.0605 -4.2419 -0.0094
 7893SOL    HW235313   1.837   3.331   8.082 -0.6150  0.0324 -2.3571
 7894SOL     OW35314   3.915   3.275   7.333 -0.7098 -0.0542 -0.2310
 7894SOL    HW135315   3.870   3.314   7.257 -0.7264  1.8048  0.7292
 7894SOL    HW235316   3.938   3.190   7.295  0.9165  0.0901  0.4311
 7895SOL     OW35317   4.128   3.750  17.062  0.2007  0.2996  0.3544
 7895SOL    HW135318   4.085   3.769  16.978  0.3474  1.4380  0.5478
 7895SOL    HW235319   4.164   3.664  17.040  3.2895  1.8041 -0.4088
 7896SOL     OW35320   2.418   4.266   5.522  0.3856  0.0480  0.3365
 7896SOL    HW135321   2.354   4.287   5.590 -0.2962  2.4532 -1.0514
 7896SOL    HW235322   2.370   4.218   5.455  1.8616 -1.6485  0.4880
 7897SOL     OW35323   3.477   0.607  15.172 -0.3280  0.5589  0.7152
 7897SOL    HW135324   3.391   0.567  15.183 -0.9536  1.5276 -0.6579
 7897SOL    HW235325   3.530   0.530  15.190  0.7002  1.0784 -0.1091
 7898SOL     OW35326   1.109   1.497   8.220 -0.2881  0.5839 -0.3171
 7898SOL    HW135327   1.078   1.563   8.157 -0.3218 -1.0133 -1.9700
 7898SOL    HW235328   1.188   1.460   8.181  0.1023  0.7307  0.3430
 7899SOL     OW35329   1.221   3.451   8.124  0.0248 -0.3304  0.0229
 7899SOL    HW135330   1.188   3.437   8.213 -1.2966  1.6497 -0.1618
 7899SOL    HW235331   1.175   3.381   8.079  2.2349 -2.0931  0.4976
 7900SOL     OW35332   2.213   3.330   6.406 -0.4483  0.3371 -0.2120
 7900SOL    HW135333   2.184   3.422   6.398  1.9873  1.0633 -0.5630
 7900SOL    HW235334   2.223   3.315   6.500 -0.9796 -0.2930 -0.2554
 7901SOL     OW35335   1.228   3.910   4.306 -0.3061 -0.0670  0.1541
 7901SOL    HW135336   1.220   3.838   4.369 -0.4308 -1.3467 -1.3126
 7901SOL    HW235337   1.139   3.946   4.300 -0.3028 -0.5987 -2.9370
 7902SOL     OW35338   3.077   4.151  14.003 -0.1349  0.5498 -0.0464
 7902SOL    HW135339   3.118   4.098  13.935  0.5830 -0.2453  1.0200
 7902SOL    HW235340   3.026   4.214  13.952  0.2004  0.7886 -0.0875
 7903SOL     OW35341   4.213   0.597  12.405 -0.2643  0.5601  0.3375
 7903SOL    HW135342   4.235   0.689  12.392  0.9414  0.1313 -0.5986
 7903SOL    HW235343   4.148   0.600  12.475  1.9858  0.4397  2.4127
 7904SOL     OW35344   4.243   1.283  11.654 -0.2049 -0.5181 -0.1133
 7904SOL    HW135345   4.278   1.313  11.569 -2.8746  1.6569 -0.4561
 7904SOL    HW235346   4.210   1.362  11.696 -1.2877 -0.4081 -1.1670
 7905SOL     OW35347   1.179   3.104   2.715  0.1822 -0.4241 -0.1705
 7905SOL    HW135348   1.137   3.189   2.726 -2.6954 -2.0822  1.4517
 7905SOL    HW235349   1.181   3.083   2.808 -0.6739  1.8785  0.3703
 7906SOL     OW35350   0.381   4.567   1.265 -0.0505 -0.3276  0.4838
 7906SOL    HW135351   0.473   4.591   1.278 -0.7173  2.9219 -0.6555
 7906SOL    HW235352   0.375   4.511   1.187 -0.9538 -1.5481  1.4416
 7907SOL     OW35353   0.255   0.735   8.578  0.5019 -0.1652 -0.5687
 7907SOL    HW135354   0.238   0.647   8.544 -1.5238  0.0900 -0.2440
 7907SOL    HW235355   0.270   0.718   8.671  0.9097 -0.7483 -0.7464
 7908SOL     OW35356   4.441   2.592   6.853  0.3012  0.1913 -0.0176
 7908SOL    HW135357   4.453   2.571   6.945 -1.7712  0.0734  0.2315
 7908SOL    HW235358   4.455   2.507   6.810  1.2963 -0.3072  1.3094
 7909SOL     OW35359   0.893   3.212   3.885 -0.4089  0.2468 -0.0195
 7909SOL    HW135360   0.860   3.168   3.807 -0.2652 -0.6616  0.4346
 7909SOL    HW235361   0.843   3.173   3.957 -1.3402  1.8609  0.2143
 7910SOL     OW35362   1.556   1.210   3.752  0.3592 -0.2546 -0.0771
 7910SOL    HW135363   1.556   1.301   3.784 -0.0509  0.5721 -2.3883
 7910SOL    HW235364   1.619   1.219   3.680 -0.8517 -0.9698 -1.2284
 7911SOL     OW35365   0.292   1.760   1.894  0.2716 -0.1017  0.7838
 7911SOL    HW135366   0.344   1.681   1.877 -0.3205 -0.5776  1.2348
 7911SOL    HW235367   0.276   1.785   1.803  1.1666 -0.2094  0.5877
 7912SOL     OW35368   3.508   1.214   2.608 -0.5535  0.0740 -0.3260
 7912SOL    HW135369   3.524   1.289   2.664  1.0474 -0.5462  0.0283
 7912SOL    HW235370   3.554   1.159   2.671  1.0119 -0.9391 -2.3232
 7913SOL     OW35371   0.899   1.199   4.263  0.5634 -0.1667 -0.1937
 7913SOL    HW135372   0.962   1.135   4.296  1.3021  1.4586  1.5622
 7913SOL    HW235373   0.854   1.214   4.347 -1.0085 -0.8445 -0.9208
 7914SOL     OW35374   0.570   0.533   4.155  0.2149 -0.1610  0.1017
 7914SOL    HW135375   0.482   0.511   4.185 -0.0080  0.5410 -0.0519
 7914SOL    HW235376   0.552   0.621   4.123  0.6934  0.6944  2.2009
 7915SOL     OW35377   0.614   2.505   0.923  0.0591 -0.6584 -0.1727
 7915SOL    HW135378   0.679   2.547   0.866 -0.0613 -1.1173 -0.6573
 7915SOL    HW235379   0.643   2.415   0.906  2.7275  0.0724  0.4012
 7916SOL     OW35380   0.239   0.624  10.877 -0.0366 -0.1933  0.3284
 7916SOL    HW135381   0.212   0.544  10.832 -1.5860  0.3976  0.2178
 7916SOL    HW235382   0.154   0.659  10.903 -1.3013 -0.7859 -3.0718
 7917SOL     OW35383   0.100   2.789  13.091 -0.5754 -0.5801  0.2945
 7917SOL    HW135384   0.051   2.731  13.033  0.8498 -2.5823  1.0904
 7917SOL    HW235385   0.123   2.739  13.170  0.5684 -1.1535 -0.4056
 7918SOL     OW35386   3.936   0.612  14.458 -0.3831  0.1219 -0.6756
 7918SOL    HW135387   3.887   0.623  14.377  0.5570  0.8871 -1.1363
 7918SOL    HW235388   3.950   0.702  14.485  1.3156 -0.3826  0.1399
 7919SOL     OW35389   0.027   0.377   2.618  0.1039 -0.1510  0.1015
 7919SOL    HW135390   0.023   0.387   2.523 -1.6460 -0.5914  0.1265
 7919SOL    HW235391   0.089   0.306   2.634 -2.1845 -2.1323  0.1537
 7920SOL     OW35392   0.354   0.778   3.843  0.2745  0.1729 -0.2411
 7920SOL    HW135393   0.357   0.859   3.793  2.9212  0.5888  0.6192
 7920SOL    HW235394   0.309   0.802   3.924 -1.6199  1.3010 -1.6165
 7921SOL     OW35395   4.159   0.786   7.304  0.3719  0.2560 -0.4371
 7921SOL    HW135396   4.151   0.824   7.216  6.0106  0.3271 -0.9454
 7921SOL    HW235397   4.077   0.740   7.319  0.1096  1.6222  2.2310
 7922SOL     OW35398   0.010   0.072   6.509  0.4511  0.1508 -0.0901
 7922SOL    HW135399   4.670   0.048   6.459 -0.2384  0.2111  0.9620
 7922SOL    HW235400   4.721   0.075   6.600  0.6516 -1.0619  0.0115
 7923SOL     OW35401   4.705   0.014   3.469 -0.1470  0.2914  0.2941
 7923SOL    HW135402   4.640   0.044   3.533 -0.4277 -1.3631  0.7808
 7923SOL    HW235403   0.052   0.016   3.513 -0.9620 -0.3994  1.8797
 7924SOL     OW35404   2.931   2.932   9.386  0.2084  0.4572  0.0785
 7924SOL    HW135405   2.944   2.839   9.402  3.0441  0.5197 -1.8442
 7924SOL    HW235406   2.960   2.938   9.295  1.3412 -0.2523  0.3874
 7925SOL     OW35407   4.709   2.889   9.230  0.1984 -0.3213  0.3154
 7925SOL    HW135408   4.720   2.969   9.282  0.6726  0.2783 -0.7142
 7925SOL    HW235409   0.046   2.843   9.268  1.7769  0.1580 -2.2300
 7926SOL     OW35410   4.387   0.212   8.735 -0.5548 -0.4261  0.2862
 7926SOL    HW135411   4.317   0.213   8.670 -1.9186 -2.4765  1.7408
 7926SOL    HW235412   4.444   0.139   8.708  0.5559  0.3900  0.3882
 7927SOL     OW35413   2.892   2.498   5.479  0.4972  0.3746  0.1858
 7927SOL    HW135414   2.831   2.572   5.483 -1.2784 -1.0046 -1.5888
 7927SOL    HW235415   2.831   2.426   5.493  2.0868 -0.6622  1.7781
 7928SOL     OW35416   4.561   2.645   3.478  0.0403 -0.0631 -0.1352
 7928SOL    HW135417   4.516   2.598   3.549 -0.8717  0.6261 -0.2595
 7928SOL    HW235418   4.598   2.565   3.440 -0.7028 -0.4761 -0.0001
 7929SOL     OW35419   3.642   2.005   3.372  0.1691 -0.4015 -0.1142
 7929SOL    HW135420   3.694   2.069   3.420 -1.6451  0.0858  1.2179
 7929SOL    HW235421   3.674   2.023   3.284 -1.1888 -0.5861 -0.6581
 7930SOL     OW35422   0.763   1.929  12.267  0.0015  0.6580  0.4204
 7930SOL    HW135423   0.797   1.961  12.184  0.1140 -1.0854 -0.1955
 7930SOL    HW235424   0.828   1.861  12.283 -1.0690 -0.3075  0.7264
 7931SOL     OW35425   3.324   0.340   3.868  0.3296 -0.2380  1.1701
 7931SOL    HW135426   3.316   0.389   3.950  0.2183  0.0486  0.9910
 7931SOL    HW235427   3.271   0.262   3.886  1.7040 -1.4364 -0.0191
 7932SOL     OW35428   2.933   3.401   5.514 -0.3282  0.5228 -0.1765
 7932SOL    HW135429   2.961   3.472   5.457  0.4111 -1.1359 -1.8973
 7932SOL    HW235430   3.004   3.388   5.577 -0.4590 -0.1260 -0.1563
 7933SOL     OW35431   3.812   1.171  14.981 -0.6463 -0.2451 -0.5573
 7933SOL    HW135432   3.828   1.077  14.977 -2.8876 -0.7003  1.1220
 7933SOL    HW235433   3.725   1.172  15.021  0.6811  0.0492  2.3009
 7934SOL     OW35434   4.524   0.711   2.502 -0.0360 -0.0812 -0.5317
 7934SOL    HW135435   4.603   0.762   2.485  0.4032 -1.0251 -1.3728
 7934SOL    HW235436   4.469   0.742   2.430 -0.3242 -1.6823 -1.0058
 7935SOL     OW35437   0.789   1.368  11.196 -0.0226  0.5934 -0.5559
 7935SOL    HW135438   0.747   1.439  11.245 -0.3623 -0.4241  0.6155
 7935SOL    HW235439   0.716   1.342  11.140 -0.7145  0.2286  0.5026
 7936SOL     OW35440   3.017   1.794   2.578  0.1260  0.0478  0.3199
 7936SOL    HW135441   2.946   1.804   2.515  0.1625 -2.5421 -0.1368
 7936SOL    HW235442   3.006   1.703   2.603 -2.3204  0.4825  0.7914
 7937SOL     OW35443   3.493   3.640  16.966 -0.2795 -0.0537  0.0909
 7937SOL    HW135444   3.494   3.635  17.062 -1.0386  1.1006  0.1717
 7937SOL    HW235445   3.559   3.574  16.947 -1.0869 -1.1873  1.2266
 7938SOL     OW35446   3.926   2.291  17.472 -0.2746  0.1211 -0.0350
 7938SOL    HW135447   3.947   2.217  17.416  0.0591 -0.5179  0.9409
 7938SOL    HW235448   4.017   2.317  17.487 -0.7038  2.2069 -1.0303
 7939SOL     OW35449   2.373   3.019   5.328 -0.1158 -0.5079 -0.7720
 7939SOL    HW135450   2.360   3.005   5.422  0.9238 -0.7831 -0.6741
 7939SOL    HW235451   2.390   3.113   5.337 -0.1288 -0.5661 -0.1341
 7940SOL     OW35452   0.499   4.274  14.587 -0.7542  0.3450  0.4661
 7940SOL    HW135453   0.522   4.337  14.655 -1.8018  0.0053  1.1331
 7940SOL    HW235454   0.562   4.207  14.611 -0.8357  0.0235 -0.2110
 7941SOL     OW35455   3.093   4.106  11.201  0.5485 -0.1010 -0.0616
 7941SOL    HW135456   3.084   4.104  11.106  3.3232  0.0020 -0.3294
 7941SOL    HW235457   3.034   4.179  11.223  1.3782  0.0442  1.6862
 7942SOL     OW35458   0.434   0.514   6.563  0.0112 -0.7826  0.1432
 7942SOL    HW135459   0.450   0.499   6.657  0.2868 -1.7278 -0.0502
 7942SOL    HW235460   0.358   0.463   6.535 -0.6505  0.6492 -0.6281
 7943SOL     OW35461   0.825   0.857   4.434 -0.6609  0.5322 -0.2178
 7943SOL    HW135462   0.906   0.830   4.391  0.4496  0.2297  2.1055
 7943SOL    HW235463   0.848   0.881   4.524  2.5968 -2.6417 -0.2061
 7944SOL     OW35464   2.024   1.618  10.898  0.1671  0.1117  0.1880
 7944SOL    HW135465   1.957   1.683  10.876 -0.7869 -0.3625  1.6787
 7944SOL    HW235466   2.094   1.638  10.836  0.5962 -1.1378  0.2569
 7945SOL     OW35467   3.413   4.079   9.421  0.9693 -0.1490  0.2585
 7945SOL    HW135468   3.425   4.164   9.465  1.6705 -1.1485  1.9969
 7945SOL    HW235469   3.318   4.087   9.424  1.0116  0.4841  0.0573
 7946SOL     OW35470   0.292   1.742   4.601 -0.2949 -0.5061 -0.4374
 7946SOL    HW135471   0.245   1.707   4.677  0.3244  0.6461  0.4676
 7946SOL    HW235472   0.236   1.816   4.578  0.3284  0.0559 -0.1299
 7947SOL     OW35473   3.756   1.304   3.884 -0.0111 -0.1857  0.3629
 7947SOL    HW135474   3.694   1.345   3.944  0.3618 -0.1111  0.6980
 7947SOL    HW235475   3.741   1.349   3.801  1.3480 -2.1303 -0.9317
 7948SOL     OW35476   1.077   1.956   8.531  0.4410  0.0888  0.7454
 7948SOL    HW135477   1.104   1.985   8.443  0.3088  0.7237  0.9133
 7948SOL    HW235478   1.084   1.862   8.516 -1.7009  0.2749 -1.4459
 7949SOL     OW35479   0.978   3.735   5.138 -0.2778  0.1825 -0.5437
 7949SOL    HW135480   0.899   3.723   5.085 -1.5937  1.2110  1.1847
 7949SOL    HW235481   1.049   3.707   5.081  0.1901 -1.0763  0.6499
 7950SOL     OW35482   0.515   0.279   2.429  0.3857 -0.0768  0.2189
 7950SOL    HW135483   0.424   0.261   2.448  0.2821 -1.0773 -1.2081
 7950SOL    HW235484   0.529   0.347   2.495  1.2542 -0.9366  0.9197
 7951SOL     OW35485   1.528   4.416   1.049  0.3808 -0.7367  0.2294
 7951SOL    HW135486   1.464   4.401   1.118 -0.4090  1.6730  0.0172
 7951SOL    HW235487   1.507   4.504   1.016  1.0154 -1.3325 -1.7709
 7952SOL     OW35488   0.349   2.832   2.959 -0.6486 -0.0181  0.1626
 7952SOL    HW135489   0.425   2.890   2.952  2.0819 -3.2848  2.4286
 7952SOL    HW235490   0.384   2.757   3.008  2.1230  0.6158 -0.8472
 7953SOL     OW35491   2.042   0.823   0.837 -0.2125  0.3940  0.6003
 7953SOL    HW135492   1.972   0.761   0.817  0.1023 -0.5418  2.4020
 7953SOL    HW235493   2.111   0.769   0.875  0.9901  1.5304  0.0455
 7954SOL     OW35494   0.062   2.888   3.074 -0.1014 -0.2218  0.1059
 7954SOL    HW135495   0.129   2.821   3.087 -1.0904 -1.6514 -2.2286
 7954SOL    HW235496   0.102   2.965   3.115  1.6017 -0.7676 -0.5249
 7955SOL     OW35497   1.336   1.394  13.860 -0.2074  0.1643 -0.1621
 7955SOL    HW135498   1.370   1.306  13.840 -0.7727 -0.2471  0.6518
 7955SOL    HW235499   1.368   1.401  13.950  1.4067 -2.3250 -0.5334
 7956SOL     OW35500   4.126   4.261  10.135 -0.0460  0.1561  0.1705
 7956SOL    HW135501   4.066   4.255  10.061 -1.9124 -0.8253  1.7464
 7956SOL    HW235502   4.207   4.241  10.089  0.3897 -1.2916  1.5822
 7957SOL     OW35503   0.323   2.839   1.639 -0.5889  0.0187  0.1786
 7957SOL    HW135504   0.259   2.790   1.691  0.2747  1.2481  2.4029
 7957SOL    HW235505   0.370   2.872   1.716 -0.3932 -0.9105  0.4505
 7958SOL     OW35506   2.574   0.351  15.802  0.2525 -0.4394  0.5769
 7958SOL    HW135507   2.568   0.326  15.894  0.3581  1.1820  1.0209
 7958SOL    HW235508   2.490   0.386  15.774  1.5269  1.3592 -1.0406
 7959SOL     OW35509   2.845   0.188  10.908  0.0979 -0.2530  0.2187
 7959SOL    HW135510   2.896   0.264  10.878 -2.0939  0.5869 -1.4033
 7959SOL    HW235511   2.759   0.232  10.908  0.7918  1.1123  2.0892
 7960SOL     OW35512   0.873   0.982   8.692  0.1653 -0.3047  0.6526
 7960SOL    HW135513   0.909   0.995   8.604 -0.2871 -1.9819  0.2151
 7960SOL    HW235514   0.868   1.068   8.733  1.4198 -0.2243  0.6623
 7961SOL     OW35515   3.507   1.738   3.730 -0.4530 -0.0201  0.0909
 7961SOL    HW135516   3.534   1.826   3.754  0.2083  0.3974 -2.1282
 7961SOL    HW235517   3.548   1.721   3.645  0.5642  2.6999  0.0330
 7962SOL     OW35518   0.965   2.571   2.830 -0.3866  0.2882  0.3866
 7962SOL    HW135519   0.947   2.566   2.736 -1.2120 -2.5647  0.7111
 7962SOL    HW235520   1.051   2.612   2.822 -0.7648  1.2791  1.3314
 7963SOL     OW35521   4.698   4.503   9.203  0.3420  0.1782 -0.6017
 7963SOL    HW135522   0.043   4.537   9.236  0.0327  0.8419 -0.5088
 7963SOL    HW235523   4.689   4.416   9.241 -1.2953  1.2328  1.4352
 7964SOL     OW35524   1.368   1.817   3.653  0.0988  0.8895  0.3070
 7964SOL    HW135525   1.376   1.816   3.749  2.2693  0.9618  0.1276
 7964SOL    HW235526   1.431   1.885   3.627  1.0021 -0.6361 -1.4344
 7965SOL     OW35527   1.124   4.279  17.372 -0.4205 -0.1721  0.0401
 7965SOL    HW135528   1.112   4.243  17.284  0.5406 -0.7447  0.1407
 7965SOL    HW235529   1.074   4.360  17.374  0.0792  0.2381 -3.2065
 7966SOL     OW35530   2.297   1.301   7.968 -0.3608 -0.4400 -0.3590
 7966SOL    HW135531   2.266   1.382   7.928 -0.7464 -0.2570  0.3109
 7966SOL    HW235532   2.323   1.253   7.890 -1.1807 -2.6257  0.7242
 7967SOL     OW35533   2.304   2.244   3.132  0.7217  0.3352 -0.5299
 7967SOL    HW135534   2.273   2.154   3.143 -1.4809  1.2770  1.1146
 7967SOL    HW235535   2.346   2.235   3.046 -1.2387  0.8410 -1.5570
 7968SOL     OW35536   4.736   2.938  17.719  0.0884 -0.0912 -0.2958
 7968SOL    HW135537   0.067   2.986   0.013  3.6469 -3.0654 -2.6144
 7968SOL    HW235538   0.041   2.857  17.691  2.0965  0.5868  0.9017
 7969SOL     OW35539   2.014   2.145   3.011 -0.7519 -0.5354 -0.4031
 7969SOL    HW135540   1.958   2.133   3.087  0.4661  0.4209  0.6532
 7969SOL    HW235541   2.015   2.055   2.979 -0.4351 -1.1216  1.2834
 7970SOL     OW35542   2.621   2.323  10.634  0.5411 -0.4991  0.1183
 7970SOL    HW135543   2.559   2.364  10.695 -2.2659  0.2113 -3.2319
 7970SOL    HW235544   2.593   2.232  10.640  1.0817 -0.7204 -0.7370
 7971SOL     OW35545   1.652   1.054   8.625  0.0317 -0.1095 -0.3924
 7971SOL    HW135546   1.655   0.977   8.682  0.1445  1.9266  2.3428
 7971SOL    HW235547   1.624   1.122   8.686  1.2247 -0.6669  0.7734
 7972SOL     OW35548   2.409   1.042   4.665 -0.4411 -0.3645 -0.2447
 7972SOL    HW135549   2.318   1.013   4.668 -0.8536  1.0922  1.0646
 7972SOL    HW235550   2.413   1.095   4.744  0.2973  2.4582 -2.1814
 7973SOL     OW35551   4.216   4.092   6.492 -0.1135 -0.2441  0.1885
 7973SOL    HW135552   4.268   4.015   6.516  0.2035 -0.2426 -0.4930
 7973SOL    HW235553   4.125   4.066   6.507 -0.7828  2.5769  1.0916
 7974SOL     OW35554   0.528   1.827  13.989  0.1421 -0.4764  0.9577
 7974SOL    HW135555   0.521   1.761  14.058  0.3197 -0.7369  0.7296
 7974SOL    HW235556   0.557   1.901  14.042 -1.0463 -0.7828  2.0104
 7975SOL     OW35557   3.070   0.608   5.399 -0.3167  0.1140 -0.0101
 7975SOL    HW135558   3.076   0.513   5.398 -1.8638  0.0145 -0.8090
 7975SOL    HW235559   3.085   0.622   5.305 -1.1314 -1.6269 -0.4009
 7976SOL     OW35560   4.174   2.699   9.984  0.7936 -0.1882 -0.0901
 7976SOL    HW135561   4.167   2.783  10.030  0.3476  0.2397 -0.9419
 7976SOL    HW235562   4.238   2.649  10.034  0.4766  0.6548  1.1561
 7977SOL     OW35563   4.329   1.854   7.368 -0.5005 -0.0387  0.7194
 7977SOL    HW135564   4.375   1.805   7.435  2.2233  2.1508  0.4364
 7977SOL    HW235565   4.397   1.897   7.316  0.7273  0.9407  3.1330
 7978SOL     OW35566   4.396   0.815   4.493 -0.0826 -0.5004 -0.3042
 7978SOL    HW135567   4.302   0.813   4.512  0.1791 -3.3412  0.8693
 7978SOL    HW235568   4.429   0.753   4.558 -0.9155 -1.1477 -0.4904
 7979SOL     OW35569   3.807   2.972   6.804  0.5380  0.0403  0.1790
 7979SOL    HW135570   3.739   2.969   6.737  3.1089 -0.3358 -2.3994
 7979SOL    HW235571   3.801   3.058   6.845 -1.9517 -0.4127  0.8056
 7980SOL     OW35572   3.875   3.197  15.766  0.3052  0.1896  0.0444
 7980SOL    HW135573   3.799   3.159  15.810  1.5990 -1.3490  0.9603
 7980SOL    HW235574   3.889   3.133  15.696  1.9648 -1.4896  1.9142
 7981SOL     OW35575   0.737   0.327   9.039 -0.1925  0.3617  0.3424
 7981SOL    HW135576   0.652   0.306   9.079 -1.2216 -0.6367 -2.3812
 7981SOL    HW235577   0.713   0.350   8.949 -0.3284 -1.7726 -0.1737
 7982SOL     OW35578   0.647   1.841   3.678  0.0865  0.2011 -0.7330
 7982SOL    HW135579   0.635   1.829   3.584  1.9088 -1.4491 -0.7299
 7982SOL    HW235580   0.593   1.770   3.713 -0.1379  0.6932 -0.0792
 7983SOL     OW35581   3.010   2.095  17.421  0.6804  0.0303 -0.1608
 7983SOL    HW135582   2.963   2.165  17.375  0.4701  1.2877  1.9697
 7983SOL    HW235583   3.065   2.157  17.469  0.5017  0.0640  0.0035
 7984SOL     OW35584   1.974   0.226   4.319  0.2716  0.4436 -0.1907
 7984SOL    HW135585   1.931   0.164   4.378  0.6772  1.2963  1.0049
 7984SOL    HW235586   2.029   0.273   4.382  0.2908 -1.2196  1.0667
 7985SOL     OW35587   1.937   2.497  13.502  0.5695  0.0265 -0.5303
 7985SOL    HW135588   1.896   2.531  13.423  0.1762  1.1587  0.1649
 7985SOL    HW235589   1.935   2.403  13.481  0.9026 -0.0768 -0.1004
 7986SOL     OW35590   1.683   2.853   4.521  0.7495 -0.1878 -0.2543
 7986SOL    HW135591   1.695   2.916   4.450 -2.8468  1.7020  0.7993
 7986SOL    HW235592   1.641   2.784   4.470  0.2053  0.4923 -0.7338
 7987SOL     OW35593   4.582   1.005  11.813  0.2562 -0.6978  0.1599
 7987SOL    HW135594   4.607   0.914  11.827 -0.1504 -0.5228  1.9451
 7987SOL    HW235595   4.596   1.042  11.900 -0.2083  1.1614 -0.5554
 7988SOL     OW35596   2.400   1.041   7.798 -0.5741 -0.0684 -0.6994
 7988SOL    HW135597   2.495   1.042   7.807 -0.6426 -1.1658  0.2926
 7988SOL    HW235598   2.393   1.039   7.703  2.2527  1.1296 -0.9217
 7989SOL     OW35599   2.741   3.159   2.968  0.2437 -0.1186 -0.5253
 7989SOL    HW135600   2.649   3.134   2.963 -0.1072  0.8725  0.9619
 7989SOL    HW235601   2.752   3.153   2.873 -4.4699  0.3879 -1.1072
 7990SOL     OW35602   3.351   3.335   8.251  0.3724  0.4572  0.3901
 7990SOL    HW135603   3.284   3.355   8.316 -0.8018 -0.8593 -0.4036
 7990SOL    HW235604   3.426   3.352   8.308  1.0935 -2.2324  0.2838
 7991SOL     OW35605   1.800   3.504   7.824  0.2120 -0.8591  0.0472
 7991SOL    HW135606   1.873   3.537   7.772 -1.2694  2.1620 -0.0989
 7991SOL    HW235607   1.798   3.558   7.902  2.6353  0.5147 -0.8412
 7992SOL     OW35608   2.320   0.830   5.493  0.3028  0.3295 -0.1221
 7992SOL    HW135609   2.341   0.883   5.570  0.8295 -1.4983  0.9895
 7992SOL    HW235610   2.286   0.757   5.545 -3.8254  2.7474  0.6074
 7993SOL     OW35611   3.582   1.112   3.192  0.1613  0.6473  0.1391
 7993SOL    HW135612   3.658   1.074   3.149  1.0467  1.7407  0.7239
 7993SOL    HW235613   3.508   1.064   3.155  1.4399 -0.8669 -0.4359
 7994SOL     OW35614   2.644   3.797   3.081  0.0206  0.2857 -0.4366
 7994SOL    HW135615   2.611   3.790   2.991 -1.0891  0.0642 -0.0089
 7994SOL    HW235616   2.624   3.711   3.117 -4.1274  0.7717 -1.5429
 7995SOL     OW35617   0.919   0.927   6.640  0.1855 -0.0867  0.5197
 7995SOL    HW135618   0.948   0.854   6.694 -1.1067  0.6784  2.2407
 7995SOL    HW235619   0.955   0.995   6.696  1.8509 -0.4126 -0.1449
 7996SOL     OW35620   2.380   4.651   7.408 -0.0953  0.2209  0.2492
 7996SOL    HW135621   2.428   4.627   7.329 -1.6916 -0.3178 -0.5569
 7996SOL    HW235622   2.311   4.585   7.407 -2.1514  2.3417 -0.3502
 7997SOL     OW35623   4.316   3.530   4.370 -0.1233 -0.0896  0.1641
 7997SOL    HW135624   4.265   3.605   4.338 -0.9394 -0.1027  1.4196
 7997SOL    HW235625   4.294   3.452   4.318 -0.3580 -1.1018  1.7875
 7998SOL     OW35626   2.950   1.525  17.307  0.0595  0.0316  0.4098
 7998SOL    HW135627   2.909   1.569  17.381  1.6625  1.9236  0.1484
 7998SOL    HW235628   3.004   1.464  17.357  0.7418  0.8506  0.6495
 7999SOL     OW35629   1.558   0.104   8.582  0.0327  0.2355 -0.5091
 7999SOL    HW135630   1.529   0.036   8.643  3.9469  1.1744  2.3981
 7999SOL    HW235631   1.634   0.059   8.545 -0.0308 -0.4718  0.2217
 8000SOL     OW35632   2.504   1.500   6.438  0.0606 -0.3269  0.0611
 8000SOL    HW135633   2.421   1.497   6.485 -0.3948  0.3866 -0.7061
 8000SOL    HW235634   2.548   1.420   6.470  1.2890  1.6507  3.3378
 8001SOL     OW35635   2.675   1.325   6.604 -0.0886  0.9372 -0.6555
 8001SOL    HW135636   2.614   1.274   6.657 -1.0056 -0.9430 -3.5124
 8001SOL    HW235637   2.697   1.394   6.666 -2.8435  1.4235 -0.2020
 8002SOL     OW35638   3.252   2.522  14.242  0.7957  0.5598  0.0720
 8002SOL    HW135639   3.205   2.545  14.323 -0.8560 -0.1271 -0.6846
 8002SOL    HW235640   3.217   2.434  14.227  1.4245  0.1184  1.1676
 8003SOL     OW35641   1.973   4.551   2.352  0.6192  0.4188  0.4486
 8003SOL    HW135642   1.901   4.605   2.383  0.1526  0.5658 -0.9170
 8003SOL    HW235643   2.048   4.571   2.408  1.2254  0.0368 -0.2216
 8004SOL     OW35644   3.141   1.646  14.931 -0.2785  0.7041  0.0439
 8004SOL    HW135645   3.214   1.670  14.874 -0.4183  2.3979  0.5953
 8004SOL    HW235646   3.199   1.582  14.974 -0.8850 -1.4054 -2.2615
 8005SOL     OW35647   0.463   3.596   3.685 -0.0018 -0.1028  0.1956
 8005SOL    HW135648   0.544   3.641   3.710 -0.0148  0.1680 -0.2691
 8005SOL    HW235649   0.495   3.509   3.711 -0.2710 -0.8441 -1.9772
 8006SOL     OW35650   0.103   2.124   6.376 -0.2367  0.0211 -0.3884
 8006SOL    HW135651   0.028   2.072   6.403 -1.1167  0.9122 -1.1155
 8006SOL    HW235652   0.135   2.127   6.466 -0.3065 -0.5467 -0.3429
 8007SOL     OW35653   3.338   0.799   5.443  0.1809  0.1875 -0.4336
 8007SOL    HW135654   3.313   0.803   5.535 -0.0730 -0.3287 -0.4769
 8007SOL    HW235655   3.378   0.712   5.445  2.0458  1.0289 -2.1411
 8008SOL     OW35656   2.745   0.410   5.353 -0.0278  0.2037 -0.0716
 8008SOL    HW135657   2.736   0.495   5.397  1.3964  0.4657 -0.3001
 8008SOL    HW235658   2.753   0.347   5.425 -1.8770 -0.3751 -0.3719
 8009SOL     OW35659   3.965   4.342   6.536 -0.6235  0.4974  0.3294
 8009SOL    HW135660   3.892   4.390   6.497 -1.6505 -2.2430 -1.1308
 8009SOL    HW235661   3.915   4.277   6.585  1.3578 -0.7787  0.6327
 8010SOL     OW35662   2.625   2.296  17.296  0.7542  0.1840 -1.0886
 8010SOL    HW135663   2.534   2.305  17.268  0.2241 -2.2439 -0.1761
 8010SOL    HW235664   2.650   2.382  17.330  0.1339 -0.7842  1.8366
 8011SOL     OW35665   3.940   2.248  14.430 -0.4745  0.4882 -0.1944
 8011SOL    HW135666   3.918   2.309  14.360 -0.6692 -0.6505 -1.1254
 8011SOL    HW235667   3.859   2.196  14.427  1.2482 -2.0020 -3.0429
 8012SOL     OW35668   0.429   3.240   8.164 -0.2067 -0.0317 -0.2861
 8012SOL    HW135669   0.409   3.198   8.081 -0.6584  0.3584 -0.3724
 8012SOL    HW235670   0.510   3.195   8.188  0.4189  0.7716 -0.9242
 8013SOL     OW35671   2.555   2.867   1.518 -0.1966 -0.0687  0.2375
 8013SOL    HW135672   2.627   2.805   1.516 -0.3585 -0.3318  2.3340
 8013SOL    HW235673   2.486   2.801   1.510 -0.2738  0.1357 -0.8027
 8014SOL     OW35674   0.019   1.814   8.899  0.4679 -0.1335  0.8983
 8014SOL    HW135675   0.034   1.814   8.805  0.0403  1.6811  0.8367
 8014SOL    HW235676   0.018   1.720   8.918 -0.0503 -0.4242 -0.6208
 8015SOL     OW35677   4.037   3.950   3.575  0.2405  0.0246 -0.0982
 8015SOL    HW135678   3.974   3.920   3.639  0.8689 -1.2616 -0.0707
 8015SOL    HW235679   4.111   3.957   3.635 -1.1391 -0.1998  1.6199
 8016SOL     OW35680   0.672   3.249   5.687 -0.1149  0.1282 -0.1212
 8016SOL    HW135681   0.642   3.277   5.601  0.3484  1.1699  0.0585
 8016SOL    HW235682   0.617   3.174   5.709  0.7662  0.3852  2.9684
 8017SOL     OW35683   0.226   0.490   5.800 -0.2733  0.2779  0.1803
 8017SOL    HW135684   0.252   0.533   5.719 -1.1976  0.7612  0.1340
 8017SOL    HW235685   0.140   0.451   5.783  0.5928 -1.8530  0.7924
 8018SOL     OW35686   0.765   4.594   4.907  0.2388 -0.2849  0.1559
 8018SOL    HW135687   0.678   4.634   4.907 -0.1773 -1.1947  0.6543
 8018SOL    HW235688   0.746   4.501   4.912  1.0684 -0.4422  0.3797
 8019SOL     OW35689   2.488   1.408   2.453  0.0389 -0.3925  0.0224
 8019SOL    HW135690   2.410   1.456   2.424  1.2295  1.3806 -0.1800
 8019SOL    HW235691   2.437   1.363   2.521  2.0978 -0.4334  1.5228
 8020SOL     OW35692   2.219   1.661   0.169  0.3398 -0.1235 -0.2875
 8020SOL    HW135693   2.262   1.729   0.117  1.8950 -0.4390  0.6010
 8020SOL    HW235694   2.235   1.585   0.113 -1.7209 -2.0502  1.7316
 8021SOL     OW35695   4.256   3.863   1.389 -0.0163 -0.1446 -0.1310
 8021SOL    HW135696   4.198   3.811   1.446 -0.7602  1.4865  0.5997
 8021SOL    HW235697   4.335   3.814   1.412 -0.2202 -0.0620  0.7438
 8022SOL     OW35698   1.856   3.864   7.240  0.7196 -0.1600  0.1913
 8022SOL    HW135699   1.940   3.850   7.196  0.4177 -2.5975  0.3852
 8022SOL    HW235700   1.806   3.910   7.172  1.0760  1.0240  0.7255
 8023SOL     OW35701   2.429   0.871   0.987  0.2741  0.3909  1.1430
 8023SOL    HW135702   2.482   0.917   0.921  0.2882 -1.7550 -0.3217
 8023SOL    HW235703   2.403   0.946   1.040  0.5192  1.4783 -0.2607
 8024SOL     OW35704   0.940   0.448  17.219  0.2912 -0.4910  0.3468
 8024SOL    HW135705   0.969   0.479  17.133  1.6669  0.7940  1.2512
 8024SOL    HW235706   0.991   0.368  17.227 -0.0218 -1.0430 -2.9094
 8025SOL     OW35707   4.206   0.405   8.292 -0.3336 -0.1171 -0.0743
 8025SOL    HW135708   4.271   0.389   8.360  1.0706 -0.7108 -1.5538
 8025SOL    HW235709   4.202   0.500   8.284  0.8532  0.0168  0.9492
 8026SOL     OW35710   1.141   3.635   4.159  0.0263 -0.4855  0.7941
 8026SOL    HW135711   1.071   3.577   4.128 -1.2479  1.4554  0.0012
 8026SOL    HW235712   1.197   3.632   4.081 -2.2954 -0.0978 -0.8974
 8027SOL     OW35713   1.231   4.388   8.096  0.0842  0.1125 -0.4555
 8027SOL    HW135714   1.186   4.325   8.153 -0.3957  1.2241  0.3808
 8027SOL    HW235715   1.292   4.428   8.157 -0.2807 -0.9154  0.5822
 8028SOL     OW35716   1.023   1.967   5.067  0.3743 -0.5576 -0.2829
 8028SOL    HW135717   1.108   1.933   5.038  0.4863 -0.5436  0.0241
 8028SOL    HW235718   1.029   1.947   5.160 -0.3882  4.8088  0.9060
 8029SOL     OW35719   1.657   4.322   2.497 -0.2248  0.2527  0.1759
 8029SOL    HW135720   1.624   4.412   2.493 -0.6051  0.1066  0.0250
 8029SOL    HW235721   1.751   4.339   2.490 -0.6415  2.7455  0.6914
 8030SOL     OW35722   4.231   4.209  12.181  0.4057  0.4760  0.3102
 8030SOL    HW135723   4.317   4.232  12.146  0.4895 -1.5687 -0.8473
 8030SOL    HW235724   4.192   4.179  12.099  1.0518  0.7574 -0.0949
 8031SOL     OW35725   3.480   1.156  14.111 -0.3699 -0.1988 -0.3623
 8031SOL    HW135726   3.457   1.089  14.047 -1.5030  0.1018 -0.2767
 8031SOL    HW235727   3.570   1.125  14.117  0.0487  0.6221 -2.3473
 8032SOL     OW35728   0.459   0.685   2.104  0.3051 -0.5932  0.7670
 8032SOL    HW135729   0.494   0.724   2.184 -1.5541  0.1491  1.2111
 8032SOL    HW235730   0.376   0.730   2.093  0.3813 -0.1374  2.0850
 8033SOL     OW35731   1.838   1.185  13.256  0.4415  0.0366  0.7326
 8033SOL    HW135732   1.850   1.262  13.313  1.0990  1.1037 -0.8303
 8033SOL    HW235733   1.928   1.164  13.232  0.5763 -0.9478  2.1216
 8034SOL     OW35734   2.799   2.527  17.133  0.2019 -0.3549 -0.3446
 8034SOL    HW135735   2.865   2.588  17.166 -0.8703  2.4636 -3.4824
 8034SOL    HW235736   2.721   2.555  17.181  1.4067  2.0269  0.1955
 8035SOL     OW35737   0.045   2.919   2.650  0.7327  0.5756 -0.0842
 8035SOL    HW135738   4.727   2.914   2.727 -1.6387 -1.2003 -1.9351
 8035SOL    HW235739   0.113   2.861   2.685 -0.8705 -0.2580  1.6153
 8036SOL     OW35740   1.283   2.947   3.780 -0.1640 -0.2786 -0.5730
 8036SOL    HW135741   1.326   2.862   3.779 -1.2736 -0.8377 -0.5817
 8036SOL    HW235742   1.311   2.970   3.691  1.8651  0.5496  0.2866
 8037SOL     OW35743   0.325   3.376   3.043  0.2395 -0.2922 -0.0711
 8037SOL    HW135744   0.239   3.416   3.032  0.5867  0.3520 -0.4202
 8037SOL    HW235745   0.380   3.453   3.050 -0.7840  0.5307 -1.0116
 8038SOL     OW35746   0.265   3.748   4.860  0.3878  0.0050  0.7476
 8038SOL    HW135747   0.280   3.680   4.793 -0.0141 -0.9433  1.6197
 8038SOL    HW235748   0.205   3.805   4.813  1.6549  0.4193 -0.3716
 8039SOL     OW35749   3.218   3.917   8.538  0.4865 -0.2782 -0.3721
 8039SOL    HW135750   3.161   3.936   8.463 -0.2794 -1.7747 -0.1779
 8039SOL    HW235751   3.161   3.878   8.604  1.4890  0.0972  0.7085
 8040SOL     OW35752   1.732   0.052   3.611  0.1405 -0.4788 -0.0009
 8040SOL    HW135753   1.695   4.702   3.608  1.3684 -1.0215  0.5311
 8040SOL    HW235754   1.822   0.030   3.587  0.3880 -0.5422  0.9833
 8041SOL     OW35755   2.553   4.061   6.871 -0.1309 -0.1942  0.9229
 8041SOL    HW135756   2.484   4.085   6.933 -0.9345 -0.5279  0.1480
 8041SOL    HW235757   2.553   4.147   6.829  1.1710  0.2070  1.7180
 8042SOL     OW35758   3.748   0.186   9.127  0.1041  0.3303 -0.2220
 8042SOL    HW135759   3.787   0.266   9.092 -0.7090 -0.5408 -3.0762
 8042SOL    HW235760   3.827   0.138   9.154 -0.2782  0.6250  1.4298
 8043SOL     OW35761   3.376   2.064   0.159 -0.2466 -0.4525  0.2546
 8043SOL    HW135762   3.427   1.989   0.189 -1.6115 -0.0986  3.4034
 8043SOL    HW235763   3.300   2.078   0.216 -0.8440  1.3771 -0.9925
 8044SOL     OW35764   4.687   1.544   6.797 -0.2162 -0.3010 -0.2363
 8044SOL    HW135765   0.043   1.529   6.790  0.1092  1.7128  0.0309
 8044SOL    HW235766   4.658   1.467   6.847 -0.7356 -0.1039 -0.2295
 8045SOL     OW35767   3.007   3.934   6.264 -0.3696  0.1727  0.6942
 8045SOL    HW135768   3.010   3.864   6.199 -1.2949  1.9951 -1.3391
 8045SOL    HW235769   2.976   4.008   6.211 -0.2651 -1.7367 -2.0609
 8046SOL     OW35770   0.648   0.417   1.760 -0.0503 -0.5026 -0.2852
 8046SOL    HW135771   0.639   0.384   1.849  3.8125 -0.2378  0.1835
 8046SOL    HW235772   0.563   0.383   1.731 -0.8787  1.6827 -0.4769
 8047SOL     OW35773   3.986   2.062   6.213  0.1866 -0.1441  0.3590
 8047SOL    HW135774   4.050   2.032   6.277  1.5138  2.4133  0.2481
 8047SOL    HW235775   3.911   2.088   6.266  0.6848 -1.4390  1.6823
 8048SOL     OW35776   1.235   0.781   3.852  0.2832  0.2002 -0.1527
 8048SOL    HW135777   1.147   0.743   3.860  0.5911 -0.4069  0.3360
 8048SOL    HW235778   1.217   0.824   3.768 -1.7709  0.1440  0.2427
 8049SOL     OW35779   4.213   1.578  16.842 -0.1593 -0.1459 -0.5125
 8049SOL    HW135780   4.179   1.510  16.901 -1.3345  0.0780 -0.9366
 8049SOL    HW235781   4.304   1.579  16.872 -0.2491 -1.2469 -0.1914
 8050SOL     OW35782   4.017   0.553   1.699 -0.3946 -0.0478 -0.0310
 8050SOL    HW135783   3.983   0.470   1.732  1.4656 -1.6974 -2.2749
 8050SOL    HW235784   3.940   0.610   1.708  1.0845  1.9691 -0.1031
 8051SOL     OW35785   4.309   1.408   1.648  0.0838 -0.3286  0.6516
 8051SOL    HW135786   4.359   1.327   1.642  0.9529  0.2699 -0.1143
 8051SOL    HW235787   4.241   1.391   1.714  1.4460 -1.1981  1.8471
 8052SOL     OW35788   2.715   0.074  14.184 -0.6661 -0.5281 -0.4017
 8052SOL    HW135789   2.674   0.151  14.223  1.5441  0.9466 -1.0148
 8052SOL    HW235790   2.639   0.040  14.137 -2.0892  1.5549  0.3784
 8053SOL     OW35791   1.689   0.151   7.487  0.3769 -0.0346  0.4263
 8053SOL    HW135792   1.762   0.212   7.488  1.4460 -1.2709 -0.9646
 8053SOL    HW235793   1.661   0.151   7.578 -0.1071 -0.5980  0.2791
 8054SOL     OW35794   3.294   0.390   4.782 -0.5010  0.6654 -0.2035
 8054SOL    HW135795   3.264   0.473   4.744 -2.7699  0.3560  0.9492
 8054SOL    HW235796   3.354   0.423   4.849 -1.4403 -1.1749  1.5100
 8055SOL     OW35797   3.518   2.049  17.227 -0.6548 -0.1934 -0.4694
 8055SOL    HW135798   3.552   2.133  17.259 -0.4293  0.7917 -3.3303
 8055SOL    HW235799   3.519   2.068  17.134  3.0086  0.8543 -0.2111
 8056SOL     OW35800   0.427   2.545   7.380  0.2463  0.0733 -0.4545
 8056SOL    HW135801   0.341   2.557   7.339  0.8232  1.4500 -1.2379
 8056SOL    HW235802   0.417   2.603   7.456 -2.3172 -0.4813 -0.3687
 8057SOL     OW35803   3.285   2.620   8.933 -0.0620  0.6614  0.5631
 8057SOL    HW135804   3.339   2.675   8.989  0.8579  2.4330 -2.0381
 8057SOL    HW235805   3.357   2.573   8.890 -0.0387  0.1515  1.1651
 8058SOL     OW35806   2.465   4.131   7.693  0.3764  0.0762 -0.3261
 8058SOL    HW135807   2.545   4.078   7.683  0.1300 -0.0399 -1.6016
 8058SOL    HW235808   2.499   4.221   7.693 -1.1733  0.6529 -0.3250
 8059SOL     OW35809   3.707   0.588  14.609  0.7013  0.0502  0.5726
 8059SOL    HW135810   3.793   0.577  14.568 -0.0176  1.1728 -1.1837
 8059SOL    HW235811   3.709   0.677  14.645 -0.6965  0.4505 -0.3750
 8060SOL     OW35812   1.155   2.207   1.282  0.0585 -0.1854 -0.7300
 8060SOL    HW135813   1.149   2.193   1.187 -2.9015  0.7460 -0.6715
 8060SOL    HW235814   1.080   2.264   1.299  1.4995  2.1180 -2.1198
 8061SOL     OW35815   2.786   2.165  15.239  0.1422  0.2413 -0.2662
 8061SOL    HW135816   2.848   2.199  15.302  0.9603  0.1403 -1.0166
 8061SOL    HW235817   2.818   2.075  15.232  0.8358  0.5191 -0.6534
 8062SOL     OW35818   1.145   2.693   6.186  0.3347 -0.1269 -0.3914
 8062SOL    HW135819   1.123   2.764   6.126  0.9848  1.0606  0.7955
 8062SOL    HW235820   1.223   2.728   6.227  1.4052 -0.2044 -2.3423
 8063SOL     OW35821   4.544   0.146   8.408 -0.7300 -0.5348 -0.2111
 8063SOL    HW135822   4.623   0.127   8.358 -0.0312  1.9851 -0.0763
 8063SOL    HW235823   4.545   0.068   8.464  2.2873  1.3957  2.4183
 8064SOL     OW35824   4.530   2.002   3.409  0.0698  0.4057 -0.0996
 8064SOL    HW135825   4.581   1.942   3.354  0.7028  0.4733  0.4067
 8064SOL    HW235826   4.506   2.080   3.359  0.6365  0.8715  0.3532
 8065SOL     OW35827   4.188   0.034   7.945  0.4414 -0.1206 -0.4148
 8065SOL    HW135828   4.212   0.048   8.036  0.1702 -0.9284 -0.2202
 8065SOL    HW235829   4.146   4.687   7.949 -0.7861  0.6059  2.4030
 8066SOL     OW35830   2.556   2.963   6.774  0.1762 -0.4284 -0.1902
 8066SOL    HW135831   2.615   3.009   6.833 -0.2524 -0.3491  0.1731
 8066SOL    HW235832   2.589   2.991   6.688 -2.0540  0.5126 -0.7267
 8067SOL     OW35833   1.425   4.261   7.082  0.2052  0.4985  0.1703
 8067SOL    HW135834   1.382   4.303   7.156 -2.0388 -0.6338 -0.4858
 8067SOL    HW235835   1.412   4.168   7.099 -4.2540  0.8899 -0.9378
 8068SOL     OW35836   3.527   2.656   5.162 -0.1127 -0.1352  0.0819
 8068SOL    HW135837   3.553   2.736   5.117 -0.1707  0.7489  1.6354
 8068SOL    HW235838   3.503   2.684   5.250 -1.2528  0.9059 -0.5685
 8069SOL     OW35839   1.932   0.166   8.580  0.0498 -0.0595  0.8183
 8069SOL    HW135840   2.026   0.184   8.588  0.0768  0.4668 -0.7226
 8069SOL    HW235841   1.895   0.252   8.567 -0.8097 -0.8475 -1.8670
 8070SOL     OW35842   2.318   1.799  13.032 -0.2144  0.3397 -0.0547
 8070SOL    HW135843   2.258   1.742  13.080 -0.0459 -0.3885 -0.7028
 8070SOL    HW235844   2.404   1.756  13.037 -0.8355 -1.0477 -1.4944
 8071SOL     OW35845   2.693   2.112   6.813 -0.4370 -0.0755  0.4419
 8071SOL    HW135846   2.725   2.025   6.837 -0.1625  0.5307  2.2451
 8071SOL    HW235847   2.600   2.089   6.819 -1.5062  3.8752 -1.1580
 8072SOL     OW35848   2.826   0.448   5.958 -0.6666 -0.2944  0.4279
 8072SOL    HW135849   2.740   0.411   5.941 -0.6145 -0.1426 -0.1851
 8072SOL    HW235850   2.828   0.472   6.050 -1.8848 -0.7208  0.5641
 8073SOL     OW35851   0.413   3.046   1.842  0.2213 -0.0579  0.1799
 8073SOL    HW135852   0.417   3.021   1.934 -1.0975  1.6854  0.7204
 8073SOL    HW235853   0.392   3.139   1.843 -0.0746 -0.1052 -1.1413
 8074SOL     OW35854   0.845   0.099   6.584  0.9237 -0.3491  0.1277
 8074SOL    HW135855   0.933   0.098   6.548  0.0345 -2.4659 -1.9724
 8074SOL    HW235856   0.862   0.056   6.668 -1.0368 -2.2176 -0.4243
 8075SOL     OW35857   0.792   4.578   1.046 -0.3343  0.2815  0.9060
 8075SOL    HW135858   0.781   4.546   0.957 -1.3283  0.2832  1.0259
 8075SOL    HW235859   0.745   4.661   1.050 -0.8141 -0.0268  1.7032
 8076SOL     OW35860   3.912   3.880  11.171 -0.0353 -0.5603 -0.0833
 8076SOL    HW135861   3.900   3.796  11.216 -0.9998  0.7300  2.0968
 8076SOL    HW235862   3.966   3.850  11.098 -1.0107  5.6884 -3.3660
 8077SOL     OW35863   1.622   4.582   6.352  0.6681  0.1555  0.0414
 8077SOL    HW135864   1.624   4.677   6.367 -2.0499  0.4291 -1.2983
 8077SOL    HW235865   1.575   4.564   6.271  1.9596  0.9117 -0.8664
 8078SOL     OW35866   0.403   4.668   6.506  0.8468  0.6629 -0.0169
 8078SOL    HW135867   0.364   0.015   6.523  1.5889  1.2863 -1.4547
 8078SOL    HW235868   0.480   4.701   6.460  0.8016 -2.2085 -2.1300
 8079SOL     OW35869   1.734   4.417   2.837 -0.0902 -0.7295 -0.1304
 8079SOL    HW135870   1.650   4.370   2.838 -1.0394  0.9635 -0.4448
 8079SOL    HW235871   1.729   4.446   2.746  0.5458  0.4457  0.2059
 8080SOL     OW35872   1.337   0.491   5.085 -1.2802 -0.0587  0.4871
 8080SOL    HW135873   1.410   0.432   5.067  0.8963  2.6263  0.5416
 8080SOL    HW235874   1.268   0.452   5.031  0.6822 -0.4646 -1.7450
 8081SOL     OW35875   2.262   1.449   6.543  0.1322  0.6426  0.3161
 8081SOL    HW135876   2.205   1.521   6.571 -0.3748 -0.3888  1.9796
 8081SOL    HW235877   2.199   1.378   6.531 -0.9176  1.3346  1.6417
 8082SOL     OW35878   1.742   1.779   9.790  0.0727  0.4356  0.5879
 8082SOL    HW135879   1.749   1.738   9.704  0.4755  0.5712  0.5559
 8082SOL    HW235880   1.824   1.748   9.828 -0.6542 -0.7362  1.2168
 8083SOL     OW35881   0.685   0.898  10.680 -0.2305 -0.0632 -0.5229
 8083SOL    HW135882   0.618   0.908  10.613 -1.0956 -1.4016  0.1492
 8083SOL    HW235883   0.731   0.982  10.677 -1.5437  0.7761  1.9434
 8084SOL     OW35884   1.118   1.402  15.391  0.1569  0.6689  0.2985
 8084SOL    HW135885   1.110   1.470  15.457  3.0462  2.4872 -1.2110
 8084SOL    HW235886   1.146   1.336  15.454 -0.6362  0.2550  0.2171
 8085SOL     OW35887   1.718   4.711   5.882 -0.1864  0.3147  0.1230
 8085SOL    HW135888   1.688   0.021   5.959 -0.0177  2.0509 -0.8819
 8085SOL    HW235889   1.792   4.672   5.929  0.0437  1.1014  0.4158
 8086SOL     OW35890   1.360   1.402   5.922  0.0030 -0.2361 -0.2921
 8086SOL    HW135891   1.288   1.457   5.953  0.2950 -0.0259  0.0169
 8086SOL    HW235892   1.434   1.462   5.933  0.1370 -1.0599  3.5968
 8087SOL     OW35893   0.636   3.721   0.758  0.5626 -0.3559  0.0914
 8087SOL    HW135894   0.545   3.738   0.782  0.4379 -0.4690 -0.3053
 8087SOL    HW235895   0.623   3.627   0.744 -0.8681 -0.1098 -0.1954
 8088SOL     OW35896   2.750   1.179   1.891 -0.1530  0.2703  0.3161
 8088SOL    HW135897   2.727   1.210   1.803 -0.9457  2.1942  1.2317
 8088SOL    HW235898   2.844   1.196   1.899 -0.2191  1.5208 -1.6436
 8089SOL     OW35899   2.824   0.001   3.848 -0.2565 -0.4211  0.0098
 8089SOL    HW135900   2.780   0.046   3.920  0.7881  0.4135  0.1358
 8089SOL    HW235901   2.868   4.681   3.910  1.0804 -0.8698 -1.3442
 8090SOL     OW35902   1.733   4.598   2.602 -0.8767  0.1854 -0.0022
 8090SOL    HW135903   1.649   4.619   2.562 -0.0801  0.0781 -1.7306
 8090SOL    HW235904   1.743   4.664   2.671  0.8678 -0.2702  0.1959
 8091SOL     OW35905   3.272   0.189   2.465 -0.3444  0.1263 -0.0198
 8091SOL    HW135906   3.203   0.186   2.531  0.8926 -0.5701  1.2229
 8091SOL    HW235907   3.248   0.267   2.416 -0.3439  1.1579  1.6403
 8092SOL     OW35908   0.931   1.526   2.050 -0.6048  0.0204 -0.1276
 8092SOL    HW135909   1.015   1.511   2.006 -0.5078  2.0509 -0.6481
 8092SOL    HW235910   0.894   1.585   1.985  1.0350  0.1102 -0.9904
 8093SOL     OW35911   2.513   4.692  14.540  0.4555  0.5140 -0.1451
 8093SOL    HW135912   2.524   4.640  14.460  0.9335  0.4466 -0.0354
 8093SOL    HW235913   2.461   0.025  14.502  0.3942  0.7547  0.3883
 8094SOL     OW35914   0.687   0.923  15.195  0.5408 -0.6516 -0.0605
 8094SOL    HW135915   0.701   1.006  15.150 -0.0423 -0.0441  0.9066
 8094SOL    HW235916   0.742   0.925  15.273 -1.0741 -4.3880  1.1528
 8095SOL     OW35917   2.521   4.347  12.647  0.2473  0.5947  0.5443
 8095SOL    HW135918   2.610   4.317  12.665  0.5244  1.4182  0.5586
 8095SOL    HW235919   2.545   4.398  12.569 -0.4707 -0.6177 -0.4709
 8096SOL     OW35920   1.381   2.467   8.953 -0.0137  0.0516 -0.1342
 8096SOL    HW135921   1.306   2.437   9.004 -0.1467 -0.0802 -0.4017
 8096SOL    HW235922   1.441   2.506   9.016  1.8041  1.4849 -2.7264
 8097SOL     OW35923   4.231   4.176   7.345 -0.4107 -0.4338 -0.5021
 8097SOL    HW135924   4.318   4.138   7.338 -0.6167 -0.4624 -2.8881
 8097SOL    HW235925   4.231   4.234   7.268 -1.9150 -0.3351 -0.4265
 8098SOL     OW35926   2.822   4.140   8.563  0.0307  0.2487 -0.5417
 8098SOL    HW135927   2.777   4.187   8.492 -1.4624 -2.0617 -1.1259
 8098SOL    HW235928   2.911   4.162   8.537  0.6610  0.0042  1.4225
 8099SOL     OW35929   2.998   2.077   2.369  0.3104 -0.3628 -0.0798
 8099SOL    HW135930   3.064   2.085   2.300  0.5370  0.6448  0.2472
 8099SOL    HW235931   3.050   2.059   2.447  1.4338  1.8638 -0.3163
 8100SOL     OW35932   3.154   1.052   4.256  0.5726  0.1683 -0.3154
 8100SOL    HW135933   3.239   1.033   4.216  0.6125 -0.5663  0.1265
 8100SOL    HW235934   3.174   1.117   4.323 -1.2512 -1.0124  1.3545
 8101SOL     OW35935   4.372   3.625   7.785 -0.3505 -0.0138 -0.4511
 8101SOL    HW135936   4.456   3.649   7.824 -0.6682  1.9391 -0.9947
 8101SOL    HW235937   4.383   3.647   7.693 -2.1410  0.7927 -0.4634
 8102SOL     OW35938   3.685   3.562  15.890 -0.2867  0.0261 -0.3245
 8102SOL    HW135939   3.676   3.530  15.980 -0.1316  2.2295  0.4643
 8102SOL    HW235940   3.770   3.605  15.896  0.0625 -1.0959  2.7039
 8103SOL     OW35941   3.971   0.851  14.531  0.4976  0.1011  0.0877
 8103SOL    HW135942   4.043   0.884  14.478 -0.9842  0.2519 -1.8435
 8103SOL    HW235943   4.024   0.818  14.604  1.6857  0.8595 -0.4331
 8104SOL     OW35944   0.051   0.935  10.683  0.1500 -0.0241 -0.2503
 8104SOL    HW135945   0.039   0.897  10.596  1.2506 -1.3488  0.1829
 8104SOL    HW235946   0.003   0.866  10.728 -2.1999 -0.5085 -3.5157
 8105SOL     OW35947   3.921   4.207   9.910 -0.3677 -0.3356  0.6855
 8105SOL    HW135948   3.942   4.166   9.826  0.0174 -0.0843  0.6553
 8105SOL    HW235949   3.844   4.162   9.943 -0.4420 -0.2877  0.5805
 8106SOL     OW35950   1.624   3.579  12.496  0.2551 -0.4612  0.2107
 8106SOL    HW135951   1.707   3.624  12.482  0.5018 -1.4533 -1.5733
 8106SOL    HW235952   1.646   3.538  12.579  0.1321  0.1045  0.5248
 8107SOL     OW35953   1.573   4.555  12.139 -0.4464 -0.5681  0.1454
 8107SOL    HW135954   1.516   4.625  12.171 -1.7881 -1.2877 -0.6676
 8107SOL    HW235955   1.504   4.511  12.090 -1.2605  1.9766 -0.9976
 8108SOL     OW35956   1.492   2.425  17.238 -0.5700 -0.1434  0.4725
 8108SOL    HW135957   1.425   2.362  17.212  0.5739 -0.2555 -2.2777
 8108SOL    HW235958   1.517   2.463  17.153 -0.6805 -2.4168 -0.5910
 8109SOL     OW35959   0.335   0.422   7.911  0.0073 -0.0200 -0.4893
 8109SOL    HW135960   0.309   0.348   7.856 -3.0843  0.2728  0.5774
 8109SOL    HW235961   0.382   0.379   7.983 -0.0954 -0.2126 -0.5388
 8110SOL     OW35962   3.116   1.699   7.434 -0.0087  0.4065 -0.2876
 8110SOL    HW135963   3.125   1.605   7.418 -2.7716  0.1491 -0.2726
 8110SOL    HW235964   3.142   1.732   7.348 -1.9047  0.3293 -0.8901
 8111SOL     OW35965   0.693   4.047   4.640  0.2493  0.4507 -0.1053
 8111SOL    HW135966   0.711   4.095   4.721  0.1153 -1.0697  0.8156
 8111SOL    HW235967   0.771   3.992   4.634  0.5167  0.5958  2.1152
 8112SOL     OW35968   0.487   1.903   7.135  0.1580  0.0490  0.0826
 8112SOL    HW135969   0.496   1.821   7.183 -3.0853  0.8509  2.1122
 8112SOL    HW235970   0.576   1.913   7.103  0.8719  0.0578  2.1001
 8113SOL     OW35971   4.580   1.323   1.860 -0.1407  0.2278 -0.1730
 8113SOL    HW135972   4.572   1.313   1.765 -0.9765 -1.1225  0.0285
 8113SOL    HW235973   4.559   1.231   1.878  3.1911 -0.2801  1.2307
 8114SOL     OW35974   3.262   3.776   2.796 -0.2029  0.5983 -0.1638
 8114SOL    HW135975   3.217   3.760   2.878 -0.7165 -0.2754 -0.6144
 8114SOL    HW235976   3.326   3.706   2.804  0.6522  1.3365 -0.5578
 8115SOL     OW35977   4.092   2.034   8.439 -0.4226  0.2743 -0.2972
 8115SOL    HW135978   4.090   2.128   8.419 -0.2694  0.8275  2.1904
 8115SOL    HW235979   4.090   1.993   8.353  1.5453  0.6620 -0.5171
 8116SOL     OW35980   1.448   3.474   7.988 -0.5428  0.2653  0.0027
 8116SOL    HW135981   1.383   3.446   8.052  0.7268 -0.4248  0.9799
 8116SOL    HW235982   1.433   3.403   7.924 -0.9962 -0.1613  0.5820
 8117SOL     OW35983   3.377   0.993   8.229 -0.0314 -0.1811 -0.0279
 8117SOL    HW135984   3.415   0.939   8.298  0.7134  0.8622  0.3803
 8117SOL    HW235985   3.406   0.944   8.151  0.1589  1.2301 -0.8390
 8118SOL     OW35986   2.748   0.175   2.094  0.2945 -0.4128  0.1080
 8118SOL    HW135987   2.689   0.102   2.113 -1.2315  0.1375 -2.4365
 8118SOL    HW235988   2.751   0.224   2.176  1.7117 -2.5455  1.3207
 8119SOL     OW35989   3.223   1.204   4.462 -0.0800  0.1834 -0.1101
 8119SOL    HW135990   3.165   1.153   4.520  0.2226 -1.0943 -0.9325
 8119SOL    HW235991   3.201   1.294   4.486 -0.0580 -0.4524  2.3210
 8120SOL     OW35992   0.695   3.426   3.012  0.3187  0.3377  0.2450
 8120SOL    HW135993   0.635   3.457   3.080  0.1902  0.3366  0.1311
 8120SOL    HW235994   0.666   3.482   2.940  1.5558  0.6443 -0.0189
 8121SOL     OW35995   1.744   1.627   2.296  0.2430 -0.5905 -0.1715
 8121SOL    HW135996   1.698   1.709   2.275 -1.3553 -1.4246  0.0565
 8121SOL    HW235997   1.704   1.564   2.236 -0.6373 -1.2402  1.0961
 8122SOL     OW35998   2.898   1.383   7.020  0.5184  0.0379  0.1393
 8122SOL    HW135999   2.843   1.461   7.012 -0.6809 -1.0360 -1.9250
 8122SOL    HW236000   2.859   1.345   7.099  0.3183 -2.7749 -1.3123
 8123SOL     OW36001   0.418   1.051  17.624 -0.1077  0.8620  0.2178
 8123SOL    HW136002   0.340   1.016  17.579 -1.2934  1.3894  1.8818
 8123SOL    HW236003   0.492   0.993  17.607 -2.9265 -2.6608  0.0460
 8124SOL     OW36004   4.064   1.331   5.561  0.0111  0.1524  0.2757
 8124SOL    HW136005   4.074   1.297   5.472 -0.2738  0.9637 -0.0606
 8124SOL    HW236006   3.985   1.281   5.581 -0.4431  0.6893 -0.1751
 8125SOL     OW36007   4.561   0.613   4.049 -0.1724 -0.6497 -0.3478
 8125SOL    HW136008   4.470   0.643   4.046  0.0731  0.1496  0.2339
 8125SOL    HW236009   4.589   0.636   3.960 -1.9672 -1.8521 -1.2115
 8126SOL     OW36010   1.015   2.531   5.002  0.3201  0.4529 -0.2194
 8126SOL    HW136011   1.071   2.453   5.002  0.0932  0.2756  2.2847
 8126SOL    HW236012   0.932   2.485   4.989 -1.3087  3.2098  0.5503
 8127SOL     OW36013   2.565   1.725  13.986  0.8655 -1.0336 -0.1894
 8127SOL    HW136014   2.513   1.796  14.025  0.8667  1.1438 -4.2202
 8127SOL    HW236015   2.504   1.663  13.946  0.3583 -0.2318 -0.6514
 8128SOL     OW36016   1.119   1.580   0.717 -0.3873 -0.3415  0.0491
 8128SOL    HW136017   1.115   1.556   0.624 -1.4979 -1.3664  0.3552
 8128SOL    HW236018   1.202   1.541   0.746 -0.5566 -0.8676 -0.1603
 8129SOL     OW36019   4.715   4.420   2.337  0.9349  0.4005 -0.0523
 8129SOL    HW136020   4.627   4.386   2.351  0.4519  1.3217 -0.8628
 8129SOL    HW236021   4.703   4.493   2.276  0.4751  1.2660  1.0617
 8130SOL     OW36022   1.820   2.395   1.889  0.3941 -0.7330  0.1207
 8130SOL    HW136023   1.812   2.490   1.895 -0.2818 -0.7029 -1.3251
 8130SOL    HW236024   1.829   2.382   1.795 -0.5401  0.5319 -0.1444
 8131SOL     OW36025   0.482   1.818   1.572  0.0850  0.2675  0.3294
 8131SOL    HW136026   0.517   1.888   1.627  0.1173  0.0911  0.5355
 8131SOL    HW236027   0.391   1.840   1.555 -0.3742 -0.3002  2.0520
 8132SOL     OW36028   3.648   2.707   8.215 -0.6403  0.2543  0.1575
 8132SOL    HW136029   3.605   2.630   8.252 -0.6920 -0.7756 -2.0426
 8132SOL    HW236030   3.637   2.767   8.289  0.5083  0.4163  0.2016
 8133SOL     OW36031   1.505   3.163   4.434  0.4569  0.4208 -0.2818
 8133SOL    HW136032   1.562   3.240   4.435  2.1856 -0.8702  0.7238
 8133SOL    HW236033   1.496   3.145   4.340 -0.3758 -0.5393 -0.0200
 8134SOL     OW36034   4.575   1.511   6.487  0.1716  0.3101  0.8423
 8134SOL    HW136035   4.602   1.594   6.526 -1.6612  0.5265  1.6755
 8134SOL    HW236036   4.646   1.462   6.528 -0.1808 -0.3752  0.6245
 8135SOL     OW36037   0.645   1.469   6.421  0.1036  0.8846 -0.3699
 8135SOL    HW136038   0.660   1.400   6.356 -0.2031  0.3018  0.1729
 8135SOL    HW236039   0.565   1.511   6.390 -1.5159 -2.2855 -0.5163
 8136SOL     OW36040   3.546   4.556   8.357  0.7640 -0.8807  0.5605
 8136SOL    HW136041   3.616   4.620   8.344 -0.4794  0.8040  2.2245
 8136SOL    HW236042   3.604   4.480   8.347  1.9415 -0.2227  2.4007
 8137SOL     OW36043   4.225   2.201  13.545  0.1640 -0.3821  0.1360
 8137SOL    HW136044   4.213   2.290  13.578  0.2797 -0.6004  0.7675
 8137SOL    HW236045   4.220   2.155  13.629 -3.1736  0.5339  0.4451
 8138SOL     OW36046   2.701   0.780   1.358  0.1604  0.4744 -0.0032
 8138SOL    HW136047   2.633   0.768   1.292 -0.9789 -2.8054  1.7419
 8138SOL    HW236048   2.690   0.708   1.420  1.3408 -1.0628 -1.5647
 8139SOL     OW36049   1.597   4.551   3.533 -0.1552  0.1355 -0.2204
 8139SOL    HW136050   1.534   4.602   3.483  1.5002  3.3799  0.9552
 8139SOL    HW236051   1.660   4.516   3.470  1.7513  1.4158  0.9419
 8140SOL     OW36052   0.049   2.101  12.138  0.4878 -0.1913 -0.0328
 8140SOL    HW136053   0.121   2.044  12.166  0.5039 -0.2424 -0.1782
 8140SOL    HW236054   0.057   2.186  12.181 -1.2266  0.2905 -0.6494
 8141SOL     OW36055   4.337   1.115   3.438  0.3020 -0.3497 -0.4032
 8141SOL    HW136056   4.257   1.145   3.394  0.1817  0.9054  0.6545
 8141SOL    HW236057   4.399   1.158   3.379  0.1131  0.9341  0.3363
 8142SOL     OW36058   3.105   0.552   1.374 -0.2292  0.1276 -0.1596
 8142SOL    HW136059   3.083   0.485   1.439 -0.0031  0.0794 -0.1301
 8142SOL    HW236060   3.052   0.627   1.401  0.8808  1.2454 -1.1136
 8143SOL     OW36061   1.958   3.266   6.929  0.2358 -0.2472  0.6594
 8143SOL    HW136062   1.949   3.192   6.869 -1.3074  0.9531 -0.6019
 8143SOL    HW236063   1.884   3.252   6.989 -1.1264  0.2564 -0.9047
 8144SOL     OW36064   3.307   0.541   4.093 -0.5983  0.2733  0.0993
 8144SOL    HW136065   3.226   0.563   4.140 -2.4766 -0.0995 -2.9392
 8144SOL    HW236066   3.362   0.591   4.153 -0.7070  0.3680  0.1211
 8145SOL     OW36067   3.138   3.690   9.693  0.3672  0.1280 -0.1243
 8145SOL    HW136068   3.229   3.662   9.684  0.2745 -0.1639 -0.1866
 8145SOL    HW236069   3.110   3.628   9.761  0.8504  1.6031  1.4146
 8146SOL     OW36070   4.238   2.790  14.531 -0.2289 -0.5046  0.0730
 8146SOL    HW136071   4.221   2.841  14.452  1.1745 -0.4459 -0.1939
 8146SOL    HW236072   4.228   2.699  14.502  2.2814 -0.3070 -1.3800
 8147SOL     OW36073   2.236   3.976   5.369  0.4038  0.3166 -0.5160
 8147SOL    HW136074   2.233   4.064   5.333  0.7383  0.9422  0.9598
 8147SOL    HW236075   2.313   3.973   5.426  1.8128 -0.3966 -2.4560
 8148SOL     OW36076   3.638   3.929   9.656  0.0537 -0.1095  0.7208
 8148SOL    HW136077   3.572   3.917   9.724 -0.7959  0.7055  0.0419
 8148SOL    HW236078   3.620   3.872   9.581  2.2627 -0.4759  0.4674
 8149SOL     OW36079   2.361   4.315  14.325  0.1939 -0.5272  0.6009
 8149SOL    HW136080   2.310   4.284  14.251  0.3670  1.2468 -0.2601
 8149SOL    HW236081   2.299   4.375  14.365 -1.5081  0.0641 -2.9583
 8150SOL     OW36082   0.507   2.296   7.283 -0.1942  0.2258  0.0348
 8150SOL    HW136083   0.458   2.378   7.283  1.3956  1.1693  1.1758
 8150SOL    HW236084   0.494   2.243   7.205 -1.3940  0.2862  0.1901
 8151SOL     OW36085   2.981   3.001   6.267 -0.0771 -0.8155  0.1867
 8151SOL    HW136086   3.002   2.908   6.273  0.2198 -0.8132 -0.8079
 8151SOL    HW236087   2.945   3.007   6.179 -0.9394  1.3289  0.6836
 8152SOL     OW36088   1.944   1.319   8.792 -0.0686  0.0081  0.2237
 8152SOL    HW136089   1.965   1.358   8.707  0.2598 -0.2994  0.1656
 8152SOL    HW236090   1.997   1.240   8.795  0.5525  0.4369  0.6590
 8153SOL     OW36091   0.180   0.768   7.517 -0.5504  0.1326 -0.3595
 8153SOL    HW136092   0.098   0.742   7.559  0.1457  0.0635  0.9934
 8153SOL    HW236093   0.213   0.824   7.588  0.4692 -2.8080  1.4816
 8154SOL     OW36094   0.608   0.130   9.254 -0.9395  0.2612 -0.1533
 8154SOL    HW136095   0.670   0.107   9.323 -1.3835  0.7248  0.3918
 8154SOL    HW236096   0.533   0.111   9.309 -0.6826  0.0722  0.1283
 8155SOL     OW36097   0.191   2.591  15.408  0.6211 -0.4721  0.1383
 8155SOL    HW136098   0.162   2.502  15.390  0.4453 -0.0246 -1.8143
 8155SOL    HW236099   0.189   2.606  15.502 -1.5356  0.1208  0.0075
 8156SOL     OW36100   4.274   1.274   4.618  0.1102 -0.0787  0.7820
 8156SOL    HW136101   4.358   1.231   4.636 -0.1422 -1.3640 -1.1686
 8156SOL    HW236102   4.213   1.200   4.625 -1.2171  0.8615 -0.9789
 8157SOL     OW36103   4.272   3.302   9.725  0.2363 -0.4461 -0.4935
 8157SOL    HW136104   4.295   3.338   9.811 -1.8657 -1.7439  0.6235
 8157SOL    HW236105   4.183   3.337   9.712 -0.6005 -2.3991 -0.0337
 8158SOL     OW36106   2.690   4.379   6.760 -0.4451  0.2188  0.6460
 8158SOL    HW136107   2.781   4.410   6.765 -0.1734 -0.9268  2.8401
 8158SOL    HW236108   2.675   4.392   6.667  1.3824 -2.1282  0.0141
 8159SOL     OW36109   2.550   3.205  10.573 -0.2779 -1.0474  0.2924
 8159SOL    HW136110   2.613   3.134  10.556  0.0521 -0.5206 -0.6809
 8159SOL    HW236111   2.533   3.183  10.664 -2.5943  2.0223  0.5991
 8160SOL     OW36112   0.194   1.567  10.340  0.3665 -0.1492  0.2487
 8160SOL    HW136113   0.176   1.588  10.432  2.0082  0.2078  0.5056
 8160SOL    HW236114   0.108   1.560  10.300  1.4637 -1.7744 -1.8319
 8161SOL     OW36115   1.206   4.561  17.243  0.0789  0.3081 -1.0091
 8161SOL    HW136116   1.259   4.514  17.307 -1.8907 -0.4012  0.1014
 8161SOL    HW236117   1.121   4.525  17.269 -1.2068  1.6862 -3.3135
 8162SOL     OW36118   1.333   0.383   3.233  0.4060  0.3207 -0.1709
 8162SOL    HW136119   1.368   0.339   3.311  2.9877 -0.4399 -1.7742
 8162SOL    HW236120   1.303   0.467   3.270 -1.9724 -0.3975 -0.4554
 8163SOL     OW36121   3.508   3.138   4.453 -0.4970 -0.0497 -0.1388
 8163SOL    HW136122   3.480   3.087   4.528 -0.7514 -1.4036 -1.1521
 8163SOL    HW236123   3.425   3.176   4.423 -0.9576 -1.4901 -0.6930
 8164SOL     OW36124   1.316   1.971  15.412  0.1880  0.0290  0.7596
 8164SOL    HW136125   1.240   1.987  15.469 -0.6458 -0.8263 -0.1123
 8164SOL    HW236126   1.373   2.043  15.439  0.2982  0.1969  0.0767
 8165SOL     OW36127   2.752   1.238   3.199 -0.1529 -0.3195 -0.2560
 8165SOL    HW136128   2.830   1.208   3.152  0.3567 -0.3691  0.6161
 8165SOL    HW236129   2.690   1.247   3.127  0.0638  1.9538 -0.1377
 8166SOL     OW36130   1.507   1.532   1.636 -0.0497  0.4486  0.2221
 8166SOL    HW136131   1.470   1.528   1.725  1.5604  0.2532  0.8752
 8166SOL    HW236132   1.430   1.495   1.593  1.2083 -0.2447 -1.4124
 8167SOL     OW36133   2.570   0.351   5.838  0.3484  0.0242  0.0221
 8167SOL    HW136134   2.559   0.280   5.901  2.2930  1.4998  1.9631
 8167SOL    HW236135   2.529   0.311   5.761  2.5488  1.6041 -1.9586
 8168SOL     OW36136   4.372   1.823   2.984  0.2054  0.3228  0.1285
 8168SOL    HW136137   4.381   1.766   3.060  1.3606  1.7404  1.0444
 8168SOL    HW236138   4.451   1.806   2.933  1.0468  0.4045  1.4216
 8169SOL     OW36139   3.431   3.028   2.456  0.2304  0.2036  0.6990
 8169SOL    HW136140   3.522   3.033   2.426 -0.5364  3.1789 -1.1186
 8169SOL    HW236141   3.394   3.093   2.395  3.6619  2.3234  0.9077
 8170SOL     OW36142   3.243   4.305  14.814 -0.5525 -0.0484 -0.1179
 8170SOL    HW136143   3.236   4.372  14.882 -0.8538  0.9708 -1.1388
 8170SOL    HW236144   3.158   4.261  14.817 -0.4899 -0.3427 -2.6176
 8171SOL     OW36145   0.005   3.882  12.039 -0.1507 -0.4204 -0.3125
 8171SOL    HW136146   4.716   3.878  11.947 -1.7385 -1.2552  0.2067
 8171SOL    HW236147   4.717   3.794  12.068 -1.6042  0.7182  1.7865
 8172SOL     OW36148   4.262   3.528   8.532 -0.1255 -0.8488  0.2929
 8172SOL    HW136149   4.288   3.552   8.621 -0.8296  2.5313 -0.3813
 8172SOL    HW236150   4.170   3.504   8.536 -0.3194  0.0350  1.1215
 8173SOL     OW36151   1.348   2.611   8.191  0.3318 -0.0264 -0.0673
 8173SOL    HW136152   1.409   2.679   8.221  1.8835 -1.1705 -0.6359
 8173SOL    HW236153   1.407   2.570   8.128  1.5937 -0.9089  1.6656
 8174SOL     OW36154   4.204   1.653   3.880  0.2004 -0.0121  0.1466
 8174SOL    HW136155   4.144   1.594   3.926 -1.6818  0.8677 -1.2416
 8174SOL    HW236156   4.161   1.738   3.879  0.3345  0.0533  0.0109
 8175SOL     OW36157   0.214   0.745  15.187  0.3743 -0.8507  0.1117
 8175SOL    HW136158   0.211   0.789  15.102 -2.2737  0.6773  0.9856
 8175SOL    HW236159   0.307   0.725  15.191  0.7093  1.0530  2.2277
 8176SOL     OW36160   4.015   1.941   5.375 -0.2729  0.1001  0.1063
 8176SOL    HW136161   3.975   1.855   5.388 -1.4995  0.1758 -3.1916
 8176SOL    HW236162   4.040   1.959   5.466  3.3436  0.0892 -0.8652
 8177SOL     OW36163   0.517   0.475   4.724  0.0413 -0.2277 -0.0624
 8177SOL    HW136164   0.493   0.505   4.812 -0.1622 -0.0189 -0.1872
 8177SOL    HW236165   0.496   0.554   4.675  0.1483 -0.4951 -0.5332
 8178SOL     OW36166   1.936   4.195   2.891  0.6840 -0.6480 -0.0812
 8178SOL    HW136167   2.022   4.237   2.887 -0.0709  0.5005 -4.1689
 8178SOL    HW236168   1.880   4.269   2.912  0.4307 -0.3755 -1.7820
 8179SOL     OW36169   3.699   2.897   5.486 -0.3130 -0.5456 -0.1273
 8179SOL    HW136170   3.752   2.856   5.554 -0.4990  3.0905  2.1474
 8179SOL    HW236171   3.752   2.875   5.409 -0.6954 -3.6943  0.4942
 8180SOL     OW36172   3.674   2.639   4.785  0.7765  0.2482  0.0142
 8180SOL    HW136173   3.652   2.709   4.847 -0.0546  0.3686 -0.4089
 8180SOL    HW236174   3.631   2.564   4.826  0.8867  0.6154  0.8075
 8181SOL     OW36175   3.323   4.634   8.200  0.1104 -0.2827 -0.2076
 8181SOL    HW136176   3.299   4.714   8.246  0.7778 -0.5563  0.6143
 8181SOL    HW236177   3.403   4.612   8.248 -0.0495  1.5002  0.8517
 8182SOL     OW36178   1.185   3.280   0.627 -0.3785 -0.6746 -0.5060
 8182SOL    HW136179   1.140   3.228   0.694  0.8721 -0.1890  0.7087
 8182SOL    HW236180   1.257   3.226   0.594 -0.2338 -1.0135  0.3619
 8183SOL     OW36181   3.633   4.662   2.157  0.7386  0.7010 -0.3937
 8183SOL    HW136182   3.561   4.627   2.105  0.3380 -0.0065  0.6575
 8183SOL    HW236183   3.589   4.731   2.207 -0.9142 -0.5932 -0.1050
 8184SOL     OW36184   2.174   2.048   4.394 -0.2487 -0.3002  0.4170
 8184SOL    HW136185   2.114   1.975   4.379 -0.8412  0.3030 -0.1696
 8184SOL    HW236186   2.254   1.996   4.390 -0.9944 -1.4640  0.4611
 8185SOL     OW36187   0.331   1.285  17.473 -0.3983  0.5412  0.4903
 8185SOL    HW136188   0.315   1.260  17.564 -3.8717 -0.5245 -0.4373
 8185SOL    HW236189   0.418   1.247  17.459 -0.6997  0.1837 -0.3911
 8186SOL     OW36190   1.859   3.393   1.918 -0.2794 -0.1956 -0.2543
 8186SOL    HW136191   1.953   3.378   1.908 -0.4387 -0.1009 -1.9951
 8186SOL    HW236192   1.845   3.478   1.876 -1.8549 -0.5900 -0.5068
 8187SOL     OW36193   1.845   1.620  13.261  0.0317 -0.2216 -0.0514
 8187SOL    HW136194   1.763   1.635  13.213 -0.3141 -2.0055 -0.0301
 8187SOL    HW236195   1.880   1.709  13.256 -0.5275  0.0676  1.0530
 8188SOL     OW36196   1.430   3.828   4.583 -0.7096 -0.1288  0.2266
 8188SOL    HW136197   1.478   3.756   4.625 -0.3353 -0.2232 -0.3683
 8188SOL    HW236198   1.474   3.847   4.500  2.2181 -3.2340  1.0736
 8189SOL     OW36199   0.491   0.649  15.098 -0.0876 -0.4629 -0.5344
 8189SOL    HW136200   0.528   0.700  15.171 -1.7247  0.8814 -0.6436
 8189SOL    HW236201   0.556   0.674  15.033  0.6511 -2.7986 -0.6891
 8190SOL     OW36202   0.251   0.075  16.913 -0.3226  0.0981 -0.7646
 8190SOL    HW136203   0.201   0.000  16.880 -0.7843 -0.0027  0.1651
 8190SOL    HW236204   0.245   0.054  17.006  0.3635  0.4598 -0.6348
 8191SOL     OW36205   3.902   0.344   1.800 -0.2251  0.1052 -0.5383
 8191SOL    HW136206   3.820   0.360   1.752 -0.1618  2.3147  0.0921
 8191SOL    HW236207   3.871   0.334   1.890 -0.4436 -0.5636 -0.6821
 8192SOL     OW36208   2.419   3.675   5.184 -0.1426 -0.6246 -0.4342
 8192SOL    HW136209   2.374   3.742   5.132 -2.2926 -1.3643  0.4885
 8192SOL    HW236210   2.410   3.592   5.138 -1.1582 -1.1845  0.7950
 8193SOL     OW36211   3.510   3.915  16.929 -0.0997 -0.1966 -0.9062
 8193SOL    HW136212   3.419   3.937  16.909 -0.4814  0.5609  1.6518
 8193SOL    HW236213   3.522   3.827  16.896 -0.7353 -0.4438 -0.4787
 8194SOL     OW36214   0.062   2.584   2.116 -0.0130 -0.3843  0.3353
 8194SOL    HW136215   0.150   2.620   2.113  0.0661 -0.6800 -0.6768
 8194SOL    HW236216   0.049   2.579   2.211 -0.2846  0.2109  0.3274
 8195SOL     OW36217   3.576   4.268  13.615  0.0427 -0.6546 -0.1295
 8195SOL    HW136218   3.669   4.249  13.602  0.3791 -0.0770  1.5157
 8195SOL    HW236219   3.580   4.323  13.693 -0.3586  0.1279 -0.6650
 8196SOL     OW36220   2.133   1.742  17.002  0.7391  0.4677  0.0790
 8196SOL    HW136221   2.133   1.772  16.911 -1.0080 -1.5409 -0.5747
 8196SOL    HW236222   2.227   1.743  17.018  0.4382 -0.5967  1.9985
 8197SOL     OW36223   3.123   2.459   6.177 -0.2177  0.0441 -0.4099
 8197SOL    HW136224   3.133   2.485   6.085 -0.7559  1.5108 -0.0527
 8197SOL    HW236225   3.204   2.489   6.217 -1.0623  0.8150  0.7236
 8198SOL     OW36226   1.288   2.158   3.778 -0.2100  0.0425  0.2630
 8198SOL    HW136227   1.275   2.144   3.684  2.6046 -0.5648 -0.0628
 8198SOL    HW236228   1.360   2.095   3.773 -1.2267 -1.2066  1.2615
 8199SOL     OW36229   4.674   4.444  10.753 -0.2615 -0.1953 -0.2740
 8199SOL    HW136230   4.594   4.496  10.762  0.2330  0.7992 -1.7857
 8199SOL    HW236231   4.636   4.358  10.774 -0.8632  0.2540  0.4942
 8200SOL     OW36232   0.991   1.267   9.764  0.4677 -0.5315  0.0800
 8200SOL    HW136233   0.938   1.226   9.696  0.4044  1.0202 -0.7962
 8200SOL    HW236234   1.022   1.184   9.800  0.9710 -0.5468 -0.3974
 8201SOL     OW36235   0.198   3.694  13.968  0.2151 -0.1408  0.0435
 8201SOL    HW136236   0.108   3.725  13.980  0.7478  1.5858 -0.3297
 8201SOL    HW236237   0.189   3.628  13.900 -1.4132  0.1545 -0.0278
 8202SOL     OW36238   4.248   2.400   6.616  0.2002 -0.1647  0.2024
 8202SOL    HW136239   4.253   2.493   6.594 -0.1523 -0.1451  0.2170
 8202SOL    HW236240   4.161   2.384   6.581  0.2238  2.1993 -0.9271
 8203SOL     OW36241   0.836   4.588  13.674  0.3142  0.5977  0.2682
 8203SOL    HW136242   0.894   4.663  13.690  0.5677  0.6594 -0.9132
 8203SOL    HW236243   0.784   4.585  13.753 -2.0333 -2.1069 -1.3900
 8204SOL     OW36244   1.712   0.800   4.248  0.6095 -0.1477  0.1054
 8204SOL    HW136245   1.768   0.761   4.181 -0.1242 -2.9066  1.0813
 8204SOL    HW236246   1.765   0.871   4.285 -0.4192  0.7802 -0.1917
 8205SOL     OW36247   4.663   3.295  13.476 -0.0588 -0.2244  0.3677
 8205SOL    HW136248   4.731   3.235  13.506 -1.0101  0.0328  3.0643
 8205SOL    HW236249   4.708   3.339  13.404  0.9534 -0.4705  0.8426
 8206SOL     OW36250   4.329   1.456   2.693  0.0045  0.2319  0.0361
 8206SOL    HW136251   4.262   1.523   2.691  0.1071  0.2932 -1.1001
 8206SOL    HW236252   4.413   1.502   2.704 -0.0777  0.1155  1.1310
 8207SOL     OW36253   3.154   1.272  11.861  0.1817  0.2636 -0.7530
 8207SOL    HW136254   3.170   1.267  11.955 -0.0426 -0.7958 -0.7786
 8207SOL    HW236255   3.231   1.327  11.844  1.2200 -0.5681  1.2867
 8208SOL     OW36256   3.640   2.281  16.235  0.4020  0.1128 -0.0424
 8208SOL    HW136257   3.685   2.352  16.279 -0.0304  0.4393 -0.1229
 8208SOL    HW236258   3.707   2.213  16.234  0.2667  0.0248 -2.6202
 8209SOL     OW36259   3.155   0.238   9.296  0.2652 -0.4493  0.4473
 8209SOL    HW136260   3.149   0.298   9.222  3.2962  0.4651  0.9623
 8209SOL    HW236261   3.088   0.273   9.355  0.0875  1.5202 -0.9330
 8210SOL     OW36262   4.431   0.895   8.121 -0.0559 -0.3531  0.6633
 8210SOL    HW136263   4.373   0.847   8.061  0.5940  0.5569 -0.6845
 8210SOL    HW236264   4.468   0.825   8.176  0.6448 -0.7885 -0.3607
 8211SOL     OW36265   2.817   4.265   9.914 -0.3349  0.3229 -0.6324
 8211SOL    HW136266   2.911   4.246   9.917 -0.9847 -2.3456  2.7008
 8211SOL    HW236267   2.776   4.181   9.894  2.1400 -1.0463  0.0693
 8212SOL     OW36268   1.470   1.736   6.453 -0.1857 -0.6471  0.0183
 8212SOL    HW136269   1.537   1.737   6.385 -0.1396  1.2670  0.0856
 8212SOL    HW236270   1.430   1.649   6.452  0.0948 -0.7705 -0.1794
 8213SOL     OW36271   0.701   0.109   3.077 -0.1669 -0.2535 -0.0297
 8213SOL    HW136272   0.787   0.140   3.047 -0.0341 -2.3910 -1.8653
 8213SOL    HW236273   0.727   0.035   3.133 -2.1027 -3.2444 -3.0994
 8214SOL     OW36274   1.648   1.723   3.840 -0.0322  0.3550  0.5270
 8214SOL    HW136275   1.614   1.800   3.794 -0.3774  0.2054  0.5320
 8214SOL    HW236276   1.600   1.736   3.923 -1.1394  1.7520 -0.3266
 8215SOL     OW36277   3.157   3.829   2.036 -0.2078  0.3046 -0.0606
 8215SOL    HW136278   3.157   3.735   2.018 -2.8923  0.1387  0.8815
 8215SOL    HW236279   3.120   3.835   2.124  0.2966  0.4113  0.1453
 8216SOL     OW36280   0.753   1.783   0.852  0.2544 -1.3678 -0.0913
 8216SOL    HW136281   0.820   1.804   0.787  0.7819 -1.6481  0.3636
 8216SOL    HW236282   0.772   1.845   0.923 -1.0704 -1.2416  0.1545
 8217SOL     OW36283   2.127   2.861   3.719 -0.4599  0.2856 -0.8604
 8217SOL    HW136284   2.208   2.909   3.731  0.1352 -0.6481 -1.1226
 8217SOL    HW236285   2.089   2.875   3.806 -0.8729 -1.7905 -0.6912
 8218SOL     OW36286   2.488   3.322   4.256  1.0097  0.1897  1.1842
 8218SOL    HW136287   2.511   3.257   4.323  2.0873 -0.7617 -0.1269
 8218SOL    HW236288   2.575   3.361   4.248  0.7351  0.1027 -2.2780
 8219SOL     OW36289   2.891   0.267   4.013  0.2292 -0.0760 -0.2338
 8219SOL    HW136290   2.943   0.243   3.937 -0.8299 -1.5956 -0.4745
 8219SOL    HW236291   2.819   0.300   3.960  1.0385  0.6174 -0.9075
 8220SOL     OW36292   1.281   1.349   5.291 -0.3475 -0.4086  0.3558
 8220SOL    HW136293   1.290   1.256   5.312  1.3623 -0.6784 -1.6144
 8220SOL    HW236294   1.367   1.391   5.285 -0.8465  1.0540  3.5629
 8221SOL     OW36295   3.622   1.115   0.334 -0.0425 -0.0170 -0.3885
 8221SOL    HW136296   3.531   1.086   0.325  0.1604 -0.6367 -0.4478
 8221SOL    HW236297   3.626   1.093   0.427  2.2678 -1.9724 -0.9727
 8222SOL     OW36298   1.503   1.891  11.727 -0.0430  0.1327  0.2480
 8222SOL    HW136299   1.576   1.937  11.768  0.2094  0.7015 -0.8341
 8222SOL    HW236300   1.487   1.952  11.654  1.1349 -2.0475 -1.8302
 8223SOL     OW36301   0.221   0.776   2.036  0.6281  0.1207 -0.0410
 8223SOL    HW136302   0.182   0.767   1.949  0.3977 -0.9454  0.1735
 8223SOL    HW236303   0.237   0.870   2.040 -0.6111  0.4476 -2.3185
 8224SOL     OW36304   1.070   1.145   4.632 -0.9175 -0.0497 -0.6219
 8224SOL    HW136305   1.107   1.234   4.629  0.2662 -0.5106  0.3066
 8224SOL    HW236306   1.097   1.116   4.719 -1.1119 -1.8173 -1.1447
 8225SOL     OW36307   0.157   4.541   4.053  0.2447  0.4426 -0.1529
 8225SOL    HW136308   0.203   4.615   4.092  2.6177 -0.3896 -1.3552
 8225SOL    HW236309   0.092   4.527   4.121  0.6871 -1.7565 -0.1860
 8226SOL     OW36310   4.426   3.565  15.554 -0.3187  0.5406  0.2474
 8226SOL    HW136311   4.482   3.640  15.575 -1.3867  1.3665  0.1550
 8226SOL    HW236312   4.462   3.541  15.469 -0.4297 -0.2015  0.4067
 8227SOL     OW36313   0.759   1.203   1.342  0.1303 -0.0098  0.1879
 8227SOL    HW136314   0.668   1.232   1.342  1.1908  3.3408 -1.0386
 8227SOL    HW236315   0.790   1.282   1.297 -0.1650 -0.6542 -1.1267
 8228SOL     OW36316   1.394   1.103   0.740 -0.6285 -0.4394  0.9444
 8228SOL    HW136317   1.346   1.176   0.702 -0.2549 -0.4723  0.4175
 8228SOL    HW236318   1.469   1.140   0.787 -1.0905  0.4199  0.9958
 8229SOL     OW36319   3.682   2.046   6.012 -0.0606 -0.5027 -0.0333
 8229SOL    HW136320   3.720   2.133   6.001  0.1841 -0.6830 -0.6092
 8229SOL    HW236321   3.746   2.000   6.068  0.5674  0.0363 -0.3163
 8230SOL     OW36322   3.722   0.398   2.002 -0.2094 -0.9034 -0.0249
 8230SOL    HW136323   3.668   0.466   1.962 -0.9438 -1.9620 -0.8496
 8230SOL    HW236324   3.677   0.386   2.085  0.5837 -0.7701  0.4296
 8231SOL     OW36325   2.295   4.217   5.226 -0.8280  0.4981  0.1535
 8231SOL    HW136326   2.247   4.293   5.257 -2.0151 -0.5469  0.8941
 8231SOL    HW236327   2.373   4.257   5.187 -0.0294 -0.4159  0.8005
 8232SOL     OW36328   2.855   0.362  13.128  0.3785 -0.1455 -0.5560
 8232SOL    HW136329   2.792   0.434  13.125 -0.1357 -0.5288  1.0847
 8232SOL    HW236330   2.862   0.361  13.224 -1.4581  0.2870 -0.4227
 8233SOL     OW36331   1.883   2.729   8.148  0.2690 -0.2035 -0.2966
 8233SOL    HW136332   1.845   2.775   8.073 -2.6589 -1.8835  0.1398
 8233SOL    HW236333   1.831   2.771   8.217 -1.2712 -2.0491 -0.3343
 8234SOL     OW36334   0.344   1.655   2.487  0.6050 -0.0334 -0.0545
 8234SOL    HW136335   0.402   1.711   2.436 -0.2383 -0.6670 -1.7112
 8234SOL    HW236336   0.345   1.576   2.433 -1.4625 -1.4017  1.8728
 8235SOL     OW36337   3.131   1.696   8.614 -0.2542 -0.2810  0.3861
 8235SOL    HW136338   3.122   1.785   8.647  1.6750 -0.7168  2.0261
 8235SOL    HW236339   3.038   1.682   8.597 -0.4916  0.8445  0.7074
 8236SOL     OW36340   1.536   3.352   2.943  0.3368 -0.1624  0.9165
 8236SOL    HW136341   1.605   3.358   2.877 -1.2279 -0.2510 -0.7368
 8236SOL    HW236342   1.484   3.280   2.906 -1.0536  1.1138  0.3934
 8237SOL     OW36343   4.408   3.846   7.105  0.0326  0.5455 -0.1006
 8237SOL    HW136344   4.314   3.830   7.096 -0.0379  0.3913  0.9466
 8237SOL    HW236345   4.431   3.827   7.014 -1.3069 -1.0475 -0.1118
 8238SOL     OW36346   2.759   2.671  15.116  0.2229  0.0011  0.3784
 8238SOL    HW136347   2.712   2.641  15.193 -1.3304 -0.2096 -0.6540
 8238SOL    HW236348   2.679   2.694  15.070  1.1165 -0.2271 -1.3218
 8239SOL     OW36349   2.831   2.766   6.739  0.0271 -0.1394  0.2051
 8239SOL    HW136350   2.832   2.685   6.687 -1.3040  1.0246 -1.6013
 8239SOL    HW236351   2.769   2.821   6.693  0.1779  0.1155  0.3069
 8240SOL     OW36352   0.324   2.455  13.125 -0.7625  0.0333  0.4845
 8240SOL    HW136353   0.407   2.482  13.086  0.0613 -1.3836  1.2166
 8240SOL    HW236354   0.349   2.370  13.162  0.6367 -0.3733 -1.4175
 8241SOL     OW36355   4.300   2.267   3.751 -0.6077  0.0030  0.2090
 8241SOL    HW136356   4.218   2.234   3.714  0.1431 -1.4144 -0.2203
 8241SOL    HW236357   4.356   2.189   3.746 -2.5203 -1.4082  0.9336
 8242SOL     OW36358   1.464   4.283   2.800  0.1552  0.4308 -0.3770
 8242SOL    HW136359   1.369   4.296   2.805  0.3233  2.5770 -2.7391
 8242SOL    HW236360   1.470   4.196   2.759  0.1708 -0.0714  0.7002
 8243SOL     OW36361   1.257   0.812  13.268 -0.1197 -0.5083  0.1309
 8243SOL    HW136362   1.290   0.806  13.178 -2.3687 -0.4700 -0.7023
 8243SOL    HW236363   1.289   0.726  13.294 -1.9747 -1.0285  0.7060
 8244SOL     OW36364   4.287   2.175   4.449 -0.1700  0.4210 -0.8030
 8244SOL    HW136365   4.214   2.139   4.398 -0.0576 -0.6712 -0.1876
 8244SOL    HW236366   4.358   2.122   4.413 -0.1144 -1.0006  1.4047
 8245SOL     OW36367   3.186   1.832  17.047 -0.1890  0.1589 -0.2530
 8245SOL    HW136368   3.138   1.760  17.005  1.8390 -1.5220  0.3493
 8245SOL    HW236369   3.129   1.832  17.124  1.6891  0.3651  1.1127
 8246SOL     OW36370   1.715   3.146  17.241  0.2044  0.2393 -0.0199
 8246SOL    HW136371   1.644   3.093  17.277  0.7742 -0.9400 -0.6359
 8246SOL    HW236372   1.790   3.146  17.300  0.1748  0.7971  0.0166
 8247SOL     OW36373   4.581   1.157   3.258  0.3955  0.1598 -0.2472
 8247SOL    HW136374   4.539   1.146   3.173 -1.9741 -1.9258  1.1890
 8247SOL    HW236375   4.576   1.071   3.299 -0.0241  1.2371  1.9637
 8248SOL     OW36376   2.551   0.237  14.361  0.5418  0.1022 -0.0436
 8248SOL    HW136377   2.609   0.300  14.403 -0.2492  1.9004 -1.6412
 8248SOL    HW236378   2.475   0.242  14.418 -0.2769  2.8717 -1.3773
 8249SOL     OW36379   3.162   4.040   3.027 -0.2528  0.1836  0.1381
 8249SOL    HW136380   3.141   3.947   3.018  3.4073 -0.4101 -2.4834
 8249SOL    HW236381   3.195   4.032   3.117  0.4173 -1.8073 -0.2892
 8250SOL     OW36382   0.558   4.160  13.225 -0.2002 -0.4973  0.1436
 8250SOL    HW136383   0.653   4.160  13.207 -0.5701 -0.8353 -1.7866
 8250SOL    HW236384   0.547   4.232  13.287 -0.0609 -0.4137  0.0720
 8251SOL     OW36385   3.749   3.764  13.846 -0.1590  0.0697 -0.1016
 8251SOL    HW136386   3.718   3.813  13.770  0.6937  2.6975  1.2726
 8251SOL    HW236387   3.835   3.799  13.865 -0.7667  0.8450  1.2136
 8252SOL     OW36388   3.918   2.652   6.631 -0.2474  0.2676  0.5528
 8252SOL    HW136389   3.858   2.684   6.564  0.8812  0.2156 -0.4675
 8252SOL    HW236390   3.874   2.577   6.671  0.5537 -0.5319 -0.0568
 8253SOL     OW36391   0.101   3.393   7.921  0.1983 -0.3324 -0.2417
 8253SOL    HW136392   0.112   3.420   8.013  0.1270 -3.2894  0.6402
 8253SOL    HW236393   0.193   3.370   7.909  0.6457 -1.3531  4.8960
 8254SOL     OW36394   3.742   2.384   3.223 -0.1765 -0.7136 -0.2260
 8254SOL    HW136395   3.652   2.403   3.197  0.1108  2.8906  1.4080
 8254SOL    HW236396   3.799   2.432   3.163  0.3936  0.7874  1.5138
 8255SOL     OW36397   2.723   1.336   1.623 -0.0808  0.1246  0.6247
 8255SOL    HW136398   2.628   1.344   1.610  0.1281  2.8210  0.6898
 8255SOL    HW236399   2.742   1.424   1.655  0.5695  0.1587  0.1501
 8256SOL     OW36400   1.786   4.218   9.469 -0.0592  0.3189 -0.0877
 8256SOL    HW136401   1.848   4.245   9.537  2.6610 -0.8458 -2.1457
 8256SOL    HW236402   1.810   4.126   9.455  1.6379  0.3280  2.6907
 8257SOL     OW36403   4.304   3.044  10.278 -0.4455 -0.0062 -0.3460
 8257SOL    HW136404   4.399   3.031  10.280 -0.8958 -2.8411  1.1108
 8257SOL    HW236405   4.286   3.092  10.358  0.1395 -0.8226  0.2776
 8258SOL     OW36406   2.615   3.427   4.545 -0.0525 -0.0055  0.0512
 8258SOL    HW136407   2.565   3.350   4.517 -1.2413  0.5527  0.6606
 8258SOL    HW236408   2.703   3.389   4.545 -0.8021 -1.7633  0.7461
 8259SOL     OW36409   4.707   0.622   9.579  0.1074  0.1042  0.0596
 8259SOL    HW136410   4.730   0.554   9.515  1.8201 -0.3012  1.1208
 8259SOL    HW236411   4.645   0.679   9.533 -0.4327 -1.2464 -0.8984
 8260SOL     OW36412   1.673   3.487   0.783  0.3917  0.3366  0.1065
 8260SOL    HW136413   1.681   3.427   0.857  1.0375 -0.1639 -0.3733
 8260SOL    HW236414   1.614   3.440   0.725  0.0385  1.6301 -0.5895
 8261SOL     OW36415   2.281   3.265   7.194 -0.4435  0.2374 -0.4299
 8261SOL    HW136416   2.322   3.288   7.278  1.5242 -1.0776 -1.0268
 8261SOL    HW236417   2.230   3.187   7.212  0.4711 -0.5217 -1.1144
 8262SOL     OW36418   4.043   2.881   6.001  0.1504  0.4915  0.0823
 8262SOL    HW136419   4.040   2.846   6.090  1.4617  1.8419  0.6555
 8262SOL    HW236420   4.138   2.891   5.998  0.4872 -2.9527 -1.4588
 8263SOL     OW36421   2.623   3.386  17.720  0.3222 -0.4970 -0.0507
 8263SOL    HW136422   2.629   3.292  17.740 -0.5887 -0.1748  1.8007
 8263SOL    HW236423   2.619   3.416   0.060  0.8721  0.0181 -0.1972
 8264SOL     OW36424   0.936   4.431   0.378 -0.2338 -0.4078 -0.1711
 8264SOL    HW136425   0.945   4.516   0.420  0.0987  0.1720 -1.4133
 8264SOL    HW236426   1.023   4.391   0.385 -0.5791 -1.3931 -1.4588
 8265SOL     OW36427   4.010   0.513   4.751  0.0055  0.5510 -0.2864
 8265SOL    HW136428   3.957   0.436   4.769 -0.4505  0.9017 -0.1352
 8265SOL    HW236429   4.027   0.534   4.843  0.2860 -2.2322  0.2819
 8266SOL     OW36430   3.775   1.791  14.905  0.1242 -0.8578  0.3135
 8266SOL    HW136431   3.771   1.880  14.871  0.2725 -0.6492  0.8367
 8266SOL    HW236432   3.717   1.793  14.981  0.4713 -1.6304  0.6023
 8267SOL     OW36433   3.743   3.994  12.699 -0.4620 -0.0696 -0.1965
 8267SOL    HW136434   3.823   4.036  12.731 -2.2423  1.5202  2.1345
 8267SOL    HW236435   3.769   3.984  12.608 -1.5055  0.2045 -0.5165
 8268SOL     OW36436   4.157   1.622  12.453  0.2315  0.3830 -0.5089
 8268SOL    HW136437   4.126   1.708  12.483 -0.3188  0.9904 -2.8591
 8268SOL    HW236438   4.152   1.627  12.358 -1.0528  1.3226 -0.3955
 8269SOL     OW36439   2.099   1.304   1.834  0.8885  0.4556  0.2285
 8269SOL    HW136440   2.121   1.396   1.852 -0.9174  1.1352 -1.0559
 8269SOL    HW236441   2.117   1.252   1.912  2.7099  0.1971 -0.3728
 8270SOL     OW36442   4.433   0.212  13.396  0.3326  0.0953  0.4147
 8270SOL    HW136443   4.454   0.226  13.488 -0.3561  2.7247  0.1946
 8270SOL    HW236444   4.447   0.300  13.361  0.2893 -0.4515 -0.9914
 8271SOL     OW36445   2.751   4.248   5.192 -0.3031  0.4794 -0.3360
 8271SOL    HW136446   2.661   4.275   5.212 -0.5903 -0.7429  0.0321
 8271SOL    HW236447   2.767   4.172   5.247  2.3728  0.5416 -1.0123
 8272SOL     OW36448   0.454   3.151  16.054  0.0072  0.3281  0.5308
 8272SOL    HW136449   0.435   3.174  15.963 -0.8732 -2.5482 -0.0327
 8272SOL    HW236450   0.364   3.148  16.086 -0.8815  1.2616 -1.8723
 8273SOL     OW36451   2.504   4.226  16.241 -0.1260  0.2652  0.0392
 8273SOL    HW136452   2.546   4.276  16.171  0.3221  0.0204  0.1390
 8273SOL    HW236453   2.434   4.291  16.251  0.3672  0.5864  1.3455
 8274SOL     OW36454   1.465   2.211  15.302 -0.6101  0.1563 -0.0537
 8274SOL    HW136455   1.376   2.196  15.271  0.0104  0.7205 -2.1647
 8274SOL    HW236456   1.461   2.307  15.309 -1.9783  0.1020 -0.0727
 8275SOL     OW36457   0.473   1.936  12.349 -0.2724  0.9365  0.0586
 8275SOL    HW136458   0.544   1.962  12.289 -1.1279  2.2594 -0.3773
 8275SOL    HW236459   0.517   1.913  12.431 -0.8374 -0.0265  0.0868
 8276SOL     OW36460   2.836   2.158   4.747 -0.0898 -0.0441  0.4888
 8276SOL    HW136461   2.866   2.245   4.772 -1.4779  0.7505 -0.5660
 8276SOL    HW236462   2.859   2.145   4.655 -1.3264 -0.2223  0.2099
 8277SOL     OW36463   4.707   4.373   8.721  0.1822 -0.1767 -0.0689
 8277SOL    HW136464   0.014   4.289   8.732  1.4653  0.7439  1.6598
 8277SOL    HW236465   4.655   4.385   8.800  1.2944  1.7264  0.3650
 8278SOL     OW36466   2.439   2.807   7.341  0.1272  0.2186  0.2524
 8278SOL    HW136467   2.491   2.841   7.268 -1.6001 -0.0510 -1.1016
 8278SOL    HW236468   2.500   2.747   7.384 -0.6920 -0.7238  0.0923
 8279SOL     OW36469   3.912   3.840   3.789  1.2181  0.1180  0.4485
 8279SOL    HW136470   3.884   3.750   3.770  0.2023  0.0388  2.3541
 8279SOL    HW236471   3.922   3.844   3.884 -0.6050 -0.3473  0.6622
 8280SOL     OW36472   3.070   4.436  10.509 -0.4918 -0.1199 -0.1995
 8280SOL    HW136473   3.099   4.516  10.464 -2.8248  2.3710  2.7212
 8280SOL    HW236474   3.138   4.371  10.493 -1.1024 -0.5633 -0.9547
 8281SOL     OW36475   2.039   3.044   8.742 -0.0464  0.0502  0.1295
 8281SOL    HW136476   2.059   2.952   8.755 -0.3243  0.2019  1.5667
 8281SOL    HW236477   2.027   3.080   8.830  1.7410 -1.2029  0.8851
 8282SOL     OW36478   4.579   1.287   4.404  0.6528  0.4882 -0.4228
 8282SOL    HW136479   4.525   1.268   4.480 -0.7834  1.1570 -1.2812
 8282SOL    HW236480   4.661   1.241   4.423  0.1714 -0.6740 -1.1575
 8283SOL     OW36481   2.133   1.148   3.941 -0.2845  0.4270  0.8580
 8283SOL    HW136482   2.102   1.221   3.995 -1.8668  0.2408  0.2190
 8283SOL    HW236483   2.206   1.185   3.893 -0.9184  0.8463  0.2141
 8284SOL     OW36484   1.365   1.994   2.727  0.2192 -0.9815  0.2927
 8284SOL    HW136485   1.432   1.928   2.745  1.0450  0.3657  2.2257
 8284SOL    HW236486   1.408   2.057   2.669  0.1783 -0.3185  0.9741
 8285SOL     OW36487   2.034   4.372   3.210 -0.1280 -0.2992 -0.7415
 8285SOL    HW136488   2.017   4.437   3.278 -1.9164 -1.1439 -0.3804
 8285SOL    HW236489   2.044   4.429   3.134 -0.7415  2.1850  1.0674
 8286SOL     OW36490   4.344   2.257   3.409 -0.2612  0.4163 -0.6925
 8286SOL    HW136491   4.322   2.346   3.381  0.5400  0.7384 -0.2951
 8286SOL    HW236492   4.439   2.261   3.424 -0.5330 -1.0554  1.2627
 8287SOL     OW36493   2.890   0.003   3.054 -0.1148 -0.0858  0.0348
 8287SOL    HW136494   2.814   4.718   3.106 -1.7699  0.4552 -2.1342
 8287SOL    HW236495   2.931   0.063   3.117 -1.9793  1.4638 -0.2257
 8288SOL     OW36496   3.290   0.201   7.743 -0.4312 -0.0084 -0.3260
 8288SOL    HW136497   3.320   0.149   7.818 -1.7254 -0.0767  0.1338
 8288SOL    HW236498   3.216   0.249   7.778 -0.2490  0.6405 -0.8288
 8289SOL     OW36499   2.936   4.171   6.161 -0.2321  0.0911 -0.5686
 8289SOL    HW136500   2.929   4.225   6.082 -1.0534 -2.7943 -2.4723
 8289SOL    HW236501   2.878   4.219   6.219 -0.2628  0.3734 -0.8303
 8290SOL     OW36502   2.756   3.037   9.577 -0.3282  0.4829 -0.2947
 8290SOL    HW136503   2.823   3.103   9.595 -1.9773  1.9936  0.3145
 8290SOL    HW236504   2.807   3.003   9.504 -0.9657  0.2535 -0.6394
 8291SOL     OW36505   3.705   1.818   5.864  0.6314 -0.2166 -0.5151
 8291SOL    HW136506   3.719   1.858   5.779 -0.0576  1.4910  0.1875
 8291SOL    HW236507   3.684   1.893   5.920  1.4988 -1.0183  0.8932
 8292SOL     OW36508   4.544   0.067   5.196  0.3859  0.4899  0.3904
 8292SOL    HW136509   4.618   0.110   5.154  0.8313 -1.0597 -0.4028
 8292SOL    HW236510   4.532   0.100   5.285 -0.0393 -1.0706  0.9188
 8293SOL     OW36511   0.450   1.189   3.353 -0.4034 -0.6054 -0.0749
 8293SOL    HW136512   0.457   1.275   3.312  0.2879 -0.2346  0.8186
 8293SOL    HW236513   0.401   1.144   3.284  0.3258 -1.1862 -0.2047
 8294SOL     OW36514   1.714   2.594   2.455 -0.4596  0.1607 -0.0398
 8294SOL    HW136515   1.698   2.681   2.420 -0.2708  0.7804  1.3903
 8294SOL    HW236516   1.791   2.616   2.507 -0.1562  1.2828 -0.9860
 8295SOL     OW36517   2.897   3.378   6.025 -0.2129  0.0080  0.1048
 8295SOL    HW136518   2.861   3.342   5.944 -0.8090  1.1062 -0.1155
 8295SOL    HW236519   2.982   3.334   6.024  1.1368  2.6336 -0.6762
 8296SOL     OW36520   3.929   3.835  13.605 -0.2292 -0.0113 -0.4178
 8296SOL    HW136521   4.012   3.806  13.567 -0.4660  2.2048 -2.6015
 8296SOL    HW236522   3.970   3.881  13.679 -1.2817  0.8865 -0.3895
 8297SOL     OW36523   3.876   4.192  17.355 -0.0720 -0.2668 -0.3866
 8297SOL    HW136524   3.935   4.232  17.418 -1.3744  2.8362 -1.1456
 8297SOL    HW236525   3.848   4.116  17.407 -1.5700 -0.9005 -2.0937
 8298SOL     OW36526   2.433   4.474  17.682 -0.0512 -0.2331 -0.0905
 8298SOL    HW136527   2.341   4.503  17.682  0.2179  0.6515 -1.6565
 8298SOL    HW236528   2.428   4.384  17.652  2.5831 -1.2667  2.6014
 8299SOL     OW36529   3.601   0.137  11.725  0.3392 -0.2058 -1.2309
 8299SOL    HW136530   3.625   0.100  11.640  0.2569  0.1009 -1.3863
 8299SOL    HW236531   3.516   0.096  11.737  1.1291 -1.7377 -0.8003
 8300SOL     OW36532   3.755   4.299  15.402 -0.3775 -0.6235 -0.0125
 8300SOL    HW136533   3.797   4.225  15.447 -0.7710 -0.8192  0.0336
 8300SOL    HW236534   3.708   4.249  15.335  0.5975 -1.7430  0.1316
 8301SOL     OW36535   1.185   0.854  13.659  0.1452  0.2181  0.5561
 8301SOL    HW136536   1.255   0.811  13.611 -1.8639 -0.0224 -2.1846
 8301SOL    HW236537   1.196   0.946  13.634  0.7925 -0.3258 -1.1854
 8302SOL     OW36538   0.475   1.431   2.946 -0.0729 -0.2700  0.2407
 8302SOL    HW136539   0.537   1.377   2.897  0.4725  1.7008 -1.2343
 8302SOL    HW236540   0.390   1.388   2.937  0.1203 -0.8038  0.9883
 8303SOL     OW36541   2.194   1.579   4.263  0.1542 -0.4908 -0.2706
 8303SOL    HW136542   2.262   1.639   4.234  0.0205 -0.5827 -0.7655
 8303SOL    HW236543   2.202   1.515   4.192 -1.3984  0.9105 -1.6963
 8304SOL     OW36544   0.045   2.637   1.612 -0.5173 -0.5042 -0.9388
 8304SOL    HW136545   0.103   2.627   1.536  0.6721 -2.1268  0.1862
 8304SOL    HW236546   0.111   2.657   1.678 -1.2448  0.1978 -0.4208
 8305SOL     OW36547   1.169   2.319   0.816 -0.5561  0.8072  0.7425
 8305SOL    HW136548   1.176   2.414   0.820  3.3200  0.5620 -0.2718
 8305SOL    HW236549   1.262   2.299   0.829 -0.4229  0.7573 -0.2735
 8306SOL     OW36550   3.651   4.642   6.272  0.2891 -0.5303 -0.7304
 8306SOL    HW136551   3.670   4.712   6.335  1.0525 -1.0862 -0.3323
 8306SOL    HW236552   3.572   4.677   6.232  1.3319 -0.0489 -2.3719
 8307SOL     OW36553   1.728   0.270  14.841 -0.2631  0.1586  0.2848
 8307SOL    HW136554   1.792   0.292  14.773 -0.9083  2.7445  0.5011
 8307SOL    HW236555   1.656   0.250  14.780 -0.8692 -0.9358  1.3610
 8308SOL     OW36556   3.926   0.296   6.649  0.0022 -0.2954 -0.0768
 8308SOL    HW136557   3.976   0.279   6.729 -0.2977 -1.8653 -0.2048
 8308SOL    HW236558   3.995   0.285   6.583  1.1424 -0.2297  1.1023
 8309SOL     OW36559   0.849   4.634   4.492 -0.7071 -0.4355 -0.5993
 8309SOL    HW136560   0.832   4.728   4.505  0.6590 -0.5661  2.0988
 8309SOL    HW236561   0.921   4.623   4.554  1.0672  2.5342 -2.0870
 8310SOL     OW36562   4.364   2.988   5.635  0.6553 -0.2872 -0.2673
 8310SOL    HW136563   4.379   3.042   5.713  0.1656 -3.0003  1.6991
 8310SOL    HW236564   4.444   2.936   5.636 -1.7810 -3.9895  1.1889
 8311SOL     OW36565   3.846   3.140   4.189 -0.7750  0.0526  0.5770
 8311SOL    HW136566   3.795   3.064   4.161  0.6159 -0.5575 -0.2981
 8311SOL    HW236567   3.935   3.109   4.169 -1.1180  0.4102 -1.5733
 8312SOL     OW36568   0.315   4.686   2.019 -0.2807 -0.5343  0.4184
 8312SOL    HW136569   0.314   0.042   2.037 -0.6483 -0.4783  0.1044
 8312SOL    HW236570   0.274   4.677   1.933 -1.7313  1.5407  0.8807
 8313SOL     OW36571   4.297   4.403  10.905 -0.1866  0.0502 -0.0105
 8313SOL    HW136572   4.261   4.423  10.991  0.1744  0.1853  0.1116
 8313SOL    HW236573   4.342   4.321  10.925 -1.2969 -1.3133 -3.0651
 8314SOL     OW36574   4.555   3.020   0.133  0.0779  0.3340 -0.4944
 8314SOL    HW136575   4.499   3.047   0.060  0.1977 -1.7678 -1.3769
 8314SOL    HW236576   4.621   2.967   0.088  1.6043 -0.6876  2.9825
 8315SOL     OW36577   4.142   4.695   7.525  0.0123  0.1986  0.3945
 8315SOL    HW136578   4.053   4.714   7.494 -0.3212  0.1614  1.3396
 8315SOL    HW236579   4.161   0.042   7.564  1.9297 -0.5211  1.0376
 8316SOL     OW36580   2.490   1.112   2.215 -0.0763 -0.3057  0.8607
 8316SOL    HW136581   2.422   1.177   2.200 -0.4696 -1.1535 -1.0913
 8316SOL    HW236582   2.506   1.081   2.125  1.0930  0.7334  0.7206
 8317SOL     OW36583   4.510   0.935   6.248  0.2385 -0.4247  0.0096
 8317SOL    HW136584   4.468   0.921   6.163 -0.0476 -1.3812  0.3102
 8317SOL    HW236585   4.599   0.958   6.220 -0.3478  0.4088 -1.1929
 8318SOL     OW36586   4.377   3.626   5.537  0.2488 -0.1474 -0.0426
 8318SOL    HW136587   4.386   3.558   5.605 -0.8059 -1.2585 -1.0082
 8318SOL    HW236588   4.439   3.598   5.469 -0.7726  0.1749 -1.1029
 8319SOL     OW36589   1.856   2.938   5.270 -0.4351  1.1322 -0.0236
 8319SOL    HW136590   1.816   2.970   5.190 -1.3844  0.2258  0.0762
 8319SOL    HW236591   1.867   2.846   5.245  3.3447  2.4159 -2.9949
 8320SOL     OW36592   1.639   0.444   5.961 -0.0480 -0.4372  0.1028
 8320SOL    HW136593   1.572   0.434   6.028  0.3060  1.9399  0.8224
 8320SOL    HW236594   1.676   0.527   5.990 -0.5507 -0.9107  2.0474
 8321SOL     OW36595   3.189   2.043   8.749 -0.1225 -0.3949  0.1337
 8321SOL    HW136596   3.196   2.084   8.835 -2.3293 -1.9024  1.0241
 8321SOL    HW236597   3.270   1.994   8.756  0.1488 -0.1950 -1.6510
 8322SOL     OW36598   4.340   2.752   8.662  0.2891 -0.1744 -0.3642
 8322SOL    HW136599   4.385   2.685   8.714  0.8070  0.7670  0.3975
 8322SOL    HW236600   4.393   2.830   8.675 -0.3882  0.3712 -0.8953
 8323SOL     OW36601   0.726   2.629   7.887 -0.1256 -0.0854  0.1612
 8323SOL    HW136602   0.821   2.633   7.882 -0.1334  0.6606  0.5729
 8323SOL    HW236603   0.708   2.574   7.963 -0.1342 -1.8096 -1.0975
 8324SOL     OW36604   3.800   1.806   9.309  0.1445  0.8260  0.0893
 8324SOL    HW136605   3.727   1.867   9.323 -0.9616 -0.8105  1.5617
 8324SOL    HW236606   3.837   1.803   9.398 -0.4555  0.0413  0.3195
 8325SOL     OW36607   3.442   4.358  10.687  0.3343 -0.4516  0.2307
 8325SOL    HW136608   3.536   4.353  10.701  0.3953  1.4980  0.5955
 8325SOL    HW236609   3.405   4.352  10.775 -0.5808  0.1796 -0.1035
 8326SOL     OW36610   3.024   3.249  14.575 -0.1002  0.1874  0.3626
 8326SOL    HW136611   3.020   3.153  14.576 -0.3113  0.2044  1.5707
 8326SOL    HW236612   3.035   3.270  14.482  1.4673  1.9417  0.9462
 8327SOL     OW36613   1.605   1.420   7.939 -0.4034 -0.3689 -1.0048
 8327SOL    HW136614   1.567   1.411   8.027 -0.1919  2.2414 -0.6414
 8327SOL    HW236615   1.594   1.327   7.922  0.7652 -0.5271 -0.8691
 8328SOL     OW36616   4.731   1.761   1.974  0.4317  0.3011 -0.0934
 8328SOL    HW136617   4.730   1.817   2.051 -0.0955  0.2037 -0.0325
 8328SOL    HW236618   0.087   1.764   1.954  0.3536  0.3483 -0.4539
 8329SOL     OW36619   4.645   1.014   7.050  0.0910  0.4263 -0.8131
 8329SOL    HW136620   4.614   1.099   7.081 -0.8973 -0.8377  1.6308
 8329SOL    HW236621   4.681   1.027   6.962  0.0899  0.3180 -0.8304
 8330SOL     OW36622   0.944   1.650  17.150 -0.2940 -0.2399  0.3301
 8330SOL    HW136623   0.978   1.738  17.163 -0.7153 -0.1139  0.5713
 8330SOL    HW236624   0.912   1.638  17.061 -0.7313  0.8407  0.3421
 8331SOL     OW36625   2.349   2.284   8.331  0.7414  0.7208  0.5492
 8331SOL    HW136626   2.306   2.368   8.343 -0.0180  0.2527  1.0593
 8331SOL    HW236627   2.281   2.221   8.353 -1.5241  2.4549 -1.4178
 8332SOL     OW36628   1.711   1.748  14.607 -0.1363  0.4076 -0.1704
 8332SOL    HW136629   1.787   1.798  14.576  1.3861 -1.7608  0.0326
 8332SOL    HW236630   1.681   1.711  14.524  0.3902  1.7256 -0.9523
 8333SOL     OW36631   4.132   3.452  11.683  0.1299  0.0005  0.2815
 8333SOL    HW136632   4.136   3.426  11.775  1.4507 -0.8585 -0.0214
 8333SOL    HW236633   4.182   3.533  11.681  1.4696 -0.8688 -2.1485
 8334SOL     OW36634   4.553   0.720   5.383 -0.5522  0.3882 -0.1352
 8334SOL    HW136635   4.637   0.735   5.426 -0.1091  0.8598 -1.1820
 8334SOL    HW236636   4.517   0.806   5.405  0.3195  0.2781  1.7774
 8335SOL     OW36637   2.282   4.651   9.663 -0.2973  0.2704 -0.8932
 8335SOL    HW136638   2.349   4.665   9.730 -1.5644 -0.4533  0.5340
 8335SOL    HW236639   2.232   4.574   9.691 -1.3690  0.0164 -3.4773
 8336SOL     OW36640   3.806   0.737   7.540  0.0323 -0.2222  0.0048
 8336SOL    HW136641   3.891   0.701   7.514  0.4017 -0.6125  1.7404
 8336SOL    HW236642   3.748   0.705   7.471  1.1307 -0.5449 -0.7653
 8337SOL     OW36643   4.194   1.568  13.118  0.8077  0.1161  0.5940
 8337SOL    HW136644   4.264   1.598  13.060 -1.6075  0.0992 -2.2868
 8337SOL    HW236645   4.244   1.593  13.196  0.6096  1.1328  0.4012
 8338SOL     OW36646   0.394   3.531   9.245  0.3579  0.6409 -0.3213
 8338SOL    HW136647   0.305   3.519   9.279 -0.8105  2.2377 -2.8113
 8338SOL    HW236648   0.377   3.547   9.152 -2.5101 -0.2849  0.0427
 8339SOL     OW36649   0.684   0.992  11.941 -0.0326 -0.1193  0.1322
 8339SOL    HW136650   0.688   0.899  11.963  2.0557 -0.1262 -0.2373
 8339SOL    HW236651   0.619   1.017  12.006 -0.4523 -0.6609 -0.0799
 8340SOL     OW36652   1.548   4.039   0.503  0.3199 -0.1822 -0.0491
 8340SOL    HW136653   1.632   4.077   0.526  0.7782 -0.7488 -0.7574
 8340SOL    HW236654   1.519   4.088   0.426  1.8442  0.1252 -0.4219
 8341SOL     OW36655   1.112   2.049   5.781 -0.1527 -0.2447  0.0353
 8341SOL    HW136656   1.100   2.023   5.873 -0.5291  0.0102  0.0604
 8341SOL    HW236657   1.097   2.144   5.779 -2.3050 -0.5565  0.7307
 8342SOL     OW36658   0.618   0.014   7.696 -0.0718 -0.5249  0.3527
 8342SOL    HW136659   0.530   4.736   7.729 -1.1956  0.1885 -2.2677
 8342SOL    HW236660   0.608   0.104   7.664 -1.1943 -1.2925 -1.4516
 8343SOL     OW36661   1.152   0.133   9.537 -0.0029  0.0551  0.1105
 8343SOL    HW136662   1.197   0.205   9.493 -1.2170 -0.8619 -2.6255
 8343SOL    HW236663   1.143   0.062   9.475 -0.9166  1.3318 -1.2177
 8344SOL     OW36664   1.629   2.171   6.824 -0.3163  0.6903 -0.2140
 8344SOL    HW136665   1.586   2.086   6.820  1.4129 -0.1818 -0.4463
 8344SOL    HW236666   1.691   2.169   6.751  2.0264 -0.4060  1.7787
 8345SOL     OW36667   0.533   2.299   6.887 -0.1164 -0.5348  0.1096
 8345SOL    HW136668   0.497   2.211   6.897 -0.3001 -0.4123  0.5234
 8345SOL    HW236669   0.597   2.305   6.959  0.0229 -1.5908  0.0739
 8346SOL     OW36670   0.801   1.319  10.389  0.6350  0.0391  0.4270
 8346SOL    HW136671   0.729   1.257  10.374  0.3423  0.7344 -1.0644
 8346SOL    HW236672   0.765   1.390  10.337 -0.9131 -1.6806 -0.8729
 8347SOL     OW36673   4.462   1.761   7.585  0.5224 -0.1865  0.1248
 8347SOL    HW136674   4.431   1.830   7.644  0.7983 -1.0639  1.2930
 8347SOL    HW236675   4.557   1.764   7.601  0.4467  0.8051  0.3650
 8348SOL     OW36676   1.396   2.428   8.475  0.1366  0.0689 -0.0653
 8348SOL    HW136677   1.478   2.386   8.501 -0.8143 -0.3818  2.1965
 8348SOL    HW236678   1.340   2.362   8.516 -2.2954  0.8971 -2.0134
 8349SOL     OW36679   4.270   4.699   8.469 -0.0492 -0.5430 -0.0171
 8349SOL    HW136680   4.233   4.622   8.424 -1.0115 -0.5484  0.7762
 8349SOL    HW236681   4.197   4.716   8.529 -0.3490  1.9535 -1.1252
 8350SOL     OW36682   2.811   0.086  14.706 -0.0721 -0.1862  0.5135
 8350SOL    HW136683   2.854   0.058  14.626 -0.8277  0.0605  0.0162
 8350SOL    HW236684   2.732   0.033  14.717  0.9977 -2.1758 -1.5154
 8351SOL     OW36685   0.906   1.657  10.164  0.3935  0.0913 -0.1481
 8351SOL    HW136686   0.828   1.608  10.189  0.3335  1.3243  2.0842
 8351SOL    HW236687   0.877   1.741  10.198 -0.6013 -0.0752 -0.5909
 8352SOL     OW36688   1.532   0.143   7.182 -0.5086  0.4098  0.4298
 8352SOL    HW136689   1.520   0.048   7.173 -0.3035  0.0087  4.5340
 8352SOL    HW236690   1.450   0.179   7.147 -0.5454 -1.1936 -1.1621
 8353SOL     OW36691   0.061   3.440   3.042 -0.1866  0.9062 -0.2040
 8353SOL    HW136692   4.724   3.382   3.057 -0.1194  1.0809  0.7624
 8353SOL    HW236693   0.027   3.471   2.958  0.3567  0.6620 -0.5135
 8354SOL     OW36694   1.477   4.729   4.390  0.2101  0.1996  0.0230
 8354SOL    HW136695   1.495   0.083   4.406  0.8225  0.2290 -0.8016
 8354SOL    HW236696   1.560   4.683   4.390  0.7453  1.1732  0.1832
 8355SOL     OW36697   2.697   0.784   5.329  0.6868  0.1750  1.0528
 8355SOL    HW136698   2.754   0.739   5.267 -0.5352  2.3897 -1.6785
 8355SOL    HW236699   2.695   0.867   5.283  2.1622 -1.1370 -1.3624
 8356SOL     OW36700   3.948   3.117   5.619  0.3559  0.1233  0.0498
 8356SOL    HW136701   3.892   3.076   5.685  1.1989  0.0448  0.7294
 8356SOL    HW236702   3.886   3.128   5.548 -0.3484 -0.3491  0.5963
 8357SOL     OW36703   3.356   4.174   8.934 -0.4576 -0.2183  0.0324
 8357SOL    HW136704   3.287   4.166   8.868 -0.5344  1.6646 -0.1179
 8357SOL    HW236705   3.308   4.159   9.015 -2.5439  2.4372 -0.7043
 8358SOL     OW36706   0.509   2.883   5.964 -0.3001 -0.1238  0.1833
 8358SOL    HW136707   0.500   2.976   5.985 -0.1974 -0.0533 -0.0767
 8358SOL    HW236708   0.425   2.843   5.988  1.9071 -4.3406  0.8216
 8359SOL     OW36709   3.388   0.877   0.661 -0.6678  0.3683 -0.7751
 8359SOL    HW136710   3.335   0.810   0.617 -0.1922 -0.1602 -0.5453
 8359SOL    HW236711   3.327   0.951   0.667  0.0156  0.7364  1.5394
 8360SOL     OW36712   1.962   1.702   0.282  0.3871 -0.2979  0.0646
 8360SOL    HW136713   2.019   1.688   0.206 -0.8680 -2.4163 -0.4829
 8360SOL    HW236714   2.021   1.733   0.350 -0.1976  1.7466 -0.3811
 8361SOL     OW36715   0.787   3.992  13.450 -0.5036  0.3701 -0.0294
 8361SOL    HW136716   0.816   4.006  13.360  2.3150  0.6234  0.9274
 8361SOL    HW236717   0.827   4.069  13.490  0.7650  0.6242 -1.8067
 8362SOL     OW36718   2.882   0.917  11.109 -0.2782 -0.7044 -0.2541
 8362SOL    HW136719   2.968   0.923  11.150  0.3321 -1.6879 -1.3846
 8362SOL    HW236720   2.868   1.011  11.097 -2.1972 -1.0421 -0.6957
 8363SOL     OW36721   2.778   3.990   7.044 -0.1565 -0.0822 -0.3911
 8363SOL    HW136722   2.729   4.018   7.121 -0.7959  0.2507 -0.9223
 8363SOL    HW236723   2.698   3.974   6.993 -0.7903 -1.7185  1.1195
 8364SOL     OW36724   4.537   1.326   8.282 -0.2820  0.1552  0.2060
 8364SOL    HW136725   4.529   1.422   8.281  0.3445  0.2013 -1.6726
 8364SOL    HW236726   4.551   1.313   8.375 -3.5733  0.1572  0.7081
 8365SOL     OW36727   0.011   4.148   1.029 -0.3418 -0.1905 -0.4190
 8365SOL    HW136728   4.733   4.198   1.109  0.4203  0.4609 -0.6743
 8365SOL    HW236729   4.687   4.077   1.049  0.8027 -1.4171 -1.2353
 8366SOL     OW36730   0.690   0.551   6.824 -0.1255  0.0536 -0.0337
 8366SOL    HW136731   0.754   0.487   6.854  0.9954  0.4626 -1.5570
 8366SOL    HW236732   0.741   0.606   6.764 -0.5531  0.0917 -0.3596
 8367SOL     OW36733   2.009   1.921  11.859 -0.2086  0.2264  0.0501
 8367SOL    HW136734   2.063   1.869  11.800 -0.2166  1.7705 -1.3146
 8367SOL    HW236735   2.049   1.905  11.944 -1.4191  0.1332  0.6117
 8368SOL     OW36736   4.685   1.552   0.666  0.3778  0.1076  0.1753
 8368SOL    HW136737   4.718   1.513   0.747 -0.2105  1.3332  1.0022
 8368SOL    HW236738   4.617   1.486   0.652  1.4236 -0.3720 -2.7438
 8369SOL     OW36739   4.199   2.802   5.722 -0.1708  0.0308  0.1446
 8369SOL    HW136740   4.245   2.886   5.718  1.1027 -0.7427 -1.5806
 8369SOL    HW236741   4.264   2.736   5.695  1.0328  1.0508  0.5393
 8370SOL     OW36742   2.400   4.353   4.437 -0.1394 -0.5628 -0.1209
 8370SOL    HW136743   2.378   4.261   4.452  1.8084 -1.1241 -0.6956
 8370SOL    HW236744   2.494   4.355   4.455 -0.2466  3.8464 -0.1687
 8371SOL     OW36745   3.814   2.962   5.802 -0.2684 -0.0907  0.0373
 8371SOL    HW136746   3.811   3.041   5.857 -1.7854 -1.9267  2.6093
 8371SOL    HW236747   3.721   2.942   5.809 -0.5008  0.8575 -0.2679
 8372SOL     OW36748   0.890   1.679   8.889  0.6108 -0.1844  0.1500
 8372SOL    HW136749   0.931   1.687   8.975  0.2517 -1.6620  0.4630
 8372SOL    HW236750   0.826   1.609   8.895  0.2276  0.0833 -0.9195
 8373SOL     OW36751   1.692   3.669   4.418  0.3852 -0.1103  0.3748
 8373SOL    HW136752   1.762   3.610   4.392  0.6826  0.4531 -0.0924
 8373SOL    HW236753   1.737   3.733   4.473  0.4565  0.1177  0.0505
 8374SOL     OW36754   2.400   2.279  16.195 -0.0479  0.4876 -0.0789
 8374SOL    HW136755   2.490   2.252  16.179 -0.6139 -0.6407 -1.3225
 8374SOL    HW236756   2.386   2.280  16.290 -2.5626  1.4901 -0.4468
 8375SOL     OW36757   4.187   1.358  12.563  0.2484  0.3544  0.7486
 8375SOL    HW136758   4.172   1.379  12.655 -0.1269  0.5394  0.6459
 8375SOL    HW236759   4.134   1.426  12.522  0.1348 -0.6287 -0.7106
 8376SOL     OW36760   4.081   1.850   4.260 -0.0008 -0.6310  0.9869
 8376SOL    HW136761   4.038   1.785   4.315  2.5691 -1.9596  1.4191
 8376SOL    HW236762   4.066   1.934   4.304  0.6962  1.4539 -2.7755
 8377SOL     OW36763   0.165   2.564  14.285 -0.0415 -0.5889 -0.0644
 8377SOL    HW136764   0.107   2.629  14.324  0.0349 -0.1050 -0.7493
 8377SOL    HW236765   0.130   2.558  14.196 -2.2176 -1.4738  0.8484
 8378SOL     OW36766   1.032   0.925  10.073  0.5314 -0.3137 -0.5436
 8378SOL    HW136767   1.064   0.848  10.119  0.2577  1.0285  1.8819
 8378SOL    HW236768   1.060   0.994  10.133  0.1038  0.2746 -1.0114
 8379SOL     OW36769   0.785   3.543   8.660 -0.0249 -0.3420 -0.1022
 8379SOL    HW136770   0.818   3.519   8.747 -0.6931  1.2515  0.6046
 8379SOL    HW236771   0.738   3.466   8.627  1.2581 -1.8750  1.6058
 8380SOL     OW36772   0.435   3.927   1.994  0.1659  0.3150  0.5776
 8380SOL    HW136773   0.387   3.961   1.918  1.0486 -1.2267 -0.6778
 8380SOL    HW236774   0.412   3.989   2.063 -1.0032  0.1552  0.3381
 8381SOL     OW36775   4.178   0.497   6.680  0.5364  0.2382  0.0817
 8381SOL    HW136776   4.174   0.420   6.624 -1.3261 -0.7510  1.5606
 8381SOL    HW236777   4.267   0.483   6.711  1.0289  0.0631 -1.4235
 8382SOL     OW36778   1.011   2.925   2.575  0.6221 -0.0985  0.1240
 8382SOL    HW136779   1.052   2.846   2.540  0.6465 -1.0024  2.1877
 8382SOL    HW236780   1.085   2.981   2.598  0.2215  0.0079  1.1345
 8383SOL     OW36781   2.876   1.992   5.952 -0.3262  0.3988 -0.0913
 8383SOL    HW136782   2.798   2.026   5.995 -1.2078 -2.6670  0.7573
 8383SOL    HW236783   2.840   1.931   5.888  0.3228  0.6087 -0.6590
 8384SOL     OW36784   0.860   2.522   0.850 -0.1153  0.3496  0.1888
 8384SOL    HW136785   0.955   2.525   0.839 -0.2790  0.9713 -1.1346
 8384SOL    HW236786   0.852   2.560   0.938 -1.9208 -0.9092  0.5716
 8385SOL     OW36787   0.876   3.313   0.780  0.6969 -0.3389 -0.1653
 8385SOL    HW136788   0.931   3.331   0.856 -0.6145  1.7334  0.2898
 8385SOL    HW236789   0.927   3.246   0.734 -0.7153 -1.8858  0.5168
 8386SOL     OW36790   3.722   0.800  10.598  0.6013  0.3638  0.4814
 8386SOL    HW136791   3.735   0.756  10.514 -2.1424  1.3143 -0.4449
 8386SOL    HW236792   3.628   0.785  10.614  0.1607  1.3535 -1.2104
 8387SOL     OW36793   0.447   1.433  15.633  0.3705 -0.5272 -0.3820
 8387SOL    HW136794   0.407   1.413  15.549 -0.2121 -0.0185 -0.2295
 8387SOL    HW236795   0.376   1.439  15.696 -1.6119 -1.4737 -2.5204
 8388SOL     OW36796   2.641   3.239  11.453  0.1489  0.0305 -0.4717
 8388SOL    HW136797   2.683   3.154  11.438 -0.2234 -0.3737  0.7662
 8388SOL    HW236798   2.579   3.203  11.517  0.0968 -1.5514 -1.4019
 8389SOL     OW36799   1.730   3.652   3.427  0.2176  0.1064  0.1341
 8389SOL    HW136800   1.682   3.734   3.441  0.9113  0.2773  1.4385
 8389SOL    HW236801   1.821   3.669   3.451  0.3407 -0.5655  0.1368
 8390SOL     OW36802   1.335   1.118   7.642  0.0079  0.0200 -0.0574
 8390SOL    HW136803   1.281   1.068   7.580 -0.1213 -1.4982  1.2576
 8390SOL    HW236804   1.260   1.157   7.687 -1.1633  1.3228 -3.1539
 8391SOL     OW36805   2.238   2.222   1.254  0.6803  0.0573  0.0993
 8391SOL    HW136806   2.183   2.144   1.246 -1.8037  1.7750  0.2700
 8391SOL    HW236807   2.265   2.241   1.164 -1.1605 -0.5975 -0.6002
 8392SOL     OW36808   1.711   3.486   5.869  0.7121 -0.3154 -0.2374
 8392SOL    HW136809   1.632   3.433   5.855  0.8481  0.1124 -2.6013
 8392SOL    HW236810   1.696   3.495   5.963  1.8297 -2.1519  0.1116
 8393SOL     OW36811   4.296   2.891   1.827 -0.0691 -0.8007  0.1746
 8393SOL    HW136812   4.246   2.832   1.883 -0.6963  0.1181  0.5926
 8393SOL    HW236813   4.313   2.958   1.893  2.5168 -0.5704 -0.7550
 8394SOL     OW36814   1.772   4.703   9.731  0.0379  0.2296  0.2452
 8394SOL    HW136815   1.678   4.709   9.747  0.0718  1.6670 -0.0397
 8394SOL    HW236816   1.813   0.027   9.792 -1.0516  0.6910  0.4940
 8395SOL     OW36817   3.820   0.471  12.068 -0.3550  0.0414 -0.2436
 8395SOL    HW136818   3.831   0.566  12.058  1.7557 -0.1243  0.5565
 8395SOL    HW236819   3.892   0.457  12.129  0.6614  0.5357 -1.3306
 8396SOL     OW36820   1.240   1.732   7.997  0.7614 -0.2736 -0.4116
 8396SOL    HW136821   1.216   1.668   7.930 -2.7613  0.0044  0.5697
 8396SOL    HW236822   1.263   1.809   7.945  0.9700  0.1930  0.3789
 8397SOL     OW36823   2.394   1.061   3.359  0.5244  0.5724 -0.3108
 8397SOL    HW136824   2.414   0.986   3.416 -0.5409 -0.9994 -2.0072
 8397SOL    HW236825   2.334   1.020   3.297 -1.9740  1.7328  1.3031
 8398SOL     OW36826   2.707   0.253   9.321  0.3386 -0.9327 -0.1050
 8398SOL    HW136827   2.743   0.317   9.260 -1.6090 -1.4353 -1.7720
 8398SOL    HW236828   2.631   0.217   9.276  1.0745 -0.1215 -1.9579
 8399SOL     OW36829   0.520   1.065  10.970  0.2034 -0.5654 -0.0580
 8399SOL    HW136830   0.603   1.021  10.951  0.6963 -0.0314  0.8681
 8399SOL    HW236831   0.466   0.986  10.967 -0.2118 -0.3116  0.7163
 8400SOL     OW36832   2.472   3.161   7.761  0.1550 -0.0553  0.0729
 8400SOL    HW136833   2.502   3.140   7.849 -0.1205  0.8645  0.3906
 8400SOL    HW236834   2.463   3.256   7.771  0.3923  0.1995 -2.0881
 8401SOL     OW36835   1.827   4.196  10.964 -0.3025  0.7568  0.1892
 8401SOL    HW136836   1.734   4.176  10.958  0.2104 -1.4695 -0.2444
 8401SOL    HW236837   1.848   4.173  10.874 -1.1803  0.0094  0.1718
 8402SOL     OW36838   2.203   0.025   4.701 -0.1014 -0.1330  0.3421
 8402SOL    HW136839   2.253   0.025   4.783  1.2610  2.5250 -0.5111
 8402SOL    HW236840   2.217   4.676   4.662  0.6089 -1.2735  3.1048
 8403SOL     OW36841   4.247   0.253  11.961  0.1658  0.2792 -1.0017
 8403SOL    HW136842   4.275   0.328  12.014  2.8146  0.6881 -2.9859
 8403SOL    HW236843   4.152   0.262  11.949 -0.1307 -1.7312 -0.2288
 8404SOL     OW36844   4.388   2.533  10.114  0.1387 -0.1394  0.4503
 8404SOL    HW136845   4.461   2.575  10.068  1.2079 -0.8734  1.4926
 8404SOL    HW236846   4.398   2.439  10.099  0.5996 -0.0999  0.5339
 8405SOL     OW36847   2.100   1.331   3.617 -0.2103 -0.1061  0.0683
 8405SOL    HW136848   2.170   1.266   3.622 -1.5200 -1.5671 -0.5267
 8405SOL    HW236849   2.060   1.298   3.537  0.9407  0.1007 -0.5926
 8406SOL     OW36850   0.722   4.583   9.410 -0.9514  0.1623  0.4163
 8406SOL    HW136851   0.772   4.531   9.473  2.0606 -1.2125 -3.1251
 8406SOL    HW236852   0.796   4.616   9.359  0.1063  0.2672  2.0092
 8407SOL     OW36853   3.442   1.689   5.291 -0.4332 -0.2640 -0.2968
 8407SOL    HW136854   3.436   1.593   5.283 -1.7468 -0.3419  1.3376
 8407SOL    HW236855   3.349   1.712   5.283 -0.8992 -2.3798 -1.0967
 8408SOL     OW36856   2.169   0.654   6.190  0.5908 -0.0248 -0.4975
 8408SOL    HW136857   2.249   0.600   6.191 -0.6388 -1.8149  1.0701
 8408SOL    HW236858   2.182   0.729   6.247 -2.7660  0.2469 -0.1225
 8409SOL     OW36859   1.246   0.761   5.031 -0.1017 -0.0543  0.0040
 8409SOL    HW136860   1.272   0.673   5.056 -0.8331 -0.6094 -1.2343
 8409SOL    HW236861   1.335   0.785   5.005  0.8819 -2.4627  1.1624
 8410SOL     OW36862   0.496   3.771   4.423 -0.4209 -0.2958  0.3515
 8410SOL    HW136863   0.490   3.746   4.331 -2.7962 -0.7040  0.6006
 8410SOL    HW236864   0.441   3.848   4.404 -0.1918 -0.1098  0.4442
 8411SOL     OW36865   3.359   0.956   4.096 -0.4987  0.2509  0.3662
 8411SOL    HW136866   3.348   1.011   4.018 -1.4000 -0.0387  0.2890
 8411SOL    HW236867   3.440   0.912   4.070  1.1471  1.9103  2.7112
 8412SOL     OW36868   2.158   1.323  17.170  0.0956  0.0046 -0.3776
 8412SOL    HW136869   2.097   1.322  17.244 -2.1540 -1.9922 -2.2541
 8412SOL    HW236870   2.107   1.369  17.103  1.3307  1.4238 -0.3258
 8413SOL     OW36871   2.004   1.839   3.934 -0.5594  0.0375  0.0386
 8413SOL    HW136872   2.034   1.840   3.844  0.3905 -0.8692  0.3481
 8413SOL    HW236873   2.089   1.822   3.975  1.1717  2.0209 -2.7679
 8414SOL     OW36874   0.709   0.605  13.578 -0.4766  0.5659  0.0925
 8414SOL    HW136875   0.787   0.660  13.585  0.0734 -0.0938 -0.7427
 8414SOL    HW236876   0.748   0.532  13.529 -1.9960 -0.9647  1.1434
 8415SOL     OW36877   3.762   2.151   6.356 -0.5570  0.1819 -0.5825
 8415SOL    HW136878   3.679   2.162   6.402  0.6109 -0.7485  1.6967
 8415SOL    HW236879   3.790   2.069   6.397 -0.6964 -0.8597 -2.5798
 8416SOL     OW36880   2.759   0.567  15.028  0.0921 -0.2456 -0.2018
 8416SOL    HW136881   2.779   0.658  15.007 -0.5102 -0.5810 -2.1984
 8416SOL    HW236882   2.664   0.568  15.015  0.2366 -2.6625 -1.5581
 8417SOL     OW36883   4.514   4.262  15.000 -0.2597 -0.8765 -0.1313
 8417SOL    HW136884   4.535   4.168  14.994  0.1383 -0.7141 -1.4646
 8417SOL    HW236885   4.424   4.270  14.967  0.4301 -1.1322 -2.1276
 8418SOL     OW36886   2.516   2.123  11.164 -0.3760  0.0858 -0.4338
 8418SOL    HW136887   2.535   2.160  11.078  0.8207 -0.5061 -0.4292
 8418SOL    HW236888   2.570   2.173  11.226 -1.3364  0.7680 -0.1488
 8419SOL     OW36889   4.154   1.428  13.435  0.4700 -0.6032 -0.1932
 8419SOL    HW136890   4.060   1.439  13.418  0.5330 -1.0652 -0.8309
 8419SOL    HW236891   4.193   1.514  13.418  1.3773 -1.2050 -1.2042
 8420SOL     OW36892   0.608   3.017  14.645 -0.4783 -0.3159 -0.1834
 8420SOL    HW136893   0.537   3.062  14.600  0.8826  2.8360  0.7976
 8420SOL    HW236894   0.630   2.948  14.582  0.9412 -0.1329  0.1042
 8421SOL     OW36895   4.336   4.443   4.055  0.2330  0.0074 -0.4611
 8421SOL    HW136896   4.291   4.523   4.030 -0.0943  0.3645  1.2247
 8421SOL    HW236897   4.427   4.472   4.060  0.3286 -0.2939 -0.4280
 8422SOL     OW36898   0.646   2.239   0.840 -0.7586 -0.3832  0.4849
 8422SOL    HW136899   0.551   2.246   0.846 -0.7905 -2.1759  2.0496
 8422SOL    HW236900   0.665   2.167   0.900  1.6655  0.2228  0.4592
 8423SOL     OW36901   1.959   0.151   3.829 -0.8931 -0.3083  0.3133
 8423SOL    HW136902   1.889   0.109   3.879  0.9737 -2.2484  1.2800
 8423SOL    HW236903   1.942   0.106   3.746 -1.9808  0.1267  0.2927
 8424SOL     OW36904   1.640   4.223   8.693  0.8689  0.0912 -0.1313
 8424SOL    HW136905   1.643   4.234   8.598 -1.7971  0.4821 -0.1737
 8424SOL    HW236906   1.729   4.222   8.726  0.0668  0.3587  2.0200
 8425SOL     OW36907   4.007   3.992   2.238 -0.0137 -0.1287  0.0201
 8425SOL    HW136908   3.916   4.009   2.213 -0.4591 -1.0870  1.0034
 8425SOL    HW236909   4.004   3.898   2.253 -2.2750  0.0378  0.5061
 8426SOL     OW36910   2.079   3.801  16.762 -0.0868  0.3116  0.2929
 8426SOL    HW136911   2.157   3.832  16.807 -0.1948  0.7872  0.1485
 8426SOL    HW236912   2.101   3.708  16.755  0.4551  0.6621 -2.6312
 8427SOL     OW36913   4.367   2.523   9.720  0.5595 -0.2354 -0.0379
 8427SOL    HW136914   4.271   2.529   9.719  0.5084 -1.0339 -0.8900
 8427SOL    HW236915   4.392   2.592   9.780 -1.6515 -0.4314  1.1391
 8428SOL     OW36916   1.754   1.791  11.931  0.0586  0.0626  0.4214
 8428SOL    HW136917   1.752   1.695  11.936  0.7928  0.0108 -0.2553
 8428SOL    HW236918   1.804   1.818  11.853 -0.5379 -1.4551 -0.4855
 8429SOL     OW36919   2.125   1.532   3.361 -0.2132 -0.3259  0.0493
 8429SOL    HW136920   2.196   1.471   3.343  0.4357  0.6066 -0.5015
 8429SOL    HW236921   2.178   1.605   3.392 -1.6874  0.0732  1.6058
 8430SOL     OW36922   4.325   4.635   4.934 -0.7644 -0.6661  0.4445
 8430SOL    HW136923   4.385   4.593   4.873 -2.0022 -1.8094 -0.0065
 8430SOL    HW236924   4.344   4.729   4.927  0.2308 -0.9416 -0.4227
 8431SOL     OW36925   3.579   3.338   7.509  0.5442 -0.0763  0.1624
 8431SOL    HW136926   3.604   3.264   7.565 -0.0978  0.5197  1.2196
 8431SOL    HW236927   3.633   3.326   7.430  0.8126  0.6408  0.2456
 8432SOL     OW36928   1.588   0.790   2.513  0.9389 -0.2265 -0.1225
 8432SOL    HW136929   1.540   0.708   2.497 -0.2199  0.0758  1.8008
 8432SOL    HW236930   1.558   0.843   2.439  1.0947 -1.9612 -1.4479
 8433SOL     OW36931   4.735   2.424  17.351  0.8131  0.5323 -0.2408
 8433SOL    HW136932   4.708   2.515  17.340  0.0333  0.3080 -0.2542
 8433SOL    HW236933   4.701   2.380  17.273 -0.2408  1.9865 -0.5948
 8434SOL     OW36934   2.061   3.101   5.314 -0.2575 -0.0734 -0.6915
 8434SOL    HW136935   2.145   3.074   5.276 -0.8019 -1.7287 -0.7206
 8434SOL    HW236936   1.998   3.038   5.280 -1.1491  0.1655  0.5134
 8435SOL     OW36937   2.006   3.399   9.153 -0.2892  0.5007 -0.0733
 8435SOL    HW136938   1.960   3.483   9.152  1.5517  1.4871 -1.6825
 8435SOL    HW236939   1.965   3.370   9.234  1.7806  1.1743  1.2043
 8436SOL     OW36940   3.731   2.369   5.509  0.0330  0.0624 -0.1380
 8436SOL    HW136941   3.771   2.372   5.423  0.7200 -2.5747  0.0637
 8436SOL    HW236942   3.641   2.387   5.481 -1.1472 -3.8338  1.0959
 8437SOL     OW36943   4.321   2.264   9.409 -0.1380  0.0383  0.0992
 8437SOL    HW136944   4.310   2.230   9.498 -0.0858 -0.3567 -0.0472
 8437SOL    HW236945   4.330   2.184   9.357 -1.6659  0.8600 -1.4267
 8438SOL     OW36946   0.752   2.810   7.007 -0.0738  0.3257 -0.0892
 8438SOL    HW136947   0.740   2.744   7.075  3.8657  0.4924  0.7414
 8438SOL    HW236948   0.844   2.805   6.981 -0.6568  0.6206 -2.1767
 8439SOL     OW36949   4.663   4.241   9.309 -0.3761 -0.1633  0.5594
 8439SOL    HW136950   4.695   4.167   9.257  2.3316  1.3698  0.0019
 8439SOL    HW236951   4.707   4.223   9.392  0.0760  0.8565  0.5452
 8440SOL     OW36952   3.842   2.435   8.934 -0.4706 -0.0365  0.1037
 8440SOL    HW136953   3.796   2.457   9.015  0.6521  0.1505  0.6918
 8440SOL    HW236954   3.925   2.481   8.942  0.2542 -1.8476  2.9427
 8441SOL     OW36955   3.951   0.241   7.245 -0.2513 -0.3223  0.6597
 8441SOL    HW136956   3.871   0.260   7.197  0.5996  2.0515  0.1944
 8441SOL    HW236957   3.947   0.293   7.325  4.2939 -0.0200  0.6936
 8442SOL     OW36958   3.589   0.104   5.860 -0.6006 -0.2244  0.0889
 8442SOL    HW136959   3.564   0.176   5.802  3.2781 -0.5823 -2.0551
 8442SOL    HW236960   3.564   0.148   5.941 -1.5079  0.8234 -0.7728
 8443SOL     OW36961   1.768   1.559   8.229 -0.4088  0.2922 -0.4149
 8443SOL    HW136962   1.683   1.518   8.213  0.7595 -2.8269  1.4648
 8443SOL    HW236963   1.800   1.514   8.307 -1.4401  1.2983  0.5911
 8444SOL     OW36964   1.511   1.835   1.917 -0.0474  0.2489 -0.2003
 8444SOL    HW136965   1.596   1.792   1.907 -0.0833  0.4469 -1.4138
 8444SOL    HW236966   1.540   1.915   1.961 -0.8658  1.9518 -2.7403
 8445SOL     OW36967   4.393   4.680   1.920  0.1372 -0.7268 -0.4370
 8445SOL    HW136968   4.379   4.595   1.962 -2.6642 -0.7965 -1.5194
 8445SOL    HW236969   4.326   4.723   1.973 -0.3426 -1.6942 -0.2452
 8446SOL     OW36970   4.514   0.799  16.411  0.2905 -0.1989 -0.5170
 8446SOL    HW136971   4.457   0.871  16.382  0.4327 -0.2910 -1.0098
 8446SOL    HW236972   4.584   0.834  16.467  0.4437 -1.6150  0.1832
 8447SOL     OW36973   4.002   1.282  17.195 -0.7400  0.1987 -0.1808
 8447SOL    HW136974   4.008   1.354  17.258  1.0139  1.0884 -1.3403
 8447SOL    HW236975   3.915   1.245  17.202 -1.6264  1.9592 -1.8374
 8448SOL     OW36976   3.298   3.785   4.939  0.2609  0.5461 -0.4654
 8448SOL    HW136977   3.308   3.743   5.024 -2.3553  2.3453  0.7292
 8448SOL    HW236978   3.243   3.863   4.952 -0.1379 -0.2375  2.4305
 8449SOL     OW36979   0.359   4.296  12.187  0.0471  0.1502  0.3946
 8449SOL    HW136980   0.305   4.280  12.110 -0.9260 -2.3873  1.6109
 8449SOL    HW236981   0.441   4.323  12.146 -1.1678  1.5162 -1.1318
 8450SOL     OW36982   3.787   0.226   1.214 -0.1710 -0.0882 -0.1646
 8450SOL    HW136983   3.724   0.214   1.143  0.0804 -1.3482 -0.1743
 8450SOL    HW236984   3.741   0.287   1.271  0.1242  0.9494 -1.0148
 8451SOL     OW36985   3.231   0.332   0.186  0.7732 -0.0839 -0.3205
 8451SOL    HW136986   3.232   0.330   0.090  0.7708  0.7754 -0.3444
 8451SOL    HW236987   3.208   0.244   0.213  0.4792  0.2141  0.3935
 8452SOL     OW36988   0.297   4.374   5.522  0.2243 -0.2271 -0.0510
 8452SOL    HW136989   0.283   4.385   5.428 -0.6082  1.1122  0.2355
 8452SOL    HW236990   0.219   4.323   5.545  1.3314 -2.5186 -1.3932
 8453SOL     OW36991   2.430   4.328   4.858  0.9497  0.4846 -0.3263
 8453SOL    HW136992   2.344   4.352   4.823 -0.1231  0.9868  2.6990
 8453SOL    HW236993   2.449   4.238   4.831 -0.7348 -0.0816  0.3884
 8454SOL     OW36994   2.276   1.584   1.342  0.4838  0.3108 -0.2420
 8454SOL    HW136995   2.320   1.499   1.341 -0.3610 -0.1313  0.2584
 8454SOL    HW236996   2.284   1.609   1.250 -0.4787  0.4488 -0.2911
 8455SOL     OW36997   3.300   1.159  15.902 -0.8796  0.2642  0.0092
 8455SOL    HW136998   3.296   1.210  15.820  0.6118  1.0687  0.4351
 8455SOL    HW236999   3.388   1.121  15.898 -1.4642 -1.1773  1.1531
 8456SOL     OW37000   3.813   2.206   3.948  0.3383  0.1882 -0.0068
 8456SOL    HW137001   3.747   2.180   3.884  0.0971 -0.7025  0.6002
 8456SOL    HW237002   3.879   2.235   3.885 -0.3347 -1.0172 -1.2791
 8457SOL     OW37003   2.367   2.830  15.083 -0.6547  0.1077  0.4323
 8457SOL    HW137004   2.427   2.770  15.040  1.8419  1.6569  1.7226
 8457SOL    HW237005   2.422   2.845  15.160 -1.7965  0.1099  1.2563
 8458SOL     OW37006   4.287   2.343  14.634  0.4107  0.2102 -0.1362
 8458SOL    HW137007   4.228   2.340  14.710  0.5919  0.4445  0.0136
 8458SOL    HW237008   4.263   2.263  14.587  2.4902  1.2195 -2.9115
 8459SOL     OW37009   4.551   1.967   7.250  0.2204  0.4639  0.9897
 8459SOL    HW137010   4.587   1.980   7.338  1.5075 -1.2392  0.7084
 8459SOL    HW237011   4.562   2.053   7.209  0.0666 -0.1566 -0.3362
 8460SOL     OW37012   3.967   3.758   5.295  0.2112 -0.4785 -0.2477
 8460SOL    HW137013   4.026   3.683   5.298  0.0580 -0.5491  0.9575
 8460SOL    HW237014   4.031   3.822   5.262 -1.4124  0.7745 -0.9938
 8461SOL     OW37015   3.674   0.400   1.607  0.2396 -0.1881 -0.3899
 8461SOL    HW137016   3.645   0.327   1.553 -0.7515 -1.6197  2.0942
 8461SOL    HW237017   3.584   0.428   1.628  0.8043  0.6655  0.8686
 8462SOL     OW37018   2.995   0.052  11.094 -0.3953  0.4639 -0.4166
 8462SOL    HW137019   2.940   0.092  11.027 -0.7120 -0.2894 -0.6055
 8462SOL    HW237020   2.967   0.092  11.177  0.7319  1.4260 -0.4945
 8463SOL     OW37021   2.527   4.618   9.825  0.2922  0.3970  0.2303
 8463SOL    HW137022   2.616   4.633   9.795  0.8244  0.2149  1.7510
 8463SOL    HW237023   2.529   4.646   9.916  0.0228 -1.1073  0.7073
 8464SOL     OW37024   2.217   4.509   9.980 -0.0055  0.0741  0.2379
 8464SOL    HW137025   2.187   4.484   9.892 -1.1168  0.1227  0.6057
 8464SOL    HW237026   2.302   4.465   9.986  0.8012  1.4607 -0.9872
 8465SOL     OW37027   0.898   3.844   3.386 -0.4187  0.2528 -0.0597
 8465SOL    HW137028   0.918   3.900   3.461  0.8766  0.8818 -0.8624
 8465SOL    HW237029   0.860   3.764   3.421  0.6372 -0.3060 -0.1838
 8466SOL     OW37030   2.355   4.620  10.256 -0.2549  0.3211 -0.2349
 8466SOL    HW137031   2.268   4.601  10.221 -0.0479 -0.8716 -0.1084
 8466SOL    HW237032   2.373   4.534  10.295 -1.3444  0.5503  0.7707
 8467SOL     OW37033   0.233   1.549   9.494 -0.5515  0.6882 -0.0780
 8467SOL    HW137034   0.277   1.573   9.413 -1.5598  2.2218 -0.1644
 8467SOL    HW237035   0.249   1.456   9.508 -0.6567  0.6929  0.0756
 8468SOL     OW37036   0.444   0.752  15.688 -0.3008 -0.4361  0.5477
 8468SOL    HW137037   0.519   0.731  15.633 -0.6944  2.2375 -1.0145
 8468SOL    HW237038   0.377   0.717  15.629 -2.3684  2.6721  0.9959
 8469SOL     OW37039   4.086   3.226   7.737 -0.0915  0.1399 -0.5178
 8469SOL    HW137040   4.099   3.320   7.751 -0.7025  0.0704  0.5761
 8469SOL    HW237041   4.002   3.222   7.784 -0.1505  1.7354 -0.4820
 8470SOL     OW37042   1.052   4.515   4.629  0.1297  0.2060  0.0524
 8470SOL    HW137043   1.121   4.548   4.571 -0.8274  1.5827 -0.3031
 8470SOL    HW237044   1.079   4.425   4.646  0.1585  0.4251  1.1577
 8471SOL     OW37045   4.299   0.108  13.155  0.1118 -0.0068 -0.1150
 8471SOL    HW137046   4.340   0.150  13.231 -1.1522  1.1699 -0.0778
 8471SOL    HW237047   4.376   0.071  13.111 -0.8775 -1.7530 -0.3868
 8472SOL     OW37048   3.039   0.165   5.208  0.4875  0.0397  0.3964
 8472SOL    HW137049   3.008   0.122   5.128  1.4586  0.4801 -0.2121
 8472SOL    HW237050   2.978   0.239   5.211  1.1410  0.4423  3.7043
 8473SOL     OW37051   3.036   1.115   6.643  0.4707 -0.2935 -0.0142
 8473SOL    HW137052   3.052   1.192   6.696  0.2748 -0.2110 -0.0753
 8473SOL    HW237053   3.085   1.045   6.687  1.4408  1.1958  1.2531
 8474SOL     OW37054   3.667   0.436   5.256  0.2830 -0.2150 -0.0813
 8474SOL    HW137055   3.644   0.468   5.344  0.4520  0.6195 -0.3432
 8474SOL    HW237056   3.702   0.348   5.264  1.9496  0.3947 -0.7719
 8475SOL     OW37057   3.672   3.592  13.163  0.2363 -0.4380 -0.1896
 8475SOL    HW137058   3.593   3.627  13.204 -0.3997 -2.7426  0.5473
 8475SOL    HW237059   3.732   3.634  13.224 -0.2140 -1.5177  1.0111
 8476SOL     OW37060   0.554   0.500   5.285  0.3985  0.2554 -0.3914
 8476SOL    HW137061   0.617   0.428   5.292  1.9998  1.6027 -1.2753
 8476SOL    HW237062   0.479   0.452   5.321  1.7218 -0.7500  0.9910
 8477SOL     OW37063   1.220   1.234   9.389  0.9981  0.1045 -0.2364
 8477SOL    HW137064   1.144   1.190   9.352  0.6607 -1.0235  1.8040
 8477SOL    HW237065   1.281   1.241   9.316 -1.0053 -0.0353 -1.9098
 8478SOL     OW37066   0.121   0.163  11.604  0.1111  0.5949  0.4388
 8478SOL    HW137067   0.089   0.101  11.670 -3.8446 -3.1594 -5.0316
 8478SOL    HW237068   0.058   0.234  11.613 -0.0172  0.4172  0.9862
 8479SOL     OW37069   4.105   4.497  12.035  0.0257 -0.8092 -0.5004
 8479SOL    HW137070   4.182   4.495  12.091 -0.9177  0.5160  0.8563
 8479SOL    HW237071   4.121   4.583  11.996 -2.6069 -0.1212 -0.1091
 8480SOL     OW37072   4.232   1.865   6.094 -0.7613  0.1482 -0.5749
 8480SOL    HW137073   4.147   1.827   6.115 -0.5526  0.3419  0.6061
 8480SOL    HW237074   4.268   1.868   6.182 -0.9731 -0.7717 -0.4562
 8481SOL     OW37075   0.051   4.566   5.576 -0.4972 -0.1495  0.3202
 8481SOL    HW137076   0.082   4.490   5.625 -1.0083 -0.3294  0.3676
 8481SOL    HW237077   0.059   4.640   5.636 -0.0106  1.9569 -2.3815
 8482SOL     OW37078   3.382   1.440   6.866  0.7384 -0.1125  0.0801
 8482SOL    HW137079   3.408   1.348   6.863  0.7305 -0.1153  0.0974
 8482SOL    HW237080   3.418   1.475   6.785 -1.9442  0.2396 -0.9580
 8483SOL     OW37081   4.442   1.046  16.310  0.0097  0.3541  0.3274
 8483SOL    HW137082   4.421   1.085  16.225 -0.8947  0.3185  0.5312
 8483SOL    HW237083   4.358   1.030  16.353 -0.4190  4.0017  0.8502
 8484SOL     OW37084   0.633   4.382   6.166  0.4729 -0.0869 -0.1120
 8484SOL    HW137085   0.698   4.387   6.237 -0.6764  1.7583  0.7899
 8484SOL    HW237086   0.640   4.467   6.123  0.5420  0.5651  1.1652
 8485SOL     OW37087   0.051   3.004  12.772  0.0319 -0.0995  0.2992
 8485SOL    HW137088   0.008   2.922  12.746 -0.3247  0.5042 -1.0179
 8485SOL    HW237089   4.730   3.077  12.756  3.1039  2.5579  1.3177
 8486SOL     OW37090   2.593   0.826   0.172 -0.2129 -0.4526  0.3108
 8486SOL    HW137091   2.573   0.837   0.266  2.7436  0.0661  0.8703
 8486SOL    HW237092   2.506   0.799   0.142 -1.1039  1.1897  1.3645
 8487SOL     OW37093   1.685   2.071  15.617 -0.2337  0.2832 -0.5442
 8487SOL    HW137094   1.707   2.101  15.529  4.0597 -1.0169  0.1023
 8487SOL    HW237095   1.677   1.975  15.613 -0.4725  0.2121  1.8389
 8488SOL     OW37096   0.890   4.233   8.039 -0.3592  0.1277 -0.3662
 8488SOL    HW137097   0.957   4.201   8.100 -1.3433 -0.7786  0.2337
 8488SOL    HW237098   0.932   4.223   7.953  0.6670 -4.6835  0.6442
 8489SOL     OW37099   3.131   1.520   1.016 -0.2194  0.0029 -0.2432
 8489SOL    HW137100   3.101   1.581   0.948 -2.8682 -1.0337 -0.0088
 8489SOL    HW237101   3.155   1.569   1.095 -0.0214 -2.6335  1.3013
 8490SOL     OW37102   3.377   4.236   2.196  0.1812 -0.1510 -0.2859
 8490SOL    HW137103   3.353   4.157   2.149 -0.4792 -0.7310  1.0359
 8490SOL    HW237104   3.400   4.283   2.115 -0.6701  0.9409  0.1004
 8491SOL     OW37105   0.396   2.614   5.251  0.2705  0.2173  0.7062
 8491SOL    HW137106   0.412   2.520   5.249 -0.3913  0.1224  0.0219
 8491SOL    HW237107   0.324   2.631   5.190 -0.6505 -1.6824  1.2686
 8492SOL     OW37108   3.576   1.554   9.318  0.2381  0.1076 -0.5905
 8492SOL    HW137109   3.659   1.597   9.338 -0.1803 -0.3951  2.1616
 8492SOL    HW237110   3.522   1.622   9.276  1.1367  0.7373 -0.7400
 8493SOL     OW37111   2.889   0.928   2.317 -0.0560 -0.0791  0.2510
 8493SOL    HW137112   2.962   0.983   2.287 -0.5221 -1.0515 -2.6185
 8493SOL    HW237113   2.846   0.977   2.387  2.3296  4.0411 -1.1351
 8494SOL     OW37114   3.194   0.274  10.856  0.2212  0.1939 -0.3434
 8494SOL    HW137115   3.275   0.322  10.839  0.0002  0.6085 -0.2227
 8494SOL    HW237116   3.198   0.265  10.952  0.6611  0.0049 -0.3783
 8495SOL     OW37117   1.730   1.762  10.973 -0.5190  0.5612  0.6644
 8495SOL    HW137118   1.653   1.813  10.949 -1.1408 -3.2130 -5.3758
 8495SOL    HW237119   1.775   1.824  11.031 -1.1898  1.0639  0.6411
 8496SOL     OW37120   2.750   1.179  17.164 -0.6687 -0.5732  0.6117
 8496SOL    HW137121   2.774   1.178  17.256 -0.7183 -0.1427  0.6275
 8496SOL    HW237122   2.655   1.190  17.168 -0.5862 -0.3394  2.0180
 8497SOL     OW37123   2.444   2.255   9.014 -0.0663 -0.0053 -0.5551
 8497SOL    HW137124   2.497   2.318   8.965 -1.1834  3.6882  3.0722
 8497SOL    HW237125   2.512   2.214   9.068  0.1894 -0.0688 -0.9209
 8498SOL     OW37126   3.393   1.886   6.475  0.2595  0.0689 -0.2928
 8498SOL    HW137127   3.434   1.971   6.460  2.1789 -0.9092 -0.5309
 8498SOL    HW237128   3.304   1.913   6.501  0.0559 -1.8077  0.9828
 8499SOL     OW37129   0.996   0.172   7.165  0.0517  0.3463 -0.1415
 8499SOL    HW137130   1.054   0.187   7.240  0.0464  0.5252 -0.1738
 8499SOL    HW237131   1.046   0.119   7.104  0.6387  1.6617 -0.7969
 8500SOL     OW37132   0.152   2.842   4.331 -0.0184 -0.1545  0.2095
 8500SOL    HW137133   0.150   2.855   4.426 -2.0324 -0.5224  0.2127
 8500SOL    HW237134   0.063   2.818   4.306  0.9095 -2.5540 -0.9088
 8501SOL     OW37135   1.689   0.857  10.729 -0.0914  0.2006  0.1992
 8501SOL    HW137136   1.697   0.774  10.775  0.6132  0.7900  1.1567
 8501SOL    HW237137   1.595   0.869  10.739 -0.0567 -1.2866  2.3431
 8502SOL     OW37138   3.491   1.448   6.595 -0.1969 -0.7895  0.2692
 8502SOL    HW137139   3.556   1.405   6.540  1.7255  2.8539 -0.3529
 8502SOL    HW237140   3.459   1.371   6.641  0.0874 -1.2192 -0.2588
 8503SOL     OW37141   2.879   1.536   6.293  0.4813 -0.2054 -0.6279
 8503SOL    HW137142   2.917   1.456   6.328 -0.3739  0.2468  1.3079
 8503SOL    HW237143   2.864   1.504   6.204  0.0666 -1.5995 -0.0464
 8504SOL     OW37144   1.758   1.420   7.447 -0.3172 -0.3158  0.0522
 8504SOL    HW137145   1.807   1.340   7.428  0.1187 -0.2463  0.8645
 8504SOL    HW237146   1.664   1.404   7.453 -0.1867 -1.2074 -0.1844
 8505SOL     OW37147   0.627   2.309   9.243  0.0480  0.1313  0.3269
 8505SOL    HW137148   0.632   2.285   9.150 -0.6066  1.0696  0.0426
 8505SOL    HW237149   0.687   2.384   9.239  0.4334 -0.1062  1.7284
 8506SOL     OW37150   1.743   4.606   9.145  0.1373 -0.2390  0.4402
 8506SOL    HW137151   1.768   4.524   9.102  2.3814  0.2371  0.8203
 8506SOL    HW237152   1.717   4.566   9.228 -1.4797 -0.4902 -0.1976
 8507SOL     OW37153   1.743   4.372   0.434 -0.2078 -0.1255  0.3377
 8507SOL    HW137154   1.759   4.454   0.482 -0.6697  0.0803  0.1407
 8507SOL    HW237155   1.732   4.307   0.504  1.1440  0.8652  1.4705
 8508SOL     OW37156   2.712   3.800   9.722  0.0048 -0.0276 -0.2091
 8508SOL    HW137157   2.690   3.842   9.639  0.0429  0.7990  0.1947
 8508SOL    HW237158   2.672   3.715   9.705 -1.9486  0.9819 -0.7405
 8509SOL     OW37159   4.361   1.851   6.351 -0.5845  0.3718 -0.0696
 8509SOL    HW137160   4.414   1.930   6.361 -1.0886  1.1712 -3.7914
 8509SOL    HW237161   4.360   1.823   6.442  1.7472  0.3162 -0.0685
 8510SOL     OW37162   4.044   0.821   2.504 -0.7217  0.1009  0.0249
 8510SOL    HW137163   4.088   0.771   2.436  1.4351  0.1376  1.3854
 8510SOL    HW237164   3.962   0.844   2.462  0.4842  2.1909 -1.1378
 8511SOL     OW37165   3.922   4.416   9.550 -0.3353 -0.3167 -0.2789
 8511SOL    HW137166   3.993   4.396   9.610 -1.3378 -0.6204  0.8123
 8511SOL    HW237167   3.843   4.403   9.602 -0.2776  2.0389  0.3709
 8512SOL     OW37168   0.669   0.238  13.824 -0.3527 -0.3255 -0.2284
 8512SOL    HW137169   0.686   0.214  13.733 -1.6324  1.8076 -1.0321
 8512SOL    HW237170   0.658   0.152  13.864 -2.3241 -0.1064 -0.2590
 8513SOL     OW37171   3.561   1.915   9.337 -0.5843  0.0711  0.2616
 8513SOL    HW137172   3.485   1.882   9.289 -1.3653  0.1140  1.4710
 8513SOL    HW237173   3.562   1.874   9.423 -0.1553  1.8531  1.1151
 8514SOL     OW37174   3.949   2.820  15.700  0.3304 -0.1730  0.3381
 8514SOL    HW137175   3.882   2.773  15.651 -2.3971  1.6475  2.3429
 8514SOL    HW237176   3.994   2.853  15.622 -1.3785  2.5783  0.5236
 8515SOL     OW37177   2.114   3.770   8.474  1.2482 -0.6569  0.2561
 8515SOL    HW137178   2.123   3.789   8.567 -0.6270 -2.1845  0.7637
 8515SOL    HW237179   2.024   3.740   8.466  0.9741  0.0052  0.8812
 8516SOL     OW37180   2.093   1.974   1.089  0.5993 -0.9032  0.0079
 8516SOL    HW137181   2.060   2.020   1.166 -1.7142 -0.2556 -1.3489
 8516SOL    HW237182   2.007   1.980   1.046  0.2516  1.6019  1.0179
 8517SOL     OW37183   0.014   1.063  14.830 -0.3030  0.1380  0.7087
 8517SOL    HW137184   0.076   1.086  14.761 -1.1850  1.8945  0.4951
 8517SOL    HW237185   0.065   1.093  14.906 -0.8465 -0.4518  1.3066
 8518SOL     OW37186   3.577   1.933   4.718  0.3508 -0.6041 -0.0333
 8518SOL    HW137187   3.667   1.941   4.751 -0.2047  0.6248  1.1718
 8518SOL    HW237188   3.585   1.842   4.689 -1.1050  0.0871 -2.5554
 8519SOL     OW37189   1.803   3.171   8.433  0.2046 -0.3264  0.5488
 8519SOL    HW137190   1.868   3.240   8.448  0.8613 -0.5038 -1.4325
 8519SOL    HW237191   1.732   3.198   8.490  0.1572  0.6929  0.0027
 8520SOL     OW37192   0.650   2.814   1.216  0.6436 -0.5437  0.2338
 8520SOL    HW137193   0.579   2.789   1.275  0.1447  0.3127 -0.0022
 8520SOL    HW237194   0.595   2.852   1.148 -0.2089 -0.3439  1.0283
 8521SOL     OW37195   1.994   0.782   8.802 -0.2914  0.0111  0.1204
 8521SOL    HW137196   2.030   0.704   8.761 -0.5622  0.4394 -0.9205
 8521SOL    HW237197   2.030   0.852   8.748 -1.0122 -0.3206 -0.7840
 8522SOL     OW37198   3.047   3.839   2.302  0.3043 -0.0957 -0.6083
 8522SOL    HW137199   3.124   3.865   2.352  0.4724  0.4611 -1.1541
 8522SOL    HW237200   2.980   3.875   2.360  0.9153 -1.2142  0.7942
 8523SOL     OW37201   1.329   0.218   6.284  0.0901  0.5602  0.1240
 8523SOL    HW137202   1.237   0.209   6.257 -0.1046  0.7130  0.7319
 8523SOL    HW237203   1.354   0.127   6.268 -1.6501 -0.4849  3.1454
 8524SOL     OW37204   0.308   1.120   9.077  0.0391  0.1802 -0.5365
 8524SOL    HW137205   0.395   1.159   9.063  2.0362 -3.3960  1.8536
 8524SOL    HW237206   0.328   1.033   9.041 -2.7879 -1.2159  1.3147
 8525SOL     OW37207   0.827   3.167   4.257  0.3375  0.1765 -0.1724
 8525SOL    HW137208   0.895   3.157   4.323  0.5465 -0.8373 -0.5316
 8525SOL    HW237209   0.752   3.197   4.307  0.2587 -2.1746  1.1213
 8526SOL     OW37210   2.693   4.200   1.699 -0.3374 -0.2413  0.1463
 8526SOL    HW137211   2.737   4.148   1.766  3.0491  1.7080 -0.5300
 8526SOL    HW237212   2.609   4.220   1.740  0.2588 -1.1777  1.8201
 8527SOL     OW37213   3.003   0.241   6.396  0.1528 -0.3208  0.0910
 8527SOL    HW137214   3.004   0.274   6.486 -2.6824  0.4699 -0.1459
 8527SOL    HW237215   3.081   0.188   6.384 -0.1971 -0.3749 -1.9320
 8528SOL     OW37216   2.718   3.709   4.772  0.5193 -0.1909 -0.0162
 8528SOL    HW137217   2.773   3.754   4.708 -1.1647  0.5195 -0.9585
 8528SOL    HW237218   2.731   3.753   4.856  0.0558 -0.5997  0.2711
 8529SOL     OW37219   0.403   3.493   5.872  0.0945 -0.0243  0.1458
 8529SOL    HW137220   0.365   3.430   5.932  1.4027  0.0283  1.0274
 8529SOL    HW237221   0.390   3.454   5.785 -1.3979  0.4636  0.1467
 8530SOL     OW37222   1.846   4.118   8.514  0.0213  0.6333  0.0458
 8530SOL    HW137223   1.915   4.094   8.452  2.2102 -0.2419  2.7818
 8530SOL    HW237224   1.787   4.044   8.520 -0.4409  1.0347  0.4878
 8531SOL     OW37225   0.342   1.420   5.033 -0.1093 -0.5771 -0.0018
 8531SOL    HW137226   0.344   1.425   4.937  0.8739  1.6516  0.1190
 8531SOL    HW237227   0.437   1.426   5.043 -0.1472 -1.2067  0.7523
 8532SOL     OW37228   0.672   1.529  13.970 -0.2361  0.0160 -0.5572
 8532SOL    HW137229   0.680   1.480  13.889 -0.9076 -0.8719 -0.0849
 8532SOL    HW237230   0.729   1.602  13.946 -0.4992  0.8915  1.4253
 8533SOL     OW37231   3.010   0.232   4.393 -0.1213 -0.1837  0.1391
 8533SOL    HW137232   3.097   0.261   4.365  0.6220 -0.5571  2.0129
 8533SOL    HW237233   3.002   0.305   4.455 -0.3034  1.0485 -1.3576
 8534SOL     OW37234   2.638   4.666   8.366 -0.7172 -0.7846  0.0497
 8534SOL    HW137235   2.726   4.641   8.392 -0.0043  0.7764 -0.8731
 8534SOL    HW237236   2.641   4.659   8.270 -0.5292 -1.9149  0.1337
 8535SOL     OW37237   3.512   0.575  16.875 -0.2430  0.1150 -0.2714
 8535SOL    HW137238   3.443   0.558  16.811  1.1329  1.2611 -2.0647
 8535SOL    HW237239   3.458   0.605  16.947 -0.4059  2.6152 -1.4432
 8536SOL     OW37240   3.640   1.268   9.249  0.3615 -0.1567 -0.2742
 8536SOL    HW137241   3.584   1.212   9.302  0.8985 -1.9974 -1.6389
 8536SOL    HW237242   3.652   1.351   9.296 -1.6667 -0.0737  0.0935
 8537SOL     OW37243   4.097   2.563   8.902  0.2551  0.2142  0.8615
 8537SOL    HW137244   4.141   2.646   8.883 -0.4077  0.4997  0.5817
 8537SOL    HW237245   4.177   2.513   8.918 -0.6826 -1.4960  0.1825
 8538SOL     OW37246   2.669   4.136  11.755  0.1890  0.0903  0.0063
 8538SOL    HW137247   2.731   4.066  11.737 -0.0754 -0.8638  2.7733
 8538SOL    HW237248   2.624   4.096  11.830  0.4471 -0.2354 -0.0122
 8539SOL     OW37249   4.568   0.032   6.296 -0.3822  0.0733 -0.2481
 8539SOL    HW137250   4.583   4.735   6.208 -2.2766 -3.8473  0.9973
 8539SOL    HW237251   4.502   0.096   6.269 -1.6531 -0.3758  1.8490
 8540SOL     OW37252   0.505   4.686   4.920  0.2293  1.2492 -0.0637
 8540SOL    HW137253   0.439   4.692   4.851  2.7232  0.5300 -2.5000
 8540SOL    HW237254   0.467   4.731   4.995 -0.4483  1.2732 -0.4176
 8541SOL     OW37255   2.946   0.782   4.574  0.3293 -0.4099 -0.3011
 8541SOL    HW137256   2.871   0.743   4.619 -1.2653  3.1592  0.1474
 8541SOL    HW237257   2.913   0.784   4.484  1.6874  0.9341 -0.7774
 8542SOL     OW37258   3.299   3.488   6.086  0.0483  0.5979 -0.1296
 8542SOL    HW137259   3.343   3.408   6.057  0.3183  0.6009  0.2734
 8542SOL    HW237260   3.224   3.461   6.139  0.3270  2.0934  1.0168
 8543SOL     OW37261   0.917   2.448  17.687  0.7586  0.3175  1.2680
 8543SOL    HW137262   0.983   2.452   0.006  0.2909 -1.6917  1.8166
 8543SOL    HW237263   0.838   2.485  17.728  0.5294  1.9474 -0.6876
 8544SOL     OW37264   3.936   2.738   5.586  0.3953 -0.4256  0.1953
 8544SOL    HW137265   3.913   2.654   5.547  1.4358 -1.4212  1.7478
 8544SOL    HW237266   4.005   2.770   5.527  0.9349 -3.3099 -0.7200
 8545SOL     OW37267   0.584   0.954   5.813  0.0079 -0.4260 -0.1619
 8545SOL    HW137268   0.622   0.965   5.726 -1.7033 -2.8407 -1.2106
 8545SOL    HW237269   0.532   0.881   5.780 -0.2292 -0.6677  0.7410
 8546SOL     OW37270   3.556   1.377  14.916  0.6931 -0.3342  0.4558
 8546SOL    HW137271   3.593   1.446  14.861  2.8756 -3.1594 -1.5716
 8546SOL    HW237272   3.529   1.312  14.852 -1.6361  1.0631  0.0153
 8547SOL     OW37273   3.847   2.668   7.111  0.1412  0.0706 -0.1196
 8547SOL    HW137274   3.816   2.723   7.183 -1.4369  1.7026 -2.0447
 8547SOL    HW237275   3.940   2.692   7.105  0.1196  0.1405 -0.1760
 8548SOL     OW37276   4.168   2.334   8.559 -0.1896 -0.9963 -0.1272
 8548SOL    HW137277   4.113   2.313   8.635 -0.6935 -1.4642 -0.6232
 8548SOL    HW237278   4.121   2.409   8.523 -0.6733 -0.0874  2.3518
 8549SOL     OW37279   1.539   4.343  10.525  0.0355 -0.0116  0.1398
 8549SOL    HW137280   1.540   4.426  10.573  2.6246 -1.1873  2.1064
 8549SOL    HW237281   1.625   4.357  10.485 -0.5031  2.4422 -0.1763
 8550SOL     OW37282   1.880   1.250   5.305 -0.8271  0.4612 -0.4223
 8550SOL    HW137283   1.789   1.228   5.287 -0.5558  0.3443 -1.6233
 8550SOL    HW237284   1.908   1.275   5.217  0.9077 -1.2504 -0.3637
 8551SOL     OW37285   3.817   0.932   6.487 -0.1788  0.2048 -0.3556
 8551SOL    HW137286   3.834   0.844   6.455  0.0017  0.0048  0.2916
 8551SOL    HW237287   3.796   0.912   6.578  1.6806  0.8906  0.2256
 8552SOL     OW37288   3.887   4.110   6.201  0.1216  0.5444 -0.2772
 8552SOL    HW137289   3.826   4.058   6.253 -1.4903  2.2795 -0.4249
 8552SOL    HW237290   3.969   4.098   6.249 -1.2709  0.3889  2.0760
 8553SOL     OW37291   2.635   2.935   4.200 -0.1246  0.0343 -0.5879
 8553SOL    HW137292   2.541   2.912   4.198  0.0905 -0.9700  1.2533
 8553SOL    HW237293   2.661   2.908   4.288 -0.5919 -0.4883 -0.6021
 8554SOL     OW37294   1.515   3.809   3.496  0.6139  0.4286  0.0177
 8554SOL    HW137295   1.462   3.731   3.480 -0.7276  1.1457  1.0682
 8554SOL    HW237296   1.475   3.866   3.430  0.0447  2.0673  1.7978
 8555SOL     OW37297   0.867   4.359   1.842 -0.8321  0.2839  0.4117
 8555SOL    HW137298   0.881   4.444   1.881 -1.1760  0.2616  0.5816
 8555SOL    HW237299   0.938   4.312   1.885  0.4259  1.9399  0.1294
 8556SOL     OW37300   2.824   2.206   1.022  0.3083  0.0125 -0.4207
 8556SOL    HW137301   2.736   2.208   0.985  0.7150 -1.2975 -1.4438
 8556SOL    HW237302   2.822   2.127   1.075  0.6700 -0.5472 -1.2384
 8557SOL     OW37303   0.282   0.897   2.513  0.9097 -0.1151  0.2124
 8557SOL    HW137304   0.285   0.939   2.600 -1.3821  0.4436  0.0345
 8557SOL    HW237305   0.318   0.813   2.541  0.2139 -0.1280  1.0862
 8558SOL     OW37306   1.273   2.787   4.496  0.1148 -0.4175 -0.6652
 8558SOL    HW137307   1.346   2.734   4.464  1.6765 -0.0729  2.3551
 8558SOL    HW237308   1.282   2.874   4.457  1.1667  0.7939  2.3104
 8559SOL     OW37309   3.573   4.104  17.394  0.4052  0.0459  0.0158
 8559SOL    HW137310   3.574   4.200  17.394  0.7108  0.0469 -1.2478
 8559SOL    HW237311   3.663   4.092  17.425  0.7193  2.2013 -0.0606
 8560SOL     OW37312   0.337   2.441   9.357  0.0296 -0.4118 -0.6362
 8560SOL    HW137313   0.413   2.495   9.377 -0.0478  0.1104 -1.7147
 8560SOL    HW237314   0.376   2.362   9.395  3.1226  1.5275  0.2134
 8561SOL     OW37315   0.852   3.840  15.116 -0.7381 -0.3054  0.1157
 8561SOL    HW137316   0.771   3.863  15.162 -1.3348 -0.4682 -0.8463
 8561SOL    HW237317   0.868   3.925  15.076  0.2111 -0.2978  0.4994
 8562SOL     OW37318   4.470   0.284   7.959 -0.6157  0.0131  0.3040
 8562SOL    HW137319   4.555   0.308   7.923 -0.6582 -0.4782 -0.1206
 8562SOL    HW237320   4.446   0.199   7.921 -1.6485  0.1539  0.6434
 8563SOL     OW37321   1.295   3.878   5.124  0.0902  0.6320 -0.0025
 8563SOL    HW137322   1.248   3.820   5.184  0.7407 -0.5095 -0.6157
 8563SOL    HW237323   1.370   3.897   5.180  1.3601 -1.9613 -0.8544
 8564SOL     OW37324   3.240   0.140   7.335 -0.0643  0.2742 -0.0800
 8564SOL    HW137325   3.163   0.196   7.336  1.4217  2.3647 -1.1778
 8564SOL    HW237326   3.228   0.099   7.420  0.1761  0.2149 -0.0744
 8565SOL     OW37327   0.087   1.369   6.565  0.1860 -0.3879 -0.0138
 8565SOL    HW137328   0.148   1.388   6.637 -1.1756 -0.5730  1.1779
 8565SOL    HW237329   0.131   1.298   6.520  0.3705  0.7088 -1.5564
 8566SOL     OW37330   1.002   2.339   3.593 -0.2339 -0.0713  0.0166
 8566SOL    HW137331   0.956   2.420   3.572  0.0967  0.3987  1.1006
 8566SOL    HW237332   1.050   2.366   3.671  0.1573 -1.3059  0.2105
 8567SOL     OW37333   3.423   2.171   3.594 -0.2431 -0.0510 -0.2034
 8567SOL    HW137334   3.331   2.175   3.623  0.2464  2.2389  1.0547
 8567SOL    HW237335   3.405   2.115   3.518 -0.4864 -1.1901  0.6897
 8568SOL     OW37336   0.127   2.770   3.782 -0.0370 -0.1248  0.1136
 8568SOL    HW137337   0.068   2.825   3.730 -1.0289 -0.8750  0.4357
 8568SOL    HW237338   0.148   2.708   3.713 -2.7022 -0.0941 -0.7343
 8569SOL     OW37339   3.840   2.527   9.306 -0.6335 -0.3920 -0.0075
 8569SOL    HW137340   3.903   2.470   9.262 -1.0382 -0.5003 -0.4509
 8569SOL    HW237341   3.897   2.558   9.376 -0.7398  2.1786 -1.0806
 8570SOL     OW37342   1.346   3.422   4.598 -0.6588 -0.1555 -0.1053
 8570SOL    HW137343   1.320   3.352   4.658 -2.2286  1.4247  1.0683
 8570SOL    HW237344   1.388   3.492   4.648 -2.7621  0.3738  0.9256
 8571SOL     OW37345   2.796   0.016  10.669  0.2997 -0.1695 -0.2538
 8571SOL    HW137346   2.793   0.047  10.759 -1.1378  0.3059 -0.4737
 8571SOL    HW237347   2.884   0.043  10.642 -0.4391  0.1337 -2.3906
 8572SOL     OW37348   1.803   1.338   6.281  0.1770 -0.0798  0.3268
 8572SOL    HW137349   1.714   1.330   6.247 -0.4848  0.5506  1.9110
 8572SOL    HW237350   1.856   1.317   6.204 -1.2036 -1.0227 -0.3635
 8573SOL     OW37351   2.261   3.260   2.337 -0.0345 -1.0916 -0.0192
 8573SOL    HW137352   2.344   3.222   2.308 -0.0552  0.4296 -2.0951
 8573SOL    HW237353   2.228   3.305   2.259 -1.1440 -0.3028  0.9054
 8574SOL     OW37354   1.916   3.120   4.388  0.9683  0.1540 -0.2743
 8574SOL    HW137355   1.968   3.161   4.319 -1.0570  0.3019 -1.7020
 8574SOL    HW237356   1.861   3.054   4.345  0.9354  0.5067 -0.7701
 8575SOL     OW37357   2.998   0.194   6.888 -0.0621  0.1663 -0.2836
 8575SOL    HW137358   3.054   0.151   6.953 -0.6322  0.8245  0.6481
 8575SOL    HW237359   2.978   0.276   6.935  2.1815  0.4466  0.1861
 8576SOL     OW37360   1.518   1.394   4.096  0.1196  0.5954 -0.2346
 8576SOL    HW137361   1.437   1.432   4.129 -0.1705  0.1512 -0.4331
 8576SOL    HW237362   1.511   1.411   4.002 -1.4420 -0.1594 -0.2457
 8577SOL     OW37363   2.274   1.071   1.110  0.0014  0.2163  0.1458
 8577SOL    HW137364   2.274   1.039   1.200  1.9387 -1.9427 -0.6084
 8577SOL    HW237365   2.298   1.162   1.127  1.2535  0.2387 -1.8417
 8578SOL     OW37366   4.018   2.964  13.940 -0.5081  0.2104 -0.0503
 8578SOL    HW137367   3.947   3.028  13.944 -2.6423 -2.2212  0.4493
 8578SOL    HW237368   4.076   2.993  14.011  0.0407 -3.0241  0.8171
 8579SOL     OW37369   0.488   3.052   9.864 -0.9954 -0.2637  0.2033
 8579SOL    HW137370   0.557   3.069   9.927 -1.3264  2.2207 -0.1091
 8579SOL    HW237371   0.442   2.977   9.902 -0.5590  0.0465  1.3388
 8580SOL     OW37372   1.049   3.382   1.485  0.6309 -0.0714 -0.2871
 8580SOL    HW137373   0.975   3.352   1.539 -0.7259  2.5209 -0.6943
 8580SOL    HW237374   1.059   3.301   1.434 -0.7380 -1.0153  0.9465
 8581SOL     OW37375   2.512   2.172   5.431 -0.4850 -0.2085 -0.1424
 8581SOL    HW137376   2.463   2.189   5.350 -1.6649  0.3525  0.6942
 8581SOL    HW237377   2.446   2.174   5.501  0.0247  2.2250  0.2380
 8582SOL     OW37378   0.216   3.554   7.423  0.4616 -0.0557 -0.1157
 8582SOL    HW137379   0.199   3.630   7.479 -1.0429  0.4429 -1.2734
 8582SOL    HW237380   0.297   3.518   7.461 -0.0140 -1.1414 -0.1242
 8583SOL     OW37381   2.164   2.408   9.510  0.4240  0.3563  0.3878
 8583SOL    HW137382   2.252   2.375   9.531  0.1613 -1.1774 -0.9648
 8583SOL    HW237383   2.174   2.497   9.545  3.3535  1.4261 -3.1857
 8584SOL     OW37384   3.509   0.911   7.046 -0.4553  0.0049  0.6243
 8584SOL    HW137385   3.590   0.873   7.079 -0.0744  0.8783  0.6873
 8584SOL    HW237386   3.540   0.974   6.980  0.0326  1.3083  2.0981
 8585SOL     OW37387   3.803   0.026   1.845 -0.5732  0.0837  0.0107
 8585SOL    HW137388   3.724   0.070   1.879 -1.4827 -1.0300 -0.6613
 8585SOL    HW237389   3.867   0.023   1.916 -0.2226  0.9403 -0.2686
 8586SOL     OW37390   2.659   2.951   7.712 -0.3420  0.0184  0.3806
 8586SOL    HW137391   2.608   3.025   7.680 -0.1937  0.2112  0.5998
 8586SOL    HW237392   2.606   2.935   7.790 -1.3305  1.4791  0.0244
 8587SOL     OW37393   4.023   1.998   3.196 -0.5897 -0.2216  0.2627
 8587SOL    HW137394   4.019   1.985   3.291 -2.3818 -1.4922  0.0090
 8587SOL    HW237395   4.044   2.091   3.203  0.9912 -0.4721 -1.0316
 8588SOL     OW37396   3.096   0.084  12.055 -0.0522  0.1583  0.0700
 8588SOL    HW137397   3.122   0.175  12.072  1.5933 -0.5861  1.5642
 8588SOL    HW237398   3.165   0.036  12.101  0.6901  0.5227 -0.6617
 8589SOL     OW37399   1.491   3.138  13.617 -0.5337  0.1949  0.0124
 8589SOL    HW137400   1.584   3.159  13.624 -1.4459  3.9766  0.7344
 8589SOL    HW237401   1.467   3.212  13.672 -0.5157  0.5805 -0.4976
 8590SOL     OW37402   2.725   0.311   3.561  0.3784 -0.3242  0.4882
 8590SOL    HW137403   2.737   0.217   3.546  0.4300  0.2083 -2.8081
 8590SOL    HW237404   2.802   0.347   3.516 -0.9922 -0.9437 -2.3876
 8591SOL     OW37405   2.893   0.402   0.569  0.4897 -0.0137 -0.2164
 8591SOL    HW137406   2.853   0.321   0.537  1.2716 -0.6924  0.5016
 8591SOL    HW237407   2.958   0.420   0.501  0.6763 -0.0993 -0.0644
 8592SOL     OW37408   0.555   4.340  11.995  0.0213 -0.5861  0.3134
 8592SOL    HW137409   0.646   4.370  11.991  0.2030 -0.9644  1.3727
 8592SOL    HW237410   0.567   4.249  11.967 -1.8851 -0.2570 -1.5156
 8593SOL     OW37411   0.335   4.120   0.282 -0.3839  0.6915  0.0140
 8593SOL    HW137412   0.321   4.161   0.368 -2.1698  3.3640 -1.5426
 8593SOL    HW237413   0.429   4.141   0.280 -0.1313 -0.6729 -2.1491
 8594SOL     OW37414   3.711   3.519   8.700 -0.3480 -0.2411  0.0066
 8594SOL    HW137415   3.791   3.472   8.723 -0.4222 -0.1658  0.4232
 8594SOL    HW237416   3.647   3.448   8.702 -2.1479  1.2805 -2.4015
 8595SOL     OW37417   1.425   0.494   1.789  0.2991  0.3383 -0.5647
 8595SOL    HW137418   1.367   0.472   1.862  1.2863  0.1985  0.1746
 8595SOL    HW237419   1.513   0.500   1.825  0.6474 -1.4784 -1.0985
 8596SOL     OW37420   4.040   1.848  13.075  0.2393  0.7400 -0.0839
 8596SOL    HW137421   3.951   1.818  13.055  0.4520  0.4016 -0.5207
 8596SOL    HW237422   4.093   1.769  13.059 -1.6778 -1.0014  2.0987
 8597SOL     OW37423   4.075   1.762   7.314 -0.6098  0.1484  0.4173
 8597SOL    HW137424   4.170   1.755   7.303 -0.5363 -1.8827  2.3447
 8597SOL    HW237425   4.042   1.672   7.307 -2.1693  0.5819  2.2045
 8598SOL     OW37426   1.345   0.368   1.567  0.1417  0.0353 -0.2123
 8598SOL    HW137427   1.259   0.410   1.572  0.7633  1.2348  0.2603
 8598SOL    HW237428   1.391   0.415   1.636 -0.4292  1.4517 -0.7941
 8599SOL     OW37429   1.768   1.029   9.033 -0.1205  0.3159 -0.3885
 8599SOL    HW137430   1.770   1.120   9.065  1.5545 -0.8403  2.8295
 8599SOL    HW237431   1.675   1.028   9.011 -0.5584  0.6346  1.4826
 8600SOL     OW37432   0.158   0.175  11.335 -0.7711 -0.0389  0.2527
 8600SOL    HW137433   0.165   0.185  11.430  4.9876  0.5014 -0.1878
 8600SOL    HW237434   0.250   0.159  11.312 -0.5134 -0.1537  1.3663
 8601SOL     OW37435   2.888   1.397  10.658 -0.0132  0.6913  0.3893
 8601SOL    HW137436   2.894   1.492  10.645 -0.6360  1.0767  2.9101
 8601SOL    HW237437   2.797   1.387  10.630  1.4992 -4.6057 -2.5965
 8602SOL     OW37438   4.241   0.251   8.972 -0.0866 -0.8930 -0.2169
 8602SOL    HW137439   4.305   0.219   8.909 -2.2820 -4.4301 -0.6656
 8602SOL    HW237440   4.198   0.167   8.987 -1.9794 -0.1666 -1.4701
 8603SOL     OW37441   3.282   1.689   1.877  0.4228 -0.9388 -0.0980
 8603SOL    HW137442   3.238   1.774   1.884  1.4893 -0.4537  0.6582
 8603SOL    HW237443   3.284   1.654   1.966 -3.1770 -1.7376 -0.3033
 8604SOL     OW37444   0.842   2.328   8.778  0.4319 -0.7430 -0.0916
 8604SOL    HW137445   0.774   2.395   8.779  1.0242 -0.1436 -0.3584
 8604SOL    HW237446   0.799   2.270   8.715  0.9861 -1.2678  0.0215
 8605SOL     OW37447   1.073   0.052   8.748 -0.3586  0.3552  0.3876
 8605SOL    HW137448   1.075   0.144   8.724 -2.3944 -0.4938 -2.9316
 8605SOL    HW237449   1.008   0.053   8.819 -1.4172 -0.2170 -0.5824
 8606SOL     OW37450   2.867   3.719   1.593 -0.4908  0.3005 -0.3657
 8606SOL    HW137451   2.801   3.714   1.662  1.1045  1.5365  1.2671
 8606SOL    HW237452   2.936   3.753   1.651  0.6628 -1.9018 -0.4457
 8607SOL     OW37453   3.244   4.714   2.099  0.3364 -0.1187  0.4031
 8607SOL    HW137454   3.312   4.662   2.057  0.0852 -1.7761  2.0210
 8607SOL    HW237455   3.282   0.063   2.088 -1.0500  0.5895  1.2371
 8608SOL     OW37456   0.288   1.655   5.408 -0.3493 -0.1191  0.3581
 8608SOL    HW137457   0.309   1.592   5.477  0.8462  2.6077  2.4946
 8608SOL    HW237458   0.237   1.600   5.348  1.2247  0.4836 -1.5416
 8609SOL     OW37459   3.458   0.863   7.971 -0.2926  0.0282 -0.0604
 8609SOL    HW137460   3.517   0.812   7.914 -2.0430 -0.7248 -1.1885
 8609SOL    HW237461   3.448   0.941   7.917  0.3374  0.2174  0.0944
 8610SOL     OW37462   3.226   3.207   0.808  0.4346  0.1981  0.6285
 8610SOL    HW137463   3.228   3.277   0.872  1.7197 -1.5288  2.4865
 8610SOL    HW237464   3.169   3.260   0.752 -1.4459 -1.8800  0.5961
 8611SOL     OW37465   1.815   0.773   7.227 -0.6188 -0.0170 -0.3082
 8611SOL    HW137466   1.831   0.715   7.302 -1.5874  1.0629  0.7216
 8611SOL    HW237467   1.835   0.859   7.263  1.5804 -1.2520  1.4537
 8612SOL     OW37468   2.671   4.495   4.832  0.3548 -0.1088  0.5927
 8612SOL    HW137469   2.620   4.554   4.776  1.6075 -0.8142 -1.3054
 8612SOL    HW237470   2.605   4.430   4.854 -0.1816  0.3689  0.3992
 8613SOL     OW37471   2.261   3.124  11.388 -0.3732  0.0883  0.2457
 8613SOL    HW137472   2.354   3.106  11.382 -0.2849  0.2064  1.3432
 8613SOL    HW237473   2.242   3.102  11.479 -0.5500  0.6869  0.3534
 8614SOL     OW37474   1.431   2.148   2.955  0.5797 -0.5576 -0.2987
 8614SOL    HW137475   1.516   2.133   2.996  1.8494 -0.8886 -3.0215
 8614SOL    HW237476   1.439   2.109   2.868 -0.1291 -0.3790 -0.4431
 8615SOL     OW37477   2.255   4.107   8.265 -0.2923  0.1757  0.4674
 8615SOL    HW137478   2.333   4.096   8.210 -0.6640 -3.8642  0.7647
 8615SOL    HW237479   2.292   4.177   8.319 -1.6280  1.2849 -0.0501
 8616SOL     OW37480   3.681   0.664  10.359  0.1616 -0.0254  1.1989
 8616SOL    HW137481   3.742   0.634  10.292 -0.5928 -3.6987  2.1197
 8616SOL    HW237482   3.614   0.712  10.311  2.5976  1.5566 -0.5953
 8617SOL     OW37483   0.976   2.208  17.588 -0.1557 -0.5898 -0.4420
 8617SOL    HW137484   1.054   2.188  17.639 -0.1863 -1.9025 -0.9037
 8617SOL    HW237485   0.943   2.285  17.633 -1.7520 -1.8853  0.6123
 8618SOL     OW37486   1.009   4.205   2.567 -0.0617  0.3284  0.4481
 8618SOL    HW137487   1.059   4.278   2.533 -0.9582 -0.5824 -2.8223
 8618SOL    HW237488   0.927   4.219   2.520  0.1451 -0.7199 -0.2387
 8619SOL     OW37489   3.033   4.128  11.818 -0.4292  0.0385 -0.0535
 8619SOL    HW137490   2.985   4.051  11.849  0.4018 -1.0521 -1.4278
 8619SOL    HW237491   3.073   4.159  11.899 -1.4728  1.5170 -0.1183
 8620SOL     OW37492   3.315   1.969  10.455 -0.0439  0.3222 -0.3989
 8620SOL    HW137493   3.361   2.018  10.524 -0.6024 -0.6972  0.7030
 8620SOL    HW237494   3.380   1.939  10.392 -0.2235 -0.9981  0.0367
 8621SOL     OW37495   1.167   2.518   6.826  0.5908 -0.2266 -0.7283
 8621SOL    HW137496   1.231   2.468   6.876 -0.4774 -0.8559  0.0149
 8621SOL    HW237497   1.196   2.516   6.735  3.1332 -0.1471  0.0736
 8622SOL     OW37498   2.674   1.951   3.764  0.1356  0.1268 -0.3158
 8622SOL    HW137499   2.767   1.955   3.741 -0.1135  0.1234 -1.3139
 8622SOL    HW237500   2.645   1.891   3.696  1.1326  1.9767 -2.3533
 8623SOL     OW37501   4.139   1.145  10.245  0.2532  0.3098 -0.6885
 8623SOL    HW137502   4.123   1.139  10.339  3.0163  2.1931 -0.1140
 8623SOL    HW237503   4.077   1.210  10.213  1.0635  1.5272  0.2326
 8624SOL     OW37504   3.584   4.169   6.727  0.5829 -0.1216  0.2991
 8624SOL    HW137505   3.557   4.253   6.691  3.8917  0.4581 -0.8393
 8624SOL    HW237506   3.509   4.114   6.750 -0.0024 -0.3205 -2.0821
 8625SOL     OW37507   0.956   0.112  12.292  0.0213  0.5697 -0.0089
 8625SOL    HW137508   0.965   0.144  12.382  3.8681  0.0852 -0.2312
 8625SOL    HW237509   0.862   0.125  12.278 -0.2728  0.2860  1.6940
 8626SOL     OW37510   1.835   1.012   7.376  0.0593 -0.2377  0.4242
 8626SOL    HW137511   1.761   1.032   7.433 -0.4149  1.5186 -0.8070
 8626SOL    HW237512   1.867   1.092   7.336 -0.8446 -1.0235 -1.8342
 8627SOL     OW37513   3.260   3.607  12.755  0.1329 -0.5574 -0.1129
 8627SOL    HW137514   3.171   3.629  12.780  1.0207  2.0131  0.7834
 8627SOL    HW237515   3.226   3.561  12.678  0.5439  0.2650 -0.7815
 8628SOL     OW37516   3.779   1.351   1.346  0.6578 -0.2413 -0.4235
 8628SOL    HW137517   3.700   1.405   1.352  0.9245  0.2991 -1.7131
 8628SOL    HW237518   3.767   1.291   1.420 -1.8586 -0.4039 -0.9591
 8629SOL     OW37519   4.454   4.220   3.910 -0.2432  0.1470  0.3362
 8629SOL    HW137520   4.362   4.243   3.897 -0.8624 -2.6760 -0.2636
 8629SOL    HW237521   4.495   4.306   3.898 -1.7507  0.6735 -0.9974
 8630SOL     OW37522   0.823   2.979   7.365  0.4809  0.5299  0.3428
 8630SOL    HW137523   0.882   2.906   7.348  1.0898  1.3226 -0.9354
 8630SOL    HW237524   0.834   3.023   7.281  0.2915  0.8279  0.4747
 8631SOL     OW37525   1.560   1.971   5.806 -0.0615  0.0154  0.1318
 8631SOL    HW137526   1.632   1.936   5.754  0.1331  0.1383  0.3159
 8631SOL    HW237527   1.495   1.904   5.787  0.3711 -0.2923 -0.2380
 8632SOL     OW37528   2.557   0.360  14.768 -0.3287 -0.2189  0.6386
 8632SOL    HW137529   2.521   0.411  14.840 -2.3719  3.6477 -3.1407
 8632SOL    HW237530   2.497   0.286  14.765 -0.8102  0.2533 -1.2595
 8633SOL     OW37531   2.409   2.268   6.629  0.4254  0.2847 -0.0318
 8633SOL    HW137532   2.419   2.340   6.566  1.4230  0.8653  0.8052
 8633SOL    HW237533   2.410   2.189   6.575  1.7774 -1.0813  2.0429
 8634SOL     OW37534   4.077   4.639   5.327  0.6598 -0.2572  0.1419
 8634SOL    HW137535   4.012   4.569   5.335 -0.1215  0.3960 -0.4518
 8634SOL    HW237536   4.018   4.687   5.268 -0.9081 -0.9572  1.1195
 8635SOL     OW37537   1.222   0.177  12.699 -0.7925  0.0046 -0.2871
 8635SOL    HW137538   1.271   0.099  12.674 -1.6941 -0.5652 -0.2430
 8635SOL    HW237539   1.262   0.193  12.785 -3.6637  2.8482  0.5339
 8636SOL     OW37540   1.700   1.425  14.755 -0.3398 -0.1931  0.2365
 8636SOL    HW137541   1.767   1.445  14.690  0.4831 -1.2920  0.7445
 8636SOL    HW237542   1.688   1.504  14.808 -0.6684 -0.4595  0.5614
 8637SOL     OW37543   3.244   4.110  16.423  0.2105  0.0014 -0.2872
 8637SOL    HW137544   3.201   4.191  16.452 -0.6253  0.0337 -1.6411
 8637SOL    HW237545   3.297   4.138  16.349  3.0402 -1.4552  1.1475
 8638SOL     OW37546   1.545   2.270   5.027  0.1796 -0.2894  0.2077
 8638SOL    HW137547   1.602   2.341   4.996 -0.0173  0.0888  0.7063
 8638SOL    HW237548   1.482   2.268   4.955  0.8302 -3.1462 -0.2954
 8639SOL     OW37549   4.440   4.663   5.990 -0.2687  0.2422 -0.2349
 8639SOL    HW137550   4.458   4.607   5.914 -0.2629 -2.0370  1.4712
 8639SOL    HW237551   4.391   4.606   6.048  0.5685 -0.8451 -0.5922
 8640SOL     OW37552   1.093   3.191   8.672  0.0377 -0.6339  0.5545
 8640SOL    HW137553   1.072   3.149   8.589  1.4294 -1.9045  0.8447
 8640SOL    HW237554   1.008   3.228   8.697  0.3348  0.5463 -0.1609
 8641SOL     OW37555   1.706   0.688   6.534 -0.2579  0.3212 -0.4233
 8641SOL    HW137556   1.686   0.750   6.604 -2.0057 -0.3482 -0.3387
 8641SOL    HW237557   1.802   0.692   6.532 -0.2905 -0.0540 -2.6914
 8642SOL     OW37558   1.612   3.822   2.869 -0.3902  0.3157 -0.2614
 8642SOL    HW137559   1.677   3.865   2.813  1.6374  2.5153  3.7688
 8642SOL    HW237560   1.582   3.897   2.921 -0.8259 -0.5977  0.8133
 8643SOL     OW37561   3.243   0.213   4.563  0.4662  0.0986  0.0152
 8643SOL    HW137562   3.237   0.260   4.646 -0.0536 -3.9485  2.2828
 8643SOL    HW237563   3.264   0.283   4.502 -1.1991  1.2867  0.8105
 8644SOL     OW37564   0.931   1.680   0.322  0.2701  0.2637 -0.0216
 8644SOL    HW137565   1.002   1.620   0.341  0.3673 -0.2169 -1.9472
 8644SOL    HW237566   0.968   1.746   0.264 -0.1337 -0.0073 -0.5853
 8645SOL     OW37567   1.273   0.941  10.967  0.1448  0.1446  0.0073
 8645SOL    HW137568   1.181   0.915  10.974  0.8357 -2.0275  0.9088
 8645SOL    HW237569   1.262   1.031  10.999  1.4401 -0.4998  2.2826
 8646SOL     OW37570   1.743   2.869   1.077  0.4804  0.3088  0.4288
 8646SOL    HW137571   1.817   2.926   1.096  1.2103 -0.1791 -0.9156
 8646SOL    HW237572   1.689   2.881   1.155 -0.3315 -0.0273 -0.0743
 8647SOL     OW37573   2.524   4.623  17.380 -0.6031  0.6294 -0.1960
 8647SOL    HW137574   2.434   4.649  17.399 -1.3549 -1.4168 -0.9352
 8647SOL    HW237575   2.576   4.689  17.425 -0.8709  1.5732 -1.2736
 8648SOL     OW37576   0.509   0.185  12.840 -0.5832 -0.4049  0.1066
 8648SOL    HW137577   0.528   0.176  12.933  0.8913 -0.7458 -0.2302
 8648SOL    HW237578   0.493   0.279  12.847 -0.5299 -0.4084  0.2605
 8649SOL     OW37579   4.619   4.119   7.639 -0.3839  0.1069 -0.5325
 8649SOL    HW137580   4.597   4.046   7.580 -4.6824 -0.5026  1.9154
 8649SOL    HW237581   4.576   4.104   7.723  1.2472 -0.1017  0.2704
 8650SOL     OW37582   0.154   1.429   4.821 -0.0416 -0.0335 -0.3037
 8650SOL    HW137583   0.190   1.340   4.826 -1.2411 -0.5881 -1.4047
 8650SOL    HW237584   0.089   1.431   4.751 -0.8433  1.6303  0.5046
 8651SOL     OW37585   3.353   0.238  11.479  0.2991 -0.2038 -0.2838
 8651SOL    HW137586   3.396   0.300  11.420 -0.0019  0.8193  0.5649
 8651SOL    HW237587   3.397   0.154  11.468 -0.4242 -0.4240 -1.4175
 8652SOL     OW37588   3.150   1.260   3.903 -0.2019 -0.7800 -0.3666
 8652SOL    HW137589   3.205   1.182   3.907  1.6798  0.6118  1.0759
 8652SOL    HW237590   3.156   1.268   3.808  1.5336  1.0737 -0.1000
 8653SOL     OW37591   3.144   1.512   4.342 -0.4574  0.5552 -0.6980
 8653SOL    HW137592   3.196   1.482   4.268  2.5012  1.4382  1.0276
 8653SOL    HW237593   3.058   1.473   4.323  0.3257 -1.2343 -0.5695
 8654SOL     OW37594   3.355   1.117   5.582 -0.2849  0.3551  0.0714
 8654SOL    HW137595   3.270   1.125   5.624  1.5376 -0.7490  4.0416
 8654SOL    HW237596   3.382   1.207   5.565  1.6189  0.1511  1.8990
 8655SOL     OW37597   3.918   1.356   4.522 -0.1318  0.1886 -0.1508
 8655SOL    HW137598   3.938   1.344   4.429 -0.7006 -0.5509 -0.1826
 8655SOL    HW237599   3.827   1.327   4.533  0.1398 -1.5933 -2.3878
 8656SOL     OW37600   2.447   4.367  10.015 -0.1247  0.2088  0.0326
 8656SOL    HW137601   2.445   4.278   9.980 -0.2326  0.3855 -0.4108
 8656SOL    HW237602   2.530   4.369  10.062 -1.0879 -0.1451  1.7584
 8657SOL     OW37603   1.256   3.679   7.457 -0.6013  0.4896  0.5014
 8657SOL    HW137604   1.207   3.718   7.530  0.1853 -3.1925  2.9764
 8657SOL    HW237605   1.339   3.683   7.503 -0.0386 -1.2275 -0.3971
 8658SOL     OW37606   2.687   2.431   6.273 -0.2379 -0.2128 -0.7457
 8658SOL    HW137607   2.766   2.400   6.318  0.7478  0.7438 -1.8058
 8658SOL    HW237608   2.650   2.353   6.231 -0.7163 -0.5685  0.3413
 8659SOL     OW37609   1.826   3.096   9.492  0.3284  0.1554  0.0779
 8659SOL    HW137610   1.762   3.088   9.563 -0.1774  0.2588 -0.3633
 8659SOL    HW237611   1.820   3.190   9.475  1.9909  0.1645 -0.4598
 8660SOL     OW37612   0.745   3.832   5.513 -0.6421 -0.0775 -0.5104
 8660SOL    HW137613   0.720   3.743   5.490  1.5084 -1.8604  3.9974
 8660SOL    HW237614   0.707   3.884   5.443  0.1144  2.5390  1.0246
 8661SOL     OW37615   1.837   3.208   2.748 -0.3167 -0.0760  0.7291
 8661SOL    HW137616   1.800   3.295   2.762  0.1095  0.1395  0.5266
 8661SOL    HW237617   1.929   3.232   2.758  0.2994 -1.6987 -0.9197
 8662SOL     OW37618   4.565   4.051   5.841 -0.2321 -0.0804 -0.1139
 8662SOL    HW137619   4.491   4.074   5.784 -1.2483  1.7711  1.9794
 8662SOL    HW237620   4.618   4.131   5.842 -1.2186  0.5696  0.2562
 8663SOL     OW37621   2.029   1.697   8.085 -0.2622 -0.1274  0.0682
 8663SOL    HW137622   1.968   1.674   8.155 -0.3887  0.8605  0.2815
 8663SOL    HW237623   2.107   1.644   8.100 -0.8487 -0.7405  0.9528
 8664SOL     OW37624   2.836   0.549   9.061  0.2780 -0.0002  0.1682
 8664SOL    HW137625   2.814   0.458   9.043  0.1133 -0.4022  2.3848
 8664SOL    HW237626   2.811   0.591   8.979 -0.7314 -1.6501 -0.3708
 8665SOL     OW37627   2.718   1.479  12.486  0.0064  0.2207  0.0608
 8665SOL    HW137628   2.743   1.505  12.398  0.7854  0.9417  0.4894
 8665SOL    HW237629   2.655   1.549  12.507  1.1656  1.7270 -1.5298
 8666SOL     OW37630   4.661   0.964   4.064 -0.5221  0.1249  0.6829
 8666SOL    HW137631   4.638   1.056   4.053  1.2078  0.7191  2.0815
 8666SOL    HW237632   4.622   0.941   4.148 -1.4861 -1.6638 -0.2542
 8667SOL     OW37633   2.981   3.521   3.427  0.0691  0.1961  0.1189
 8667SOL    HW137634   2.900   3.543   3.380  0.0084 -2.0452 -0.8176
 8667SOL    HW237635   2.971   3.426   3.423  1.1075  0.0932  0.0096
 8668SOL     OW37636   3.316   0.987  14.976  0.1121 -0.0908 -0.1753
 8668SOL    HW137637   3.294   0.991  15.069  0.9074  4.5185 -0.1600
 8668SOL    HW237638   3.395   0.933  14.973  0.3846  0.1663  2.3566
 8669SOL     OW37639   2.300   2.689   1.438  0.0590 -0.1534 -0.1011
 8669SOL    HW137640   2.222   2.645   1.473  0.5411  0.4362  1.7018
 8669SOL    HW237641   2.353   2.611   1.425  0.2463 -0.1030  0.3732
 8670SOL     OW37642   2.660   4.406  13.408  1.2124 -0.0976 -0.2258
 8670SOL    HW137643   2.592   4.432  13.470  0.1043 -1.4668 -0.8586
 8670SOL    HW237644   2.676   4.490  13.365  0.9693 -0.1805 -0.4764
 8671SOL     OW37645   2.490   0.072   9.511 -0.3966 -0.5178  0.1417
 8671SOL    HW137646   2.455   4.726   9.542 -0.2787 -0.8268 -0.5692
 8671SOL    HW237647   2.457   0.125   9.583 -1.3119 -0.6037 -0.2149
 8672SOL     OW37648   0.294   1.020   5.566 -0.2646 -0.0698  0.9125
 8672SOL    HW137649   0.368   0.989   5.514  0.8412  1.9709  1.3086
 8672SOL    HW237650   0.255   1.083   5.505  0.4933 -0.6925 -0.2220
 8673SOL     OW37651   0.912   0.970  14.807 -0.3223  0.2490  0.1417
 8673SOL    HW137652   0.999   0.947  14.772 -0.3467 -0.7363  0.7503
 8673SOL    HW237653   0.934   1.018  14.887 -1.0081  0.2978  0.3003
 8674SOL     OW37654   0.963   4.111  15.036  0.4050 -0.3069  0.1370
 8674SOL    HW137655   1.027   4.153  14.980 -1.8453  2.9577 -0.0061
 8674SOL    HW237656   1.007   4.121  15.121  0.7433  0.3023 -0.1092
 8675SOL     OW37657   4.343   4.261   0.836 -0.0355  0.2067 -0.2364
 8675SOL    HW137658   4.388   4.340   0.806  0.6535  0.0081  0.2835
 8675SOL    HW237659   4.400   4.185   0.823 -0.0727  0.5519 -2.5438
 8676SOL     OW37660   0.022   3.043  14.155 -0.1468  0.2868  0.0924
 8676SOL    HW137661   0.089   3.055  14.223  0.3680  0.2902 -0.4165
 8676SOL    HW237662   4.702   3.119  14.156  1.4883  1.5455 -2.3874
 8677SOL     OW37663   3.469   1.096   9.440 -0.2634  0.4324 -0.5628
 8677SOL    HW137664   3.410   1.068   9.510 -1.0091  1.6351 -0.7290
 8677SOL    HW237665   3.511   1.013   9.416  1.2183  1.2913 -0.9707
 8678SOL     OW37666   1.205   1.571   6.843  0.7285 -0.4597 -0.2526
 8678SOL    HW137667   1.134   1.578   6.779  1.2985 -0.2680 -0.8637
 8678SOL    HW237668   1.248   1.493   6.809 -0.1123 -0.7578 -0.6287
 8679SOL     OW37669   4.330   0.955   7.430 -0.0339 -0.6437  0.7664
 8679SOL    HW137670   4.273   0.879   7.427 -0.2837 -0.3587 -1.5113
 8679SOL    HW237671   4.408   0.908   7.460 -1.6895 -4.0987 -0.3142
 8680SOL     OW37672   2.594   4.314   3.485 -0.2684  0.5168  0.5868
 8680SOL    HW137673   2.592   4.279   3.574  1.3540  0.6797  0.6769
 8680SOL    HW237674   2.503   4.345   3.479 -0.1561  1.1989  2.4079
 8681SOL     OW37675   1.866   2.277   5.373  0.2040  0.2914 -0.0426
 8681SOL    HW137676   1.787   2.238   5.334  0.7682  0.1128 -1.0049
 8681SOL    HW237677   1.939   2.250   5.318  0.7883  2.3662 -0.2847
 8682SOL     OW37678   3.803   4.001   1.019  0.0950 -0.5338  0.6645
 8682SOL    HW137679   3.790   3.907   1.014 -1.9408 -0.2062 -0.2955
 8682SOL    HW237680   3.891   3.998   0.983  0.2373 -0.2524  0.9798
 8683SOL     OW37681   4.342   1.140  12.214 -0.2633 -0.3197 -0.5978
 8683SOL    HW137682   4.381   1.218  12.174  0.4658  0.5436  1.7909
 8683SOL    HW237683   4.370   1.148  12.305 -2.8349  0.4503  0.1293
 8684SOL     OW37684   3.604   4.180   1.074 -0.5374  0.2378 -0.4418
 8684SOL    HW137685   3.681   4.128   1.049  0.2177  1.1975 -0.1272
 8684SOL    HW237686   3.550   4.167   0.996  0.3225 -1.1636 -0.8075
 8685SOL     OW37687   3.462   0.807   9.317 -0.1909  0.5721 -0.1205
 8685SOL    HW137688   3.397   0.780   9.252  0.3724  0.1496 -0.5103
 8685SOL    HW237689   3.528   0.835   9.254 -1.3407  2.9523 -0.2624
 8686SOL     OW37690   1.781   4.443  10.493 -0.1882  0.1940 -0.3648
 8686SOL    HW137691   1.868   4.410  10.517  0.3545  0.9318 -1.2719
 8686SOL    HW237692   1.761   4.500  10.567  0.2832  1.4028 -1.1564
 8687SOL     OW37693   1.617   0.899   3.480  0.6659  0.2654 -0.1280
 8687SOL    HW137694   1.611   0.854   3.564  1.2875  2.9272  1.3305
 8687SOL    HW237695   1.529   0.889   3.445 -0.0152 -0.7251  1.8971
 8688SOL     OW37696   2.121   4.030  17.192  0.1711  0.0636 -0.5950
 8688SOL    HW137697   2.039   4.064  17.157 -0.3385 -2.5236 -1.9429
 8688SOL    HW237698   2.092   3.948  17.233  1.4786 -0.1596 -0.1402
 8689SOL     OW37699   1.268   0.081  11.248 -0.3402  0.0729 -0.4073
 8689SOL    HW137700   1.339   0.134  11.210 -0.6970  0.5507 -0.3993
 8689SOL    HW237701   1.273   0.118  11.336  2.9808 -0.1775 -0.4597
 8690SOL     OW37702   1.355   2.189   4.386 -0.6336 -0.2061 -0.1058
 8690SOL    HW137703   1.314   2.243   4.318 -0.2013  0.9886  0.5629
 8690SOL    HW237704   1.283   2.131   4.409  1.6773 -1.6436  3.4717
 8691SOL     OW37705   2.789   1.492   7.646  0.0046 -0.0644  0.0817
 8691SOL    HW137706   2.759   1.489   7.737 -1.8639  0.0020 -0.5239
 8691SOL    HW237707   2.878   1.524   7.661  0.2158 -1.1637  1.1540
 8692SOL     OW37708   2.096   0.015  12.744 -0.0747 -0.2893 -0.4556
 8692SOL    HW137709   2.104   0.015  12.839 -0.1296  2.0335 -0.4533
 8692SOL    HW237710   2.187   0.021  12.715  0.0374 -2.1771 -0.4653
 8693SOL     OW37711   3.491   3.412  11.455  0.1305  0.2288 -0.0788
 8693SOL    HW137712   3.456   3.447  11.537 -0.3998  0.0593 -0.2353
 8693SOL    HW237713   3.472   3.322  11.481  2.3891 -0.7043 -1.6352
 8694SOL     OW37714   2.356   2.770   3.077  0.2602  0.3519  0.2469
 8694SOL    HW137715   2.286   2.705   3.084  1.4606 -0.8264  1.3054
 8694SOL    HW237716   2.355   2.790   3.171 -0.7870 -3.3620  1.0262
 8695SOL     OW37717   1.957   0.157   7.724 -0.6325  0.3065 -0.3133
 8695SOL    HW137718   1.869   0.119   7.733 -0.2296 -1.0749 -2.2352
 8695SOL    HW237719   1.932   0.225   7.662  1.1527  0.6040 -0.6796
 8696SOL     OW37720   2.693   3.600  13.637  0.3469 -0.2629 -0.0432
 8696SOL    HW137721   2.747   3.652  13.578  0.3496  1.5990  1.5982
 8696SOL    HW237722   2.755   3.527  13.644  2.0307  1.1826 -0.0158
 8697SOL     OW37723   1.261   1.055   2.214 -0.1070 -0.2162 -0.3548
 8697SOL    HW137724   1.339   1.100   2.246  0.4158 -1.2009 -0.2678
 8697SOL    HW237725   1.221   1.032   2.298  1.7402 -0.3931  0.4628
 8698SOL     OW37726   1.583   0.993   4.494 -0.2830 -0.3670 -0.1045
 8698SOL    HW137727   1.576   1.053   4.420  0.3985  0.2558  0.3384
 8698SOL    HW237728   1.675   0.968   4.485 -0.2865  0.4202 -2.2292
 8699SOL     OW37729   1.184   0.199   3.802 -0.0383 -0.0756 -0.0887
 8699SOL    HW137730   1.205   0.107   3.786 -0.6574  0.1417 -2.0561
 8699SOL    HW237731   1.131   0.215   3.724 -0.9165 -3.3446 -0.1635
 8700SOL     OW37732   2.825   3.259   9.025  0.6146 -0.0363  0.4984
 8700SOL    HW137733   2.911   3.299   9.037 -0.5240  2.0203  1.9031
 8700SOL    HW237734   2.784   3.331   8.976  2.0355  0.9425  0.7411
 8701SOL     OW37735   4.260   4.149   8.496 -0.3590 -0.7147 -0.2534
 8701SOL    HW137736   4.351   4.154   8.525 -0.0368 -0.0539 -1.3806
 8701SOL    HW237737   4.258   4.063   8.455  1.2462 -0.6494 -0.4592
 8702SOL     OW37738   4.369   2.412  13.156 -0.3667 -0.0968 -0.2437
 8702SOL    HW137739   4.456   2.441  13.182 -0.4262 -1.1811  1.1360
 8702SOL    HW237740   4.367   2.419  13.060 -2.3556  0.8579 -0.1164
 8703SOL     OW37741   2.850   1.023   6.230  0.4919  0.3502 -0.1981
 8703SOL    HW137742   2.912   1.052   6.163  0.8185  0.4782  0.1628
 8703SOL    HW237743   2.828   1.106   6.272  2.2198 -0.7600  2.8789
 8704SOL     OW37744   0.124   1.830   5.976  0.4112  0.2667  0.0270
 8704SOL    HW137745   0.053   1.790   6.025  0.0000  0.3032 -0.5353
 8704SOL    HW237746   0.115   1.797   5.887  1.5602 -0.7049  0.2747
 8705SOL     OW37747   2.411   3.928  15.654 -0.1499 -0.5766  0.2966
 8705SOL    HW137748   2.389   4.021  15.648 -0.2185 -0.6255 -0.1802
 8705SOL    HW237749   2.336   3.897  15.605  1.3022 -2.3807 -0.7940
 8706SOL     OW37750   1.479   4.006   9.142  0.4103  0.1118 -0.3952
 8706SOL    HW137751   1.422   4.060   9.197 -0.7095 -0.4356 -1.0185
 8706SOL    HW237752   1.567   4.030   9.172  0.5004  1.6928 -1.9622
 8707SOL     OW37753   2.391   1.437   3.052  0.1591 -0.1539  0.2091
 8707SOL    HW137754   2.371   1.486   2.973  0.0236  0.6159  0.7244
 8707SOL    HW237755   2.451   1.495   3.098  1.2731 -1.0734 -0.0812
 8708SOL     OW37756   1.407   1.580  11.070  0.1331  0.8001  0.0587
 8708SOL    HW137757   1.362   1.569  11.154 -0.0476 -0.9657 -0.2543
 8708SOL    HW237758   1.492   1.615  11.098  0.6149 -2.0288  2.0896
 8709SOL     OW37759   1.193   3.914   2.586  0.6968 -0.0159 -0.3191
 8709SOL    HW137760   1.219   3.868   2.665 -0.8410 -1.9023 -0.8995
 8709SOL    HW237761   1.098   3.911   2.602  0.5142  0.3096 -1.3049
 8710SOL     OW37762   1.619   2.694  14.337 -0.1342  0.2931 -0.7198
 8710SOL    HW137763   1.690   2.725  14.394  0.3562 -0.4578 -0.9289
 8710SOL    HW237764   1.670   2.645  14.273  0.5859  2.2690 -1.6640
 8711SOL     OW37765   2.118   0.889   4.096 -0.3594 -0.1577 -0.2166
 8711SOL    HW137766   2.025   0.910   4.103 -0.3395 -0.8365  1.9635
 8711SOL    HW237767   2.141   0.966   4.043  0.4535 -0.9790 -1.0598
 8712SOL     OW37768   1.350   1.801  13.147 -0.6433 -0.5478 -0.4238
 8712SOL    HW137769   1.267   1.754  13.138 -1.7188  1.2583  0.1798
 8712SOL    HW237770   1.318   1.891  13.139 -1.1097 -0.7391 -0.7435
 8713SOL     OW37771   1.481   3.272   5.928  0.5542  0.0664  0.1533
 8713SOL    HW137772   1.452   3.315   5.847 -0.0856 -0.0443  0.3239
 8713SOL    HW237773   1.429   3.193   5.920  0.3117  0.0954  1.4029
 8714SOL     OW37774   0.005   2.020   3.660  0.0551 -0.0975  0.1604
 8714SOL    HW137775   4.668   2.006   3.602 -0.7188  0.1399  1.0896
 8714SOL    HW237776   0.064   1.962   3.614  0.5533 -1.0250  1.9632
 8715SOL     OW37777   0.704   2.339   9.699 -0.2146 -0.5152 -0.0575
 8715SOL    HW137778   0.669   2.287   9.627  2.7446 -0.8344 -1.2617
 8715SOL    HW237779   0.648   2.314   9.773  1.2121  0.0423  1.2176
 8716SOL     OW37780   2.442   1.564   7.411 -0.1056 -0.0362  0.5411
 8716SOL    HW137781   2.381   1.621   7.365 -0.0063  0.5096  1.0846
 8716SOL    HW237782   2.411   1.572   7.501 -1.5792  1.4624 -0.1095
 8717SOL     OW37783   3.900   3.740   9.708 -0.0163 -0.2394 -0.1755
 8717SOL    HW137784   3.971   3.747   9.644 -0.4745  0.7622 -0.5792
 8717SOL    HW237785   3.844   3.813   9.682  0.1809  0.2556  0.8378
 8718SOL     OW37786   4.230   3.077   7.554 -0.3021  0.4044 -0.4138
 8718SOL    HW137787   4.194   3.138   7.619 -0.8234  0.1747 -0.4869
 8718SOL    HW237788   4.155   3.017   7.550 -1.8019  2.3775 -2.3284
 8719SOL     OW37789   3.432   1.561   7.977  0.0622  0.3149 -0.0312
 8719SOL    HW137790   3.436   1.540   7.884  2.4237  0.8692 -0.0567
 8719SOL    HW237791   3.491   1.637   7.975  0.7357 -0.1810  1.2479
 8720SOL     OW37792   2.125   1.920   8.859  1.0278  0.5001  0.2374
 8720SOL    HW137793   2.099   1.846   8.913 -0.9159  1.2446  0.3186
 8720SOL    HW237794   2.165   1.984   8.919 -1.3694  1.5237  0.7305
 8721SOL     OW37795   4.429   2.879   7.454 -0.0362  0.2980  0.4478
 8721SOL    HW137796   4.380   2.800   7.477  1.2368 -0.3251  1.0413
 8721SOL    HW237797   4.370   2.947   7.485  0.8603 -0.4286  3.8036
 8722SOL     OW37798   4.706   1.671   9.172  0.1924 -0.1627  0.6904
 8722SOL    HW137799   0.040   1.693   9.114  1.1845 -0.1919  1.9300
 8722SOL    HW237800   4.632   1.720   9.137 -1.8637 -1.3750  3.3236
 8723SOL     OW37801   1.458   2.148   7.764  0.4164  0.2607 -0.0252
 8723SOL    HW137802   1.463   2.217   7.697  2.1032 -1.4171 -1.6359
 8723SOL    HW237803   1.552   2.144   7.782  0.9047  0.9224 -2.3948
 8724SOL     OW37804   3.953   2.117   5.001  0.3294 -0.2280 -0.2767
 8724SOL    HW137805   3.998   2.051   5.053  2.1020 -0.0855 -1.6358
 8724SOL    HW237806   4.007   2.196   5.001  1.0713 -0.7571  2.8784
 8725SOL     OW37807   3.262   1.184   2.693  0.3704 -0.0789  0.4531
 8725SOL    HW137808   3.338   1.187   2.635 -1.8336  0.5394 -2.4012
 8725SOL    HW237809   3.209   1.148   2.621 -0.2290  0.1036  0.8058
 8726SOL     OW37810   2.512   0.178   8.709  0.0563  0.1928 -0.2101
 8726SOL    HW137811   2.455   0.247   8.743 -0.5575 -0.4379  0.0467
 8726SOL    HW237812   2.562   0.222   8.640 -1.4299  2.8750  0.4345
 8727SOL     OW37813   1.520   0.154   1.561 -0.4512  0.1597  0.2966
 8727SOL    HW137814   1.442   0.209   1.569  0.2080  0.8024  2.3271
 8727SOL    HW237815   1.591   0.210   1.592 -0.5730  0.0423  0.7851
 8728SOL     OW37816   2.257   0.498   4.581 -0.4337 -0.2433  0.0255
 8728SOL    HW137817   2.218   0.412   4.597  1.4966 -0.7993  1.7241
 8728SOL    HW237818   2.200   0.533   4.512  2.3530  1.6969 -1.3077
 8729SOL     OW37819   4.612   3.252   2.451  0.0441  0.2833 -0.0456
 8729SOL    HW137820   4.607   3.243   2.547 -3.2284 -0.0218 -0.2577
 8729SOL    HW237821   4.671   3.182   2.424 -0.8128 -0.2082 -0.6588
 8730SOL     OW37822   2.108   4.396   0.443 -0.3549 -0.7555 -0.2128
 8730SOL    HW137823   2.194   4.394   0.401  0.0706 -0.0482  0.6267
 8730SOL    HW237824   2.077   4.486   0.441 -2.0257 -1.3884 -2.6641
 8731SOL     OW37825   2.765   4.454   8.643  0.1057  0.4777  0.0609
 8731SOL    HW137826   2.796   4.440   8.554 -0.1745  0.2120  0.0015
 8731SOL    HW237827   2.845   4.466   8.695  0.5017 -0.8567 -0.2417
 8732SOL     OW37828   1.254   0.074  13.963  0.4912  0.0313  0.1242
 8732SOL    HW137829   1.175   0.024  13.942  0.6968 -0.9552  1.7035
 8732SOL    HW237830   1.230   0.107  14.050 -1.7303 -3.0053  0.6719
 8733SOL     OW37831   1.108   3.323   4.275  0.0691 -0.0702  0.4466
 8733SOL    HW137832   1.113   3.276   4.192 -1.3475 -0.2694  0.4768
 8733SOL    HW237833   1.118   3.415   4.249 -0.5336  0.3412  1.7007
 8734SOL     OW37834   4.100   0.198   9.639 -0.9113 -0.0890  0.7302
 8734SOL    HW137835   4.146   0.140   9.700 -0.9341  0.7026  1.4908
 8734SOL    HW237836   4.040   0.245   9.696 -0.1372 -1.1211  2.3884
 8735SOL     OW37837   0.001   0.386   2.338  0.8027  0.0592  0.1887
 8735SOL    HW137838   0.034   0.466   2.298 -1.8985  0.9011 -0.3855
 8735SOL    HW237839   4.643   0.386   2.330  0.8947  2.3908 -0.9593
 8736SOL     OW37840   2.538   1.982  16.316 -0.0945 -1.5162  0.3738
 8736SOL    HW137841   2.506   1.935  16.393  1.1114 -0.6377  1.4098
 8736SOL    HW237842   2.591   2.046  16.363 -1.0254 -1.1966  1.0105
 8737SOL     OW37843   0.635   0.784   3.068 -0.1304 -0.2920  0.2793
 8737SOL    HW137844   0.670   0.698   3.088  1.2150  0.6520  2.0360
 8737SOL    HW237845   0.694   0.808   2.997 -0.3696 -3.6011 -1.0268
 8738SOL     OW37846   4.654   2.644   5.723  0.4833  0.1756  0.1332
 8738SOL    HW137847   4.665   2.702   5.647 -1.1193 -0.7293 -0.7794
 8738SOL    HW237848   4.667   2.561   5.676  0.3133  0.0042  0.3913
 8739SOL     OW37849   4.351   1.107   9.015  0.0243  0.0612  0.1799
 8739SOL    HW137850   4.260   1.101   9.043 -0.3040 -1.3208 -1.1924
 8739SOL    HW237851   4.371   1.196   9.044 -0.4209 -0.2771  1.5252
 8740SOL     OW37852   0.700   3.669   7.576 -0.1535  0.2498 -0.7397
 8740SOL    HW137853   0.690   3.678   7.481 -0.2238 -0.3721 -0.7957
 8740SOL    HW237854   0.721   3.758   7.603  1.9625 -0.6750  0.7310
 8741SOL     OW37855   1.205   3.159   2.059 -0.1296 -0.2665 -0.3568
 8741SOL    HW137856   1.284   3.112   2.032 -1.9429 -2.6124 -1.6303
 8741SOL    HW237857   1.232   3.180   2.148 -0.6972 -1.5953  0.1221
 8742SOL     OW37858   0.453   2.647   4.441  0.4328  0.2417  0.2625
 8742SOL    HW137859   0.461   2.575   4.379 -2.0639  2.0518 -2.1255
 8742SOL    HW237860   0.396   2.617   4.512 -0.5271  0.5842 -0.3663
 8743SOL     OW37861   2.498   3.128   4.921 -0.5048 -0.2766 -0.6307
 8743SOL    HW137862   2.425   3.086   4.966 -0.4210  0.9959  0.6853
 8743SOL    HW237863   2.509   3.080   4.839 -0.0679 -1.3430  0.0554
 8744SOL     OW37864   3.941   3.404   8.838 -0.0822  0.0823 -0.2421
 8744SOL    HW137865   3.931   3.335   8.903 -1.4864 -0.0771 -0.6389
 8744SOL    HW237866   4.025   3.442   8.866  0.2305 -0.7199 -0.0796
 8745SOL     OW37867   4.484   2.448   7.710  0.5852  0.0288 -0.5221
 8745SOL    HW137868   4.552   2.482   7.768  0.8896 -0.7946 -0.3898
 8745SOL    HW237869   4.436   2.388   7.767  0.9998 -1.1795 -1.4559
 8746SOL     OW37870   0.296   2.109   5.468  0.2275 -0.1382 -0.0556
 8746SOL    HW137871   0.301   2.175   5.399  0.8475  2.0759  2.1052
 8746SOL    HW237872   0.313   2.162   5.546  2.4062  1.3473 -1.4935
 8747SOL     OW37873   0.232   3.583   6.680  0.0391  0.6877  0.7144
 8747SOL    HW137874   0.250   3.663   6.728  0.9810 -0.2380  1.9164
 8747SOL    HW237875   0.320   3.549   6.662 -1.6358 -0.8802 -4.5052
 8748SOL     OW37876   1.111   2.462   9.787  0.4213 -0.2755  0.2359
 8748SOL    HW137877   1.117   2.542   9.735 -0.5477 -0.9036 -0.8280
 8748SOL    HW237878   1.173   2.397   9.755  0.0311 -1.3739  1.6979
 8749SOL     OW37879   1.801   2.356  16.155  0.3354  0.2080 -0.4679
 8749SOL    HW137880   1.895   2.370  16.168  0.4411 -0.9494  0.0030
 8749SOL    HW237881   1.780   2.407  16.077  1.5749 -1.4453 -1.8666
 8750SOL     OW37882   3.385   0.936  17.461 -0.3038 -0.6180  0.2179
 8750SOL    HW137883   3.339   1.016  17.486 -1.7708 -1.7458  1.1369
 8750SOL    HW237884   3.425   0.960  17.377  0.9236 -1.5079  0.5453
 8751SOL     OW37885   3.922   3.049   7.174 -0.1269  0.1605  0.3101
 8751SOL    HW137886   4.013   3.040   7.146 -0.2772 -0.5922  0.0739
 8751SOL    HW237887   3.872   3.060   7.093  1.4639 -2.0903 -0.9671
 8752SOL     OW37888   1.713   0.677  14.900 -0.2073  0.2263 -0.0966
 8752SOL    HW137889   1.666   0.688  14.983 -2.3545 -2.6232 -0.9185
 8752SOL    HW237890   1.689   0.757  14.853 -1.9469  0.7615  1.7355
 8753SOL     OW37891   3.812   1.481   3.357  0.5910  0.2658 -0.6797
 8753SOL    HW137892   3.779   1.424   3.287 -0.0563 -1.1230  0.7580
 8753SOL    HW237893   3.788   1.563   3.314 -0.7994  0.3208  0.2187
 8754SOL     OW37894   2.697   2.581   6.959  0.5344  0.3466 -0.5514
 8754SOL    HW137895   2.789   2.567   6.983 -1.0957 -3.6925  3.3213
 8754SOL    HW237896   2.709   2.583   6.864  1.2108 -1.8695 -0.5162
 8755SOL     OW37897   2.270   1.735   1.543  0.3044 -0.1687  0.2015
 8755SOL    HW137898   2.359   1.725   1.576  1.3757  1.6668 -2.0640
 8755SOL    HW237899   2.281   1.685   1.462 -1.0829  0.4909 -0.3991
 8756SOL     OW37900   3.502   0.157   6.340  0.4179  0.0205 -0.3086
 8756SOL    HW137901   3.469   0.247   6.341 -1.7280 -0.7714  0.5983
 8756SOL    HW237902   3.582   0.173   6.390 -0.1380 -1.5256  1.0834
 8757SOL     OW37903   1.521   0.858   6.419 -0.2395  0.4178 -0.4792
 8757SOL    HW137904   1.464   0.791   6.382 -0.3425  1.2263 -1.7792
 8757SOL    HW237905   1.604   0.810   6.428 -1.0672 -0.8265  0.6099
 8758SOL     OW37906   1.890   4.537   7.619  0.6626 -0.0172 -0.1440
 8758SOL    HW137907   1.866   4.498   7.703  2.4746  0.7337  0.7407
 8758SOL    HW237908   1.807   4.564   7.581  0.8644 -1.8827 -1.8720
 8759SOL     OW37909   4.047   3.410   9.943  0.0158 -0.3193  0.2781
 8759SOL    HW137910   4.137   3.445   9.940 -0.9395  2.0079 -2.1729
 8759SOL    HW237911   4.050   3.351  10.017  0.0320  0.4030  0.8554
 8760SOL     OW37912   2.044   4.522   1.533 -0.3761 -0.1981 -0.3796
 8760SOL    HW137913   2.012   4.532   1.443  1.3338 -0.4845 -1.0159
 8760SOL    HW237914   2.019   4.430   1.542  0.5036 -0.5518 -1.5811
 8761SOL     OW37915   0.775   1.441   5.352 -0.5173 -0.2065  0.1254
 8761SOL    HW137916   0.835   1.374   5.384 -1.1140 -0.4331  0.7885
 8761SOL    HW237917   0.712   1.439   5.424  0.9079  0.4690  1.3914
 8762SOL     OW37918   3.577   2.187   4.348 -0.3831  0.1425 -0.1038
 8762SOL    HW137919   3.594   2.263   4.292  3.5086 -1.0495 -0.4956
 8762SOL    HW237920   3.656   2.135   4.339  0.3384  1.2429 -0.0935
 8763SOL     OW37921   0.269   0.496   2.435 -0.3907  0.4593  0.5692
 8763SOL    HW137922   0.200   0.510   2.370  2.3907  2.3962 -1.9414
 8763SOL    HW237923   0.257   0.401   2.441 -1.8344  0.5739 -0.4631
 8764SOL     OW37924   2.054   3.368   5.997 -0.5103  0.3470 -0.3887
 8764SOL    HW137925   2.017   3.446   6.039 -0.1489 -0.3632  1.2375
 8764SOL    HW237926   2.001   3.366   5.918 -2.1622 -3.8964  0.8586
 8765SOL     OW37927   0.122   2.565  13.268 -0.2379  0.2282 -0.2407
 8765SOL    HW137928   0.167   2.582  13.350 -0.3679  0.2843 -0.1800
 8765SOL    HW237929   0.196   2.534  13.216 -0.5133 -0.4345 -0.2425
 8766SOL     OW37930   1.078   0.636   4.765  0.3265  0.0822  0.6401
 8766SOL    HW137931   1.028   0.636   4.683  2.7787 -0.6773 -0.8899
 8766SOL    HW237932   1.099   0.729   4.772 -0.0434  0.3250 -1.4768
 8767SOL     OW37933   4.103   3.994  17.157  0.2007  0.4025 -0.0732
 8767SOL    HW137934   4.012   3.991  17.184 -0.6163 -0.5039 -2.9803
 8767SOL    HW237935   4.118   3.900  17.148  2.0494  0.5734  1.1784
 8768SOL     OW37936   0.916   3.100   7.129  0.1955  0.0466 -0.1330
 8768SOL    HW137937   0.857   3.165   7.090 -0.3907  0.2307  1.0642
 8768SOL    HW237938   0.971   3.086   7.052  1.2658  0.6923  0.5219
 8769SOL     OW37939   3.858   1.459  16.113 -0.3635  0.5113  0.6470
 8769SOL    HW137940   3.921   1.482  16.045 -0.7473 -0.9533 -0.1984
 8769SOL    HW237941   3.893   1.383  16.159 -1.7488  0.3815  1.5100
 8770SOL     OW37942   2.864   3.794   6.644 -0.2462 -0.4950  0.0294
 8770SOL    HW137943   2.776   3.791   6.683  0.5789 -0.2469  1.9307
 8770SOL    HW237944   2.853   3.844   6.564  0.9631 -1.7211 -0.8977
 8771SOL     OW37945   4.201   1.945  13.417 -0.0901 -0.1608  0.3495
 8771SOL    HW137946   4.117   1.943  13.370 -0.1044  4.9171  0.1403
 8771SOL    HW237947   4.193   2.025  13.469 -0.3573  1.1453 -1.6841
 8772SOL     OW37948   3.900   3.507  13.465 -0.6428 -0.0911  0.3539
 8772SOL    HW137949   3.837   3.576  13.445 -1.1820 -0.4964  0.6535
 8772SOL    HW237950   3.894   3.507  13.560  1.0069 -1.7990  0.4622
 8773SOL     OW37951   2.015   2.403  15.162  0.6839 -0.6828  0.1781
 8773SOL    HW137952   1.927   2.436  15.180  1.2290  0.6300  0.3722
 8773SOL    HW237953   2.075   2.473  15.187  1.2519 -0.4116 -1.9658
 8774SOL     OW37954   2.306   4.167   6.140  0.0387 -0.0695  0.2084
 8774SOL    HW137955   2.358   4.214   6.205  0.3062  0.7511 -0.5986
 8774SOL    HW237956   2.324   4.077   6.166 -2.2541 -0.2325  1.2600
 8775SOL     OW37957   1.299   3.452   1.449 -0.3167 -0.1854  0.3576
 8775SOL    HW137958   1.204   3.438   1.457 -0.7553  2.4856 -0.3364
 8775SOL    HW237959   1.303   3.548   1.448 -1.0861 -0.1043  2.9755
 8776SOL     OW37960   2.375   3.848   2.990 -0.1477  0.1974  0.2009
 8776SOL    HW137961   2.284   3.878   2.984  0.9510  3.4300 -0.6494
 8776SOL    HW237962   2.396   3.871   3.081  0.0262  0.5386  0.0743
 8777SOL     OW37963   2.950   1.255   2.501  0.5573  0.0505 -0.1386
 8777SOL    HW137964   2.984   1.221   2.419  0.7808  0.4396 -0.2075
 8777SOL    HW237965   2.857   1.245   2.484  0.5650 -0.5513  0.1753
 8778SOL     OW37966   4.028   2.870   4.782 -0.3029  0.3713  0.0640
 8778SOL    HW137967   4.104   2.830   4.824 -1.5634 -0.9076  1.1816
 8778SOL    HW237968   3.993   2.926   4.851  0.5955  0.5562  0.3567
 8779SOL     OW37969   0.556   4.070   9.061  0.0553  0.4226  0.1920
 8779SOL    HW137970   0.557   4.098   9.153  0.2689  0.0484  0.3017
 8779SOL    HW237971   0.638   4.105   9.026  0.2945 -0.1281  0.1947
 8780SOL     OW37972   3.560   2.197   0.438  0.0287  0.0514  0.0527
 8780SOL    HW137973   3.474   2.203   0.397 -0.4875 -1.6284  0.9320
 8780SOL    HW237974   3.620   2.205   0.364 -0.6483  0.1074 -0.4832
 8781SOL     OW37975   2.273   3.260   3.010 -0.3812  0.4461 -0.6481
 8781SOL    HW137976   2.291   3.353   2.995 -0.6362  0.9050  1.9813
 8781SOL    HW237977   2.220   3.264   3.089  0.2263  1.5016 -0.2909
 8782SOL     OW37978   3.833   3.402   2.438  0.3175 -0.1955 -0.1884
 8782SOL    HW137979   3.871   3.350   2.509 -1.1222  0.0960  0.8111
 8782SOL    HW237980   3.903   3.463   2.415 -0.0312 -0.1729 -1.2209
 8783SOL     OW37981   1.221   0.798   9.417  0.6207  0.4174  0.3857
 8783SOL    HW137982   1.212   0.745   9.337  0.7029  2.7438 -1.1541
 8783SOL    HW237983   1.137   0.843   9.418 -0.7808 -2.1386 -0.6159
 8784SOL     OW37984   2.034   2.017   8.626  0.2582 -0.1571 -0.2208
 8784SOL    HW137985   2.015   2.081   8.695  1.7913  1.3407 -1.1870
 8784SOL    HW237986   2.085   1.955   8.677  0.0488 -0.6834 -0.6604
 8785SOL     OW37987   1.703   2.189   0.393  0.3201  0.1058 -0.5991
 8785SOL    HW137988   1.674   2.107   0.354  0.7963  0.2470 -1.2540
 8785SOL    HW237989   1.720   2.239   0.313  0.5499  1.1689  0.1053
 8786SOL     OW37990   3.581   3.799   9.403  0.2442 -0.5860 -0.1709
 8786SOL    HW137991   3.503   3.747   9.384  0.1285 -1.1106  1.7316
 8786SOL    HW237992   3.558   3.881   9.360 -1.2645 -0.3987  1.0131
 8787SOL     OW37993   0.446   3.058   6.696 -0.2536  0.1910 -0.1127
 8787SOL    HW137994   0.490   3.112   6.631 -1.3715  0.3699 -0.7240
 8787SOL    HW237995   0.401   3.132   6.739 -0.0563  0.2704 -0.0428
 8788SOL     OW37996   0.152   3.138  16.101  0.7501 -0.5397 -0.1057
 8788SOL    HW137997   0.067   3.151  16.143  1.2095  0.9477  0.3587
 8788SOL    HW237998   0.150   3.048  16.067  2.2711  0.4100 -2.6855
 8789SOL     OW37999   1.572   0.928   5.251  0.6367  0.8534 -0.4099
 8789SOL    HW138000   1.658   0.947   5.213  1.5724  0.1004  1.3502
 8789SOL    HW238001   1.572   0.832   5.246 -2.9373  0.7878  0.7239
 8790SOL     OW38002   1.316   4.691   3.764 -0.7533 -1.2506  0.3893
 8790SOL    HW138003   1.320   4.612   3.817 -3.7391 -1.9281 -0.3799
 8790SOL    HW238004   1.406   4.721   3.750 -2.0448  1.3162 -2.4868
 8791SOL     OW38005   0.719   4.043   4.055 -0.4356 -0.6525  0.0879
 8791SOL    HW138006   0.777   3.970   4.075  1.2716 -0.4615 -4.1353
 8791SOL    HW238007   0.671   4.053   4.137 -1.4172  0.7972 -0.6543
 8792SOL     OW38008   1.680   0.493   5.708  0.0074 -0.2737  0.2034
 8792SOL    HW138009   1.594   0.457   5.686  0.9673 -0.9325 -2.4201
 8792SOL    HW238010   1.675   0.472   5.801 -1.7083 -1.0768 -0.0660
 8793SOL     OW38011   0.129   0.980   7.218 -0.1691 -0.1554  0.2360
 8793SOL    HW138012   0.057   0.990   7.281 -0.9606  0.8470 -0.8167
 8793SOL    HW238013   0.070   0.959   7.145  0.4172  3.0252 -1.1725
 8794SOL     OW38014   3.818   1.105   7.783  0.1702  0.0769  0.1097
 8794SOL    HW138015   3.841   1.061   7.865 -0.8748  0.5652  0.6663
 8794SOL    HW238016   3.815   1.196   7.812 -0.7552 -0.2474  1.0453
 8795SOL     OW38017   0.600   4.242  11.034 -0.1357 -0.3175 -0.5346
 8795SOL    HW138018   0.671   4.302  11.012 -1.7657  1.9530  0.3617
 8795SOL    HW238019   0.646   4.175  11.085 -0.8836 -0.5772 -0.1980
 8796SOL     OW38020   4.730   4.660  16.133 -0.8142  0.1184 -0.3202
 8796SOL    HW138021   0.030   4.696  16.213 -2.0662  1.3886 -0.2913
 8796SOL    HW238022   4.656   4.718  16.112  0.1095  0.7354 -1.9220
 8797SOL     OW38023   0.790   1.986   7.320 -0.1776 -0.3186 -0.0384
 8797SOL    HW138024   0.708   1.985   7.369 -0.7583 -0.9505 -1.0231
 8797SOL    HW238025   0.851   1.935   7.373 -0.9179 -0.9257  0.2290
 8798SOL     OW38026   3.874   4.557   3.897 -0.2662 -0.2881  0.5021
 8798SOL    HW138027   3.795   4.523   3.940 -2.1744  3.6920  0.0863
 8798SOL    HW238028   3.851   4.625   3.834  0.2649  0.1798  0.8162
 8799SOL     OW38029   1.834   0.760   6.843 -0.2051  0.3762 -0.3978
 8799SOL    HW138030   1.750   0.799   6.818 -0.3886  1.1148  1.3270
 8799SOL    HW238031   1.893   0.778   6.770 -0.2178 -1.4535 -0.8737
 8800SOL     OW38032   1.086   0.675   7.708  0.5383  0.1560  0.2654
 8800SOL    HW138033   1.005   0.661   7.657  1.8257 -0.4734 -1.6003
 8800SOL    HW238034   1.070   0.622   7.786 -0.4184 -1.1166 -0.7889
 8801SOL     OW38035   0.261   3.632   9.625 -0.2153 -0.6336 -0.5028
 8801SOL    HW138036   0.249   3.539   9.603 -2.2099 -0.5738  0.3158
 8801SOL    HW238037   0.241   3.627   9.718 -1.5926 -2.0968 -0.8769
 8802SOL     OW38038   2.036   3.398   4.094  0.3343  0.4453  0.7475
 8802SOL    HW138039   1.995   3.353   4.020  2.2794  0.3204 -0.2676
 8802SOL    HW238040   2.032   3.492   4.075  0.6129  0.6315  1.6206
 8803SOL     OW38041   2.952   2.228  11.321 -0.3041  0.6797  0.1535
 8803SOL    HW138042   2.921   2.248  11.410  0.6870 -1.0992  0.8971
 8803SOL    HW238043   2.901   2.149  11.302 -0.3912  0.8830 -0.4687
 8804SOL     OW38044   0.073   2.836   6.965 -0.0076  0.2897  0.3008
 8804SOL    HW138045   0.025   2.793   6.894  0.8032 -2.4318  1.3884
 8804SOL    HW238046   0.053   2.768   7.030 -1.2207  1.5685  1.2588
 8805SOL     OW38047   3.066   4.524   9.954  0.3396 -0.0772  0.3917
 8805SOL    HW138048   3.063   4.435   9.918 -2.5844  0.7829 -1.5361
 8805SOL    HW238049   3.142   4.553   9.903  1.4055 -0.9435  1.4961
 8806SOL     OW38050   4.122   3.010  10.944 -1.1407  0.0664 -0.7029
 8806SOL    HW138051   4.201   3.061  10.958 -0.3763 -1.1176 -0.7499
 8806SOL    HW238052   4.120   2.966  11.029 -3.1018  0.8504 -0.3451
 8807SOL     OW38053   2.002   1.518  14.958  0.0125  0.5588 -0.2631
 8807SOL    HW138054   1.993   1.530  15.053 -0.8057 -1.0761 -0.1478
 8807SOL    HW238055   1.942   1.585  14.925 -0.6322  1.4364  2.6310
 8808SOL     OW38056   0.493   2.530  15.859 -0.3110  0.4312  0.0052
 8808SOL    HW138057   0.415   2.514  15.806 -0.4566 -0.9047  0.6169
 8808SOL    HW238058   0.510   2.448  15.905 -1.3998  0.7970  1.0654
 8809SOL     OW38059   3.882   0.489  17.135 -0.4214  0.0127  0.0042
 8809SOL    HW138060   3.818   0.448  17.078 -1.1161 -0.3275  1.0510
 8809SOL    HW238061   3.890   0.572  17.087  1.5839 -0.3259 -0.2645
 8810SOL     OW38062   3.676   4.153   7.694 -0.5299 -0.9211  0.3930
 8810SOL    HW138063   3.623   4.081   7.728 -0.4986 -0.3390  1.6988
 8810SOL    HW238064   3.759   4.148   7.741 -0.7295  3.2178  1.2024
 8811SOL     OW38065   3.447   3.724   2.351 -0.0732 -0.6376 -0.4607
 8811SOL    HW138066   3.458   3.672   2.430  1.2298 -0.0396 -0.2591
 8811SOL    HW238067   3.381   3.787   2.381  0.6203 -0.6731  1.1104
 8812SOL     OW38068   4.674   1.888   3.121 -0.3335 -0.4588 -0.3923
 8812SOL    HW138069   4.722   1.811   3.090 -0.1197 -0.5320  0.1305
 8812SOL    HW238070   4.585   1.854   3.112 -0.8857  0.7715  0.4933
 8813SOL     OW38071   3.280   3.074   4.247 -0.4225  0.6603 -0.2030
 8813SOL    HW138072   3.291   3.064   4.153  0.2252  0.6226 -0.1179
 8813SOL    HW238073   3.293   3.169   4.258  1.9218  0.1081  1.6439
 8814SOL     OW38074   2.937   2.127   6.650  0.1535 -0.2639  0.0497
 8814SOL    HW138075   2.924   2.194   6.583  2.1243  0.6459  0.5730
 8814SOL    HW238076   2.851   2.120   6.692 -0.3470  0.0945 -0.8964
 8815SOL     OW38077   2.745   2.046  16.006  0.1534  0.0692  0.0853
 8815SOL    HW138078   2.741   1.965  15.955  0.0667  0.2930 -0.2585
 8815SOL    HW238079   2.653   2.059  16.030 -0.3051 -4.3495  0.7489
 8816SOL     OW38080   0.789   2.803  10.078 -0.4072  0.4102 -0.3355
 8816SOL    HW138081   0.732   2.745  10.129  0.5060 -1.1913 -1.1482
 8816SOL    HW238082   0.764   2.892  10.104  0.5809  0.9911 -1.3718
 8817SOL     OW38083   1.060   4.700   2.636  0.6088 -0.8271 -0.0561
 8817SOL    HW138084   1.039   4.703   2.542  3.9919 -0.9018 -0.8375
 8817SOL    HW238085   0.979   4.654   2.656  1.4304 -2.5256 -0.6470
 8818SOL     OW38086   1.759   2.144  16.508  0.1051  0.1827 -0.0791
 8818SOL    HW138087   1.789   2.085  16.576  1.5833  1.2420  0.1771
 8818SOL    HW238088   1.678   2.102  16.478  0.9670 -1.1139 -0.5995
 8819SOL     OW38089   2.370   1.379  13.686  0.5991 -0.5423  0.0811
 8819SOL    HW138090   2.429   1.358  13.614 -0.7275 -0.8332 -0.9258
 8819SOL    HW238091   2.288   1.368  13.638  0.5755 -2.7380  0.6191
 8820SOL     OW38092   1.159   3.529   5.675  0.2903 -0.6330  0.0881
 8820SOL    HW138093   1.140   3.486   5.592  0.3769 -0.6878  0.0972
 8820SOL    HW238094   1.131   3.619   5.658  0.7087 -0.5943 -0.4176
 8821SOL     OW38095   0.911   0.615   9.217 -0.0145 -0.4501 -0.3999
 8821SOL    HW138096   0.874   0.543   9.267 -0.0671  0.4149  0.8268
 8821SOL    HW238097   0.870   0.614   9.131  1.0224 -2.3615 -0.8629
 8822SOL     OW38098   1.123   2.033  13.153 -0.1862 -1.0512  0.9980
 8822SOL    HW138099   1.108   2.025  13.247 -0.6568 -3.5688  0.7222
 8822SOL    HW238100   1.143   2.126  13.152  0.5973 -1.2169  1.1821
 8823SOL     OW38101   1.761   2.538   6.014  0.6363  0.3095  0.3935
 8823SOL    HW138102   1.670   2.566   6.017  0.0354 -1.6992  0.8225
 8823SOL    HW238103   1.753   2.462   6.073  4.6987  0.0835  0.6911
 8824SOL     OW38104   0.305   4.601   5.830 -0.1489 -0.4650  0.0356
 8824SOL    HW138105   0.223   4.651   5.825  0.7157  0.9366 -0.0687
 8824SOL    HW238106   0.304   4.592   5.925  1.8783 -1.3971 -0.0360
 8825SOL     OW38107   3.572   4.175  16.682 -0.2144  0.6201  0.0115
 8825SOL    HW138108   3.584   4.258  16.636 -0.6230  0.7895  0.2082
 8825SOL    HW238109   3.645   4.124  16.647 -0.3963  1.6494 -1.8553
 8826SOL     OW38110   2.260   2.059   3.852 -0.0833 -0.1005 -0.3075
 8826SOL    HW138111   2.272   2.119   3.926 -3.3150 -1.1807  1.1066
 8826SOL    HW238112   2.286   1.979   3.897  3.2888  0.2846 -1.6117
 8827SOL     OW38113   1.242   2.325   4.173 -0.4210  0.7401 -0.7461
 8827SOL    HW138114   1.181   2.275   4.119  0.4001 -0.5979 -0.4447
 8827SOL    HW238115   1.182   2.396   4.196 -2.0754 -1.0608  0.5289
 8828SOL     OW38116   1.094   3.916  14.640  0.2632 -0.2929 -0.3585
 8828SOL    HW138117   1.176   3.885  14.678  0.0792  2.0409  1.9467
 8828SOL    HW238118   1.079   3.853  14.569  1.3135  1.9672 -2.6039
 8829SOL     OW38119   4.099   3.484   6.267  0.0438  0.2474  0.1773
 8829SOL    HW138120   4.112   3.572   6.300  1.0870 -0.2476  1.0822
 8829SOL    HW238121   4.008   3.494   6.237 -0.3734  0.6017  1.5723
 8830SOL     OW38122   1.428   4.515   0.175 -0.3516  0.3361 -0.2956
 8830SOL    HW138123   1.429   4.432   0.223  0.9513  0.3477 -0.3202
 8830SOL    HW238124   1.499   4.499   0.113 -1.6272  0.3678 -1.7553
 8831SOL     OW38125   0.475   1.401   4.542  0.3676  0.3390 -0.5342
 8831SOL    HW138126   0.485   1.485   4.586  0.8018  1.4843 -2.8389
 8831SOL    HW238127   0.444   1.347   4.615  2.0119  0.4463  0.2420
 8832SOL     OW38128   2.584   1.498  15.808  0.4281 -0.0822 -0.0255
 8832SOL    HW138129   2.656   1.559  15.792  0.5889 -0.3884 -0.4914
 8832SOL    HW238130   2.535   1.542  15.877  0.9165  1.4397 -0.6413
 8833SOL     OW38131   1.995   4.662   0.518 -0.0304 -0.2156  0.5055
 8833SOL    HW138132   1.929   4.647   0.584 -0.3863 -1.2449 -0.0888
 8833SOL    HW238133   2.078   4.640   0.561 -0.3202 -0.5579  0.8799
 8834SOL     OW38134   2.279   3.695   2.012 -0.4729 -0.2145 -0.3976
 8834SOL    HW138135   2.267   3.743   2.094  0.8195  0.7659 -0.7814
 8834SOL    HW238136   2.340   3.758   1.973  0.2744  1.1427  3.0075
 8835SOL     OW38137   0.556   1.224   9.034 -0.6398 -0.8320  0.1666
 8835SOL    HW138138   0.549   1.255   8.944 -1.2580 -0.5644  0.3083
 8835SOL    HW238139   0.644   1.249   9.063 -0.7203  2.9202 -2.8855
 8836SOL     OW38140   0.136   2.065   2.245  0.2508  0.2784 -0.2311
 8836SOL    HW138141   0.079   2.128   2.289  0.1488 -0.2951  0.4506
 8836SOL    HW238142   0.186   2.120   2.184  0.1485 -0.4052 -0.9256
 8837SOL     OW38143   0.734   3.680   9.355 -0.4954 -0.2735 -0.2615
 8837SOL    HW138144   0.651   3.692   9.400  0.3451  3.0132  0.4171
 8837SOL    HW238145   0.794   3.652   9.424  1.0796 -0.2226 -1.6056
 8838SOL     OW38146   4.210   0.289   6.521  0.7887  0.3379  0.3960
 8838SOL    HW138147   4.267   0.290   6.444  0.7116 -0.4833  0.3311
 8838SOL    HW238148   4.218   0.195   6.537 -0.3179  0.1921  0.1355
 8839SOL     OW38149   1.554   1.266  17.638  0.1376 -0.5725 -0.2008
 8839SOL    HW138150   1.540   1.242  17.546 -0.1919  0.7650 -0.5038
 8839SOL    HW238151   1.520   1.190  17.685 -0.5985 -0.7422 -0.9957
 8840SOL     OW38152   2.933   2.982   3.359  0.3591  0.2419 -0.4479
 8840SOL    HW138153   2.950   2.964   3.266  0.6688 -2.4772  0.1398
 8840SOL    HW238154   2.945   2.895   3.397 -0.5964 -0.6815 -2.2500
 8841SOL     OW38155   4.726   3.088   8.850  0.0829 -0.3450 -0.3233
 8841SOL    HW138156   0.029   3.102   8.765 -2.3602  0.3288 -1.4254
 8841SOL    HW238157   0.045   3.144   8.903 -0.4591  1.5786 -1.7595
 8842SOL     OW38158   2.487   2.826   8.716 -0.4385 -0.0656 -0.4988
 8842SOL    HW138159   2.544   2.826   8.793  1.8399 -2.1811 -2.1978
 8842SOL    HW238160   2.411   2.777   8.750  0.4159  1.1707  3.1822
 8843SOL     OW38161   2.960   0.382  10.785  0.2372 -0.0978 -0.2410
 8843SOL    HW138162   3.052   0.358  10.797  0.7233  1.8998 -0.0242
 8843SOL    HW238163   2.969   0.475  10.804  1.3056 -0.1667 -0.3930
 8844SOL     OW38164   2.996   1.015   2.679  0.0617  1.2344 -0.3786
 8844SOL    HW138165   2.991   1.078   2.607  1.4330 -0.2412 -1.7557
 8844SOL    HW238166   2.907   0.982   2.667  0.3400 -0.4716  2.3929
 8845SOL     OW38167   3.243   2.288   5.468  0.3065  0.2842 -0.2073
 8845SOL    HW138168   3.287   2.203   5.462  1.2823  0.8750 -1.5804
 8845SOL    HW238169   3.162   2.268   5.421  0.7461  1.2118 -1.3629
 8846SOL     OW38170   0.304   0.530   3.100  0.4046 -0.5772 -0.1958
 8846SOL    HW138171   0.380   0.484   3.065  0.3910 -0.9508  0.2629
 8846SOL    HW238172   0.239   0.462   3.085  0.9882 -0.9890 -0.8421
 8847SOL     OW38173   2.971   0.571   0.117  0.5886 -0.3663  0.0412
 8847SOL    HW138174   2.949   0.485   0.154 -0.1789 -0.1658  0.0542
 8847SOL    HW238175   3.065   0.551   0.113  0.6557 -0.2406  1.2877
 8848SOL     OW38176   3.559   4.435   4.281  0.2629 -0.0911 -0.3586
 8848SOL    HW138177   3.519   4.505   4.332  1.3657  1.0933 -1.1172
 8848SOL    HW238178   3.650   4.462   4.296 -0.3896  1.9955 -0.1982
 8849SOL     OW38179   4.120   2.982  16.727 -0.0761  0.6374 -0.1901
 8849SOL    HW138180   4.040   3.021  16.692 -1.8687 -3.4530 -0.6799
 8849SOL    HW238181   4.186   3.050  16.715 -1.4069  1.9634 -0.0787
 8850SOL     OW38182   3.499   0.297   5.664  0.2257 -0.6968 -0.0067
 8850SOL    HW138183   3.445   0.331   5.735 -2.1783 -0.4737 -1.9235
 8850SOL    HW238184   3.431   0.263   5.605  0.0380  3.0234 -1.9681
 8851SOL     OW38185   4.248   0.407   7.866  0.8778 -0.5067  0.3315
 8851SOL    HW138186   4.203   0.386   7.948 -0.8353  1.3261 -0.1362
 8851SOL    HW238187   4.332   0.371   7.895  0.7307 -0.5142  0.7352
 8852SOL     OW38188   3.153   0.764   6.951  0.2609 -0.0108  0.9351
 8852SOL    HW138189   3.112   0.724   7.027 -4.5107  2.7814 -0.1924
 8852SOL    HW238190   3.247   0.757   6.968 -0.0107 -1.0842  1.9924
 8853SOL     OW38191   4.506   4.295   2.435 -0.0190  0.3301 -0.3061
 8853SOL    HW138192   4.543   4.299   2.524 -0.1546  3.9201 -0.3943
 8853SOL    HW238193   4.442   4.226   2.453  0.4149 -0.4703 -1.9733
 8854SOL     OW38194   1.820   3.657   5.216  0.1299 -1.0665 -0.1627
 8854SOL    HW138195   1.756   3.724   5.193  0.3069 -0.5031  0.9923
 8854SOL    HW238196   1.905   3.698   5.233 -1.1943  1.2040  0.9268
 8855SOL     OW38197   1.862   0.120   2.160  0.5917  0.1604  0.1400
 8855SOL    HW138198   1.893   0.062   2.091  0.1363  0.3437 -0.2183
 8855SOL    HW238199   1.941   0.167   2.187  0.6779  0.0428  0.0946
 8856SOL     OW38200   0.006   0.179   7.186  0.6933 -0.4115  0.3730
 8856SOL    HW138201   4.661   0.198   7.228 -0.9864  0.3067 -3.2738
 8856SOL    HW238202   4.731   0.230   7.106 -0.5611 -1.4243 -0.0476
 8857SOL     OW38203   1.811   0.378  16.537 -0.3521  0.4453 -0.1560
 8857SOL    HW138204   1.770   0.430  16.606 -1.4974  0.3513 -0.7533
 8857SOL    HW238205   1.808   0.430  16.456  2.7926 -0.3094 -0.7513
 8858SOL     OW38206   3.012   0.419   5.770 -0.7337  0.5547 -0.2529
 8858SOL    HW138207   2.975   0.419   5.858 -0.2077 -0.7991 -0.0235
 8858SOL    HW238208   2.975   0.501   5.740 -0.8138  0.3609 -0.6841
 8859SOL     OW38209   0.236   0.095   1.596  0.0762 -0.3456 -0.3993
 8859SOL    HW138210   0.150   0.107   1.556  0.2691  2.9234  0.1193
 8859SOL    HW238211   0.218   0.040   1.672  1.1620 -0.3464 -0.1374
 8860SOL     OW38212   1.268   1.876  10.906  0.1198  0.5658 -0.1976
 8860SOL    HW138213   1.274   1.953  10.963 -0.5562  0.1837  0.3925
 8860SOL    HW238214   1.362   1.860  10.905 -0.2626 -1.4207 -2.7578
 8861SOL     OW38215   4.040   4.142  16.019 -0.3505 -0.1618 -0.5313
 8861SOL    HW138216   4.046   4.048  16.005  1.7668  0.3774 -3.4932
 8861SOL    HW238217   4.014   4.175  15.932 -1.2441 -0.8553 -0.5261
 8862SOL     OW38218   3.745   0.478  10.150  0.3294 -0.0980  0.0298
 8862SOL    HW138219   3.722   0.471  10.057 -0.8941  1.1265  0.2536
 8862SOL    HW238220   3.693   0.414  10.199  2.5143 -1.3810  0.7060
 8863SOL     OW38221   1.384   2.901   2.133 -0.1468  0.1945 -0.4452
 8863SOL    HW138222   1.477   2.921   2.149  0.6106 -3.4631 -0.2144
 8863SOL    HW238223   1.387   2.851   2.052  3.8557  0.2008 -0.3431
 8864SOL     OW38224   2.624   3.593   3.756 -1.0843  0.3795  0.4875
 8864SOL    HW138225   2.671   3.650   3.817  2.3651 -1.6912 -0.2387
 8864SOL    HW238226   2.540   3.626   3.789 -0.7515  2.2232 -0.5443
 8865SOL     OW38227   2.947   1.108  11.516  0.0556  0.5779  0.1961
 8865SOL    HW138228   2.930   1.195  11.552  0.4028  0.8225 -0.2368
 8865SOL    HW238229   2.927   1.049  11.590 -0.7326  0.0315 -0.4569
 8866SOL     OW38230   3.123   1.013   6.363  0.4843  0.2243 -0.5165
 8866SOL    HW138231   3.049   0.977   6.313  0.2562 -1.1364  0.7995
 8866SOL    HW238232   3.080   1.032   6.447  0.4404 -3.4130  0.2915
 8867SOL     OW38233   3.538   2.894   7.706  0.1060  0.2103  0.3310
 8867SOL    HW138234   3.534   2.900   7.801 -2.3365 -1.0771  0.3151
 8867SOL    HW238235   3.538   2.800   7.692 -4.2809  0.3493 -0.8600
 8868SOL     OW38236   3.370   2.858   3.903  0.3890  0.5444  0.3094
 8868SOL    HW138237   3.301   2.924   3.909  2.2085  2.2532  2.5306
 8868SOL    HW238238   3.405   2.878   3.816 -1.9035 -2.5414 -1.3161
 8869SOL     OW38239   1.229   1.232   3.966 -0.2735  0.0579 -0.4151
 8869SOL    HW138240   1.253   1.139   3.967  3.8082  1.1209  1.7286
 8869SOL    HW238241   1.243   1.259   3.876  1.1439 -0.6624 -0.4056
 8870SOL     OW38242   3.376   4.092   5.223  0.0531  0.6479  0.3647
 8870SOL    HW138243   3.290   4.052   5.208  0.0631  1.1078 -0.8889
 8870SOL    HW238244   3.363   4.126   5.312  1.4034 -0.5093  1.0050
 8871SOL     OW38245   2.201   2.900  10.835 -0.4491  0.1740  0.1818
 8871SOL    HW138246   2.207   2.840  10.760 -1.1083  1.2764 -0.7601
 8871SOL    HW238247   2.140   2.858  10.895 -0.3495 -2.9541 -1.9317
 8872SOL     OW38248   0.522   1.975   8.882  0.0464  0.0126 -0.3139
 8872SOL    HW138249   0.550   2.042   8.945  0.6727 -0.6741  0.1336
 8872SOL    HW238250   0.502   2.035   8.810  0.6372  0.2682 -0.2643
 8873SOL     OW38251   4.523   2.107   8.398  0.3793  0.2736 -0.4350
 8873SOL    HW138252   4.543   2.091   8.306 -2.5229 -2.8426 -0.5117
 8873SOL    HW238253   4.524   2.203   8.399 -1.9670  0.3059 -1.7889
 8874SOL     OW38254   1.001   0.826  10.707 -0.4412 -0.3534 -0.0113
 8874SOL    HW138255   1.044   0.853  10.789 -2.1081  0.2041  0.6835
 8874SOL    HW238256   0.931   0.890  10.718 -0.2603 -0.0230 -0.7674
 8875SOL     OW38257   4.520   1.228   7.151  0.4465 -0.0574  0.3396
 8875SOL    HW138258   4.551   1.293   7.214 -1.2490  1.4646 -0.3686
 8875SOL    HW238259   4.472   1.179   7.218 -1.9861  2.0594  0.1523
 8876SOL     OW38260   4.107   0.039  12.267 -0.6358  0.4075  0.6472
 8876SOL    HW138261   4.029   0.002  12.308 -0.5846 -1.2412 -0.7434
 8876SOL    HW238262   4.068   0.113  12.220 -0.7751 -0.2130 -0.1962
 8877SOL     OW38263   3.502   1.969   7.248  0.4960 -0.1081 -0.1400
 8877SOL    HW138264   3.468   1.948   7.162 -1.1672  2.5230 -0.1466
 8877SOL    HW238265   3.581   2.015   7.218  0.5811 -1.5202 -2.0043
 8878SOL     OW38266   0.033   2.647   8.796 -0.1630 -0.2451 -0.1001
 8878SOL    HW138267   0.062   2.689   8.715  1.6565  0.1289  0.7544
 8878SOL    HW238268   0.044   2.719   8.859  2.4984 -0.8354  0.1278
 8879SOL     OW38269   0.627   4.696   6.301  0.1382  0.1787 -0.7174
 8879SOL    HW138270   0.571   4.655   6.235 -1.1404  0.2600  0.2935
 8879SOL    HW238271   0.705   4.713   6.249  0.9947 -1.2056  0.0956
 8880SOL     OW38272   4.376   2.036   3.989 -0.1416  0.4550  0.2509
 8880SOL    HW138273   4.419   2.113   4.026  2.9528  0.0551 -2.5135
 8880SOL    HW238274   4.373   2.062   3.897  1.8045  0.2734  0.1464
 8881SOL     OW38275   1.496   0.557   6.879  0.3803 -0.2272  0.4870
 8881SOL    HW138276   1.543   0.622   6.931 -1.9759  0.0336  2.2606
 8881SOL    HW238277   1.438   0.522   6.947 -0.2845  0.1962  0.1399
 8882SOL     OW38278   1.740   2.214   4.327  0.3954  0.1759 -0.2048
 8882SOL    HW138279   1.801   2.265   4.381  0.4318  0.1820 -0.2523
 8882SOL    HW238280   1.760   2.239   4.237  1.1296  1.1817  0.2447
 8883SOL     OW38281   3.643   3.778  10.972 -0.4777  0.2332  0.6992
 8883SOL    HW138282   3.707   3.787  11.043 -0.0587  0.7889  0.2415
 8883SOL    HW238283   3.565   3.741  11.015 -0.8862 -0.5966 -0.7761
 8884SOL     OW38284   3.078   3.764   9.399 -0.2761 -0.4145 -0.4032
 8884SOL    HW138285   3.074   3.714   9.480 -1.3116 -1.5844 -1.1845
 8884SOL    HW238286   3.164   3.742   9.364 -0.2825 -0.5498 -0.3315
 8885SOL     OW38287   2.380   3.700  14.988  0.0049  0.3641 -0.0875
 8885SOL    HW138288   2.393   3.727  15.078 -0.2942  0.6759 -0.1408
 8885SOL    HW238289   2.420   3.773  14.941 -0.1195  1.3052  1.3009
 8886SOL     OW38290   3.008   3.020   4.287 -0.2678  0.2615  0.1529
 8886SOL    HW138291   3.017   2.931   4.253  3.4166  0.5304  0.3751
 8886SOL    HW238292   3.097   3.052   4.271  0.2993 -2.1547 -1.5244
 8887SOL     OW38293   4.265   0.538   4.318  0.8999 -0.6798 -0.5510
 8887SOL    HW138294   4.256   0.449   4.351  1.9722 -0.4249  0.4399
 8887SOL    HW238295   4.199   0.536   4.248 -1.5002 -0.5334  1.6761
 8888SOL     OW38296   4.447   4.649   9.113  0.2750  0.7376  0.0077
 8888SOL    HW138297   4.532   4.614   9.140 -0.5544 -0.1411  1.4541
 8888SOL    HW238298   4.418   4.692   9.193 -2.2991 -0.9447 -0.0418
 8889SOL     OW38299   2.919   2.395   2.301 -0.3395 -0.0216 -0.2340
 8889SOL    HW138300   2.882   2.425   2.384  2.5268 -0.3402  1.1701
 8889SOL    HW238301   2.943   2.304   2.318  0.6820  0.2121 -0.3800
 8890SOL     OW38302   3.986   1.225   5.280 -0.5196  0.1004 -0.1383
 8890SOL    HW138303   4.032   1.159   5.228  0.8908  1.2011 -0.2951
 8890SOL    HW238304   3.901   1.185   5.298 -1.6379  2.6233  0.2109
 8891SOL     OW38305   4.389   3.506   8.800 -0.0655  0.4569  0.5465
 8891SOL    HW138306   4.461   3.512   8.863 -1.7859  1.1143  2.4478
 8891SOL    HW238307   4.344   3.423   8.816  0.5882  0.2211  1.1746
 8892SOL     OW38308   2.058   1.920  17.526  0.1035 -0.4934 -0.7059
 8892SOL    HW138309   2.091   1.896  17.440  1.2297  0.6576 -0.5882
 8892SOL    HW238310   1.964   1.935  17.513  0.0756  0.2559  0.2990
 8893SOL     OW38311   0.879   1.241   1.902  0.0213 -0.7443  0.4148
 8893SOL    HW138312   0.974   1.237   1.912  0.3629 -1.4587 -3.0501
 8893SOL    HW238313   0.868   1.288   1.820  0.3784 -0.8171  0.3271
 8894SOL     OW38314   0.639   0.793   4.916  0.5769  0.0882 -0.0341
 8894SOL    HW138315   0.581   0.759   4.983  0.1370 -2.0381 -1.4918
 8894SOL    HW238316   0.717   0.738   4.915  0.6274  0.1340  1.7784
 8895SOL     OW38317   3.593   1.378   1.832 -0.0634  0.2823  0.1094
 8895SOL    HW138318   3.542   1.446   1.789 -0.7479 -0.3287 -0.0482
 8895SOL    HW238319   3.667   1.423   1.872 -0.2838 -0.0705  0.9316
 8896SOL     OW38320   4.369   3.115  16.521 -0.1605  0.0658 -0.6956
 8896SOL    HW138321   4.313   3.067  16.460 -1.5813  0.0248  0.6445
 8896SOL    HW238322   4.456   3.110  16.480  0.9338 -1.1022  1.7402
 8897SOL     OW38323   1.298   1.255   1.721 -0.3965  0.0135  0.0430
 8897SOL    HW138324   1.266   1.238   1.809  1.5002  1.9973  1.0965
 8897SOL    HW238325   1.247   1.333   1.699  0.9440  0.7754 -0.3244
 8898SOL     OW38326   1.974   1.246   4.999 -0.1727 -0.3290  0.7541
 8898SOL    HW138327   2.042   1.249   4.932  0.1955 -2.7432  1.0307
 8898SOL    HW238328   2.009   1.170   5.046  0.6349  1.1346  2.5357
 8899SOL     OW38329   4.388   0.184   6.836 -0.2939 -0.5863  0.1526
 8899SOL    HW138330   4.474   0.144   6.820  0.4806  0.7932  0.9697
 8899SOL    HW238331   4.393   0.259   6.777 -1.6419 -1.1192 -0.6346
 8900SOL     OW38332   3.279   0.652   2.505 -0.2985  0.1929 -0.2211
 8900SOL    HW138333   3.300   0.695   2.422 -1.2148  0.6014 -0.2385
 8900SOL    HW238334   3.307   0.719   2.568  3.5783 -1.7919  0.1760
 8901SOL     OW38335   3.142   3.188   5.973  0.1199 -0.2206 -0.0371
 8901SOL    HW138336   3.129   3.095   5.953  0.4959  0.1624 -2.1168
 8901SOL    HW238337   3.153   3.186   6.068 -2.2932 -0.0899  0.2465
 8902SOL     OW38338   1.475   2.673  12.261  0.1258 -0.6109  0.4433
 8902SOL    HW138339   1.490   2.596  12.316  0.0542 -1.2863 -0.4896
 8902SOL    HW238340   1.442   2.731  12.330  1.6403 -0.4090  0.9921
 8903SOL     OW38341   0.423   4.342  13.355 -0.4219  0.7156  0.5525
 8903SOL    HW138342   0.383   4.422  13.388  0.0577  0.6122  1.3978
 8903SOL    HW238343   0.438   4.301  13.441 -1.6495 -1.1219 -0.1058
 8904SOL     OW38344   4.686   3.910   7.037 -0.0975  0.6431  0.2935
 8904SOL    HW138345   0.006   3.852   7.086  0.3695 -0.3998 -1.4660
 8904SOL    HW238346   4.605   3.890   7.085 -1.3999  0.9266 -1.7712
 8905SOL     OW38347   2.165   3.240   4.966  0.4338  0.2926 -0.1972
 8905SOL    HW138348   2.170   3.149   4.997  0.2515  1.4781  3.3410
 8905SOL    HW238349   2.162   3.283   5.051  1.7743 -1.3466  0.6819
 8906SOL     OW38350   1.909   0.951  17.584  0.2094 -0.2080  0.3439
 8906SOL    HW138351   1.871   1.029  17.544 -0.4064 -1.2808 -1.1994
 8906SOL    HW238352   1.976   0.921  17.522 -1.3899  1.0270 -1.9988
 8907SOL     OW38353   1.745   0.997   6.230 -0.1156 -0.1686  0.0364
 8907SOL    HW138354   1.751   1.069   6.166  2.9749  0.6909  1.2909
 8907SOL    HW238355   1.656   1.015   6.260  0.1135 -1.3196  1.3667
 8908SOL     OW38356   0.314   4.648   3.223 -0.1819  0.0809  0.6991
 8908SOL    HW138357   0.397   4.625   3.266  0.3381  0.9997  0.1850
 8908SOL    HW238358   0.335   4.668   3.131 -1.1484 -2.1870 -0.0234
 8909SOL     OW38359   4.115   1.541   9.382 -0.2114 -0.6047  0.3003
 8909SOL    HW138360   4.154   1.593   9.453  1.5091 -0.0807 -1.0329
 8909SOL    HW238361   4.083   1.468   9.435  0.0610 -1.6041 -0.9194
 8910SOL     OW38362   0.804   2.657   8.271 -0.3715  0.4596  0.1519
 8910SOL    HW138363   0.863   2.606   8.327  1.0015  1.2711 -0.5589
 8910SOL    HW238364   0.844   2.743   8.260  0.0098  0.1482 -0.9406
 8911SOL     OW38365   3.353   4.236   6.522  0.1423 -0.2113  0.6173
 8911SOL    HW138366   3.401   4.309   6.561 -0.7286  0.2169  0.9014
 8911SOL    HW238367   3.379   4.242   6.430 -1.8586  4.0307  0.3272
 8912SOL     OW38368   1.556   1.439  12.597  0.0829 -0.6630  0.0944
 8912SOL    HW138369   1.586   1.352  12.621 -1.8334 -0.9786  1.3900
 8912SOL    HW238370   1.542   1.479  12.683  0.1539  0.5949 -0.4650
 8913SOL     OW38371   4.121   3.273  14.666  0.0005  0.5054 -0.1375
 8913SOL    HW138372   4.075   3.278  14.749 -0.1037 -2.0988 -0.0303
 8913SOL    HW238373   4.191   3.208  14.676  0.0445  0.5504 -0.1512
 8914SOL     OW38374   4.512   2.363   6.691 -0.3483  0.2343 -0.0420
 8914SOL    HW138375   4.534   2.282   6.737 -0.8590 -0.1515 -0.4814
 8914SOL    HW238376   4.425   2.341   6.657 -1.0646  2.4382  0.3828
 8915SOL     OW38377   4.645   4.552   8.344  0.9062  0.0406 -0.0566
 8915SOL    HW138378   4.714   4.539   8.410  0.5306  1.5614  0.6337
 8915SOL    HW238379   4.588   4.477   8.363  0.6813  0.1366 -0.3647
 8916SOL     OW38380   4.369   2.554  10.391  0.1728  0.0041 -0.4020
 8916SOL    HW138381   4.341   2.534  10.302  0.0465  1.4717 -0.6834
 8916SOL    HW238382   4.324   2.636  10.409  1.0796  0.4618 -0.2206
 8917SOL     OW38383   3.762   1.169   1.613  0.0613 -0.2772 -0.2015
 8917SOL    HW138384   3.667   1.171   1.613  0.0709 -0.5579  1.6242
 8917SOL    HW238385   3.785   1.089   1.564  1.3284 -0.0138 -0.0494
 8918SOL     OW38386   4.493   2.383  17.441 -0.0910  0.9101 -0.2351
 8918SOL    HW138387   4.585   2.404  17.428 -0.0155  0.3150 -0.6790
 8918SOL    HW238388   4.500   2.320  17.512 -0.5358  0.9856 -0.1235
 8919SOL     OW38389   1.770   0.031  15.006  0.1813 -0.0031 -0.2890
 8919SOL    HW138390   1.702   4.725  14.955  1.7213 -1.2955 -1.2425
 8919SOL    HW238391   1.783   0.116  14.963  0.0069  0.1149 -0.1046
 8920SOL     OW38392   1.203   2.817  16.541  0.8906  0.3539 -0.1257
 8920SOL    HW138393   1.275   2.851  16.594 -0.0249 -1.4256  2.2964
 8920SOL    HW238394   1.128   2.862  16.579 -0.3043 -1.7765  0.0807
 8921SOL     OW38395   3.654   1.228  11.808  0.0292 -0.2817 -0.2802
 8921SOL    HW138396   3.673   1.270  11.724 -0.4480 -0.6089 -0.5517
 8921SOL    HW238397   3.595   1.161  11.775  1.2250 -0.4704 -2.0194
 8922SOL     OW38398   4.619   1.919   2.161 -0.0550 -0.5963 -0.8222
 8922SOL    HW138399   4.656   1.992   2.210  0.6381 -2.2022  1.0241
 8922SOL    HW238400   4.549   1.965   2.114 -0.6433  1.0777  1.6775
 8923SOL     OW38401   4.359   4.630   6.913 -0.1279 -0.4570 -0.2001
 8923SOL    HW138402   4.324   4.713   6.879  1.8864  0.5441  0.2042
 8923SOL    HW238403   4.293   4.573   6.872  1.2109 -2.1136 -0.0200
 8924SOL     OW38404   1.835   4.550  14.599  0.0778  0.3957 -0.0325
 8924SOL    HW138405   1.761   4.496  14.628  0.2127 -0.5928 -1.5180
 8924SOL    HW238406   1.781   4.617  14.558  1.6468  1.1860 -0.7775
 8925SOL     OW38407   4.714   1.369   7.323  0.2947 -0.0969  0.2418
 8925SOL    HW138408   0.043   1.346   7.386  0.9583 -0.7562 -0.7048
 8925SOL    HW238409   4.685   1.458   7.341 -1.6853 -0.4731 -1.0057
 8926SOL     OW38410   2.082   3.269   3.209  0.1946 -0.1115  0.1050
 8926SOL    HW138411   2.065   3.245   3.300 -1.0926 -0.4957 -0.2401
 8926SOL    HW238412   2.035   3.351   3.213 -0.7135 -0.6759  0.9834
 8927SOL     OW38413   3.950   1.628   1.696 -0.3721  0.0411 -0.0022
 8927SOL    HW138414   3.974   1.693   1.631 -2.2233 -0.2200 -0.9325
 8927SOL    HW238415   4.036   1.628   1.740  1.2690  1.2152 -3.2082
 8928SOL     OW38416   0.812   1.613   3.066  0.5387  0.1325 -0.3068
 8928SOL    HW138417   0.838   1.692   3.113 -1.4120 -0.6936  2.1581
 8928SOL    HW238418   0.741   1.652   3.015 -0.5780  1.7098  2.4820
 8929SOL     OW38419   4.610   2.771   6.776 -0.2079 -0.1937 -0.1718
 8929SOL    HW138420   4.561   2.692   6.799  0.8413 -0.7186  0.3032
 8929SOL    HW238421   4.607   2.756   6.682  0.4108 -1.3329 -0.0126
 8930SOL     OW38422   0.006   1.220   9.381  0.4504 -0.1835 -0.2977
 8930SOL    HW138423   4.734   1.296   9.324  0.6317  0.7896  0.9816
 8930SOL    HW238424   4.677   1.161   9.347  0.2984  0.3011 -0.8325
 8931SOL     OW38425   2.490   4.488   5.676  0.0697  0.3168 -0.1228
 8931SOL    HW138426   2.487   4.420   5.609 -1.4226 -0.4783  0.7544
 8931SOL    HW238427   2.475   4.440   5.758 -0.9919  1.7403  0.5144
 8932SOL     OW38428   2.584   2.729   8.488 -0.3155 -0.1460  0.3594
 8932SOL    HW138429   2.502   2.695   8.451 -0.5506 -0.2024  0.9282
 8932SOL    HW238430   2.547   2.759   8.571 -0.5969 -0.3986  0.3255
 8933SOL     OW38431   4.507   2.086   6.347  0.6319  0.0135  0.6202
 8933SOL    HW138432   4.547   2.087   6.259  0.0992 -2.8000  0.3693
 8933SOL    HW238433   4.464   2.171   6.349  1.6252  0.5552 -0.2473
 8934SOL     OW38434   1.006   4.653   0.488 -0.3239 -0.1443 -0.2932
 8934SOL    HW138435   1.067   4.714   0.528 -1.8710 -0.0974  1.9547
 8934SOL    HW238436   1.046   4.657   0.401  0.6258  0.4272  0.1804
 8935SOL     OW38437   2.438   0.177   7.504 -0.3825  0.4967 -0.1623
 8935SOL    HW138438   2.426   0.089   7.468 -1.1763  0.4824  0.1480
 8935SOL    HW238439   2.478   0.164   7.590 -1.1413  0.1793  0.1379
 8936SOL     OW38440   2.970   0.993   3.543 -0.0719 -0.4652 -0.4188
 8936SOL    HW138441   2.880   0.985   3.512 -1.3081  2.4606  2.4742
 8936SOL    HW238442   2.957   0.955   3.630 -0.5758  0.0738 -0.2622
 8937SOL     OW38443   3.684   3.426   5.593 -0.4824 -0.1788 -0.1027
 8937SOL    HW138444   3.707   3.496   5.532 -1.6226  0.2003 -0.0971
 8937SOL    HW238445   3.705   3.345   5.548  0.1452 -0.1605  0.1598
 8938SOL     OW38446   2.003   3.692   3.505 -0.5767  0.4283 -0.0971
 8938SOL    HW138447   2.042   3.713   3.421 -0.3502  1.4280  0.2552
 8938SOL    HW238448   2.080   3.679   3.561 -2.2267 -1.0305  1.8400
 8939SOL     OW38449   1.516   2.292   4.019  0.0605 -0.4501  0.4975
 8939SOL    HW138450   1.608   2.274   4.038  0.2910  0.5214  0.3212
 8939SOL    HW238451   1.465   2.269   4.097 -0.4141  0.8027  0.5655
 8940SOL     OW38452   3.324   4.427  10.998  0.0937  0.2489  0.1969
 8940SOL    HW138453   3.256   4.382  11.048 -0.0283  0.2769  0.0575
 8940SOL    HW238454   3.403   4.410  11.050  0.2627 -1.6865 -0.7079
 8941SOL     OW38455   1.803   3.713   0.706 -0.2539 -0.8952  0.1474
 8941SOL    HW138456   1.774   3.774   0.774 -0.2530  0.1549 -0.8030
 8941SOL    HW238457   1.761   3.629   0.725 -1.2664 -0.0100  1.7890
 8942SOL     OW38458   2.497   4.089   8.114 -0.2897  0.0379  0.2342
 8942SOL    HW138459   2.442   4.044   8.050  0.6897 -0.4645 -0.2542
 8942SOL    HW238460   2.572   4.103   8.056 -1.3889 -0.8803 -1.4270
 8943SOL     OW38461   1.727   1.158  13.556 -0.3487 -0.7227 -0.0015
 8943SOL    HW138462   1.742   1.243  13.514 -2.3123 -0.0241  0.7107
 8943SOL    HW238463   1.809   1.109  13.558 -1.6456 -2.8758  1.1724
 8944SOL     OW38464   1.345   3.100  16.537 -0.5066 -0.4719  0.1004
 8944SOL    HW138465   1.270   3.158  16.534  0.6158  0.9767 -0.1360
 8944SOL    HW238466   1.358   3.099  16.442  0.8174  1.5642  0.2533
 8945SOL     OW38467   3.393   4.452   8.967 -0.5770 -0.5005  0.5093
 8945SOL    HW138468   3.323   4.468   8.903  2.1136 -0.5726 -2.4980
 8945SOL    HW238469   3.406   4.357   8.960 -1.7705 -0.6086 -0.1221
 8946SOL     OW38470   3.186   1.444  15.528 -0.1514 -0.0142 -0.0386
 8946SOL    HW138471   3.141   1.359  15.530 -0.9689  0.3932 -1.4840
 8946SOL    HW238472   3.220   1.463  15.615 -1.3595  0.4906  0.3240
 8947SOL     OW38473   4.075   0.987  12.464 -0.3002 -0.4360 -0.1846
 8947SOL    HW138474   4.005   0.927  12.436  0.7235 -1.0430 -1.4439
 8947SOL    HW238475   4.079   1.042  12.386 -0.7332 -0.3707 -0.1627
 8948SOL     OW38476   2.630   3.476  10.346 -0.3605  0.6408 -0.1956
 8948SOL    HW138477   2.617   3.492  10.439 -0.4809 -0.3022 -0.0478
 8948SOL    HW238478   2.610   3.382  10.350  0.8974  0.3977  0.2981
 8949SOL     OW38479   2.824   1.683  17.513 -0.0199  0.0565  0.1697
 8949SOL    HW138480   2.778   1.640  17.585  1.2493 -1.8244 -0.1475
 8949SOL    HW238481   2.795   1.773  17.529  2.9048  1.1565 -0.7043
 8950SOL     OW38482   0.063   3.996  10.585  0.1596  0.4001 -0.5302
 8950SOL    HW138483   0.055   4.091  10.578  2.2531  0.5870 -0.4689
 8950SOL    HW238484   0.099   3.975  10.499  1.8009  0.4777  0.1507
 8951SOL     OW38485   2.520   1.366   6.035 -0.4970  0.1045 -0.0806
 8951SOL    HW138486   2.491   1.284   5.996 -0.2180  0.0209 -0.1158
 8951SOL    HW238487   2.481   1.352   6.121  0.4563  1.8313  0.6379
 8952SOL     OW38488   3.657   1.051   8.756 -0.6873 -0.2638 -0.1153
 8952SOL    HW138489   3.626   0.985   8.819 -0.1637  0.4822  0.9193
 8952SOL    HW238490   3.618   1.137   8.774 -2.7176 -1.1051 -0.4766
 8953SOL     OW38491   0.314   0.611   6.059  0.1927  0.1247 -0.0472
 8953SOL    HW138492   0.356   0.532   6.092 -0.1070 -0.2510 -0.5583
 8953SOL    HW238493   0.307   0.588   5.966  1.0920 -1.9265  0.4150
 8954SOL     OW38494   3.202   4.624  16.139 -0.2058  0.7377  0.4347
 8954SOL    HW138495   3.199   4.544  16.086  1.0474  1.1970 -0.3514
 8954SOL    HW238496   3.293   4.619  16.169  0.6671 -0.4479 -2.4107
 8955SOL     OW38497   0.348   0.211   6.455 -0.0688 -0.0859  0.6523
 8955SOL    HW138498   0.412   0.204   6.526 -0.5488  1.8492  1.2856
 8955SOL    HW238499   0.407   0.236   6.384  0.5432  0.0207  1.1926
 8956SOL     OW38500   1.127   4.515  13.941  0.2486 -0.5518  0.3489
 8956SOL    HW138501   1.061   4.584  13.954  0.8754 -0.2888  2.1634
 8956SOL    HW238502   1.183   4.539  14.015  0.3722 -0.3410  0.1901
 8957SOL     OW38503   0.963   3.456   3.674 -0.0234 -0.3694 -0.4011
 8957SOL    HW138504   1.018   3.435   3.750 -3.0096 -1.5696  1.3822
 8957SOL    HW238505   0.974   3.377   3.621  2.1751 -2.5532  3.2936
 8958SOL     OW38506   0.586   0.201   5.251  0.1206 -0.2555  0.0237
 8958SOL    HW138507   0.606   0.212   5.158  1.0361  1.1024  0.3754
 8958SOL    HW238508   0.661   0.151   5.284 -0.2356 -1.0488 -0.3827
 8959SOL     OW38509   0.230   0.285   1.336 -0.8277  0.0441 -0.2509
 8959SOL    HW138510   0.282   0.363   1.357  0.1371  0.1830 -3.2134
 8959SOL    HW238511   0.197   0.251   1.420  0.0915 -1.4619 -0.5137
 8960SOL     OW38512   4.091   0.581   4.990  0.7643 -0.0528 -0.0930
 8960SOL    HW138513   4.087   0.671   5.023 -2.1623 -0.7614  1.4481
 8960SOL    HW238514   4.149   0.541   5.054 -0.0194  2.1887  2.0477
 8961SOL     OW38515   0.408   0.885   8.942  0.1205 -0.1743 -0.4547
 8961SOL    HW138516   0.443   0.801   8.912 -0.9731 -0.8488  0.1464
 8961SOL    HW238517   0.376   0.917   8.858  0.1528 -1.1619 -0.8435
 8962SOL     OW38518   2.261   0.067   8.218 -0.7336  0.1036 -0.0135
 8962SOL    HW138519   2.314   0.124   8.274  0.6939 -0.3918 -0.8513
 8962SOL    HW238520   2.173   0.085   8.249 -1.2964  0.7928 -2.0086
 8963SOL     OW38521   3.219   1.861   2.854 -0.5692  0.3738  0.6006
 8963SOL    HW138522   3.244   1.769   2.859  1.1477  0.8440  0.8614
 8963SOL    HW238523   3.291   1.899   2.803 -1.3832  1.6752  0.4116
 8964SOL     OW38524   2.490   3.798   9.547 -0.0584 -0.5950 -0.0784
 8964SOL    HW138525   2.478   3.712   9.587 -0.4421 -0.3765  0.2824
 8964SOL    HW238526   2.468   3.785   9.455 -0.2372  0.0233 -0.1285
 8965SOL     OW38527   1.016   3.230  12.405  0.0442 -0.2098  0.4249
 8965SOL    HW138528   1.048   3.291  12.471 -0.2950  0.1568  0.2518
 8965SOL    HW238529   1.098   3.207  12.362 -0.3439  0.4706 -0.6764
 8966SOL     OW38530   3.791   2.975   2.495 -0.2950 -0.2105 -0.2698
 8966SOL    HW138531   3.745   3.042   2.545  0.6790  0.7605 -0.6766
 8966SOL    HW238532   3.824   3.027   2.422 -1.3191  2.3380  1.0610
 8967SOL     OW38533   4.284   2.045   9.249 -0.2576 -0.1296 -0.1229
 8967SOL    HW138534   4.204   1.994   9.235 -0.0957 -0.4640  0.1602
 8967SOL    HW238535   4.295   2.090   9.166 -1.1040  1.2481  0.5130
 8968SOL     OW38536   2.070   3.411  10.706  0.3271 -0.2769 -0.1428
 8968SOL    HW138537   2.104   3.440  10.791  1.7147  0.3675 -0.9210
 8968SOL    HW238538   2.149   3.385  10.659  1.6388  1.4553  1.0933
 8969SOL     OW38539   0.110   2.651   6.283  0.2845  0.5519  0.4206
 8969SOL    HW138540   0.107   2.556   6.268  1.7012  0.5135  0.3211
 8969SOL    HW238541   0.019   2.675   6.265  0.1426 -1.9906 -2.3342
 8970SOL     OW38542   3.337   2.607   7.060  0.1190 -0.6390  0.2120
 8970SOL    HW138543   3.276   2.666   7.016  2.6212  2.9487  1.5428
 8970SOL    HW238544   3.329   2.635   7.151 -1.3545  0.0009 -0.1085
 8971SOL     OW38545   4.197   3.323  10.733 -0.0789 -0.4297  0.0526
 8971SOL    HW138546   4.107   3.296  10.755 -1.1205  0.6407 -2.9825
 8971SOL    HW238547   4.253   3.285  10.801 -1.4135 -0.6852  1.0245
 8972SOL     OW38548   1.747   0.266   4.551  0.2703  0.1752 -0.7804
 8972SOL    HW138549   1.667   0.231   4.588 -0.6939  1.0711 -1.9998
 8972SOL    HW238550   1.773   0.183   4.510  1.8805  0.0135  0.5675
 8973SOL     OW38551   0.739   4.020  17.034 -0.4650 -0.2453 -0.4292
 8973SOL    HW138552   0.819   4.013  17.086 -0.7561  0.7206  0.1432
 8973SOL    HW238553   0.702   4.107  17.044 -1.1314 -0.6825  0.8720
 8974SOL     OW38554   1.323   2.051   6.899  0.1336 -0.3019  0.3359
 8974SOL    HW138555   1.293   2.015   6.816  1.1835  0.7809 -0.5081
 8974SOL    HW238556   1.355   1.974   6.947  2.2622  1.0225  1.0532
 8975SOL     OW38557   4.588   2.991   6.482 -0.2539 -0.3374 -0.0305
 8975SOL    HW138558   4.528   3.062   6.458 -0.4987 -0.9251 -1.1821
 8975SOL    HW238559   4.639   3.030   6.553 -1.1275 -2.3950  1.7194
 8976SOL     OW38560   2.133   3.963   2.941  0.0696  0.2532  0.1365
 8976SOL    HW138561   2.144   4.023   2.867  0.0754  1.2187  0.9120
 8976SOL    HW238562   2.053   3.914   2.922  0.1049  0.3698 -0.3124
 8977SOL     OW38563   3.073   3.914   5.586 -0.3433  0.0809  0.2518
 8977SOL    HW138564   2.989   3.873   5.605  0.4995 -1.5500  0.4624
 8977SOL    HW238565   3.117   3.870   5.658 -0.1302  0.4425  0.3439
 8978SOL     OW38566   2.451   2.213   4.046  0.0735  0.0983 -0.2189
 8978SOL    HW138567   2.517   2.239   4.111  0.0274  0.8141 -0.4658
 8978SOL    HW238568   2.495   2.217   3.961 -1.0976 -0.6776 -0.8608
 8979SOL     OW38569   1.460   0.206  16.417  0.2613 -0.3611 -0.2791
 8979SOL    HW138570   1.391   0.167  16.364  1.4469 -2.4974 -0.2476
 8979SOL    HW238571   1.547   0.184  16.383  0.7252  0.7214  0.2038
 8980SOL     OW38572   4.239   4.655   4.628  0.1954  0.0841  0.0721
 8980SOL    HW138573   4.303   4.708   4.579  0.6896  0.0410  0.6780
 8980SOL    HW238574   4.270   4.567   4.607  0.1965 -0.6590  3.3108
 8981SOL     OW38575   3.116   0.239  13.493  0.5211  0.3694 -0.3189
 8981SOL    HW138576   3.083   0.176  13.557  0.5836  0.9642  0.2984
 8981SOL    HW238577   3.035   0.285  13.474  0.4399 -0.2022 -1.3646
 8982SOL     OW38578   0.584   4.455   7.185 -0.0722 -0.5031  0.1005
 8982SOL    HW138579   0.634   4.534   7.164 -0.7823  0.1679  0.9273
 8982SOL    HW238580   0.597   4.398   7.109 -0.4564  0.6119 -0.8048
 8983SOL     OW38581   0.353   1.950   2.677 -0.5322 -0.4625 -0.2418
 8983SOL    HW138582   0.416   1.884   2.648 -0.5060 -0.4568 -0.1981
 8983SOL    HW238583   0.336   1.996   2.595  0.7435 -0.6311 -0.5959
 8984SOL     OW38584   1.858   2.634   0.683 -0.9434 -0.1416 -0.3215
 8984SOL    HW138585   1.794   2.644   0.753  2.9498  3.3904  2.7413
 8984SOL    HW238586   1.901   2.552   0.709  1.1740  0.0463 -3.2066
 8985SOL     OW38587   0.936   1.687   1.829  0.1123  0.3489  0.4976
 8985SOL    HW138588   1.019   1.722   1.863  0.8975 -1.1366  0.1096
 8985SOL    HW238589   0.909   1.768   1.787 -2.6758 -0.1971  1.2318
 8986SOL     OW38590   3.612   0.618  13.283  0.1381  0.3666 -0.0216
 8986SOL    HW138591   3.542   0.675  13.252 -0.7563  1.0800  3.2523
 8986SOL    HW238592   3.579   0.614  13.373 -0.1995  0.2483 -0.1515
 8987SOL     OW38593   1.339   2.835  13.106 -0.0150  0.0892  0.6444
 8987SOL    HW138594   1.250   2.802  13.116  0.6973 -1.7610  0.8515
 8987SOL    HW238595   1.373   2.779  13.176  2.5161  0.3120 -0.4177
 8988SOL     OW38596   3.034   0.196   1.776  0.3944  0.0109 -0.4262
 8988SOL    HW138597   3.045   0.133   1.705  2.9569  0.5902 -0.5477
 8988SOL    HW238598   2.996   0.137   1.841  1.3750 -1.0787 -0.8345
 8989SOL     OW38599   0.177   0.698  10.457  0.3655 -0.4318  0.0408
 8989SOL    HW138600   0.213   0.611  10.438 -1.2461 -1.4513  1.6691
 8989SOL    HW238601   0.107   0.709  10.393 -1.4937  0.5637  2.2609
 8990SOL     OW38602   1.546   4.266   3.381  0.0471 -0.4368  0.0838
 8990SOL    HW138603   1.468   4.287   3.330 -0.3408 -1.7642  0.1272
 8990SOL    HW238604   1.516   4.251   3.471  1.2995 -0.4819  0.4988
 8991SOL     OW38605   0.244   2.902   6.311  0.3931  0.3125 -0.1217
 8991SOL    HW138606   0.326   2.859   6.336 -1.2048 -1.9883  1.2263
 8991SOL    HW238607   0.180   2.831   6.320  0.4547  0.4307  1.2669
 8992SOL     OW38608   3.385   3.021   5.127  0.5827  0.4251  0.4257
 8992SOL    HW138609   3.383   3.075   5.047  0.5597  0.9171  0.7595
 8992SOL    HW238610   3.334   3.078   5.185 -1.5529 -2.3028  1.2428
 8993SOL     OW38611   3.827   4.243   9.199  0.1217 -0.0673  0.1650
 8993SOL    HW138612   3.741   4.211   9.223 -0.5077  1.7291  0.3502
 8993SOL    HW238613   3.882   4.190   9.256  0.3185 -0.4918 -0.4206
 8994SOL     OW38614   1.611   3.999  10.697 -0.3303  0.2029  0.5330
 8994SOL    HW138615   1.593   4.055  10.772  2.1302  0.4729  0.9333
 8994SOL    HW238616   1.651   3.920  10.733 -0.7313  0.6406  1.9579
 8995SOL     OW38617   1.396   1.112   3.549  0.1563 -0.2387  0.6351
 8995SOL    HW138618   1.470   1.140   3.495 -0.1457  0.0841  0.3940
 8995SOL    HW238619   1.441   1.100   3.632  1.0014  1.4348  0.4200
 8996SOL     OW38620   0.510   2.843   6.884  0.2264  0.0433 -0.3806
 8996SOL    HW138621   0.504   2.929   6.842  0.9090  1.9816  3.3832
 8996SOL    HW238622   0.601   2.827   6.908  0.3491  0.6383 -0.4469
 8997SOL     OW38623   0.808   2.776  11.274  0.5998  0.2864 -0.1495
 8997SOL    HW138624   0.853   2.848  11.319 -0.4557 -0.3356  1.8989
 8997SOL    HW238625   0.834   2.789  11.183 -1.5625 -2.2526 -1.1074
 8998SOL     OW38626   1.839   3.729  12.408  0.4735  0.4343 -0.0117
 8998SOL    HW138627   1.910   3.698  12.353  0.1271 -1.3465  0.5565
 8998SOL    HW238628   1.801   3.800  12.356  2.3708  2.2190  1.0299
 8999SOL     OW38629   2.120   3.656   2.388  0.3535 -0.4071  0.0147
 8999SOL    HW138630   2.087   3.663   2.298  1.2602 -1.0519 -0.3665
 8999SOL    HW238631   2.057   3.592   2.423  1.7556 -1.2207  1.0436
 9000SOL     OW38632   0.788   0.885   0.570 -0.0114 -0.3536 -0.2345
 9000SOL    HW138633   0.713   0.909   0.516 -1.8014 -0.8670  2.0367
 9000SOL    HW238634   0.754   0.798   0.591  0.7309 -1.3970 -3.3349
 9001SOL     OW38635   3.110   3.862   0.416 -0.0324 -0.0349 -0.4501
 9001SOL    HW138636   3.173   3.804   0.459 -1.0333 -0.5610  0.3023
 9001SOL    HW238637   3.076   3.799   0.353  0.9248 -0.7251 -0.2637
 9002SOL     OW38638   4.010   3.456   3.950  0.1011  0.8623 -0.4538
 9002SOL    HW138639   3.932   3.500   3.917  0.1794  2.4499  1.4821
 9002SOL    HW238640   3.986   3.364   3.951  2.1843  0.2878 -2.3951
 9003SOL     OW38641   3.132   1.187  16.951 -0.0263 -0.3771 -0.3314
 9003SOL    HW138642   3.160   1.218  16.865  1.9343  0.6525  0.6721
 9003SOL    HW238643   3.087   1.255  17.001 -0.2971  0.2741 -1.4850
 9004SOL     OW38644   4.507   1.145  14.696  0.0861  0.3125  0.2441
 9004SOL    HW138645   4.531   1.175  14.609 -1.4448 -2.5655 -1.1572
 9004SOL    HW238646   4.592   1.119  14.730  0.6231  0.6701 -0.8303
 9005SOL     OW38647   4.110   3.841   5.676 -0.0358 -0.1153  0.3342
 9005SOL    HW138648   4.194   3.863   5.637 -0.0771 -0.0336  0.2915
 9005SOL    HW238649   4.101   3.752   5.643  1.0078 -1.4107  3.4639
 9006SOL     OW38650   3.409   4.017   2.834  0.0636 -0.3327  0.1470
 9006SOL    HW138651   3.468   3.990   2.905  0.0926 -0.9582 -0.1129
 9006SOL    HW238652   3.358   3.937   2.821 -1.4871  0.8581 -1.1416
 9007SOL     OW38653   4.455   1.412  17.071  0.3582  0.3178 -0.3486
 9007SOL    HW138654   4.395   1.338  17.084  1.3280 -0.3192  0.4749
 9007SOL    HW238655   4.427   1.468  17.143  2.0733 -1.6267  1.8457
 9008SOL     OW38656   1.097   1.679   8.445  0.1238  0.2633 -0.3940
 9008SOL    HW138657   1.183   1.637   8.450 -0.2461 -0.4969 -0.3912
 9008SOL    HW238658   1.051   1.633   8.374 -0.1952  0.0851 -0.0731
 9009SOL     OW38659   0.488   4.421  13.657 -0.1751 -0.2885  0.2502
 9009SOL    HW138660   0.518   4.384  13.740 -0.3454  0.9781  0.8869
 9009SOL    HW238661   0.393   4.412  13.660  0.0123 -3.0946 -3.2864
 9010SOL     OW38662   4.729   3.480  14.745  0.1863  0.0265  0.1755
 9010SOL    HW138663   0.023   3.499  14.833  0.5260 -0.1054  0.0810
 9010SOL    HW238664   4.666   3.551  14.735  1.1545  1.0054  1.1355
 9011SOL     OW38665   2.057   0.938   8.567 -0.2298 -0.4638 -0.2953
 9011SOL    HW138666   2.089   0.990   8.641 -1.0713  0.5176 -0.6249
 9011SOL    HW238667   2.136   0.939   8.513 -0.6995 -0.7902 -0.9882
 9012SOL     OW38668   0.903   0.003   8.508 -0.1494 -0.7193 -0.6199
 9012SOL    HW138669   0.846   0.080   8.517 -1.0607 -1.4683  0.0410
 9012SOL    HW238670   0.975   0.031   8.564 -1.0307  1.2470 -0.4530
 9013SOL     OW38671   0.388   3.679  13.367  0.0828  0.2906  0.0610
 9013SOL    HW138672   0.341   3.700  13.287 -2.0679 -0.5384  1.0947
 9013SOL    HW238673   0.424   3.763  13.395  0.4142  0.2132 -0.1349
 9014SOL     OW38674   3.761   2.670   3.437 -0.7314  0.1268  0.3663
 9014SOL    HW138675   3.790   2.637   3.522 -0.4200  0.4404  0.3794
 9014SOL    HW238676   3.669   2.662   3.462 -0.4604  0.2723  1.4022
 9015SOL     OW38677   1.395   3.292   7.757  0.7463 -0.1985  0.0676
 9015SOL    HW138678   1.302   3.271   7.764  0.7579 -0.3638 -0.3085
 9015SOL    HW238679   1.378   3.345   7.679 -0.3885 -1.2843 -0.4237
 9016SOL     OW38680   1.498   2.412  12.056  0.0935 -0.3064 -0.2075
 9016SOL    HW138681   1.564   2.478  12.077  1.3799 -0.9151 -2.2466
 9016SOL    HW238682   1.424   2.471  12.041  0.7823  0.8540  0.9986
 9017SOL     OW38683   0.271   0.408   4.487 -0.1982 -0.4685 -0.4725
 9017SOL    HW138684   0.341   0.345   4.466 -0.1213 -0.5803  0.1269
 9017SOL    HW238685   0.230   0.369   4.564 -1.0364  0.5869 -0.3865
 9018SOL     OW38686   2.559   1.589   8.369  0.1797  0.4797  0.4001
 9018SOL    HW138687   2.583   1.530   8.441  0.8715  0.0389 -0.1814
 9018SOL    HW238688   2.514   1.651   8.427  0.0751  0.1428  0.6787
 9019SOL     OW38689   4.379   4.398   3.527 -0.4286 -0.1940  0.1713
 9019SOL    HW138690   4.330   4.334   3.476  0.0177 -0.4338  0.0523
 9019SOL    HW238691   4.441   4.426   3.461 -0.1858 -0.0314  0.4660
 9020SOL     OW38692   4.652   1.641   7.336  0.3859  0.0727  0.6739
 9020SOL    HW138693   4.590   1.686   7.280  0.4062 -0.1251  0.4904
 9020SOL    HW238694   4.732   1.638   7.283  0.0089  1.7729  0.0144
 9021SOL     OW38695   3.351   4.373  13.427  0.6893  0.1558 -0.4449
 9021SOL    HW138696   3.427   4.358  13.483 -1.1631 -1.2152  1.6893
 9021SOL    HW238697   3.277   4.403  13.479  0.1253 -0.6454 -0.7786
 9022SOL     OW38698   0.432   4.457   8.568  0.4649  0.3298 -0.7827
 9022SOL    HW138699   0.490   4.528   8.594  1.0716 -0.5360  0.2397
 9022SOL    HW238700   0.390   4.438   8.652  0.6471  1.7476 -0.3750
 9023SOL     OW38701   4.686   3.135   7.185 -0.3331 -0.2583  0.5493
 9023SOL    HW138702   4.623   3.206   7.197 -0.3247 -0.3841  1.3551
 9023SOL    HW238703   4.705   3.145   7.092 -0.0684  1.3603  0.7812
 9024SOL     OW38704   4.474   3.391  16.893  0.5185 -0.2580  0.0090
 9024SOL    HW138705   4.509   3.430  16.973  1.3192 -1.0790  0.0548
 9024SOL    HW238706   4.524   3.310  16.896  1.6239  0.4529  0.4814
 9025SOL     OW38707   3.402   2.234   6.197  0.1377  0.0120  0.4439
 9025SOL    HW138708   3.386   2.142   6.175 -2.2268  0.3609  0.7156
 9025SOL    HW238709   3.384   2.270   6.110 -0.6454 -1.1495  0.1286
 9026SOL     OW38710   0.963   1.293  15.152 -0.2147  0.2904  0.3568
 9026SOL    HW138711   0.871   1.312  15.168 -0.0194  0.8046  0.8837
 9026SOL    HW238712   1.011   1.341  15.220  0.2952  2.1202 -1.2796
 9027SOL     OW38713   1.033   4.446   5.948 -0.0051  0.5795 -0.3522
 9027SOL    HW138714   1.113   4.446   6.001  0.7580 -0.7262 -1.5184
 9027SOL    HW238715   0.974   4.389   5.997 -0.5768  1.5258  0.0677
 9028SOL     OW38716   4.162   2.681   1.965  0.0899 -0.5890 -0.5172
 9028SOL    HW138717   4.202   2.614   1.910  1.2581  0.9686 -1.5866
 9028SOL    HW238718   4.069   2.664   1.949 -0.2361  0.9357 -0.2341
 9029SOL     OW38719   4.503   2.092   6.808  0.2693 -0.2706 -0.2590
 9029SOL    HW138720   4.430   2.071   6.750  1.0677 -3.2828 -0.1850
 9029SOL    HW238721   4.461   2.070   6.891  0.6658  0.9084  0.2523
 9030SOL     OW38722   2.048   2.703   9.206 -0.0573 -0.0490  0.0159
 9030SOL    HW138723   1.967   2.659   9.231 -0.5123  1.8376  1.8472
 9030SOL    HW238724   2.040   2.784   9.256 -0.9079  1.2092 -2.1208
 9031SOL     OW38725   0.144   2.599   8.296  0.1964 -0.2003  0.0487
 9031SOL    HW138726   0.172   2.542   8.225  0.0966 -1.7337  1.2270
 9031SOL    HW238727   0.180   2.560   8.375 -1.5104 -0.1678  0.8595
 9032SOL     OW38728   1.511   0.864   7.416  0.2972 -0.3557  0.1828
 9032SOL    HW138729   1.497   0.890   7.325  0.9980  1.5544  0.6087
 9032SOL    HW238730   1.489   0.771   7.412  0.8521 -0.4305 -1.3284
 9033SOL     OW38731   0.485   2.823   9.102 -0.1942 -0.3298 -0.1968
 9033SOL    HW138732   0.481   2.825   9.197 -0.1638  0.5136 -0.2135
 9033SOL    HW238733   0.401   2.779   9.086 -0.8161  0.5406  0.7298
 9034SOL     OW38734   0.816   3.009  16.791  0.3586 -0.3395 -0.7265
 9034SOL    HW138735   0.764   3.077  16.748 -0.3765 -0.4768 -0.0511
 9034SOL    HW238736   0.832   3.045  16.879 -1.5578 -3.6012  0.9244
 9035SOL     OW38737   1.797   2.078  12.032 -0.5131  0.5719 -1.1193
 9035SOL    HW138738   1.789   1.986  12.007 -2.9851  0.3415  0.4978
 9035SOL    HW238739   1.860   2.072  12.103 -2.1020 -0.5699  0.1823
 9036SOL     OW38740   2.996   0.707   2.667  0.2562 -0.0534 -0.3334
 9036SOL    HW138741   3.042   0.658   2.600  1.5333 -0.9166  1.1598
 9036SOL    HW238742   3.059   0.772   2.696 -0.0574 -0.4752  1.3090
 9037SOL     OW38743   3.567   2.905   4.082 -0.4056 -0.3288 -0.3827
 9037SOL    HW138744   3.624   2.909   4.005  1.6694 -1.4725  1.0968
 9037SOL    HW238745   3.484   2.874   4.045 -0.6641 -0.8480  0.6458
 9038SOL     OW38746   2.293   3.208  15.714 -0.0827  0.3965 -0.1595
 9038SOL    HW138747   2.210   3.252  15.692  0.2913 -0.2412 -2.8751
 9038SOL    HW238748   2.350   3.222  15.639  0.1758  0.2091  0.0045
 9039SOL     OW38749   4.349   0.132  12.369 -0.9687  0.5331 -0.3648
 9039SOL    HW138750   4.268   0.100  12.328 -1.2583 -1.5113  1.7964
 9039SOL    HW238751   4.327   0.221  12.397 -1.6832  0.6690 -1.3468
 9040SOL     OW38752   0.721   1.664   9.438  0.4617 -0.2733 -0.4562
 9040SOL    HW138753   0.794   1.616   9.399  0.7012  0.1895 -0.5820
 9040SOL    HW238754   0.716   1.734   9.373 -0.6369 -1.9029 -2.1372
 9041SOL     OW38755   4.613   0.701   5.994 -0.3105  0.2190 -0.3809
 9041SOL    HW138756   4.575   0.789   5.993  2.3403  1.3674 -0.2175
 9041SOL    HW238757   4.610   0.690   5.899 -0.1813  0.7014 -0.4450
 9042SOL     OW38758   2.056   0.662   4.794  0.4291 -0.3687  0.1627
 9042SOL    HW138759   2.061   0.566   4.796 -2.4631 -0.5435 -0.7341
 9042SOL    HW238760   1.966   0.673   4.764  1.3904 -0.0050 -2.5546
 9043SOL     OW38761   4.614   4.088  12.186 -0.2678 -0.3211  0.0219
 9043SOL    HW138762   4.590   4.034  12.261  0.2655  0.4215  0.7304
 9043SOL    HW238763   4.681   4.044  12.134 -1.5886 -1.0651 -1.0674
 9044SOL     OW38764   2.767   0.013   9.463 -0.5805 -0.5138 -0.2585
 9044SOL    HW138765   2.775   0.080   9.395  0.3951 -0.7333 -0.3670
 9044SOL    HW238766   2.673   4.736   9.460 -0.6196 -0.6670  1.5183
 9045SOL     OW38767   1.209   2.837   5.444  0.6045 -0.1234 -0.3349
 9045SOL    HW138768   1.145   2.792   5.389  2.3524  0.2190 -2.6029
 9045SOL    HW238769   1.287   2.834   5.390 -0.0541  0.1078 -1.3033
 9046SOL     OW38770   2.031   1.801   4.309  1.0978  0.1783  0.4145
 9046SOL    HW138771   2.087   1.724   4.307  1.4162  0.3686  1.8184
 9046SOL    HW238772   1.989   1.799   4.395  1.6517  2.3020  0.7459
 9047SOL     OW38773   4.154   4.486   8.343  0.7174  0.0756  0.3522
 9047SOL    HW138774   4.190   4.400   8.325  0.6200  0.0418  0.3219
 9047SOL    HW238775   4.072   4.467   8.388  1.2200  0.8171  1.6057
 9048SOL     OW38776   4.598   0.801   6.716  0.8930 -0.2431 -0.1985
 9048SOL    HW138777   4.555   0.776   6.634 -0.8571 -0.9774  0.9420
 9048SOL    HW238778   4.672   0.852   6.682  0.5208  0.2774 -0.2297
 9049SOL     OW38779   4.488   2.019   4.350  0.0022  0.2904  0.7115
 9049SOL    HW138780   4.545   2.059   4.417  0.5722  1.5951 -0.5469
 9049SOL    HW238781   4.555   1.977   4.296 -0.6394  1.2492 -0.8360
 9050SOL     OW38782   2.023   3.481   2.837 -0.5117  0.2024 -0.0936
 9050SOL    HW138783   2.098   3.511   2.786 -2.0343  0.5673 -2.1501
 9050SOL    HW238784   2.059   3.515   2.919  2.0260 -0.3802 -0.9588
 9051SOL     OW38785   2.395   1.670  10.001  0.1317 -0.1133 -0.0141
 9051SOL    HW138786   2.448   1.681   9.922 -1.0057  0.6517 -0.6823
 9051SOL    HW238787   2.317   1.705   9.957  0.0890  0.6069  0.6408
 9052SOL     OW38788   0.479   3.757   0.377 -0.0382 -0.4327 -0.0747
 9052SOL    HW138789   0.492   3.691   0.309 -0.8975  0.5104 -1.1651
 9052SOL    HW238790   0.568   3.774   0.406 -0.4915 -0.6943  1.4666
 9053SOL     OW38791   2.951   2.415   4.796  0.2193 -0.4516  0.2362
 9053SOL    HW138792   3.010   2.491   4.804 -2.2474  1.6378 -1.4568
 9053SOL    HW238793   2.883   2.470   4.756  2.2555  0.3205 -2.1842
 9054SOL     OW38794   3.332   4.176   5.730  0.7448 -0.4152  0.2405
 9054SOL    HW138795   3.365   4.124   5.804 -0.0168 -1.3866 -0.1121
 9054SOL    HW238796   3.266   4.232   5.772 -0.3263  0.2194 -2.2927
 9055SOL     OW38797   2.278   2.488  15.904 -0.2492  0.7145  0.4323
 9055SOL    HW138798   2.242   2.520  15.986 -0.3781  2.0364 -0.1390
 9055SOL    HW238799   2.197   2.456  15.863 -0.0858 -1.4275  1.8030
 9056SOL     OW38800   0.601   1.865   5.911 -0.2209 -0.2094 -0.3888
 9056SOL    HW138801   0.694   1.871   5.886  0.1013 -3.5765  0.0591
 9056SOL    HW238802   0.564   1.952   5.894 -1.1327  0.0136  2.8683
 9057SOL     OW38803   2.910   0.687  12.953 -0.1438 -0.4867 -0.3660
 9057SOL    HW138804   2.940   0.701  12.863 -0.2437  0.8737 -0.1931
 9057SOL    HW238805   2.814   0.680  12.947 -0.0203 -0.2165 -2.6931
 9058SOL     OW38806   2.806   0.344   6.228  0.0636  0.2490  0.4292
 9058SOL    HW138807   2.811   0.261   6.180  0.2890  1.5103 -1.7478
 9058SOL    HW238808   2.880   0.342   6.288 -0.5027 -1.5233  1.0537
 9059SOL     OW38809   2.507   1.909   0.776 -0.4611 -0.3345 -0.1760
 9059SOL    HW138810   2.492   1.879   0.866  1.2812 -0.9220 -0.0773
 9059SOL    HW238811   2.520   1.823   0.736  0.0162 -0.2098 -0.2878
 9060SOL     OW38812   0.695   1.907  13.796  0.5505 -0.4817 -0.2976
 9060SOL    HW138813   0.659   1.865  13.875 -0.5165  0.6799 -0.1531
 9060SOL    HW238814   0.656   1.846  13.734 -0.6877 -1.0923  1.0659
 9061SOL     OW38815   4.376   1.431  15.378 -0.1697 -0.3580 -0.6106
 9061SOL    HW138816   4.404   1.359  15.321 -0.4343 -1.9292  1.2538
 9061SOL    HW238817   4.284   1.438  15.352 -0.2988  1.0775  0.2673
 9062SOL     OW38818   1.504   3.037  16.157  0.6411 -0.2689 -0.4172
 9062SOL    HW138819   1.459   2.965  16.199 -0.8807  0.6384 -0.4904
 9062SOL    HW238820   1.442   3.104  16.185 -0.1978 -0.9004 -0.7845
 9063SOL     OW38821   4.123   3.482   7.815  0.3307  0.2034 -0.3425
 9063SOL    HW138822   4.115   3.505   7.907  0.4646 -0.8444 -0.0690
 9063SOL    HW238823   4.203   3.534   7.803  0.9411 -0.6798 -0.1209
 9064SOL     OW38824   2.430   2.014   0.550 -0.6007 -0.8303  0.4110
 9064SOL    HW138825   2.507   2.060   0.517  0.3264 -1.3139  1.8691
 9064SOL    HW238826   2.466   1.979   0.632 -1.3805 -0.8565  0.7337
 9065SOL     OW38827   4.481   2.362   2.520  0.0178 -0.4213 -0.3097
 9065SOL    HW138828   4.503   2.303   2.592 -0.6301  0.5762  0.6980
 9065SOL    HW238829   4.514   2.444   2.554 -0.8217  0.5368 -1.7893
 9066SOL     OW38830   0.166   1.340   5.724  0.5631  0.5333 -0.1873
 9066SOL    HW138831   0.096   1.397   5.755 -1.1632 -2.2432  0.9072
 9066SOL    HW238832   0.134   1.324   5.635  1.9952 -0.8836 -0.4623
 9067SOL     OW38833   1.885   0.494   3.002 -0.7426 -0.1425 -0.0292
 9067SOL    HW138834   1.797   0.469   3.029 -0.1796 -0.3040  1.6903
 9067SOL    HW238835   1.925   0.436   3.067 -0.2634 -0.7974 -0.9229
 9068SOL     OW38836   1.797   1.937  17.482 -0.7660  0.5727  0.3123
 9068SOL    HW138837   1.783   1.938  17.387 -0.1433  3.0250  0.2354
 9068SOL    HW238838   1.716   1.904  17.521 -1.6590  0.6575 -1.4427
 9069SOL     OW38839   0.996   0.234  12.535  0.2604  0.3113  0.2445
 9069SOL    HW138840   0.921   0.214  12.590  0.7391 -0.9619  0.4359
 9069SOL    HW238841   1.069   0.201  12.587 -0.8872 -2.0340  0.3524
 9070SOL     OW38842   2.727   1.352   7.872  0.2401  0.5019 -0.1924
 9070SOL    HW138843   2.781   1.293   7.924 -1.6877 -2.3513 -1.4729
 9070SOL    HW238844   2.717   1.427   7.932 -1.4367  0.4732 -0.4254
 9071SOL     OW38845   2.190   2.188   5.822  0.4238  0.1979 -0.1687
 9071SOL    HW138846   2.174   2.118   5.886  1.0055 -0.5283 -0.8094
 9071SOL    HW238847   2.166   2.264   5.874 -1.3611 -0.0839 -0.5987
 9072SOL     OW38848   2.052   4.317   2.582  0.1459 -0.4532 -0.1390
 9072SOL    HW138849   2.009   4.276   2.507  1.9517  0.2356 -1.5485
 9072SOL    HW238850   2.097   4.237   2.608 -0.7665 -0.5225  1.2296
 9073SOL     OW38851   0.768   1.017  12.893 -0.6444  0.1991  0.0489
 9073SOL    HW138852   0.765   0.973  12.978 -2.8601 -0.7236 -0.5111
 9073SOL    HW238853   0.695   1.078  12.888 -0.8093 -0.0972 -1.1207
 9074SOL     OW38854   4.261   2.512   3.311 -0.1846 -0.1226  0.0970
 9074SOL    HW138855   4.305   2.544   3.232 -0.5186 -2.1848 -0.9395
 9074SOL    HW238856   4.191   2.575   3.325 -1.1516 -1.6525  2.1574
 9075SOL     OW38857   1.139   4.257   4.807  0.4962 -0.3661 -0.4302
 9075SOL    HW138858   1.140   4.185   4.870  0.3275  0.9915  1.1490
 9075SOL    HW238859   1.224   4.298   4.824  0.1899 -0.4329  1.3030
 9076SOL     OW38860   4.183   1.169  13.490 -0.3120  0.3112  0.0272
 9076SOL    HW138861   4.206   1.190  13.400  0.9913 -0.5708  0.1610
 9076SOL    HW238862   4.193   1.260  13.516 -0.3001  0.3457 -0.0967
 9077SOL     OW38863   4.536   1.074   9.309 -0.2314 -0.4971 -0.5587
 9077SOL    HW138864   4.499   0.999   9.262  4.4182 -2.7559 -0.6212
 9077SOL    HW238865   4.455   1.123   9.297  0.9404  0.8705 -2.8434
 9078SOL     OW38866   4.456   0.600   7.699  0.2645 -0.1834 -0.3597
 9078SOL    HW138867   4.365   0.583   7.674  0.4723 -1.4855 -0.2686
 9078SOL    HW238868   4.501   0.545   7.634 -0.7464 -2.0291  0.5055
 9079SOL     OW38869   2.951   3.249  16.789  0.0007 -0.0406 -0.2073
 9079SOL    HW138870   2.994   3.322  16.744  0.3016  0.6691  1.2236
 9079SOL    HW238871   2.869   3.295  16.806  0.9338  1.1722  1.0695
 9080SOL     OW38872   2.688   1.208   2.386  0.2468 -0.3710 -0.5760
 9080SOL    HW138873   2.622   1.272   2.410  0.0580 -0.9933  0.5394
 9080SOL    HW238874   2.634   1.143   2.340  0.6153 -3.0899  2.7791
 9081SOL     OW38875   1.644   2.933   0.201  0.0063 -0.0482 -0.3470
 9081SOL    HW138876   1.671   2.958   0.113  0.0600  0.7479 -0.1016
 9081SOL    HW238877   1.633   3.016   0.247 -1.1429  0.0603 -0.8234
 9082SOL     OW38878   2.822   4.590   5.403  0.4168  0.6054  0.2356
 9082SOL    HW138879   2.762   4.589   5.328 -0.1310  0.8475  0.6675
 9082SOL    HW238880   2.764   4.628   5.469 -0.4820  1.1001 -0.8300
 9083SOL     OW38881   2.146   2.582   0.464 -0.3750  0.0835 -0.3894
 9083SOL    HW138882   2.169   2.635   0.541 -0.0773  0.3881 -0.6888
 9083SOL    HW238883   2.051   2.578   0.475 -0.4939 -0.0825 -1.4678
 9084SOL     OW38884   3.392   4.198   7.204  0.6352  0.6959  0.3885
 9084SOL    HW138885   3.432   4.121   7.243  0.7817  0.2040 -0.7499
 9084SOL    HW238886   3.458   4.267   7.198 -0.7749  2.2501  2.5076
 9085SOL     OW38887   4.638   0.875   3.347  0.3060  0.0537  0.5517
 9085SOL    HW138888   4.711   0.855   3.288  0.8199  1.6938  0.6310
 9085SOL    HW238889   4.666   0.831   3.427 -0.0707 -0.5780  0.3321
 9086SOL     OW38890   3.262   4.415   1.064  0.2438  0.0225 -0.7827
 9086SOL    HW138891   3.339   4.470   1.049 -1.0729  1.4500 -2.2585
 9086SOL    HW238892   3.232   4.445   1.150  0.2677 -1.3224 -0.3023
 9087SOL     OW38893   1.389   4.223   8.377  0.1667  0.5829 -0.9174
 9087SOL    HW138894   1.435   4.298   8.339 -1.7617  1.9312 -0.5956
 9087SOL    HW238895   1.332   4.258   8.445  0.1191  1.1285 -1.2340
 9088SOL     OW38896   4.402   1.016   7.869 -0.7422  0.0106  0.1690
 9088SOL    HW138897   4.485   1.037   7.827 -0.0497  1.1916  2.1152
 9088SOL    HW238898   4.429   0.951   7.935  0.6381 -0.6244 -1.0391
 9089SOL     OW38899   2.979   4.466   8.789 -0.0563  0.0513  0.6798
 9089SOL    HW138900   3.066   4.500   8.770  0.8641 -2.6159  0.2481
 9089SOL    HW238901   2.999   4.441   8.879  0.5850 -1.8121  0.0123
 9090SOL     OW38902   3.573   3.807   6.935 -0.1646  0.0410  1.0045
 9090SOL    HW138903   3.485   3.780   6.959  0.0454  1.4697  3.4313
 9090SOL    HW238904   3.575   3.781   6.843  3.4144  0.5390  0.9467
 9091SOL     OW38905   2.080   0.587   4.396  0.3917  0.4389 -0.3131
 9091SOL    HW138906   1.992   0.560   4.419  0.9352 -2.8489 -2.1353
 9091SOL    HW238907   2.079   0.575   4.301  0.7527 -2.2293  0.0350
 9092SOL     OW38908   0.573   1.609   7.996  0.2922  0.0699 -0.1151
 9092SOL    HW138909   0.601   1.675   7.933  0.1861 -0.2967 -0.5440
 9092SOL    HW238910   0.506   1.564   7.944  1.7970 -1.4840 -0.6943
 9093SOL     OW38911   1.002   2.494   6.046 -0.4921 -0.1360  0.3266
 9093SOL    HW138912   1.056   2.550   6.103  1.6571 -1.7653 -0.1111
 9093SOL    HW238913   0.978   2.560   5.981  1.0673  0.6322  0.5159
 9094SOL     OW38914   0.220   2.999   5.496  0.0672 -0.3287  0.3751
 9094SOL    HW138915   0.151   2.974   5.434 -2.0712 -0.7975  2.9510
 9094SOL    HW238916   0.188   2.973   5.582  0.3147  0.8101  0.8121
 9095SOL     OW38917   1.023   3.120   6.387 -0.1159  0.7284 -0.9020
 9095SOL    HW138918   1.027   3.154   6.476 -1.6880  0.4664 -0.7333
 9095SOL    HW238919   0.943   3.160   6.353 -1.3816 -0.6891  0.3842
 9096SOL     OW38920   0.009   1.394  14.298 -0.0601  0.5313  0.6101
 9096SOL    HW138921   0.034   1.339  14.224  0.1899 -0.3827  1.3610
 9096SOL    HW238922   4.660   1.362  14.322 -0.8827  0.3477 -2.6481
 9097SOL     OW38923   0.741   4.268  15.022  0.0503 -0.1357 -0.1032
 9097SOL    HW138924   0.775   4.179  15.038  0.4534 -0.2507 -1.6473
 9097SOL    HW238925   0.763   4.307  15.107 -0.9194  0.9522 -0.3544
 9098SOL     OW38926   4.727   3.944   5.045 -0.2504  0.4640  0.1871
 9098SOL    HW138927   4.672   3.936   5.123 -3.0708  2.5044 -1.6134
 9098SOL    HW238928   0.013   3.852   5.034 -1.3564 -0.0665  2.1654
 9099SOL     OW38929   0.123   3.785   8.692  0.0136 -0.5712  0.3721
 9099SOL    HW138930   0.195   3.843   8.667 -1.3678  0.4365 -1.2543
 9099SOL    HW238931   0.121   3.722   8.620 -0.6277 -0.8065  0.5968
 9100SOL     OW38932   0.410   2.658   8.700  0.5291  0.4893 -0.3179
 9100SOL    HW138933   0.350   2.732   8.709 -0.8003 -0.3614 -2.1705
 9100SOL    HW238934   0.384   2.593   8.765 -1.6902  0.4831 -1.2039
 9101SOL     OW38935   1.111   0.737   2.763  0.1253 -0.7420 -0.4072
 9101SOL    HW138936   1.159   0.818   2.780  0.2002 -0.9241  0.2849
 9101SOL    HW238937   1.070   0.738   2.677 -0.5767  1.9424 -0.0329
 9102SOL     OW38938   4.567   3.312   6.051  0.0892 -0.3747 -1.0248
 9102SOL    HW138939   4.583   3.244   6.117  1.6550  2.2747  1.2989
 9102SOL    HW238940   4.490   3.358   6.084  1.5201  2.2489 -1.3291
 9103SOL     OW38941   1.450   3.867   6.371 -0.4180  0.3267 -0.3685
 9103SOL    HW138942   1.531   3.820   6.351  0.8954  1.8242  1.4040
 9103SOL    HW238943   1.398   3.844   6.294  0.3475 -4.3190  0.5239
 9104SOL     OW38944   2.543   4.390   2.116  0.2874 -0.4030 -0.6481
 9104SOL    HW138945   2.636   4.395   2.141  0.1162  0.5948 -0.2136
 9104SOL    HW238946   2.512   4.314   2.165 -0.9703  0.7008  0.2703
 9105SOL     OW38947   2.554   2.593   5.106 -0.3338  0.0391  0.0352
 9105SOL    HW138948   2.521   2.666   5.157 -0.3481 -0.4268  0.6971
 9105SOL    HW238949   2.473   2.562   5.064  0.0383 -1.0064  0.0773
 9106SOL     OW38950   2.186   4.396   9.735  0.4556 -0.1540 -1.1447
 9106SOL    HW138951   2.247   4.331   9.699  1.3411 -0.6547  1.2720
 9106SOL    HW238952   2.130   4.337   9.786  1.4110 -0.6363 -0.6475
 9107SOL     OW38953   2.143   3.304   2.581  0.0859  0.1817 -0.1740
 9107SOL    HW138954   2.186   3.262   2.506  1.0465  1.0488 -0.1103
 9107SOL    HW238955   2.064   3.341   2.542 -0.2056 -3.6294 -3.2664
 9108SOL     OW38956   4.452   1.630   5.713 -0.7172  0.3226 -0.3271
 9108SOL    HW138957   4.429   1.643   5.806 -2.3534 -0.0998 -0.6716
 9108SOL    HW238958   4.375   1.577   5.695 -0.3456  0.1709 -1.4471
 9109SOL     OW38959   1.802   4.212  16.069 -0.2601 -0.0097 -0.1497
 9109SOL    HW138960   1.831   4.148  16.134 -0.6848  0.5486  0.6005
 9109SOL    HW238961   1.771   4.288  16.119  4.1119  1.6898 -0.0752
 9110SOL     OW38962   3.200   0.663   4.664 -0.7213  0.3450 -0.0829
 9110SOL    HW138963   3.112   0.697   4.681 -2.2409 -2.9208 -1.4679
 9110SOL    HW238964   3.249   0.741   4.638  0.4161 -0.3518 -0.0126
 9111SOL     OW38965   2.734   2.336   4.143  0.2014 -0.0702  0.0592
 9111SOL    HW138966   2.753   2.358   4.052  2.2108  0.3719  0.5775
 9111SOL    HW238967   2.807   2.275   4.156  0.5140  0.0857 -0.9663
 9112SOL     OW38968   1.910   3.893  16.472 -0.3378  0.0777 -0.1342
 9112SOL    HW138969   1.913   3.798  16.485 -1.4539  0.1199  0.3854
 9112SOL    HW238970   1.890   3.914  16.563 -0.7442 -0.6690 -0.0525
 9113SOL     OW38971   0.979   1.160   3.502 -0.3078  0.3513  0.5156
 9113SOL    HW138972   1.004   1.192   3.416  2.0446 -1.4154  0.5180
 9113SOL    HW238973   0.910   1.222   3.524  0.7515  1.3069  1.1353
 9114SOL     OW38974   2.434   1.744   4.215  0.0970 -0.0432 -0.3760
 9114SOL    HW138975   2.521   1.723   4.181  1.6948  1.5676  2.7698
 9114SOL    HW238976   2.465   1.804   4.283 -0.5313 -1.6334  1.3057
 9115SOL     OW38977   2.420   2.740   4.749  0.1357 -0.0560  0.1889
 9115SOL    HW138978   2.335   2.735   4.706  0.6374 -2.3176 -0.5370
 9115SOL    HW238979   2.446   2.653   4.780  0.3309  0.7125  2.1775
 9116SOL     OW38980   0.287   1.879   3.877 -0.4675 -0.1141  0.2079
 9116SOL    HW138981   0.212   1.820   3.877 -0.9651  0.4825 -3.6578
 9116SOL    HW238982   0.287   1.903   3.784 -2.5770 -1.8179 -0.2210
 9117SOL     OW38983   3.885   1.339   4.929  0.2088 -0.1906  0.0232
 9117SOL    HW138984   3.892   1.399   5.003 -0.0011 -0.8053  0.5417
 9117SOL    HW238985   3.852   1.405   4.868  2.6575 -0.5100 -1.6570
 9118SOL     OW38986   3.756   2.090   5.362 -0.0855 -0.4349 -0.5722
 9118SOL    HW138987   3.829   2.030   5.376  0.3553  0.5108  1.2885
 9118SOL    HW238988   3.800   2.174   5.347 -1.7547  0.6498  0.5256
 9119SOL     OW38989   2.642   1.208  15.325 -0.0200 -0.0386 -0.3593
 9119SOL    HW138990   2.577   1.230  15.392  0.9279  0.1889  0.4883
 9119SOL    HW238991   2.593   1.215  15.244 -0.0330 -0.0460 -0.3522
 9120SOL     OW38992   4.229   2.803   6.851  0.8403 -0.5714  1.1591
 9120SOL    HW138993   4.242   2.719   6.807 -0.3853 -0.7710  1.1857
 9120SOL    HW238994   4.319   2.836   6.852 -0.2813  2.5185 -0.2231
 9121SOL     OW38995   2.794   1.442   1.324 -0.0480  0.1700  0.5764
 9121SOL    HW138996   2.819   1.516   1.380 -1.2466 -0.6173  2.1630
 9121SOL    HW238997   2.880   1.403   1.312  0.5844  0.7447  3.1466
 9122SOL     OW38998   1.827   2.590   9.009 -0.0375  0.3233 -0.2317
 9122SOL    HW138999   1.786   2.613   9.092  0.9816  0.6924  0.1761
 9122SOL    HW239000   1.798   2.665   8.957 -1.4412  0.2243  0.4127
 9123SOL     OW39001   0.532   0.691   1.854 -0.1628 -0.3490  0.4261
 9123SOL    HW139002   0.521   0.654   1.942  1.8064  1.1209  1.2965
 9123SOL    HW239003   0.624   0.668   1.838 -0.4167  1.0241 -2.9300
 9124SOL     OW39004   4.380   2.280   4.992  0.7084  0.5907  0.1395
 9124SOL    HW139005   4.368   2.242   4.905 -0.0500  1.7040 -0.2441
 9124SOL    HW239006   4.468   2.256   5.019  0.8591  2.4165  1.2475
 9125SOL     OW39007   0.340   0.776   0.957 -0.3236  0.1511 -0.3003
 9125SOL    HW139008   0.381   0.831   0.890  1.6451  1.7797  2.1772
 9125SOL    HW239009   0.412   0.715   0.974 -0.2449  0.3901  0.2420
 9126SOL     OW39010   0.636   3.399  12.667 -0.3008 -0.2363  0.6119
 9126SOL    HW139011   0.669   3.412  12.756  3.9995 -2.3435 -0.7035
 9126SOL    HW239012   0.573   3.471  12.660 -2.5078 -2.2067 -0.0673
 9127SOL     OW39013   4.205   4.256   4.738  0.3092 -0.0978 -0.1757
 9127SOL    HW139014   4.119   4.231   4.705 -0.2819 -0.7010  1.8191
 9127SOL    HW239015   4.179   4.314   4.809 -0.0027 -1.9791  1.2637
 9128SOL     OW39016   0.822   0.629   9.630 -0.0122 -0.6815  0.0389
 9128SOL    HW139017   0.818   0.717   9.668  0.2638  0.8701 -3.5132
 9128SOL    HW239018   0.794   0.650   9.541  1.2545  0.7570 -0.0031
 9129SOL     OW39019   0.054   3.498   8.561  0.0946  0.2928  0.2741
 9129SOL    HW139020   0.067   3.484   8.655 -1.1498  0.8387  0.5365
 9129SOL    HW239021   4.698   3.477   8.565  0.3690 -1.3607 -1.9748
 9130SOL     OW39022   3.554   2.557  10.350 -0.4491  0.2533 -0.0794
 9130SOL    HW139023   3.643   2.530  10.371 -1.2510 -1.3303  1.2035
 9130SOL    HW239024   3.523   2.473  10.317 -1.7035  0.6018  0.1796
 9131SOL     OW39025   2.183   4.706   7.797 -0.1023  0.1155 -0.3125
 9131SOL    HW139026   2.121   0.034   7.767  2.2460  2.7322  0.5707
 9131SOL    HW239027   2.159   4.621   7.761  0.7107  0.3471 -1.3979
 9132SOL     OW39028   3.066   3.449  16.670  0.1041 -0.1742 -0.1240
 9132SOL    HW139029   3.017   3.485  16.597 -1.7348 -0.3331  1.0516
 9132SOL    HW239030   3.151   3.438  16.627  0.0178 -2.6308  0.3230
 9133SOL     OW39031   4.550   0.562  12.161  0.0767 -0.1796 -0.3918
 9133SOL    HW139032   4.629   0.572  12.214  0.6364 -1.9527 -0.8902
 9133SOL    HW239033   4.494   0.525  12.229  1.0195  0.3870  0.6974
 9134SOL     OW39034   3.987   0.801   2.784 -0.1266  0.1853 -0.4512
 9134SOL    HW139035   3.987   0.798   2.689  1.4075  0.0954 -0.4470
 9134SOL    HW239036   4.075   0.771   2.807 -0.9062 -1.7400  0.0424
 9135SOL     OW39037   0.912   1.654   2.727 -0.0469  0.0314  0.0072
 9135SOL    HW139038   0.859   1.654   2.647 -1.7198  1.7830  1.0949
 9135SOL    HW239039   0.853   1.601   2.781 -1.7319  1.4533 -0.4133
 9136SOL     OW39040   2.709   2.040   2.435 -0.2337  0.2186  0.1970
 9136SOL    HW139041   2.796   2.078   2.438  1.1676 -2.9442 -0.6993
 9136SOL    HW239042   2.709   1.973   2.367  1.7962  0.1338  0.2979
 9137SOL     OW39043   1.706   2.453  15.906  0.0113  0.4412  0.2616
 9137SOL    HW139044   1.627   2.499  15.935 -0.5201  0.0951 -0.6260
 9137SOL    HW239045   1.658   2.385  15.858 -1.8344  2.2530 -0.4625
 9138SOL     OW39046   2.370   0.998   2.441 -0.2021  0.2070 -0.3031
 9138SOL    HW139047   2.376   0.911   2.400 -0.0527  0.0328  0.0806
 9138SOL    HW239048   2.419   1.039   2.370  0.4390  0.6965  0.4078
 9139SOL     OW39049   2.613   0.185   9.942  0.3637 -0.5392 -0.1169
 9139SOL    HW139050   2.664   0.126   9.887  0.4453 -1.3690  0.8446
 9139SOL    HW239051   2.582   0.248   9.878  0.1171 -0.4443  0.0919
 9140SOL     OW39052   4.027   2.591   1.278  0.2602  0.2100 -0.4782
 9140SOL    HW139053   4.078   2.614   1.356  0.9470 -1.4989 -0.4225
 9140SOL    HW239054   3.938   2.615   1.304  0.0901 -0.0442 -0.8274
 9141SOL     OW39055   2.560   2.205   3.785 -1.0712 -0.1780 -0.1260
 9141SOL    HW139056   2.596   2.117   3.783 -1.9407 -0.4983 -1.1524
 9141SOL    HW239057   2.484   2.184   3.730 -0.4957  2.4260 -1.9141
 9142SOL     OW39058   0.589   3.748   3.346  0.0675  0.5935 -0.0570
 9142SOL    HW139059   0.577   3.829   3.396 -1.0252 -0.0331  0.6957
 9142SOL    HW239060   0.665   3.707   3.386 -0.9689 -0.4053  0.8934
 9143SOL     OW39061   0.694   4.105   3.263  0.4367  0.4473 -0.0709
 9143SOL    HW139062   0.614   4.146   3.229  0.3527  2.3349  2.4303
 9143SOL    HW239063   0.652   4.067   3.340  1.4508 -0.2988  0.1110
 9144SOL     OW39064   3.984   4.650   5.779  0.4588 -0.1789  0.6856
 9144SOL    HW139065   3.913   4.681   5.722  0.9215  2.2985  1.4707
 9144SOL    HW239066   3.953   4.559   5.783  2.0118 -0.8538 -2.4894
 9145SOL     OW39067   3.614   1.793  15.114  0.0283  0.2912 -0.1675
 9145SOL    HW139068   3.586   1.703  15.128 -1.8315  1.2134  2.1762
 9145SOL    HW239069   3.526   1.830  15.128  0.1110  0.3176  0.3009
 9146SOL     OW39070   0.179   2.787  15.230 -0.0106 -0.0023 -0.4521
 9146SOL    HW139071   0.270   2.789  15.200  0.4242  1.1144  0.9773
 9146SOL    HW239072   0.184   2.713  15.290  0.1005 -0.3138 -0.8401
 9147SOL     OW39073   0.533   2.603   3.555 -0.1313 -0.3541  0.1669
 9147SOL    HW139074   0.546   2.632   3.646  2.4082  0.6699 -0.5289
 9147SOL    HW239075   0.469   2.533   3.569 -0.5713  0.5018  2.5373
 9148SOL     OW39076   0.755   0.182  12.680 -0.7342 -0.1981 -0.1216
 9148SOL    HW139077   0.676   0.170  12.732 -0.6615 -1.3106 -0.2617
 9148SOL    HW239078   0.749   0.271  12.647  1.9983 -0.5128 -1.4979
 9149SOL     OW39079   1.542   1.753  14.957  0.0330 -0.3969 -0.2380
 9149SOL    HW139080   1.609   1.822  14.966 -1.4260  1.0978 -0.7806
 9149SOL    HW239081   1.496   1.768  15.040  1.0511  2.5981 -0.1887
 9150SOL     OW39082   3.875   0.513   3.191 -0.2931 -0.4009  0.5907
 9150SOL    HW139083   3.966   0.508   3.220  0.3110  0.1768 -1.2115
 9150SOL    HW239084   3.850   0.421   3.193  1.8816 -0.9678  1.4339
 9151SOL     OW39085   1.027   3.178   1.298 -0.0135 -0.6249 -0.1455
 9151SOL    HW139086   0.956   3.114   1.300 -0.9689  0.4499  0.1075
 9151SOL    HW239087   1.097   3.137   1.247 -1.3480 -1.0810 -1.6211
 9152SOL     OW39088   0.207   2.500   8.535  0.7174 -0.0084 -0.0777
 9152SOL    HW139089   0.266   2.557   8.584 -0.3721  2.3343 -1.4733
 9152SOL    HW239090   0.128   2.516   8.587  0.6669 -0.1064 -0.1254
 9153SOL     OW39091   0.178   1.868  12.595  0.4271  0.6779 -0.2129
 9153SOL    HW139092   0.190   1.819  12.514 -0.4009  1.9407 -1.0979
 9153SOL    HW239093   0.106   1.927  12.570  0.3267  0.3754 -0.6291
 9154SOL     OW39094   1.792   4.335   6.975  0.2477 -0.7940 -0.0111
 9154SOL    HW139095   1.731   4.402   7.006  1.4631  0.5177 -0.4324
 9154SOL    HW239096   1.874   4.370   7.011  0.5912 -1.9012  0.2807
 9155SOL     OW39097   2.164   2.546   4.450 -0.1248 -0.4315  0.1037
 9155SOL    HW139098   2.234   2.546   4.385 -0.1079 -2.1780  0.1270
 9155SOL    HW239099   2.126   2.628   4.419  1.2969  0.2129  0.1054
 9156SOL     OW39100   0.285   2.725   0.190 -0.4266 -0.1384  0.5276
 9156SOL    HW139101   0.323   2.694   0.273  3.3524 -1.5230 -1.7303
 9156SOL    HW239102   0.198   2.751   0.219 -1.5448 -1.0548 -2.0369
 9157SOL     OW39103   2.763   0.665   8.836  0.0610  0.2721 -0.6267
 9157SOL    HW139104   2.691   0.619   8.794  0.0786 -0.5171  0.2016
 9157SOL    HW239105   2.831   0.675   8.770  1.2030 -1.0675  0.3382
 9158SOL     OW39106   4.710   4.083   7.969  0.0149  0.3361 -0.1777
 9158SOL    HW139107   0.031   4.141   7.920  1.9750  0.1138  1.8832
 9158SOL    HW239108   4.688   4.137   8.045 -1.8234 -0.1345 -0.3861
 9159SOL     OW39109   1.162   1.187   5.642 -0.1159 -0.3261  0.3414
 9159SOL    HW139110   1.082   1.195   5.591  0.4931 -2.2242 -0.9050
 9159SOL    HW239111   1.136   1.209   5.731  1.5378 -2.2167  1.2959
 9160SOL     OW39112   4.477   4.700  12.056  0.3983 -0.4806 -0.1078
 9160SOL    HW139113   4.506   0.053  12.043 -3.7394  1.0754  1.8803
 9160SOL    HW239114   4.560   4.661  12.083  1.3361  0.9719 -0.8643
 9161SOL     OW39115   3.795   3.025  13.655  0.0895 -0.2455 -0.5099
 9161SOL    HW139116   3.805   3.063  13.742 -1.7230 -2.2940  0.5773
 9161SOL    HW239117   3.787   2.936  13.687 -0.9275  0.7950  2.0873
 9162SOL     OW39118   3.791   2.641  10.700 -0.6872  0.4100  0.1976
 9162SOL    HW139119   3.800   2.715  10.760  3.0662  0.4486 -0.4021
 9162SOL    HW239120   3.756   2.690  10.626 -0.1369 -0.0298 -0.3596
 9163SOL     OW39121   0.834   2.696   7.546 -0.1484 -0.3404 -0.2816
 9163SOL    HW139122   0.757   2.640   7.554  0.2690 -0.8606  0.0363
 9163SOL    HW239123   0.859   2.690   7.454 -1.6823  1.6046 -0.8302
 9164SOL     OW39124   2.231   3.068  13.646  0.2331 -0.3497 -0.3397
 9164SOL    HW139125   2.177   3.130  13.599  2.6308  0.4300 -2.0576
 9164SOL    HW239126   2.281   3.038  13.570 -1.9153  1.7086 -2.5489
 9165SOL     OW39127   3.964   2.098  17.304  0.7708  0.4817  0.2815
 9165SOL    HW139128   3.932   2.007  17.306  0.7908  0.4658 -0.1369
 9165SOL    HW239129   4.030   2.088  17.236 -1.8884 -1.1194 -2.0816
 9166SOL     OW39130   2.480   0.492   4.279  0.0216 -0.2038  0.1885
 9166SOL    HW139131   2.406   0.545   4.249 -0.3035 -1.7805 -1.8061
 9166SOL    HW239132   2.542   0.508   4.208  2.1672 -2.4563  1.5460
 9167SOL     OW39133   3.660   1.878   8.220  0.0394 -0.3928 -0.0134
 9167SOL    HW139134   3.570   1.889   8.189  0.2367 -3.1468 -1.5885
 9167SOL    HW239135   3.702   1.963   8.206 -0.1099 -0.1875  0.7786
 9168SOL     OW39136   2.694   0.181  17.150 -0.5391  0.3342 -0.4825
 9168SOL    HW139137   2.737   0.187  17.065 -2.2167 -3.0082 -1.5291
 9168SOL    HW239138   2.689   0.275  17.171 -1.5966  0.0318  0.6091
 9169SOL     OW39139   0.079   1.468  15.343 -0.1774  0.7284 -0.2885
 9169SOL    HW139140   0.061   1.380  15.309 -2.1244  0.4872  1.4010
 9169SOL    HW239141   0.037   1.531  15.284  0.5069  1.1965 -0.2759
 9170SOL     OW39142   0.369   0.428   2.196  0.1633  0.1458  0.0276
 9170SOL    HW139143   0.372   0.507   2.141  3.0071 -0.8250 -1.2245
 9170SOL    HW239144   0.385   0.469   2.281  0.3496  0.9811 -0.4016
 9171SOL     OW39145   0.619   2.929   8.872 -0.3654  0.6650  0.3806
 9171SOL    HW139146   0.543   2.906   8.819 -0.3115 -0.4257  0.7746
 9171SOL    HW239147   0.582   2.955   8.957  0.3864  0.1251  0.8792
 9172SOL     OW39148   2.609   4.436  10.696  0.2263 -0.4509  0.0570
 9172SOL    HW139149   2.562   4.365  10.652 -1.5982 -0.9764  2.8853
 9172SOL    HW239150   2.533   4.483  10.728  0.4794  0.2697 -0.4166
 9173SOL     OW39151   3.376   4.481   5.992 -0.5109 -0.0976 -0.7723
 9173SOL    HW139152   3.341   4.449   6.075  1.6695  0.4773  0.3654
 9173SOL    HW239153   3.417   4.562   6.023  1.8861 -1.4277 -0.4886
 9174SOL     OW39154   1.725   4.460  16.184 -0.5135  0.3938 -0.1275
 9174SOL    HW139155   1.783   4.521  16.137 -0.3000  0.7887  0.6419
 9174SOL    HW239156   1.689   4.506  16.260  1.6549  1.5231  0.2199
 9175SOL     OW39157   2.960   3.158  13.957  0.0583  0.0764 -0.1077
 9175SOL    HW139158   2.962   3.147  13.862  0.7640  2.7681 -0.4060
 9175SOL    HW239159   2.970   3.252  13.970  1.2368  0.1578 -1.5937
 9176SOL     OW39160   0.342   0.462  10.415  0.3214 -0.6864  0.1812
 9176SOL    HW139161   0.378   0.477  10.328 -2.4550  1.3296 -0.6098
 9176SOL    HW239162   0.424   0.460  10.464  0.2111 -1.6202  0.3287
 9177SOL     OW39163   0.223   2.846   2.170 -0.3680  0.1248 -0.5276
 9177SOL    HW139164   0.159   2.826   2.239 -0.6990 -0.0512 -0.8875
 9177SOL    HW239165   0.184   2.925   2.134  1.2377  1.7894  1.3423
 9178SOL     OW39166   0.101   4.157   6.542  0.1175  0.1056  0.1522
 9178SOL    HW139167   0.176   4.195   6.496  1.4394 -1.1543  1.2856
 9178SOL    HW239168   0.094   4.065   6.516  0.1439 -0.2738  1.4978
 9179SOL     OW39169   2.346   2.860  13.167 -0.1415 -0.2589  0.2440
 9179SOL    HW139170   2.292   2.784  13.143 -1.2396 -0.3311  2.9134
 9179SOL    HW239171   2.435   2.825  13.173  0.4412  1.5648  1.9927
 9180SOL     OW39172   1.057   3.962   7.339  0.1410 -0.1947  0.0263
 9180SOL    HW139173   1.131   4.008   7.380 -0.6137  1.5502 -0.5556
 9180SOL    HW239174   0.985   4.023   7.324  1.1360  0.9424 -0.1032
 9181SOL     OW39175   2.377   0.729   3.771 -0.3537  0.1954 -0.3159
 9181SOL    HW139176   2.298   0.714   3.822  0.9555 -1.8301  1.1313
 9181SOL    HW239177   2.428   0.651   3.795 -1.5289 -0.3554  0.4127
 9182SOL     OW39178   4.117   0.397  11.032 -0.1408 -0.1876 -1.0053
 9182SOL    HW139179   4.100   0.462  11.101 -0.7641 -1.7177  0.2808
 9182SOL    HW239180   4.195   0.353  11.066 -0.7569 -0.1962  0.4113
 9183SOL     OW39181   0.617   3.452  12.956 -0.6232 -0.1000  0.2982
 9183SOL    HW139182   0.538   3.501  12.980 -0.1038  0.8392  0.0697
 9183SOL    HW239183   0.626   3.404  13.038  0.9696 -0.7525 -0.2705
 9184SOL     OW39184   3.311   2.560   6.323 -0.2708 -0.6237  0.4223
 9184SOL    HW139185   3.243   2.593   6.381 -0.7262  0.5609 -0.7743
 9184SOL    HW239186   3.374   2.513   6.377  0.0458 -1.2602 -0.4900
 9185SOL     OW39187   0.832   2.252  15.134  0.1846 -0.1605 -0.5460
 9185SOL    HW139188   0.821   2.216  15.222 -1.4344 -1.5800 -1.3189
 9185SOL    HW239189   0.857   2.344  15.144 -0.3400 -0.1142  0.2585
 9186SOL     OW39190   3.352   4.033  16.722  0.1560  0.0690 -0.7776
 9186SOL    HW139191   3.352   3.990  16.636 -1.0118  1.8106 -1.6454
 9186SOL    HW239192   3.424   4.094  16.707 -0.2589  1.3801  2.6293
 9187SOL     OW39193   4.317   1.008  11.905 -0.3856  0.0948  0.6470
 9187SOL    HW139194   4.324   1.008  12.001 -0.6911 -0.3821  0.6713
 9187SOL    HW239195   4.406   1.030  11.878 -0.5944 -0.4171 -0.4663
 9188SOL     OW39196   4.663   0.202  16.774  0.6607  0.2452 -0.8723
 9188SOL    HW139197   4.656   0.228  16.865 -1.3995  2.5916 -1.7087
 9188SOL    HW239198   4.579   0.157  16.766 -0.4507  1.6830  3.0490
 9189SOL     OW39199   3.307   1.546   5.058 -0.1307  0.0624  0.3883
 9189SOL    HW139200   3.329   1.597   4.980 -1.4364 -0.5903 -0.4068
 9189SOL    HW239201   3.317   1.609   5.128  0.7036  1.1406 -0.7019
 9190SOL     OW39202   2.433   1.801  17.414  0.3603 -0.0138  0.1159
 9190SOL    HW139203   2.488   1.878  17.400  0.1845  0.0032 -0.4605
 9190SOL    HW239204   2.468   1.720  17.376  3.6097  1.6521 -0.4980
 9191SOL     OW39205   4.449   0.191   7.177 -0.0037  0.1821 -0.0877
 9191SOL    HW139206   4.431   0.107   7.136 -0.8682  0.0411  0.5621
 9191SOL    HW239207   4.362   0.218   7.147  0.0866  0.8607  0.2458
 9192SOL     OW39208   0.252   0.382   7.015 -0.4585 -0.7155  0.5775
 9192SOL    HW139209   0.330   0.373   6.960  0.5922  0.5399  1.8346
 9192SOL    HW239210   0.268   0.315   7.081  1.0692 -2.1898 -1.2937
 9193SOL     OW39211   3.035   0.778   3.991  0.1496 -0.1187  0.2675
 9193SOL    HW139212   3.102   0.844   4.013 -1.8071  1.8446  0.3021
 9193SOL    HW239213   2.959   0.818   4.033 -0.3542 -0.9607  0.1648
 9194SOL     OW39214   4.112   3.647   8.866 -0.4936 -0.4352 -0.5873
 9194SOL    HW139215   4.120   3.694   8.783 -0.4892  0.1559 -0.2514
 9194SOL    HW239216   4.200   3.653   8.904 -0.0320 -0.2170 -1.7029
 9195SOL     OW39217   0.187   4.636   2.281  0.0856  0.1966 -0.2988
 9195SOL    HW139218   0.103   4.680   2.276 -0.4879 -0.7732  0.7597
 9195SOL    HW239219   0.226   4.654   2.196 -1.8948  3.2929 -0.5424
 9196SOL     OW39220   4.001   1.678   3.446  0.5881  0.1305  0.2703
 9196SOL    HW139221   3.964   1.593   3.422  2.5452 -0.6456 -0.0655
 9196SOL    HW239222   4.050   1.687   3.364 -0.7624 -2.3546 -0.8169
 9197SOL     OW39223   3.172   4.338   4.078  0.2666  0.4042  0.1180
 9197SOL    HW139224   3.113   4.284   4.025  0.8935 -0.1349 -0.0272
 9197SOL    HW239225   3.209   4.395   4.011 -0.6246 -0.1791 -0.8654
 9198SOL     OW39226   1.008   0.023   2.370  0.2669  0.0406  0.0179
 9198SOL    HW139227   1.000   0.077   2.291 -0.7930  0.6907  0.5761
 9198SOL    HW239228   1.102   0.036   2.382 -0.2402  1.2377  2.7287
 9199SOL     OW39229   1.950   4.399   3.951 -0.3439  0.1041 -0.0054
 9199SOL    HW139230   1.945   4.474   4.010  0.1035 -0.4762  0.7798
 9199SOL    HW239231   1.930   4.340   4.024 -0.0591  0.2600  0.1984
 9200SOL     OW39232   0.580   1.350   1.649  0.3911  0.4756  0.2386
 9200SOL    HW139233   0.617   1.267   1.620 -0.0287 -0.1857  1.5834
 9200SOL    HW239234   0.496   1.345   1.603  0.0452 -0.0424  0.9326
 9201SOL     OW39235   1.546   1.494  15.040 -0.2404 -0.4614 -0.2647
 9201SOL    HW139236   1.503   1.441  14.973  1.8787 -1.3874 -0.8935
 9201SOL    HW239237   1.524   1.581  15.009  2.7673  1.3829  2.7369
 9202SOL     OW39238   3.908   3.734   6.490  0.0963  0.3544 -0.1360
 9202SOL    HW139239   3.843   3.695   6.432  0.8562  0.6359 -1.1717
 9202SOL    HW239240   3.946   3.653   6.526  1.4762  0.3868 -1.5518
 9203SOL     OW39241   3.309   4.269  10.461  0.6745 -0.3844 -0.8149
 9203SOL    HW139242   3.358   4.284  10.542 -0.7612 -0.5098  0.0689
 9203SOL    HW239243   3.341   4.180  10.449 -3.8121 -1.8622 -1.4586
 9204SOL     OW39244   3.711   3.265  16.840 -0.2415 -0.5392 -0.4766
 9204SOL    HW139245   3.667   3.286  16.922  0.9022  2.0088 -0.5016
 9204SOL    HW239246   3.777   3.198  16.860 -1.4015 -1.7022 -0.5657
 9205SOL     OW39247   1.080   1.505   5.963 -0.8028  0.2767  0.2096
 9205SOL    HW139248   1.097   1.565   5.889 -0.1618  0.8865  0.8491
 9205SOL    HW239249   1.044   1.560   6.032 -1.1004  0.1582  0.1496
 9206SOL     OW39250   1.246   2.464  14.830  0.5310 -0.6236  0.1204
 9206SOL    HW139251   1.225   2.450  14.922 -0.5642 -0.9555 -0.1732
 9206SOL    HW239252   1.261   2.559  14.828  0.7798 -0.6472  1.0243
 9207SOL     OW39253   2.723   3.742  13.382  0.3978 -0.2014 -0.0701
 9207SOL    HW139254   2.811   3.755  13.346  0.9560  0.0421  1.3593
 9207SOL    HW239255   2.680   3.719  13.300 -0.2371 -0.6410  0.3924
 9208SOL     OW39256   2.921   4.395  12.181  0.1352  0.5204 -0.0287
 9208SOL    HW139257   2.831   4.365  12.166  0.8408 -2.2606  1.3603
 9208SOL    HW239258   2.917   4.475  12.128 -1.9124 -1.1051 -2.3530
 9209SOL     OW39259   0.327   0.895   6.667 -0.2761 -0.2562  0.4738
 9209SOL    HW139260   0.328   0.806   6.702  1.6906 -0.3212  0.2069
 9209SOL    HW239261   0.382   0.886   6.590  0.6436 -0.5559  1.1709
 9210SOL     OW39262   4.255   3.333   4.197  0.0327  0.0214  0.1475
 9210SOL    HW139263   4.308   3.265   4.155  0.1813  1.3015 -1.7234
 9210SOL    HW239264   4.233   3.381   4.117 -0.6643 -0.6588 -0.0706
 9211SOL     OW39265   2.021   1.808   7.228 -0.0858 -0.2192 -0.2464
 9211SOL    HW139266   1.958   1.860   7.179 -0.6173 -0.5021  0.1356
 9211SOL    HW239267   1.970   1.733   7.258 -1.1063  0.4238 -0.3819
 9212SOL     OW39268   2.641   2.356   8.824  0.6766 -0.1319  0.2393
 9212SOL    HW139269   2.684   2.293   8.767 -0.6484 -1.0752  0.2698
 9212SOL    HW239270   2.610   2.423   8.762 -2.6031 -0.9088  1.0221
 9213SOL     OW39271   4.218   1.653   8.383  0.1958  0.3829  0.0033
 9213SOL    HW139272   4.243   1.686   8.297  0.9460 -1.3919 -0.4569
 9213SOL    HW239273   4.261   1.568   8.380  0.3886  0.4849 -0.1495
 9214SOL     OW39274   1.895   4.600  12.752  0.0462  0.0632  0.1662
 9214SOL    HW139275   1.952   4.524  12.762 -0.0102 -0.0047 -0.0475
 9214SOL    HW239276   1.961   4.669  12.744 -2.3310  2.5057  1.2561
 9215SOL     OW39277   2.773   4.043   1.926  0.2582 -0.0109 -0.0390
 9215SOL    HW139278   2.847   3.988   1.899  1.0735  1.1449 -0.1188
 9215SOL    HW239279   2.823   4.081   1.998  1.4690  0.4315 -1.1162
 9216SOL     OW39280   3.698   1.538  13.129 -0.4230 -0.4053  0.0525
 9216SOL    HW139281   3.718   1.445  13.136  0.2314 -0.3796 -1.4895
 9216SOL    HW239282   3.640   1.540  13.205 -2.5057  0.2452 -1.5623
 9217SOL     OW39283   2.208   1.973   7.583  0.2777  0.5182 -0.4939
 9217SOL    HW139284   2.192   1.925   7.664 -1.0392 -0.4921 -1.3580
 9217SOL    HW239285   2.119   2.003   7.564  0.3145  0.2867 -1.0148
 9218SOL     OW39286   0.664   0.996   6.865  0.2117  0.1745  0.3812
 9218SOL    HW139287   0.624   1.050   6.934  1.8690 -0.1698  1.6007
 9218SOL    HW239288   0.748   0.987   6.909  0.4139 -1.3665 -0.3458
 9219SOL     OW39289   3.993   0.953   3.138 -0.1585  0.0769 -0.0336
 9219SOL    HW139290   3.921   0.891   3.127  1.6497 -1.9363 -0.5156
 9219SOL    HW239291   4.071   0.905   3.111 -1.0982  0.3248 -3.1600
 9220SOL     OW39292   0.571   0.953   9.138  0.2508 -0.2453  0.0078
 9220SOL    HW139293   0.514   0.915   9.071 -0.0142  1.6933 -0.8478
 9220SOL    HW239294   0.548   1.046   9.134  1.0931  0.0389  1.7831
 9221SOL     OW39295   3.174   4.369   5.852 -0.0622 -0.1348  0.1370
 9221SOL    HW139296   3.215   4.400   5.932 -1.6759  1.6537  0.2765
 9221SOL    HW239297   3.202   4.436   5.789  0.9696  0.2913  1.0434
 9222SOL     OW39298   2.821   0.597   9.716 -0.2096  0.4359 -0.3597
 9222SOL    HW139299   2.729   0.610   9.740 -0.7062 -2.3904 -0.7257
 9222SOL    HW239300   2.850   0.511   9.745  2.8992  1.1781 -1.2599
 9223SOL     OW39301   3.127   4.610  11.663  0.1708  0.3231 -0.2082
 9223SOL    HW139302   3.098   4.622  11.572 -2.4230  1.1616  0.7420
 9223SOL    HW239303   3.048   4.568  11.697  0.6937 -1.0178 -0.6492
 9224SOL     OW39304   3.902   2.462   7.924 -0.3498 -0.0730 -0.6105
 9224SOL    HW139305   3.931   2.440   7.836  0.9799 -1.5529  0.1870
 9224SOL    HW239306   3.818   2.416   7.921 -0.2151 -0.3642  0.0237
 9225SOL     OW39307   3.157   1.760   3.989  0.3113  0.1246 -0.2793
 9225SOL    HW139308   3.202   1.771   3.906  1.8309  1.6980  0.7580
 9225SOL    HW239309   3.204   1.830   4.035 -1.2898 -0.5542  2.4301
 9226SOL     OW39310   3.902   4.422   5.207  0.2992 -0.0660  0.1923
 9226SOL    HW139311   3.891   4.345   5.263  0.6513  0.4772  1.0107
 9226SOL    HW239312   3.876   4.392   5.120  0.5397 -1.0447  0.4632
 9227SOL     OW39313   0.130   1.581  16.604 -0.0348 -0.3315  0.3756
 9227SOL    HW139314   0.118   1.495  16.565 -2.7951  1.1000 -1.8961
 9227SOL    HW239315   0.224   1.573  16.623 -0.1846 -2.2019  0.3237
 9228SOL     OW39316   3.994   1.620   4.885 -0.2550  0.3242  0.8967
 9228SOL    HW139317   4.022   1.563   4.813 -1.2866  1.8089 -0.6803
 9228SOL    HW239318   4.083   1.633   4.916  0.4911 -1.5017 -0.4366
 9229SOL     OW39319   4.203   4.052   3.906 -0.3942 -0.2004 -0.1789
 9229SOL    HW139320   4.249   4.028   3.826  0.0171  2.4927 -0.7185
 9229SOL    HW239321   4.165   4.135   3.878  0.2967  0.4365  0.7640
 9230SOL     OW39322   1.625   3.993   6.145 -0.1829 -0.3885  0.4941
 9230SOL    HW139323   1.644   3.904   6.174 -1.6527 -1.2721 -1.2151
 9230SOL    HW239324   1.536   3.978   6.111 -0.2443 -0.8614  0.8651
 9231SOL     OW39325   3.586   2.315   7.955  0.4479 -0.5272  0.0982
 9231SOL    HW139326   3.534   2.353   7.884 -2.5422 -0.2356  2.4678
 9231SOL    HW239327   3.536   2.342   8.032  2.3691 -2.2221  1.9366
 9232SOL     OW39328   3.726   3.755   3.365 -0.3727  0.1819 -0.7062
 9232SOL    HW139329   3.730   3.848   3.389 -1.5891 -0.0418  0.3967
 9232SOL    HW239330   3.811   3.725   3.336 -0.0116 -0.1265  0.6652
 9233SOL     OW39331   4.011   0.790   9.210 -0.0805 -0.3950  0.4686
 9233SOL    HW139332   4.074   0.727   9.175  2.4034  1.7563  1.0041
 9233SOL    HW239333   3.924   0.752   9.199 -0.1915  0.6365 -2.1159
 9234SOL     OW39334   2.233   1.542   5.736 -0.0771 -0.0831  0.4771
 9234SOL    HW139335   2.319   1.563   5.774  0.8905 -1.4262 -0.9914
 9234SOL    HW239336   2.260   1.492   5.659  2.5815  1.6528  0.2456
 9235SOL     OW39337   0.870   2.120  16.571 -0.4656  0.0662  0.1681
 9235SOL    HW139338   0.789   2.130  16.622 -0.4750  1.3071 -0.0887
 9235SOL    HW239339   0.838   2.093  16.485  1.1092  1.9521 -0.9809
 9236SOL     OW39340   2.971   0.843   1.363 -0.1954  0.3400 -0.4242
 9236SOL    HW139341   2.969   0.925   1.313 -1.0452  0.3254 -0.4109
 9236SOL    HW239342   2.883   0.817   1.336 -0.6267 -0.1477  1.4651
 9237SOL     OW39343   3.209   0.343   9.718  0.2599  0.1057  0.0124
 9237SOL    HW139344   3.164   0.344   9.802  0.4327  1.6033  0.0711
 9237SOL    HW239345   3.136   0.323   9.659  0.5057 -1.6442  0.2985
 9238SOL     OW39346   1.957   3.891   3.790  0.2324 -0.1694  0.5448
 9238SOL    HW139347   1.985   3.982   3.785  0.9690 -0.3602  1.2183
 9238SOL    HW239348   1.922   3.873   3.703 -0.5776 -1.1700  1.0701
 9239SOL     OW39349   0.590   3.398   4.111  0.7381 -0.2037  0.8733
 9239SOL    HW139350   0.503   3.385   4.148 -0.2216 -1.0534 -1.7247
 9239SOL    HW239351   0.633   3.323   4.152  1.3008 -1.7813 -2.6019
 9240SOL     OW39352   2.576   3.373   8.620 -0.3728 -0.1259 -0.2473
 9240SOL    HW139353   2.600   3.463   8.599 -0.8350  0.2290  0.7270
 9240SOL    HW239354   2.599   3.332   8.537  0.6663 -2.3288  1.1424
 9241SOL     OW39355   2.659   2.810   4.449  0.5414 -0.5928 -0.0948
 9241SOL    HW139356   2.752   2.800   4.433  1.1181  1.4705  1.9539
 9241SOL    HW239357   2.621   2.724   4.431 -3.4517  1.0475  0.3739
 9242SOL     OW39358   2.044   3.632  12.247  0.6470  0.2530  0.6136
 9242SOL    HW139359   2.056   3.554  12.301 -0.9998  0.1908  0.8907
 9242SOL    HW239360   2.128   3.676  12.250 -0.3603  1.6478  7.8027
 9243SOL     OW39361   3.358   1.060   3.843  0.2436 -0.3288 -0.1463
 9243SOL    HW139362   3.446   1.083   3.813  1.0221 -1.3246  1.3982
 9243SOL    HW239363   3.337   0.985   3.789 -0.1702 -0.0445 -0.3795
 9244SOL     OW39364   4.113   0.067  14.825 -0.3594 -0.2645 -0.2961
 9244SOL    HW139365   4.173   0.069  14.751 -1.0734 -1.6538 -0.9140
 9244SOL    HW239366   4.034   0.075  14.771 -1.9565  0.9671  2.2197
 9245SOL     OW39367   3.721   4.469   8.587  0.0657  0.0453 -0.2022
 9245SOL    HW139368   3.745   4.481   8.678 -0.7186 -0.5549  0.0831
 9245SOL    HW239369   3.633   4.432   8.597  0.3643 -0.1764  1.5536
 9246SOL     OW39370   0.906   0.075   6.882  0.4462 -0.2570  0.2695
 9246SOL    HW139371   0.996   0.043   6.873  0.1551 -0.5701 -1.5478
 9246SOL    HW239372   0.856   4.733   6.868  1.1328 -0.3399 -1.8167
 9247SOL     OW39373   4.681   3.115   4.036  0.3197 -0.6592 -0.2773
 9247SOL    HW139374   4.681   3.153   4.124 -1.0553 -0.5118 -0.3476
 9247SOL    HW239375   0.038   3.107   4.024  0.5655  0.5165  0.8321
 9248SOL     OW39376   0.582   2.470   2.353  0.0514 -0.2424  0.2670
 9248SOL    HW139377   0.568   2.527   2.429  0.5971 -0.1084  0.2668
 9248SOL    HW239378   0.609   2.386   2.389 -0.7006  0.5083  2.5356
 9249SOL     OW39379   1.348   2.026   6.170 -0.1620 -0.3902  0.2338
 9249SOL    HW139380   1.433   1.992   6.143 -0.5889  0.4714 -2.1775
 9249SOL    HW239381   1.286   1.977   6.115  0.4204 -1.3293  0.4196
 9250SOL     OW39382   2.423   4.525   8.432  0.0065  0.7831  0.0708
 9250SOL    HW139383   2.451   4.534   8.523  0.5136  0.8438 -0.0923
 9250SOL    HW239384   2.482   4.573   8.375  2.1481 -0.3706  1.2973
 9251SOL     OW39385   1.785   0.873   0.249 -0.4133  0.1748  0.2219
 9251SOL    HW139386   1.818   0.800   0.197 -0.0325 -0.4406  1.3302
 9251SOL    HW239387   1.856   0.880   0.313  1.0109  0.6882 -1.3851
 9252SOL     OW39388   1.910   2.350   9.605  0.4128 -0.4615 -0.1911
 9252SOL    HW139389   1.989   2.385   9.563 -0.4741  2.0553  0.2746
 9252SOL    HW239390   1.912   2.406   9.682 -2.7083  1.2557 -1.3864
 9253SOL     OW39391   4.541   1.935  12.053 -0.3255 -0.0278 -0.3660
 9253SOL    HW139392   4.497   2.012  12.018 -1.0861  0.2572  1.2158
 9253SOL    HW239393   4.634   1.957  12.061  0.1229 -2.0757  0.2496
 9254SOL     OW39394   2.577   4.446  11.949  0.0466 -0.4345  0.0030
 9254SOL    HW139395   2.485   4.444  11.976  1.3963 -2.4055  4.2996
 9254SOL    HW239396   2.612   4.377  12.005 -2.5684 -1.7007  0.0605
 9255SOL     OW39397   3.650   1.588   6.810  0.3906  0.4247  0.0421
 9255SOL    HW139398   3.625   1.647   6.739 -1.7744 -0.5249  0.0292
 9255SOL    HW239399   3.660   1.505   6.764  3.7283  2.1738 -2.4235
 9256SOL     OW39400   4.700   0.806  16.207  0.0424 -0.2898 -0.1892
 9256SOL    HW139401   4.693   0.896  16.238 -0.5274 -0.6145  0.6198
 9256SOL    HW239402   4.627   0.762  16.252 -2.4352  4.3209  0.3048
 9257SOL     OW39403   3.950   3.153   6.028 -0.6333  0.3007 -0.3771
 9257SOL    HW139404   3.970   3.192   6.113  0.8291 -0.8412 -0.1997
 9257SOL    HW239405   3.951   3.060   6.048  1.3797  0.2326 -0.7360
 9258SOL     OW39406   4.352   1.402   4.892  0.1565 -0.1240 -0.2261
 9258SOL    HW139407   4.324   1.484   4.933 -0.5600 -0.9977  1.0629
 9258SOL    HW239408   4.412   1.443   4.830  2.1029 -1.4881  0.7637
 9259SOL     OW39409   3.620   0.850  15.573  0.0606  1.3172  0.4492
 9259SOL    HW139410   3.595   0.865  15.664 -1.3240 -1.3710  0.5392
 9259SOL    HW239411   3.539   0.805  15.548  1.2249 -1.5147  1.6682
 9260SOL     OW39412   1.543   0.207   4.151  0.1370 -0.1129  0.0227
 9260SOL    HW139413   1.560   0.293   4.112  0.4256  0.1154  0.6341
 9260SOL    HW239414   1.451   0.198   4.129 -0.0643 -1.3658  1.3198
 9261SOL     OW39415   0.379   2.725   7.114  0.3033  0.6380 -0.1666
 9261SOL    HW139416   0.434   2.783   7.167  1.2750 -1.0184  0.6395
 9261SOL    HW239417   0.395   2.764   7.028 -1.8418  0.4002 -0.6871
 9262SOL     OW39418   1.056   0.439   7.157 -0.7101  0.1912  0.5147
 9262SOL    HW139419   1.039   0.346   7.145 -0.0452  0.0496  0.6552
 9262SOL    HW239420   1.061   0.439   7.253 -0.8310 -0.5279  0.5161
 9263SOL     OW39421   2.281   2.424   5.279  0.3787 -0.1667  0.3812
 9263SOL    HW139422   2.306   2.510   5.312  0.4786 -0.7835  1.9183
 9263SOL    HW239423   2.263   2.379   5.362  0.2288  0.8029  0.8702
 9264SOL     OW39424   4.458   4.232   3.196 -0.2136 -0.0680 -0.1463
 9264SOL    HW139425   4.428   4.144   3.174  0.5658 -0.4263  0.2137
 9264SOL    HW239426   4.371   4.271   3.205 -1.4505 -2.6596 -0.7351
 9265SOL     OW39427   2.695   0.470  11.178 -0.0654 -0.2324 -0.1572
 9265SOL    HW139428   2.719   0.542  11.236 -2.4055  0.1660  0.3237
 9265SOL    HW239429   2.771   0.412  11.187  0.8449  1.2210  1.3747
 9266SOL     OW39430   1.269   1.477  15.171  0.2941  0.2673 -0.1591
 9266SOL    HW139431   1.232   1.443  15.252 -0.0698 -0.2177 -0.5325
 9266SOL    HW239432   1.340   1.535  15.200 -2.0640  2.6025  0.8777
 9267SOL     OW39433   4.165   2.046   6.427  0.1196  0.3625 -0.3584
 9267SOL    HW139434   4.200   2.082   6.509  0.8508  1.1653 -1.0241
 9267SOL    HW239435   4.183   1.954   6.445 -1.5953  0.3654  1.4133
 9268SOL     OW39436   1.697   0.692  11.449  0.4416 -0.3906  0.5439
 9268SOL    HW139437   1.786   0.668  11.422  0.3879 -0.5168  0.4781
 9268SOL    HW239438   1.716   0.739  11.530  1.3494 -2.6842  1.6673
 9269SOL     OW39439   4.448   3.294   9.250 -0.9352 -0.2061 -0.8115
 9269SOL    HW139440   4.405   3.260   9.328  0.2056 -2.4001 -1.1419
 9269SOL    HW239441   4.533   3.310   9.289  0.1212 -0.1489 -3.1345
 9270SOL     OW39442   2.114   0.342  12.829 -0.5580  0.1932 -0.1023
 9270SOL    HW139443   2.062   0.319  12.906 -0.0977  0.3078  0.2413
 9270SOL    HW239444   2.153   0.420  12.869 -0.1073 -0.5793  0.9620
 9271SOL     OW39445   1.004   2.826   4.336 -0.5799  0.2421 -0.3511
 9271SOL    HW139446   1.098   2.809   4.330 -0.5734 -0.1915  1.0192
 9271SOL    HW239447   0.992   2.882   4.412  0.9590  0.4157 -0.2411
 9272SOL     OW39448   2.666   4.158   7.335 -0.2678 -0.0830  0.0549
 9272SOL    HW139449   2.582   4.113   7.334 -1.2551  1.8308 -3.4311
 9272SOL    HW239450   2.647   4.247   7.365 -0.2049  0.1722 -0.6823
 9273SOL     OW39451   4.702   2.561   7.869 -0.2854 -0.7045  0.8277
 9273SOL    HW139452   4.693   2.645   7.823 -0.6008 -2.2317 -1.9368
 9273SOL    HW239453   0.048   2.534   7.832 -0.5272 -2.1713  1.3534
 9274SOL     OW39454   3.402   0.857   4.886 -0.1928 -0.2265 -0.3593
 9274SOL    HW139455   3.422   0.914   4.960  0.8227  2.9535 -3.0831
 9274SOL    HW239456   3.443   0.889   4.806 -1.8325  2.9332  0.0729
 9275SOL     OW39457   3.223   4.418   7.277  0.0124  0.3181 -0.1795
 9275SOL    HW139458   3.294   4.355   7.267 -0.4097 -0.0590 -0.7649
 9275SOL    HW239459   3.261   4.506   7.278  1.3196 -0.2643  1.3380
 9276SOL     OW39460   2.985   0.042   2.005 -0.0319  0.1684  0.1465
 9276SOL    HW139461   2.926   0.104   2.047 -1.3068 -0.7807 -0.2374
 9276SOL    HW239462   3.059   0.037   2.065 -1.0934  1.9888  1.5850
 9277SOL     OW39463   0.845   0.026   6.162  0.5771  0.3609  0.1026
 9277SOL    HW139464   0.885   4.735   6.080 -0.2294  0.2707 -0.2640
 9277SOL    HW239465   0.847   0.121   6.150 -4.4390  0.4481 -0.2009
 9278SOL     OW39466   3.872   3.641  11.294 -0.4893 -0.3359 -0.0244
 9278SOL    HW139467   3.908   3.558  11.325 -3.4945 -1.2713  0.9551
 9278SOL    HW239468   3.779   3.620  11.287 -0.4349 -1.2046  1.8539
 9279SOL     OW39469   2.980   3.894   1.837  0.4169 -0.0358 -0.2267
 9279SOL    HW139470   3.039   3.880   1.911  1.7999  2.7005 -0.8149
 9279SOL    HW239471   3.035   3.924   1.765  0.9368 -2.3611 -0.7862
 9280SOL     OW39472   3.672   2.271  17.305  0.0992 -0.8102 -0.3835
 9280SOL    HW139473   3.683   2.366  17.294 -3.0437 -0.4496 -0.3296
 9280SOL    HW239474   3.758   2.259  17.345  0.0050 -0.3440 -0.0401
 9281SOL     OW39475   4.280   1.068  15.559 -0.7702 -0.4495  0.2085
 9281SOL    HW139476   4.224   1.029  15.626 -1.4769  1.6680  0.8615
 9281SOL    HW239477   4.207   1.104  15.509 -0.5915 -1.2207 -0.5824
 9282SOL     OW39478   3.700   3.490   8.149  0.2243  0.1768 -0.2431
 9282SOL    HW139479   3.785   3.473   8.189 -0.7050 -1.5677  0.9780
 9282SOL    HW239480   3.668   3.402   8.166  0.6573  0.1206  0.2713
 9283SOL     OW39481   0.242   3.825   4.580  0.0125  0.3281  0.2302
 9283SOL    HW139482   0.328   3.851   4.613 -0.3192  1.4521  0.2097
 9283SOL    HW239483   0.204   3.912   4.563  1.2280  1.0217  1.0261
 9284SOL     OW39484   1.778   1.125   6.742  0.0709  0.3303 -0.1477
 9284SOL    HW139485   1.787   1.208   6.788  0.8321  0.2305 -0.1107
 9284SOL    HW239486   1.860   1.123   6.692 -0.2747 -2.8170 -0.5737
 9285SOL     OW39487   3.294   0.085  10.035  0.4911 -0.1460  0.5276
 9285SOL    HW139488   3.332   0.005  10.072  2.9801  0.6451 -0.2878
 9285SOL    HW239489   3.207   0.069  10.071  1.3367 -2.9165  1.3411
 9286SOL     OW39490   2.596   2.833  16.940  0.5250  0.8410 -0.5254
 9286SOL    HW139491   2.647   2.794  16.869 -0.4208 -1.2081 -0.0792
 9286SOL    HW239492   2.666   2.859  17.000  0.4197  1.1041 -0.5177
 9287SOL     OW39493   2.760   2.676   3.232  0.2413 -0.4407  0.3293
 9287SOL    HW139494   2.846   2.675   3.275  0.6221  0.6361 -0.4268
 9287SOL    HW239495   2.703   2.629   3.294  0.3901 -0.0253  0.7811
 9288SOL     OW39496   0.167   1.726   7.327  0.6376  0.5419  0.6256
 9288SOL    HW139497   0.236   1.718   7.393  0.8609 -0.1995  0.2997
 9288SOL    HW239498   0.192   1.804   7.276  2.5423 -0.1112  0.5382
 9289SOL     OW39499   3.085   1.231  12.237  0.0920  0.6713 -0.1958
 9289SOL    HW139500   3.071   1.145  12.198 -0.4446  0.3533  0.6886
 9289SOL    HW239501   3.173   1.230  12.274 -0.8259  0.6850  2.0283
 9290SOL     OW39502   1.767   2.945   1.382  0.5622  0.6169  0.3099
 9290SOL    HW139503   1.801   3.001   1.313 -0.6155 -2.0801 -2.4777
 9290SOL    HW239504   1.692   2.995   1.412 -0.7443 -1.3085  0.2838
 9291SOL     OW39505   3.073   2.584   6.510 -0.5021  0.1841  0.1422
 9291SOL    HW139506   2.991   2.541   6.531 -2.4856  4.1075  0.5031
 9291SOL    HW239507   3.108   2.607   6.596  1.6659  0.3356 -0.7707
 9292SOL     OW39508   3.610   2.042   1.270 -0.3334  0.0002  0.3150
 9292SOL    HW139509   3.600   1.979   1.342  1.4562 -0.3861  0.2163
 9292SOL    HW239510   3.522   2.036   1.233  0.0754 -5.6021  0.2368
 9293SOL     OW39511   2.751   4.558  15.142  0.4662 -0.6131 -0.6779
 9293SOL    HW139512   2.729   4.646  15.170  1.0723 -0.9166  0.8006
 9293SOL    HW239513   2.719   4.509  15.218 -4.2649  0.6878 -1.8463
 9294SOL     OW39514   0.113   2.992   6.696 -0.1001 -0.8358  0.1462
 9294SOL    HW139515   0.078   2.915   6.740 -0.0728 -0.0922  1.4719
 9294SOL    HW239516   0.130   3.047   6.773  1.2442 -1.2188  0.1288
 9295SOL     OW39517   1.058   2.348   3.257 -0.6855 -0.2497  1.0486
 9295SOL    HW139518   1.098   2.268   3.223 -0.5477  0.4186 -0.3860
 9295SOL    HW239519   1.090   2.412   3.193 -0.3641 -0.5574  0.8996
 9296SOL     OW39520   3.924   4.204   4.806 -0.4472  0.2746  0.0356
 9296SOL    HW139521   3.890   4.173   4.722  0.2279 -1.4312  0.3961
 9296SOL    HW239522   3.847   4.230   4.857 -0.8501  0.6837 -0.7881
 9297SOL     OW39523   1.552   4.572  16.395 -0.6524 -0.0971  0.2113
 9297SOL    HW139524   1.602   4.643  16.434 -2.6232  1.5142 -0.1942
 9297SOL    HW239525   1.532   4.516  16.470 -2.5792  0.4761  0.1370
 9298SOL     OW39526   2.347   4.414   3.426 -0.4677  0.1580  0.5527
 9298SOL    HW139527   2.301   4.452   3.500  1.3453 -0.8737  2.2032
 9298SOL    HW239528   2.354   4.489   3.366  0.8288 -1.0742 -0.8523
 9299SOL     OW39529   2.822   1.312   4.682  0.0885  0.4163 -0.2086
 9299SOL    HW139530   2.787   1.228   4.653 -0.3885  1.0586 -1.4965
 9299SOL    HW239531   2.739   1.357   4.695  0.3090  1.0048 -0.8888
 9300SOL     OW39532   2.128   4.731  15.856 -0.3224 -0.2087 -0.0202
 9300SOL    HW139533   2.169   0.021  15.775 -2.0044  2.2026 -0.0422
 9300SOL    HW239534   2.075   0.071  15.871 -1.6912 -0.9000 -1.3262
 9301SOL     OW39535   2.670   3.957  16.033 -0.5724  0.2205  0.5016
 9301SOL    HW139536   2.583   3.920  16.047  0.0506 -0.6440  2.0229
 9301SOL    HW239537   2.635   4.038  15.996 -2.4364 -1.0549 -0.4882
 9302SOL     OW39538   2.908   4.494   2.495  0.3553 -0.6661 -0.5773
 9302SOL    HW139539   2.903   4.401   2.473 -1.8188 -0.2739 -1.7227
 9302SOL    HW239540   2.993   4.510   2.453  0.5219  1.9666  0.7328
 9303SOL     OW39541   0.050   1.779  12.322 -0.2601 -0.1952 -0.3254
 9303SOL    HW139542   4.737   1.850  12.360  1.1151  0.8464 -0.4279
 9303SOL    HW239543   0.115   1.825  12.268 -1.3029  0.3030 -1.1459
 9304SOL     OW39544   3.984   0.811  12.715  0.0790 -0.0734 -0.4833
 9304SOL    HW139545   4.035   0.850  12.644  1.9736 -0.2799  0.7716
 9304SOL    HW239546   3.992   0.719  12.692  2.7171 -0.1408  0.7927
 9305SOL     OW39547   4.127   0.809   7.903 -0.0366  0.0708 -0.0016
 9305SOL    HW139548   4.119   0.894   7.946 -0.8465 -0.4171  0.7912
 9305SOL    HW239549   4.210   0.767   7.926 -0.1819  0.2383  0.8267
 9306SOL     OW39550   2.973   2.916  13.394  0.4996  0.3049  0.4472
 9306SOL    HW139551   3.055   2.897  13.440  0.6739  1.5546  0.6585
 9306SOL    HW239552   2.906   2.910  13.462  1.0889  0.5765  1.0533
 9307SOL     OW39553   2.515   4.055   2.001  0.0890  0.2295  0.0233
 9307SOL    HW139554   2.598   4.077   1.960  0.0747  0.4864  0.1360
 9307SOL    HW239555   2.474   3.992   1.942  0.1645  1.7520 -1.6375
 9308SOL     OW39556   2.168   0.640   2.324 -0.2455 -0.2145  0.1931
 9308SOL    HW139557   2.253   0.684   2.325 -0.7946  0.7976  3.3406
 9308SOL    HW239558   2.145   0.638   2.417  1.3808 -1.0954  0.5731
 9309SOL     OW39559   3.784   1.335   6.775  0.1302  0.4800 -0.4342
 9309SOL    HW139560   3.818   1.337   6.864  0.0278 -0.3836 -0.3690
 9309SOL    HW239561   3.826   1.254   6.744 -0.1008  1.1928 -2.5949
 9310SOL     OW39562   3.181   4.444  11.339  0.3181 -0.0239  0.3428
 9310SOL    HW139563   3.131   4.421  11.260 -0.7556 -0.0947  1.0509
 9310SOL    HW239564   3.117   4.402  11.397 -0.8697 -0.3657 -1.2053
 9311SOL     OW39565   0.258   0.690   6.968  0.1032  0.1459  0.3004
 9311SOL    HW139566   0.254   0.599   6.996  2.0669  0.6521  2.2535
 9311SOL    HW239567   0.351   0.713   6.980 -0.2745  1.1917  1.2068
 9312SOL     OW39568   4.703   4.145   7.292  0.4892  0.1267  0.0854
 9312SOL    HW139569   4.679   4.236   7.272  0.8427  0.7130  2.2443
 9312SOL    HW239570   4.615   4.109   7.286 -0.7645  2.9576  1.1360
 9313SOL     OW39571   3.995   1.102  16.497 -0.1721  0.0235 -0.0886
 9313SOL    HW139572   3.918   1.053  16.526 -1.0268  1.8098  0.6093
 9313SOL    HW239573   4.000   1.159  16.573 -3.2248  0.2975 -0.0948
 9314SOL     OW39574   2.046   3.566   5.513 -0.3408 -0.3729 -0.1389
 9314SOL    HW139575   1.969   3.584   5.566 -1.2685 -2.2116 -0.8513
 9314SOL    HW239576   2.064   3.475   5.536  0.2749 -0.1954  0.0667
 9315SOL     OW39577   2.091   4.051   9.582 -0.2255  0.3710  0.3801
 9315SOL    HW139578   2.130   4.086   9.662  0.6882  1.8224 -0.7028
 9315SOL    HW239579   2.071   3.968   9.625  1.4375  0.8240  2.0505
 9316SOL     OW39580   3.390   3.720  13.974 -1.0454  0.0899  0.4847
 9316SOL    HW139581   3.298   3.743  13.959 -0.3614  3.0168  0.8643
 9316SOL    HW239582   3.382   3.628  13.999  0.8768 -0.1208  0.3200
 9317SOL     OW39583   4.223   4.378   1.826 -0.3513 -0.5422 -0.3272
 9317SOL    HW139584   4.206   4.439   1.754 -0.5914  0.2553  0.3976
 9317SOL    HW239585   4.178   4.306   1.783  1.5471 -0.9206 -1.6939
 9318SOL     OW39586   3.167   4.445   2.730  0.5577 -0.7873 -0.2571
 9318SOL    HW139587   3.093   4.504   2.737  0.2177 -1.3378  0.8757
 9318SOL    HW239588   3.135   4.367   2.777 -0.8129  0.0120  0.1294
 9319SOL     OW39589   0.700   1.656   1.527 -0.4152 -0.6472  0.1502
 9319SOL    HW139590   0.682   1.643   1.433 -0.5197  1.8295 -0.1663
 9319SOL    HW239591   0.624   1.711   1.548  0.1083  0.2790 -0.3952
 9320SOL     OW39592   4.055   2.993   6.703 -0.4010  0.2067  0.0419
 9320SOL    HW139593   3.969   2.970   6.739 -0.5103  2.6518  1.3060
 9320SOL    HW239594   4.105   2.936   6.761  0.2766  0.8775  0.1168
 9321SOL     OW39595   2.398   2.045  13.087  0.3383 -0.1264  0.5395
 9321SOL    HW139596   2.369   2.098  13.013 -0.6987  0.2291  1.1977
 9321SOL    HW239597   2.354   1.961  13.073 -1.7495  0.9204  0.7871
 9322SOL     OW39598   0.844   2.314   6.415 -0.2001 -0.2836  0.7639
 9322SOL    HW139599   0.883   2.395   6.382  0.2598 -0.8811 -0.1585
 9322SOL    HW239600   0.750   2.333   6.421 -0.4095 -1.5676  1.4714
 9323SOL     OW39601   1.597   3.292   8.584 -0.3820 -0.5514 -0.1204
 9323SOL    HW139602   1.655   3.331   8.649  0.8113  2.0938 -2.7722
 9323SOL    HW239603   1.515   3.307   8.631 -0.1738  1.5488 -0.4517
 9324SOL     OW39604   4.563   4.129   6.454  0.5757 -0.1684  0.3020
 9324SOL    HW139605   4.650   4.120   6.493  0.5197 -0.0697  0.4523
 9324SOL    HW239606   4.542   4.216   6.488  1.9099 -0.1197  0.9875
 9325SOL     OW39607   3.784   2.717   2.534  0.3931 -0.6410 -0.3754
 9325SOL    HW139608   3.790   2.794   2.477 -2.0877  0.8772  1.4128
 9325SOL    HW239609   3.708   2.744   2.586  1.3327  2.1408 -0.4250
 9326SOL     OW39610   3.421   3.117   6.284 -0.1951  0.6443  0.5888
 9326SOL    HW139611   3.355   3.166   6.234  0.8449  1.2662 -0.1817
 9326SOL    HW239612   3.389   3.027   6.280  0.1119  0.5409  0.4346
 9327SOL     OW39613   3.237   0.680   0.550  0.3229 -0.4001  0.0707
 9327SOL    HW139614   3.248   0.589   0.523  1.3121 -0.8115  1.8433
 9327SOL    HW239615   3.179   0.712   0.481  0.6816  2.2156  0.9495
 9328SOL     OW39616   3.873   0.391   8.414  0.1435 -0.1002 -0.2183
 9328SOL    HW139617   3.956   0.351   8.442 -0.4493 -1.3318 -0.2323
 9328SOL    HW239618   3.907   0.457   8.354 -0.8370 -0.6565 -1.3695
 9329SOL     OW39619   4.566   4.294   6.990  0.3616 -0.1276  0.1712
 9329SOL    HW139620   4.569   4.318   7.082 -2.6309 -0.9164  0.4783
 9329SOL    HW239621   4.658   4.302   6.964  0.4021  2.2581  1.0394
 9330SOL     OW39622   1.172   1.178   4.889 -0.3116 -0.0784  0.4408
 9330SOL    HW139623   1.228   1.249   4.856  1.4174 -1.7329 -0.1660
 9330SOL    HW239624   1.137   1.219   4.968  0.9839  2.2604 -0.1742
 9331SOL     OW39625   3.834   0.892  13.885 -0.0324  0.4350 -0.1053
 9331SOL    HW139626   3.830   0.978  13.926  1.9920  0.4685  0.0092
 9331SOL    HW239627   3.920   0.898  13.843 -0.4055  2.4058 -0.5530
 9332SOL     OW39628   1.404   1.267   7.299  0.1147 -0.1134 -0.0665
 9332SOL    HW139629   1.414   1.262   7.395 -2.6966 -1.0823  0.1658
 9332SOL    HW239630   1.316   1.231   7.290  0.4092 -0.6645 -0.7025
 9333SOL     OW39631   2.519   4.726   2.507 -0.0061 -0.1158  0.3031
 9333SOL    HW139632   2.490   4.646   2.549 -0.4524  0.2131  0.6231
 9333SOL    HW239633   2.610   4.708   2.482 -0.0646 -0.9913  0.7555
 9334SOL     OW39634   1.808   2.369   7.156 -0.4305  0.1376  0.6153
 9334SOL    HW139635   1.778   2.333   7.240 -0.2031 -1.3199  0.0673
 9334SOL    HW239636   1.900   2.345   7.158 -0.6967 -0.8237  1.4161
 9335SOL     OW39637   0.228   3.322   5.259 -0.1492  0.1118 -0.3032
 9335SOL    HW139638   0.180   3.243   5.236  0.4992 -0.6200  0.8473
 9335SOL    HW239639   0.219   3.379   5.183  1.4739 -0.5542 -0.9815
 9336SOL     OW39640   3.656   1.149   3.462  0.3504  0.0834 -0.0824
 9336SOL    HW139641   3.702   1.233   3.457 -1.0255  0.7174 -2.0223
 9336SOL    HW239642   3.631   1.129   3.372  0.8989  1.3534 -0.5241
 9337SOL     OW39643   0.951   1.312   7.974 -0.5120  0.4039  0.4685
 9337SOL    HW139644   1.021   1.353   7.923 -1.5903  2.3385  0.5469
 9337SOL    HW239645   0.996   1.233   8.003 -0.1512 -0.2562 -1.8642
 9338SOL     OW39646   1.935   3.779  13.307 -0.0409 -0.2947  0.3654
 9338SOL    HW139647   2.024   3.808  13.286 -0.3954  0.9586  0.5937
 9338SOL    HW239648   1.910   3.727  13.230  1.7230  0.8447 -0.9947
 9339SOL     OW39649   0.752   1.446  15.403 -0.6540  0.2627  0.3426
 9339SOL    HW139650   0.824   1.493  15.360 -0.7849  1.0014  0.9175
 9339SOL    HW239651   0.712   1.391  15.336 -1.6674  0.7486  0.5451
 9340SOL     OW39652   1.411   0.294   3.493 -0.0561  0.1009  0.6349
 9340SOL    HW139653   1.357   0.217   3.473 -2.2900  1.7532  0.2720
 9340SOL    HW239654   1.388   0.323   3.581  1.5023  0.4053  0.9302
 9341SOL     OW39655   4.617   1.102   8.138 -0.3185  0.8368 -0.5545
 9341SOL    HW139656   4.571   1.158   8.201 -0.4159 -0.6743  0.6886
 9341SOL    HW239657   4.557   1.030   8.122 -0.8809  0.9319  1.1269
 9342SOL     OW39658   1.799   1.138  10.997  0.2339 -0.7543  0.4498
 9342SOL    HW139659   1.707   1.164  10.994  0.4963 -0.0958 -1.8815
 9342SOL    HW239660   1.785   1.052  11.035  0.6753 -0.8280  0.4539
 9343SOL     OW39661   3.011   1.822  12.408  0.7338 -0.1807 -0.0334
 9343SOL    HW139662   3.077   1.864  12.464  0.9894  0.2060 -0.6276
 9343SOL    HW239663   3.029   1.728  12.409 -0.7811 -0.4660 -1.8549
 9344SOL     OW39664   1.895   4.192   4.643 -0.0915 -0.6148 -0.3661
 9344SOL    HW139665   1.845   4.120   4.605 -0.6404 -0.4773  0.0785
 9344SOL    HW239666   1.824   4.223   4.700  0.7198  1.0251 -0.2505
 9345SOL     OW39667   2.108   1.869  14.326  0.0717 -0.3964  0.3679
 9345SOL    HW139668   2.043   1.856  14.395  0.7379 -1.4640  0.8048
 9345SOL    HW239669   2.082   1.956  14.298  3.6629 -0.2595 -2.5654
 9346SOL     OW39670   1.267   1.779   4.704 -0.2970 -0.1003 -0.7274
 9346SOL    HW139671   1.173   1.786   4.719  0.0058  1.6034  0.4279
 9346SOL    HW239672   1.258   1.689   4.671 -0.7772 -0.5443  0.6282
 9347SOL     OW39673   0.187   4.560   4.820  0.1218 -0.1250  0.3394
 9347SOL    HW139674   0.136   4.596   4.892  0.9332 -2.0067  1.8586
 9347SOL    HW239675   0.246   4.632   4.796 -1.1763  0.7004 -0.3416
 9348SOL     OW39676   2.980   3.915   3.850  0.3248 -0.2675  0.1651
 9348SOL    HW139677   3.018   3.889   3.766  3.9039 -0.9956  2.0245
 9348SOL    HW239678   3.056   3.917   3.907  2.2169  2.0306 -2.4793
 9349SOL     OW39679   1.251   2.910   2.369  0.1975  0.2831 -0.3350
 9349SOL    HW139680   1.308   2.889   2.295  0.5092  1.9243 -0.5657
 9349SOL    HW239681   1.212   2.824   2.388 -0.0593  0.3784 -0.4327
 9350SOL     OW39682   3.097   2.471   8.008  0.1186 -0.4072  0.6231
 9350SOL    HW139683   3.017   2.446   7.962  0.4418 -1.6202  0.7289
 9350SOL    HW239684   3.091   2.429   8.094  0.1355  0.3650  1.0111
 9351SOL     OW39685   1.084   3.549  11.516 -0.0825  0.1513 -0.0354
 9351SOL    HW139686   1.144   3.565  11.589 -1.0599  1.9360  0.3940
 9351SOL    HW239687   1.010   3.524  11.571  0.1544  1.6706  0.9751
 9352SOL     OW39688   2.497   0.039   2.114  0.1449  0.3063 -0.3039
 9352SOL    HW139689   2.490   4.704   2.053  0.9943  0.1114 -0.1629
 9352SOL    HW239690   2.417   0.030   2.166  0.0776 -0.2358 -0.5018
 9353SOL     OW39691   3.906   0.694   6.436  0.2968 -0.0379 -0.2947
 9353SOL    HW139692   3.966   0.620   6.425  1.0621  0.5955 -0.3851
 9353SOL    HW239693   3.826   0.643   6.445 -0.6649  1.6326  0.6068
 9354SOL     OW39694   3.741   1.748   6.195 -0.0871  0.0353 -0.3029
 9354SOL    HW139695   3.750   1.791   6.280  0.4390 -0.1457 -0.2670
 9354SOL    HW239696   3.649   1.722   6.197 -0.4908  1.4603 -0.6873
 9355SOL     OW39697   1.301   0.750   6.757  0.6064 -0.4271  0.1405
 9355SOL    HW139698   1.376   0.720   6.808  1.0993  0.2321 -0.1873
 9355SOL    HW239699   1.290   0.841   6.787  3.4232 -0.5567  1.5510
 9356SOL     OW39700   1.086   0.740   1.498  0.2994 -0.6115 -0.1649
 9356SOL    HW139701   1.032   0.818   1.512 -0.8008 -1.4720  0.2629
 9356SOL    HW239702   1.162   0.790   1.466  0.9786 -2.4303 -1.3905
 9357SOL     OW39703   1.652   1.732  12.238 -0.8171  0.2641  0.0902
 9357SOL    HW139704   1.680   1.642  12.250 -0.8602  0.4871  1.8018
 9357SOL    HW239705   1.674   1.744  12.145  1.0976  1.5827  0.7285
 9358SOL     OW39706   0.945   1.263   1.562  0.2422  0.4741  0.2750
 9358SOL    HW139707   0.865   1.277   1.511 -0.2809 -0.7189  0.7481
 9358SOL    HW239708   0.939   1.335   1.625  0.0196  0.5649  0.1501
 9359SOL     OW39709   3.087   4.444   9.478  0.3361 -0.2827 -0.5999
 9359SOL    HW139710   3.096   4.534   9.445 -3.8672 -0.4924 -2.3913
 9359SOL    HW239711   3.178   4.425   9.496  0.8913  1.1876 -1.7907
 9360SOL     OW39712   3.680   0.719   8.091  0.3598 -0.1865 -0.2248
 9360SOL    HW139713   3.649   0.638   8.050  0.3174 -0.3876  0.2020
 9360SOL    HW239714   3.603   0.775   8.092  0.6239  0.1338  2.0791
 9361SOL     OW39715   4.695   3.189  16.900  0.6348 -0.2853 -0.0590
 9361SOL    HW139716   4.677   3.103  16.862 -0.5499 -0.6632  1.3200
 9361SOL    HW239717   0.034   3.164  16.950  0.2541 -2.0604 -0.3385
 9362SOL     OW39718   1.042   2.384   4.523  0.9593  0.2924 -0.8782
 9362SOL    HW139719   1.013   2.456   4.579  0.6317  0.7769 -1.6640
 9362SOL    HW239720   0.983   2.396   4.448  0.4945  1.3529 -0.3363
 9363SOL     OW39721   2.669   3.743   5.279  0.5979  0.3158  0.5366
 9363SOL    HW139722   2.581   3.706   5.264 -0.4513  1.9058  2.7670
 9363SOL    HW239723   2.729   3.671   5.260  1.2091  1.5266 -2.0637
 9364SOL     OW39724   3.761   1.359   0.575 -0.0803  0.1367 -0.6008
 9364SOL    HW139725   3.827   1.428   0.584  0.4361 -0.4822  0.4406
 9364SOL    HW239726   3.794   1.309   0.651  1.7059 -1.0580 -2.1597
 9365SOL     OW39727   4.466   1.964   8.817  0.5642 -0.0761 -0.2173
 9365SOL    HW139728   4.422   1.935   8.737 -2.0911 -0.1417  1.2736
 9365SOL    HW239729   4.525   2.034   8.790  0.9083 -0.5498 -0.7055
 9366SOL     OW39730   0.582   3.987   3.488  0.1366 -0.4470  0.3582
 9366SOL    HW139731   0.524   4.033   3.549  1.6768  0.4592  1.1329
 9366SOL    HW239732   0.659   3.972   3.542  0.4280  1.1255  0.3775
 9367SOL     OW39733   0.991   3.293   4.809  0.1799 -0.0309 -0.1612
 9367SOL    HW139734   0.955   3.244   4.735  0.5196 -1.2259  0.4662
 9367SOL    HW239735   1.050   3.225   4.842  0.2477  0.8381  1.5521
 9368SOL     OW39736   1.570   1.377   0.740  0.1974  0.2765  0.5147
 9368SOL    HW139737   1.632   1.309   0.714  1.7047  1.8404  0.0774
 9368SOL    HW239738   1.639   1.443   0.743  3.3456 -3.0645  1.2363
 9369SOL     OW39739   3.369   4.344  11.712  0.5777 -0.4899  0.0723
 9369SOL    HW139740   3.294   4.362  11.769 -1.2742  1.0878 -2.8874
 9369SOL    HW239741   3.372   4.248  11.714  2.7336 -0.3734  1.8342
 9370SOL     OW39742   0.339   1.874   2.128 -0.0339 -0.8080  0.6346
 9370SOL    HW139743   0.309   1.825   2.052 -2.2437  1.1967  0.1984
 9370SOL    HW239744   0.276   1.942   2.152 -0.4831 -1.3034  0.8438
 9371SOL     OW39745   0.566   0.247   7.567  0.7398 -0.3041  0.7588
 9371SOL    HW139746   0.589   0.266   7.476  0.4905  0.2843  0.8182
 9371SOL    HW239747   0.616   0.318   7.608 -0.4270 -0.3205  2.2184
 9372SOL     OW39748   3.626   1.724  14.408 -0.7080  0.0721 -0.0291
 9372SOL    HW139749   3.702   1.669  14.427  0.4859  1.1260 -1.6673
 9372SOL    HW239750   3.585   1.675  14.337 -1.0397  2.4902 -1.5105
 9373SOL     OW39751   0.286   0.156   2.962  0.1407 -0.4664 -0.2629
 9373SOL    HW139752   0.359   0.194   3.011 -0.3879  0.7492 -0.4185
 9373SOL    HW239753   0.339   0.097   2.909  1.3923  0.9238 -0.5620
 9374SOL     OW39754   1.286   1.780   2.570  0.1799  0.2528  0.6467
 9374SOL    HW139755   1.257   1.809   2.484 -1.3753  2.2598  1.8447
 9374SOL    HW239756   1.276   1.861   2.621 -0.9158 -0.4458  1.5654
 9375SOL     OW39757   1.854   1.921   7.466 -0.0899  0.2966  0.4468
 9375SOL    HW139758   1.925   1.888   7.411 -0.8628  1.3837 -1.2188
 9375SOL    HW239759   1.783   1.892   7.407  0.1862  2.6837 -1.0414
 9376SOL     OW39760   2.780   4.054   9.539 -0.8144 -0.1204  0.1453
 9376SOL    HW139761   2.848   4.003   9.581 -0.1642 -0.4425 -1.2986
 9376SOL    HW239762   2.816   4.140   9.516  1.6341 -1.3432 -0.5467
 9377SOL     OW39763   3.139   4.298  15.210 -0.4959  0.2767  0.2704
 9377SOL    HW139764   3.089   4.280  15.131 -2.2886 -1.0808  1.7349
 9377SOL    HW239765   3.211   4.340  15.163 -0.1782 -1.9991 -1.2652
 9378SOL     OW39766   2.782   1.551   2.292  0.0783  0.0889  0.1168
 9378SOL    HW139767   2.863   1.503   2.283  0.8143  1.3054  0.1835
 9378SOL    HW239768   2.728   1.499   2.233  1.4192 -1.8403  0.6027
 9379SOL     OW39769   1.363   3.672   2.805 -0.7140  0.1121 -0.2057
 9379SOL    HW139770   1.442   3.726   2.797 -1.4127  1.8521  4.8040
 9379SOL    HW239771   1.368   3.651   2.898  2.6534 -0.8313 -0.6208
 9380SOL     OW39772   2.748   1.724   4.192  0.8885 -0.2799 -0.3040
 9380SOL    HW139773   2.774   1.815   4.175 -1.3508 -0.1501 -2.9315
 9380SOL    HW239774   2.754   1.714   4.287 -0.2676  0.7015 -0.1215
 9381SOL     OW39775   0.878   1.581   4.099 -0.2834 -0.4486  0.7855
 9381SOL    HW139776   0.884   1.494   4.060 -0.7652  0.0201 -0.3264
 9381SOL    HW239777   0.934   1.627   4.037 -1.1149 -1.1257 -0.4637
 9382SOL     OW39778   3.263   0.301  15.000  0.3255 -0.5961  0.0545
 9382SOL    HW139779   3.197   0.293  14.931  0.5742  2.4927 -0.5789
 9382SOL    HW239780   3.343   0.270  14.958  1.6809  0.8551  1.5674
 9383SOL     OW39781   1.565   3.126   4.141  0.3354  0.1322  0.5195
 9383SOL    HW139782   1.590   3.109   4.050 -0.8853 -3.1224  0.7806
 9383SOL    HW239783   1.559   3.221   4.136  1.6872  0.3058  2.3039
 9384SOL     OW39784   1.405   0.627   5.438 -0.2603 -0.5053 -0.4215
 9384SOL    HW139785   1.400   0.595   5.528 -0.3994  1.2455  0.1872
 9384SOL    HW239786   1.335   0.572   5.403  0.9410 -1.4011 -1.4610
 9385SOL     OW39787   0.399   1.802   4.902  0.5456  0.3033 -0.8662
 9385SOL    HW139788   0.417   1.862   4.975  3.1380  1.1116 -2.1849
 9385SOL    HW239789   0.308   1.775   4.917  0.8207  0.5601  1.3249
 9386SOL     OW39790   2.386   4.224  15.666  0.0336  1.2856 -0.0299
 9386SOL    HW139791   2.434   4.306  15.651 -0.9530  1.9159  0.2285
 9386SOL    HW239792   2.297   4.254  15.645 -0.8935  0.0234  2.0428
 9387SOL     OW39793   1.854   2.588   2.844 -0.6470  0.3038  0.4546
 9387SOL    HW139794   1.866   2.625   2.931  2.8387  0.6622 -0.1712
 9387SOL    HW239795   1.924   2.523   2.853 -0.4286  0.7624  2.1469
 9388SOL     OW39796   4.673   1.567  12.220  0.3875  0.4896  0.0273
 9388SOL    HW139797   4.592   1.611  12.195  0.6597  0.7037 -0.4988
 9388SOL    HW239798   4.719   1.645  12.251 -0.8080  0.2179  2.4609
 9389SOL     OW39799   2.697   2.216   3.435  0.6742 -0.2355 -0.1114
 9389SOL    HW139800   2.719   2.289   3.378 -0.4346  0.5384  0.4485
 9389SOL    HW239801   2.734   2.253   3.515 -0.7133 -0.3757  0.6032
 9390SOL     OW39802   1.596   4.535   6.678  0.3252  0.3365 -0.0443
 9390SOL    HW139803   1.521   4.525   6.620  0.3853  0.9689 -0.2270
 9390SOL    HW239804   1.642   4.452   6.662  1.3769  1.0724 -0.8239
 9391SOL     OW39805   2.138   1.670   5.437  0.7491 -0.3561  0.4397
 9391SOL    HW139806   2.063   1.649   5.492  1.8362 -1.7292  1.4056
 9391SOL    HW239807   2.097   1.737   5.382 -0.6067 -0.2471  1.5740
 9392SOL     OW39808   2.834   1.975   1.158 -0.4015 -0.1061  0.2611
 9392SOL    HW139809   2.840   1.900   1.100 -1.6068 -1.6743  2.1739
 9392SOL    HW239810   2.921   1.981   1.198  0.4143 -0.4128 -1.4524
 9393SOL     OW39811   4.465   1.872   9.442 -0.3449  0.8099 -0.0636
 9393SOL    HW139812   4.549   1.917   9.439  0.6308 -1.1101 -2.2767
 9393SOL    HW239813   4.406   1.923   9.386 -0.4490  1.3838  0.5735
 9394SOL     OW39814   2.719   3.833  16.323  0.1959  0.0482 -0.4389
 9394SOL    HW139815   2.812   3.812  16.313  0.2446 -0.8252  1.7509
 9394SOL    HW239816   2.701   3.884  16.244  1.2518  1.0977  0.0014
 9395SOL     OW39817   0.872   4.417   9.057 -0.0481 -0.4174  0.1085
 9395SOL    HW139818   0.957   4.443   9.021 -1.2935 -0.0916 -2.5642
 9395SOL    HW239819   0.804   4.436   8.993 -0.3461 -0.0718  0.5306
 9396SOL     OW39820   1.249   4.487   6.704 -0.3957 -0.7848  0.0524
 9396SOL    HW139821   1.315   4.421   6.725  1.4008  0.4277 -1.8458
 9396SOL    HW239822   1.177   4.424   6.693  0.9463 -2.4694  1.0018
 9397SOL     OW39823   1.896   0.476   7.290 -0.1776 -0.1642  0.2109
 9397SOL    HW139824   1.990   0.456   7.294 -0.0233  0.4937 -0.0900
 9397SOL    HW239825   1.853   0.395   7.262 -0.5553 -1.3377  4.1225
 9398SOL     OW39826   1.136   3.896   7.966 -0.0797  0.1335 -0.2571
 9398SOL    HW139827   1.160   3.971   8.020  0.2807 -0.6671  0.6919
 9398SOL    HW239828   1.186   3.826   8.008 -0.2529  1.2751  1.8542
 9399SOL     OW39829   1.471   3.661   5.014 -0.2507  0.1337  0.6662
 9399SOL    HW139830   1.442   3.743   5.053 -0.3548 -0.9808  2.9752
 9399SOL    HW239831   1.563   3.686   5.003 -0.6073  0.3210 -1.7592
 9400SOL     OW39832   1.564   0.896   8.145 -0.1157 -0.1452  0.2402
 9400SOL    HW139833   1.629   0.831   8.173  0.3002 -0.2830 -1.0713
 9400SOL    HW239834   1.505   0.843   8.093 -0.7135  0.1822  0.5806
 9401SOL     OW39835   4.180   2.139  14.443 -0.1385  0.4960 -0.5015
 9401SOL    HW139836   4.091   2.175  14.435 -0.2715  0.4906  0.9669
 9401SOL    HW239837   4.179   2.054  14.398 -2.2923  0.0952  0.3066
 9402SOL     OW39838   3.565   0.867  15.861 -0.4741 -0.0619  0.2148
 9402SOL    HW139839   3.491   0.856  15.920  0.0194 -1.5462  0.5514
 9402SOL    HW239840   3.609   0.785  15.885 -1.4918 -1.0398 -1.2110
 9403SOL     OW39841   2.148   2.238   0.214 -0.0660 -0.4184 -0.3472
 9403SOL    HW139842   2.177   2.213   0.126 -1.1309 -0.6163 -0.6336
 9403SOL    HW239843   2.105   2.323   0.207  1.2122  0.3413  0.9639
 9404SOL     OW39844   0.021   3.181   8.374 -0.0772  0.6359  0.1301
 9404SOL    HW139845   4.667   3.207   8.370 -0.4619 -0.8203 -0.1419
 9404SOL    HW239846   0.059   3.177   8.287 -1.4039  1.8854 -0.5131
 9405SOL     OW39847   1.187   1.467   1.961 -0.6054  0.0297 -0.3576
 9405SOL    HW139848   1.239   1.438   2.036 -0.4466  1.2566  0.0127
 9405SOL    HW239849   1.249   1.509   1.901  0.4666 -2.6092 -1.1055
 9406SOL     OW39850   0.056   1.824   7.026 -0.6420 -0.7065 -0.1062
 9406SOL    HW139851   4.704   1.805   7.052 -1.6838  0.9940 -2.5024
 9406SOL    HW239852   0.062   1.917   7.004 -3.6003  0.2749  3.3248
 9407SOL     OW39853   3.882   2.282   3.686  0.5169  0.3917  0.2498
 9407SOL    HW139854   3.970   2.262   3.655 -0.0727 -0.6443 -0.7753
 9407SOL    HW239855   3.827   2.257   3.611  1.1222 -1.6497  0.4805
 9408SOL     OW39856   0.956   4.721   9.320  0.1761  0.3755  0.6353
 9408SOL    HW139857   1.011   4.705   9.243  0.2454 -3.1640  1.4072
 9408SOL    HW239858   0.923   0.072   9.318 -1.4075 -0.1615  3.1329
 9409SOL     OW39859   0.195   0.847   5.806 -0.7837 -0.6387  0.9251
 9409SOL    HW139860   0.278   0.801   5.795  0.3706  1.4520  0.9588
 9409SOL    HW239861   0.193   0.911   5.735  2.2734 -2.4951 -0.8209
 9410SOL     OW39862   0.119   0.945   8.851  0.5001  0.3219  0.4607
 9410SOL    HW139863   0.035   0.899   8.843 -1.9639  5.2872 -2.6654
 9410SOL    HW239864   0.080   1.032   8.842  1.8092  0.5934 -2.7345
 9411SOL     OW39865   2.706   3.623  16.755 -0.0063  0.7248 -0.4548
 9411SOL    HW139866   2.766   3.692  16.728  1.1103 -0.5764 -1.2740
 9411SOL    HW239867   2.652   3.676  16.813  1.5536  0.2591  1.4283
 9412SOL     OW39868   0.535   1.576   1.787  0.2097 -0.0707 -0.7579
 9412SOL    HW139869   0.542   1.653   1.730  3.2855 -0.7889 -1.3377
 9412SOL    HW239870   0.539   1.499   1.731 -2.3978  1.9417 -3.6938
 9413SOL     OW39871   2.588   0.411   5.114  0.1053  0.5964 -0.2477
 9413SOL    HW139872   2.647   0.422   5.188  1.6553 -0.0402 -1.3778
 9413SOL    HW239873   2.648   0.415   5.040 -1.0078  0.7890 -1.1531
 9414SOL     OW39874   1.999   2.228   8.812 -0.1897  0.2725 -0.2156
 9414SOL    HW139875   1.912   2.216   8.851 -0.0290 -0.4982 -0.0813
 9414SOL    HW239876   2.055   2.215   8.889  2.7872  0.4288 -2.3387
 9415SOL     OW39877   2.027   1.455  16.269 -0.3351  0.1413 -0.1868
 9415SOL    HW139878   2.088   1.381  16.272  0.1872  0.5378 -1.1918
 9415SOL    HW239879   1.964   1.432  16.338 -1.1399  0.5983 -0.7688
 9416SOL     OW39880   2.210   2.675   3.541 -0.3933 -0.3442 -0.0956
 9416SOL    HW139881   2.277   2.621   3.584  0.4708  1.0169  0.2563
 9416SOL    HW239882   2.179   2.730   3.613  2.4951  0.7699  0.2879
 9417SOL     OW39883   0.986   4.013   8.854 -0.4134  0.5733 -0.1172
 9417SOL    HW139884   1.062   4.057   8.816 -0.8665  0.2337 -1.4115
 9417SOL    HW239885   0.995   3.932   8.804 -0.0188  0.6598 -0.1852
 9418SOL     OW39886   1.001   2.955  16.613 -0.2132 -0.5285 -0.0100
 9418SOL    HW139887   0.933   2.977  16.677 -0.3484 -1.5522  0.2033
 9418SOL    HW239888   0.945   2.963  16.537 -1.0889 -4.1870  0.2520
 9419SOL     OW39889   2.825   0.018   9.156  0.0220  0.3495  0.1901
 9419SOL    HW139890   2.824   4.668   9.193  0.7662  0.6845  0.9945
 9419SOL    HW239891   2.917   0.044   9.157 -0.5341  2.3183  0.7797
 9420SOL     OW39892   4.365   0.781   2.280  0.4442 -0.7632  0.3372
 9420SOL    HW139893   4.287   0.736   2.247 -0.1220  1.0124 -0.7270
 9420SOL    HW239894   4.438   0.741   2.233 -0.2984 -0.1029 -1.3903
 9421SOL     OW39895   1.673   3.754   6.234 -0.9569  0.2563 -0.2188
 9421SOL    HW139896   1.717   3.680   6.276  1.3715  0.8401 -1.6676
 9421SOL    HW239897   1.673   3.729   6.141  1.2620  0.8461 -0.3717
 9422SOL     OW39898   2.572   3.974   2.594 -0.1513  0.3519 -0.2856
 9422SOL    HW139899   2.544   4.038   2.659  1.5201  0.3156  0.4451
 9422SOL    HW239900   2.634   3.917   2.640 -0.5822  0.2142  0.1294
 9423SOL     OW39901   0.276   1.159   5.144 -0.1588  0.2029 -0.5429
 9423SOL    HW139902   0.300   1.236   5.092  0.2702  0.8848  0.6776
 9423SOL    HW239903   0.345   1.105   5.105  1.3041  0.9113  1.0649
 9424SOL     OW39904   4.186   2.989  10.046 -0.8629 -0.1199 -0.2366
 9424SOL    HW139905   4.256   3.019  10.104  0.6500  1.8171 -3.0280
 9424SOL    HW239906   4.229   3.006   9.962 -1.1402 -1.8054 -0.7091
 9425SOL     OW39907   3.167   2.784  13.535 -0.0184 -0.0645 -0.3129
 9425SOL    HW139908   3.127   2.834  13.606  2.4791  4.1531 -1.9021
 9425SOL    HW239909   3.245   2.747  13.577 -1.0878 -0.0766  1.6605
 9426SOL     OW39910   0.623   2.648  17.652 -0.6266 -0.3331  0.1823
 9426SOL    HW139911   0.580   2.720  17.699 -1.7021 -0.5308 -0.4872
 9426SOL    HW239912   0.644   2.680  17.564 -0.3451 -4.3270 -1.1884
 9427SOL     OW39913   3.323   2.901   8.485 -0.0027  0.6472 -0.1808
 9427SOL    HW139914   3.262   2.971   8.462  0.6918  1.4246  0.3162
 9427SOL    HW239915   3.280   2.858   8.559  0.1725  1.1070  0.1896
 9428SOL     OW39916   1.060   4.209   6.417  0.8223  0.5395 -0.0229
 9428SOL    HW139917   1.136   4.246   6.371  0.0409  2.7771  0.4445
 9428SOL    HW239918   0.983   4.257   6.386  0.6245 -0.5103 -1.1292
 9429SOL     OW39919   2.143   3.059   4.746 -0.0524 -0.1335  0.1412
 9429SOL    HW139920   2.138   3.117   4.822  0.9640 -0.0973  0.1738
 9429SOL    HW239921   2.053   3.067   4.715  0.1108 -0.1195 -0.3377
 9430SOL     OW39922   2.559   1.966   8.600  0.4571 -0.0185  0.6043
 9430SOL    HW139923   2.644   2.007   8.586  0.3915 -0.1487 -0.1799
 9430SOL    HW239924   2.507   2.041   8.632  0.3972 -0.7838  2.2976
 9431SOL     OW39925   2.505   2.952   4.640 -0.2821  0.3243  0.1247
 9431SOL    HW139926   2.472   2.870   4.676 -0.9958  0.7908  0.5174
 9431SOL    HW239927   2.583   2.922   4.591  0.8661  1.2131  1.4061
 9432SOL     OW39928   2.446   2.981  10.228 -0.0791 -0.8042 -0.4916
 9432SOL    HW139929   2.494   2.914  10.276  0.1779 -0.5327 -0.3663
 9432SOL    HW239930   2.354   2.955  10.225 -0.6426  1.3930 -2.4734
 9433SOL     OW39931   2.610   4.168   2.315 -0.1922 -0.1727  0.0592
 9433SOL    HW139932   2.611   4.078   2.281 -0.5811 -0.7495  1.5762
 9433SOL    HW239933   2.693   4.168   2.362  0.9409 -3.7231 -1.9485
 9434SOL     OW39934   2.379   0.071   4.916 -0.5071 -0.0312  0.2265
 9434SOL    HW139935   2.432   0.087   4.994  2.1242  1.6303 -1.9249
 9434SOL    HW239936   2.408   0.150   4.870 -0.7948 -0.1674 -0.1895
 9435SOL     OW39937   4.327   3.042   2.052 -0.0953  0.0245  0.0741
 9435SOL    HW139938   4.369   3.068   2.134  0.4311  0.9391 -0.4828
 9435SOL    HW239939   4.312   3.124   2.005  1.5569 -0.1211 -0.7229
 9436SOL     OW39940   1.032   2.168   8.964 -0.4234 -0.7902 -0.3911
 9436SOL    HW139941   1.062   2.109   8.896  0.9470  0.3989 -0.8187
 9436SOL    HW239942   0.987   2.231   8.908 -0.9828  1.1609  2.2551
 9437SOL     OW39943   3.057   4.735  10.121 -0.3302 -0.1489 -0.1264
 9437SOL    HW139944   3.059   4.722  10.216  1.1044  0.6201 -0.0500
 9437SOL    HW239945   3.043   4.652  10.075  3.4283 -0.7459 -0.1524
 9438SOL     OW39946   0.095   4.227   5.644 -0.1156  0.7502  0.0232
 9438SOL    HW139947   0.025   4.188   5.591  1.0925  1.5373 -2.1522
 9438SOL    HW239948   0.057   4.245   5.730 -2.0177 -0.6939 -0.5201
 9439SOL     OW39949   3.226   4.021   3.480  0.4079 -0.4001 -0.1532
 9439SOL    HW139950   3.248   4.095   3.423  2.3797  0.4120  1.6757
 9439SOL    HW239951   3.157   3.974   3.433 -0.5873 -0.3819  1.3258
 9440SOL     OW39952   0.468   2.000  11.048 -0.8298 -0.7482  0.7394
 9440SOL    HW139953   0.543   2.008  11.107 -1.2183  0.1103  1.1204
 9440SOL    HW239954   0.470   1.906  11.030  0.7198  0.0293 -3.0473
 9441SOL     OW39955   2.288   2.688  15.712 -0.1773 -0.4397 -0.1948
 9441SOL    HW139956   2.292   2.628  15.786 -0.7920  0.9705  0.9838
 9441SOL    HW239957   2.257   2.764  15.762 -0.8770 -2.2283  2.1052
 9442SOL     OW39958   0.956   3.856  13.717  0.1843 -0.8482 -0.4373
 9442SOL    HW139959   0.996   3.907  13.788 -2.8696 -1.9471  2.0565
 9442SOL    HW239960   0.896   3.922  13.681 -0.9183 -0.5016  2.0010
 9443SOL     OW39961   3.342   3.486   7.787  0.0566  0.3211  0.4242
 9443SOL    HW139962   3.416   3.529   7.744 -0.1130  0.7986  0.6045
 9443SOL    HW239963   3.366   3.515   7.875  0.6748 -1.1739  0.7493
 9444SOL     OW39964   2.361   4.623   7.982 -1.1496 -0.7506  1.0776
 9444SOL    HW139965   2.306   4.660   7.912  0.5279 -2.0872 -0.9738
 9444SOL    HW239966   2.321   4.663   8.059  0.1111  0.1469  1.2661
 9445SOL     OW39967   3.387   2.314   2.414  0.2924 -0.3334 -0.0920
 9445SOL    HW139968   3.325   2.365   2.467  1.0559 -2.4872  2.9100
 9445SOL    HW239969   3.464   2.344   2.464  0.0822 -3.4312  2.0494
 9446SOL     OW39970   0.406   3.154   3.315  0.0040  0.3691 -0.3508
 9446SOL    HW139971   0.444   3.238   3.342  0.6379  0.1244 -0.4907
 9446SOL    HW239972   0.467   3.155   3.241  2.2669 -2.8865  1.4737
 9447SOL     OW39973   1.933   4.409   9.613 -0.2035  0.3850  0.2662
 9447SOL    HW139974   2.015   4.414   9.661  1.2563  1.8457 -2.3734
 9447SOL    HW239975   1.950   4.461   9.534 -0.1184  0.2470  0.1955
 9448SOL     OW39976   0.769   4.402   2.152 -0.0832  0.1934 -0.1520
 9448SOL    HW139977   0.788   4.492   2.125 -3.7070  0.1700 -2.7415
 9448SOL    HW239978   0.841   4.352   2.114  0.8764  2.0849 -0.8248
 9449SOL     OW39979   2.140   3.403   1.012 -0.1624 -0.1883  0.0690
 9449SOL    HW139980   2.113   3.379   1.100  0.1770  0.4281  0.3408
 9449SOL    HW239981   2.088   3.483   1.005 -1.5820 -1.2323 -1.3352
 9450SOL     OW39982   4.032   1.146  12.215 -0.3960  0.1349 -0.0011
 9450SOL    HW139983   4.094   1.217  12.202 -1.3091  0.8907 -0.1841
 9450SOL    HW239984   3.967   1.169  12.148 -0.8503  0.7315  0.6396
 9451SOL     OW39985   2.833   0.758   5.960  0.7538  0.1480  0.3392
 9451SOL    HW139986   2.920   0.791   5.939 -0.1170  0.9276 -2.0743
 9451SOL    HW239987   2.845   0.667   5.932 -0.8810 -0.1778  0.6697
 9452SOL     OW39988   3.789   1.722  17.475  0.1215 -0.1572 -0.3053
 9452SOL    HW139989   3.722   1.786  17.499 -1.0071 -1.2239 -0.6460
 9452SOL    HW239990   3.860   1.775  17.512  0.7889 -3.2196  2.7259
 9453SOL     OW39991   0.917   4.632   1.638  0.0030 -0.0365  0.1092
 9453SOL    HW139992   0.888   4.544   1.614  0.6160  0.5146 -2.6388
 9453SOL    HW239993   0.837   4.684   1.634  0.0106 -0.1651 -1.6299
 9454SOL     OW39994   1.298   4.187   2.472  0.0111 -0.0370 -0.2320
 9454SOL    HW139995   1.242   4.261   2.448 -1.5625 -2.1455 -2.9972
 9454SOL    HW239996   1.231   4.129   2.509  0.4332  0.4707  1.3297
 9455SOL     OW39997   1.136   4.367   2.382 -0.1734  0.3817  0.1739
 9455SOL    HW139998   1.173   4.427   2.317  0.0718  0.6813  0.5854
 9455SOL    HW239999   1.055   4.410   2.411 -1.1873 -1.6720  0.3736
 9456SOL     OW40000   1.025   0.420   6.625  0.2163 -0.0995  0.1853
 9456SOL    HW140001   1.114   0.414   6.591  0.5878  0.4603  1.0633
 9456SOL    HW240002   0.969   0.430   6.548 -0.6677  1.0798  0.9774
 9457SOL     OW40003   4.352   0.471   3.491  0.6740 -0.0946 -0.1870
 9457SOL    HW140004   4.303   0.553   3.485  2.1012  0.8248  0.6554
 9457SOL    HW240005   4.432   0.484   3.440 -0.4395  2.4736 -1.2136
 9458SOL     OW40006   1.918   1.522   3.136  0.0224  0.6974 -0.3622
 9458SOL    HW140007   1.967   1.532   3.054 -0.0508  2.6354 -0.1617
 9458SOL    HW240008   1.983   1.471   3.185  1.4119  1.6208 -1.2206
 9459SOL     OW40009   2.903   2.264  17.249  0.2190 -0.0983 -0.4840
 9459SOL    HW140010   2.915   2.340  17.193 -3.4782  0.3622 -0.6492
 9459SOL    HW240011   2.807   2.256  17.250 -0.0067  2.5209 -1.5969
 9460SOL     OW40012   0.844   4.180   4.819 -0.2431 -0.2560  0.3227
 9460SOL    HW140013   0.929   4.218   4.841 -0.1896 -0.6743  0.8432
 9460SOL    HW240014   0.810   4.262   4.783  0.4112 -0.3726 -0.5290
 9461SOL     OW40015   3.357   3.662   9.331 -0.7474 -0.2753 -0.0408
 9461SOL    HW140016   3.308   3.591   9.374  1.7732 -0.3593  2.6351
 9461SOL    HW240017   3.325   3.657   9.241 -1.4485  2.2919  0.0509
 9462SOL     OW40018   1.907   0.309  14.424  0.4202 -0.2322  0.1030
 9462SOL    HW140019   1.957   0.346  14.351  0.2980 -0.8774 -0.3062
 9462SOL    HW240020   1.820   0.337  14.397  0.7302  1.1317  0.5466
 9463SOL     OW40021   1.924   0.544  17.576  0.1004  0.4512 -0.0801
 9463SOL    HW140022   1.959   0.543  17.487  1.9940 -0.4922  0.6724
 9463SOL    HW240023   1.991   0.594  17.622 -2.2282  1.7347  1.8430
 9464SOL     OW40024   1.872   2.382  12.295 -0.0343 -0.0432  0.2684
 9464SOL    HW140025   1.893   2.293  12.267 -0.6035 -0.3988  0.9770
 9464SOL    HW240026   1.810   2.360  12.364  2.2766 -0.8939  2.0677
 9465SOL     OW40027   0.406   2.453   1.626 -0.6733 -0.5912  0.0153
 9465SOL    HW140028   0.426   2.500   1.706 -0.0429 -0.8179 -0.0082
 9465SOL    HW240029   0.476   2.388   1.618 -0.2766 -0.1000 -0.4330
 9466SOL     OW40030   0.924   1.154   5.299  0.4081 -0.4273 -0.1616
 9466SOL    HW140031   0.976   1.213   5.245  0.6168 -0.7232 -0.2895
 9466SOL    HW240032   0.958   1.071   5.264 -0.3489 -1.4213  1.4469
 9467SOL     OW40033   3.977   3.863  14.885 -0.1017  0.5345 -0.0078
 9467SOL    HW140034   3.935   3.914  14.954 -2.0751 -0.3737 -0.5444
 9467SOL    HW240035   4.066   3.894  14.900 -0.6419  1.0853  2.0605
 9468SOL     OW40036   0.093   0.261   6.139 -0.0521  0.5552  0.0112
 9468SOL    HW140037   0.086   0.325   6.210 -1.8713  0.4535 -0.0568
 9468SOL    HW240038   0.043   0.314   6.076 -0.1316 -0.7839 -1.0495
 9469SOL     OW40039   3.339   0.624   6.456 -0.4758  0.4825  0.0872
 9469SOL    HW140040   3.402   0.623   6.529 -0.0588 -1.2551 -0.3188
 9469SOL    HW240041   3.262   0.663   6.498 -1.1708  0.1113 -0.8568
 9470SOL     OW40042   4.138   1.918   7.577  0.7683 -0.1245 -0.1841
 9470SOL    HW140043   4.093   1.855   7.632 -1.3841 -0.1263 -1.9794
 9470SOL    HW240044   4.173   1.873   7.500 -1.7652  0.7935 -1.8728
 9471SOL     OW40045   2.548   1.667   1.571 -0.1590 -0.6747 -0.0379
 9471SOL    HW140046   2.615   1.626   1.626  0.4402 -1.1651 -1.1234
 9471SOL    HW240047   2.591   1.692   1.489  0.3621  0.8582  0.7000
 9472SOL     OW40048   3.794   0.083  12.217  0.4570  0.6261  0.1622
 9472SOL    HW140049   3.774   4.728  12.227  1.0263  0.5529  0.6204
 9472SOL    HW240050   3.764   0.095  12.126 -1.4341 -0.7274  0.6057
 9473SOL     OW40051   0.123   2.391   6.260 -0.1547 -0.3961  0.5392
 9473SOL    HW140052   0.115   2.303   6.299  1.5953 -1.0810 -0.6737
 9473SOL    HW240053   0.055   2.385   6.193  0.8231  2.6552 -0.6975
 9474SOL     OW40054   0.063   0.767   5.000 -0.5354  0.2002 -0.0312
 9474SOL    HW140055   0.076   0.861   5.012 -1.1268  0.3826 -0.7906
 9474SOL    HW240056   0.026   0.740   5.084 -1.5189  1.9717  0.1226
 9475SOL     OW40057   4.092   1.785   6.519 -0.3514 -0.0745  0.7436
 9475SOL    HW140058   4.174   1.746   6.548 -0.5725 -1.1135 -0.0089
 9475SOL    HW240059   4.034   1.711   6.505  1.1397 -0.6380 -2.6168
 9476SOL     OW40060   0.341   4.289   8.166  0.0307 -1.0233  0.2192
 9476SOL    HW140061   0.254   4.300   8.127  0.4659 -0.0987 -0.5199
 9476SOL    HW240062   0.314   4.252   8.249 -0.7820  0.1081  0.4627
 9477SOL     OW40063   0.204   2.097   5.932 -0.0508 -0.1849 -0.0873
 9477SOL    HW140064   0.272   2.126   5.993 -1.3937  2.8692 -0.0800
 9477SOL    HW240065   0.167   2.020   5.974 -0.4123  0.1390  0.1810
 9478SOL     OW40066   3.010   4.346  11.529 -0.0581  0.0067  0.1825
 9478SOL    HW140067   2.923   4.329  11.493  0.0268  2.6668 -1.3271
 9478SOL    HW240068   2.992   4.367  11.620  0.1234  1.5671 -0.1258
 9479SOL     OW40069   3.528   3.735  15.738 -0.2913 -0.0424 -0.0835
 9479SOL    HW140070   3.616   3.704  15.761  0.3946  0.9212 -1.3874
 9479SOL    HW240071   3.479   3.663  15.778  3.2662 -1.9784  0.8173
 9480SOL     OW40072   3.864   3.360  13.008  0.4076 -0.3926  0.3925
 9480SOL    HW140073   3.781   3.321  12.981  0.2653  0.7632 -0.8586
 9480SOL    HW240074   3.875   3.324  13.096  0.4696 -0.2770  0.4330
 9481SOL     OW40075   4.008   2.478   3.050  0.6386 -0.1899 -0.4463
 9481SOL    HW140076   4.068   2.546   3.081  0.5919  0.5579 -2.0042
 9481SOL    HW240077   3.969   2.525   2.977 -1.4025  0.1069  0.8287
 9482SOL     OW40078   4.334   3.965   3.205  0.4968  0.1462 -0.1894
 9482SOL    HW140079   4.307   3.891   3.260  0.9152 -0.3078 -0.5968
 9482SOL    HW240080   4.332   3.924   3.119  0.4350  1.6916 -0.9146
 9483SOL     OW40081   4.088   0.939   7.621  0.0487 -0.3385 -0.5807
 9483SOL    HW140082   4.044   0.934   7.706  2.8402 -3.7372  0.6426
 9483SOL    HW240083   4.109   0.847   7.609  0.5106  0.0022 -2.2984
 9484SOL     OW40084   1.720   1.842  14.355 -0.1821  0.8542 -0.2563
 9484SOL    HW140085   1.789   1.842  14.288 -1.2618 -2.5260 -1.4085
 9484SOL    HW240086   1.641   1.825  14.304  1.5567  0.5584 -2.9020
 9485SOL     OW40087   3.602   0.939   2.630  0.6374 -0.5312  0.2261
 9485SOL    HW140088   3.659   0.863   2.639  1.2105  0.0880  1.9011
 9485SOL    HW240089   3.670   1.006   2.632  0.4073 -0.2104 -2.1908
 9486SOL     OW40090   0.879   4.538   7.382 -0.3019 -0.3221 -0.0739
 9486SOL    HW140091   0.799   4.513   7.428 -0.1928  0.7394  0.6995
 9486SOL    HW240092   0.854   4.548   7.291 -2.5493  2.7644  0.9000
 9487SOL     OW40093   0.886   3.790   7.936 -0.0512 -0.2929 -0.1787
 9487SOL    HW140094   0.963   3.847   7.935  1.1781 -1.9401 -0.6287
 9487SOL    HW240095   0.925   3.731   7.871 -0.9622 -1.3716  0.2552
 9488SOL     OW40096   2.154   1.836  16.737 -0.0476  0.6781  0.5281
 9488SOL    HW140097   2.099   1.780  16.682  1.5339 -1.3244  0.9929
 9488SOL    HW240098   2.205   1.878  16.668 -0.0915 -1.5109 -0.8327
 9489SOL     OW40099   2.369   2.341   8.042  0.3086 -0.0009  0.2899
 9489SOL    HW140100   2.363   2.294   8.125 -0.4269 -1.0759 -0.3701
 9489SOL    HW240101   2.285   2.385   8.039 -0.5474 -1.6725 -0.3663
 9490SOL     OW40102   2.981   0.681   1.750  0.5604  0.0589  0.0263
 9490SOL    HW140103   2.942   0.669   1.836 -0.0584  2.1370  0.0284
 9490SOL    HW240104   2.940   0.752   1.700 -0.5687  1.5049  3.0314
 9491SOL     OW40105   2.467   2.762   5.617  0.2880 -0.1026 -0.1701
 9491SOL    HW140106   2.422   2.753   5.701 -0.9324 -1.8132 -0.9911
 9491SOL    HW240107   2.459   2.857   5.609  2.3268  0.0890  0.0451
 9492SOL     OW40108   3.879   4.203   5.364 -0.4284 -0.3236  0.0505
 9492SOL    HW140109   3.789   4.229   5.383 -0.8663 -0.5027 -1.7429
 9492SOL    HW240110   3.899   4.121   5.410 -1.2357 -1.2804 -1.3263
 9493SOL     OW40111   1.589   2.083   1.680  0.2023 -0.0865  0.1257
 9493SOL    HW140112   1.510   2.130   1.710  1.2767 -0.4002  3.5164
 9493SOL    HW240113   1.625   2.156   1.629  0.8678 -1.2053 -0.9883
 9494SOL     OW40114   1.401   1.981   8.962  0.2592  0.6515 -0.3291
 9494SOL    HW140115   1.356   1.996   9.045  0.3235  1.2901 -0.4121
 9494SOL    HW240116   1.481   1.936   8.989 -0.7338 -1.0222 -0.1556
 9495SOL     OW40117   2.600   3.600   3.284  0.2688 -0.3739 -0.0195
 9495SOL    HW140118   2.641   3.636   3.363 -1.9602  0.9123  0.5628
 9495SOL    HW240119   2.654   3.522   3.274 -0.6061 -0.8621 -0.9369
 9496SOL     OW40120   3.285   0.389   6.959 -0.0724 -0.4801 -0.9234
 9496SOL    HW140121   3.287   0.483   6.940  2.0460 -0.4442 -0.5594
 9496SOL    HW240122   3.197   0.374   6.993  0.7615 -1.3627  0.8459
 9497SOL     OW40123   3.500   0.835  14.446 -0.5424  0.2266  0.2165
 9497SOL    HW140124   3.440   0.855  14.373 -1.9363 -3.1941  0.4166
 9497SOL    HW240125   3.433   0.808  14.509  0.2748 -2.4997 -0.0787
 9498SOL     OW40126   4.542   0.789   7.491 -0.2463  0.0555  0.1052
 9498SOL    HW140127   4.609   0.845   7.451 -0.3521 -0.1180 -0.3157
 9498SOL    HW240128   4.563   0.785   7.584  0.9937  0.6644 -0.1544
 9499SOL     OW40129   1.843   1.691  14.832 -0.0247 -0.4698 -0.4962
 9499SOL    HW140130   1.813   1.727  14.749  1.6910 -0.3598 -1.0638
 9499SOL    HW240131   1.804   1.762  14.883  2.5258 -1.9415  3.5044
 9500SOL     OW40132   1.893   3.783   8.224  0.2874 -0.4169 -0.1583
 9500SOL    HW140133   1.924   3.873   8.240  1.6351 -0.6194 -1.7011
 9500SOL    HW240134   1.970   3.734   8.196 -1.8673 -2.2532 -2.8351
 9501SOL     OW40135   1.706   0.147  16.378  0.5462  0.1676  0.1234
 9501SOL    HW140136   1.728   0.238  16.400  3.4942 -0.4029 -0.5025
 9501SOL    HW240137   1.767   0.118  16.311 -1.4949 -0.2993 -1.5292
 9502SOL     OW40138   4.541   2.979   3.876 -0.1355 -0.1077  0.5327
 9502SOL    HW140139   4.585   3.030   3.945 -3.4468  1.7315  1.2725
 9502SOL    HW240140   4.605   2.988   3.806 -0.8215  0.8433  0.0299
 9503SOL     OW40141   3.844   3.928   6.856 -0.3191 -0.1163 -0.4091
 9503SOL    HW140142   3.917   3.867   6.865  0.7362  1.2662  0.3209
 9503SOL    HW240143   3.767   3.873   6.871 -1.4426  1.2034 -1.2794
 9504SOL     OW40144   3.013   0.042   9.813 -0.2777 -0.2792  0.3993
 9504SOL    HW140145   3.068   0.030   9.891  1.4632  2.1288 -0.4561
 9504SOL    HW240146   3.064   0.006   9.740 -1.7179 -0.3772 -0.5502
 9505SOL     OW40147   4.210   0.265   4.360  0.2928  0.1232 -0.3432
 9505SOL    HW140148   4.280   0.199   4.362 -2.2796 -2.6053  1.0099
 9505SOL    HW240149   4.133   0.218   4.327  1.2572 -0.9316 -1.0803
 9506SOL     OW40150   1.428   0.042  12.205 -0.7094  0.1439  0.0906
 9506SOL    HW140151   1.459   0.117  12.155 -1.3401 -0.4682 -1.2137
 9506SOL    HW240152   1.337   0.062  12.229 -0.3843  1.8047 -0.0499
 9507SOL     OW40153   3.946   3.271  16.019 -0.3890 -0.2060 -0.1118
 9507SOL    HW140154   3.969   3.257  15.927 -0.1406  1.0184 -0.2363
 9507SOL    HW240155   4.029   3.278  16.065 -2.0627 -2.3184  3.1874
 9508SOL     OW40156   4.266   2.435  11.316 -0.1189 -0.1765 -0.2808
 9508SOL    HW140157   4.228   2.447  11.403  0.7916  1.0860 -0.0545
 9508SOL    HW240158   4.353   2.474  11.328  0.0795 -0.7786  0.2693
 9509SOL     OW40159   0.129   0.010   6.233 -0.2508 -0.7215 -0.0252
 9509SOL    HW140160   0.111   0.041   6.322 -0.4467  0.0398 -0.3232
 9509SOL    HW240161   0.130   0.095   6.189  1.6506 -0.4624  0.5082
 9510SOL     OW40162   4.460   4.167   8.744  0.1135 -0.2393 -0.4085
 9510SOL    HW140163   4.378   4.213   8.731  0.4853  0.4244 -0.3772
 9510SOL    HW240164   4.536   4.221   8.722 -0.5816  0.2522 -1.5449
 9511SOL     OW40165   3.778   2.614   6.395  0.1102  0.0786  0.4025
 9511SOL    HW140166   3.713   2.678   6.367  1.2442 -0.3880 -3.2007
 9511SOL    HW240167   3.753   2.538   6.343 -0.9801  0.0204  1.0144
 9512SOL     OW40168   1.444   3.789   8.950 -0.2999 -0.1638 -0.3377
 9512SOL    HW140169   1.474   3.860   9.006 -0.9161 -0.8701  0.8896
 9512SOL    HW240170   1.365   3.765   8.999  0.3954  1.5951  1.6211
 9513SOL     OW40171   4.002   3.008   2.689  0.3778 -0.3338 -0.2901
 9513SOL    HW140172   3.925   2.987   2.637  1.5352 -0.8994 -1.7609
 9513SOL    HW240173   3.997   2.948   2.763 -1.2179  1.1872  0.8503
 9514SOL     OW40174   1.788   2.904   7.059  0.1408  0.6966 -0.0730
 9514SOL    HW140175   1.810   2.997   7.069  1.5022  0.4073 -0.2835
 9514SOL    HW240176   1.754   2.893   7.147 -0.2630 -1.7132 -0.5231
 9515SOL     OW40177   1.279   0.356   9.160  0.4761  0.4182 -0.2047
 9515SOL    HW140178   1.219   0.303   9.108  0.9895  0.2654 -0.6388
 9515SOL    HW240179   1.304   0.311   9.241 -1.8855 -0.3289  0.1268
 9516SOL     OW40180   4.658   4.395   7.239  0.0311 -0.3177  0.3153
 9516SOL    HW140181   4.652   4.490   7.232 -0.8105 -0.2262  2.3059
 9516SOL    HW240182   4.639   4.382   7.332  2.0087 -0.3766  0.7167
 9517SOL     OW40183   4.198   4.728   1.621  0.5532 -0.0346  0.2134
 9517SOL    HW140184   4.160   0.056   1.679 -0.0463 -0.5740  0.4328
 9517SOL    HW240185   4.284   4.724   1.663  1.3639  1.3565 -1.3296
 9518SOL     OW40186   3.742   1.828   4.080  0.0903 -0.2924  0.5104
 9518SOL    HW140187   3.706   1.795   4.163  2.7030  0.9373  2.1122
 9518SOL    HW240188   3.767   1.743   4.043  0.3141  0.6222 -1.4425
 9519SOL     OW40189   3.102   1.697   5.439  0.6767  1.1685 -0.1917
 9519SOL    HW140190   3.068   1.653   5.361  0.7723  0.4501  0.1713
 9519SOL    HW240191   3.057   1.782   5.439  0.0026  0.8178  0.1771
 9520SOL     OW40192   3.729   0.429  11.458 -0.1444  0.1061 -0.4369
 9520SOL    HW140193   3.743   0.523  11.467  1.4347  0.2030 -4.2192
 9520SOL    HW240194   3.683   0.422  11.542 -1.4931  0.4001 -1.1487
 9521SOL     OW40195   0.990   1.516  16.267 -0.4568  1.0318  0.2745
 9521SOL    HW140196   1.079   1.548  16.257  0.4927 -1.4335  0.9191
 9521SOL    HW240197   0.995   1.421  16.270  0.2060  1.0654  0.0519
 9522SOL     OW40198   3.665   2.723   9.440 -0.0340 -0.3388 -0.4550
 9522SOL    HW140199   3.678   2.658   9.509 -0.5685 -0.3776 -0.3879
 9522SOL    HW240200   3.737   2.690   9.387 -0.9734 -2.4986 -0.3685
 9523SOL     OW40201   2.643   3.890   7.810 -0.4947 -0.4319 -0.6937
 9523SOL    HW140202   2.642   3.830   7.884  2.1364 -0.9275 -1.0660
 9523SOL    HW240203   2.718   3.855   7.762  2.1129  3.1417  0.7596
 9524SOL     OW40204   2.754   4.261   9.088  0.4706  0.0866 -0.7206
 9524SOL    HW140205   2.665   4.233   9.066 -0.0288  1.0925  0.0452
 9524SOL    HW240206   2.791   4.238   9.002 -0.7162  2.9089 -1.9875
 9525SOL     OW40207   0.494   3.622  12.600 -0.3389 -0.5702 -0.2323
 9525SOL    HW140208   0.422   3.646  12.542 -1.0148  1.7018  1.5361
 9525SOL    HW240209   0.567   3.664  12.554 -0.4169  0.8645  0.9361
 9526SOL     OW40210   4.571   0.146   5.906 -0.3575 -0.2822  0.7850
 9526SOL    HW140211   4.589   0.208   5.976  1.3320  0.4912 -0.3330
 9526SOL    HW240212   4.519   0.075   5.943 -0.2657 -0.6214  0.2651
 9527SOL     OW40213   3.158   3.452   2.968  0.7984  0.1277  0.2114
 9527SOL    HW140214   3.236   3.399   2.952 -0.1035 -1.2579  0.3619
 9527SOL    HW240215   3.103   3.389   3.016  1.9225  0.6936  2.2636
 9528SOL     OW40216   0.173   4.259   4.164 -0.1142 -0.5544  0.5207
 9528SOL    HW140217   0.247   4.207   4.134 -0.4013 -1.1140  0.7784
 9528SOL    HW240218   0.190   4.338   4.114 -2.5316 -1.7055 -2.1227
 9529SOL     OW40219   3.457   3.541  13.450  0.1891 -0.1339 -0.5093
 9529SOL    HW140220   3.459   3.466  13.390 -0.1475 -0.1255 -0.5312
 9529SOL    HW240221   3.439   3.621  13.401  1.4442  2.3668  3.0717
 9530SOL     OW40222   0.845   2.085   3.030 -0.2014  0.1834 -0.5015
 9530SOL    HW140223   0.848   2.160   2.971  1.7242  0.7761  0.3763
 9530SOL    HW240224   0.841   2.017   2.962 -0.0247  0.8737 -1.1986
 9531SOL     OW40225   0.923   3.407   4.494 -0.3050 -0.3134  0.0004
 9531SOL    HW140226   0.975   3.368   4.424  0.3528 -0.2137  0.4364
 9531SOL    HW240227   0.930   3.502   4.483 -2.2236 -0.3710 -1.8065
 9532SOL     OW40228   4.209   3.241  16.154  0.2528 -0.4701 -0.1084
 9532SOL    HW140229   4.298   3.265  16.130 -1.1202  2.0587 -2.6686
 9532SOL    HW240230   4.220   3.154  16.192 -0.6880 -0.6742 -0.3013
 9533SOL     OW40231   1.706   1.364   4.463 -0.7470  0.6801  0.2304
 9533SOL    HW140232   1.749   1.399   4.541  1.3927  1.0846 -1.1360
 9533SOL    HW240233   1.784   1.356   4.407 -1.4498  2.0180 -0.9455
 9534SOL     OW40234   0.184   3.523   7.158 -0.0418 -0.1607  0.2926
 9534SOL    HW140235   0.277   3.540   7.139 -0.6821  1.3931 -1.4573
 9534SOL    HW240236   0.185   3.523   7.253 -2.5889 -1.7259  0.3160
 9535SOL     OW40237   1.043   1.059   8.051 -0.5804 -0.7765  0.0922
 9535SOL    HW140238   0.996   0.978   8.031 -2.4070  0.2577  0.2126
 9535SOL    HW240239   1.072   1.045   8.141  0.2824  1.2221  0.1080
 9536SOL     OW40240   4.302   4.004  16.220 -0.3169  0.5142  0.2153
 9536SOL    HW140241   4.286   4.089  16.262 -1.2664  0.7442 -0.6079
 9536SOL    HW240242   4.219   3.966  16.192 -0.6159  0.5305  1.0711
 9537SOL     OW40243   0.155   4.085  12.365  0.4095 -0.1960 -0.9041
 9537SOL    HW140244   0.189   4.173  12.377  0.5981 -0.1820 -1.5508
 9537SOL    HW240245   0.132   4.059  12.455  0.3187  1.1949 -0.5218
 9538SOL     OW40246   1.662   1.550   0.479 -0.0221 -0.2051  0.3809
 9538SOL    HW140247   1.687   1.509   0.397 -1.9512 -2.1635  0.7700
 9538SOL    HW240248   1.655   1.645   0.465 -2.9723 -0.7507 -1.8415
 9539SOL     OW40249   3.391   3.879  13.594  0.1936  0.1382  0.5407
 9539SOL    HW140250   3.483   3.862  13.614  0.3036 -0.7954 -0.7585
 9539SOL    HW240251   3.371   3.955  13.648  2.8398 -0.1118  1.8873
 9540SOL     OW40252   2.057   2.821   2.117 -0.2733  0.0497 -0.3651
 9540SOL    HW140253   2.146   2.853   2.107  0.8764 -3.2239 -0.5342
 9540SOL    HW240254   2.057   2.837   2.212 -0.1803 -1.7379 -0.0637
 9541SOL     OW40255   3.584   1.770   6.615 -0.1348  0.3001  0.3734
 9541SOL    HW140256   3.505   1.768   6.561 -0.8502  3.4078  1.2964
 9541SOL    HW240257   3.577   1.853   6.662 -0.3097  0.7142 -0.3802
 9542SOL     OW40258   3.823   2.571   3.690 -0.1146 -0.3080  0.2004
 9542SOL    HW140259   3.867   2.486   3.701  0.8785  0.2141  0.2813
 9542SOL    HW240260   3.766   2.565   3.766 -2.3670 -3.3483 -1.6880
 9543SOL     OW40261   4.228   0.713   1.784  0.0595  0.3187  0.4107
 9543SOL    HW140262   4.150   0.660   1.770  1.6838 -1.7927 -0.7147
 9543SOL    HW240263   4.194   0.797   1.814  2.2422  1.1101  0.6927
 9544SOL     OW40264   1.519   0.054   9.803 -0.1644  0.0701  0.1688
 9544SOL    HW140265   1.524   0.084   9.894 -0.8959  0.2029  0.1643
 9544SOL    HW240266   1.433   0.093   9.784 -0.2575 -1.1630 -1.9142
 9545SOL     OW40267   2.806   3.138   3.704 -0.0286  0.2619 -0.6387
 9545SOL    HW140268   2.821   3.206   3.639  0.9846  0.2147 -0.4573
 9545SOL    HW240269   2.796   3.196   3.780  0.9785  2.4072 -2.1465
 9546SOL     OW40270   0.689   1.051  17.389 -0.0569  0.9255  0.5748
 9546SOL    HW140271   0.649   0.984  17.443 -3.1662  1.8666 -0.5779
 9546SOL    HW240272   0.769   1.069  17.439 -0.8323  0.4418  1.9632
 9547SOL     OW40273   2.321   3.471   8.103 -0.5746 -0.0234 -0.2972
 9547SOL    HW140274   2.391   3.474   8.038  0.5805 -1.6543  0.8536
 9547SOL    HW240275   2.335   3.383   8.138  3.4736  0.2936 -1.1012
 9548SOL     OW40276   1.805   0.089   4.129 -0.0056  0.2396 -0.4869
 9548SOL    HW140277   1.840   0.144   4.200  0.4424  0.4666 -0.8867
 9548SOL    HW240278   1.721   0.135   4.124  0.3716  0.5807 -3.5056
 9549SOL     OW40279   2.185   2.547   4.731  0.6903  0.2469  0.3103
 9549SOL    HW140280   2.106   2.493   4.730  2.4562 -2.3852  2.1259
 9549SOL    HW240281   2.200   2.550   4.636  1.2430  0.3581  0.4017
 9550SOL     OW40282   3.218   0.956  15.212 -0.0888 -0.7773  0.0789
 9550SOL    HW140283   3.123   0.940  15.208  0.2617 -2.6423 -1.1521
 9550SOL    HW240284   3.230   0.973  15.305  3.0613 -1.3488 -0.2490
 9551SOL     OW40285   3.152   0.531  10.342 -0.2577  0.3355 -0.0729
 9551SOL    HW140286   3.218   0.520  10.274  0.7274 -0.7268  1.0428
 9551SOL    HW240287   3.111   0.611  10.309 -0.1170  0.4240 -0.0329
 9552SOL     OW40288   3.436   0.513  14.431 -0.0251 -0.0337 -0.1445
 9552SOL    HW140289   3.499   0.580  14.456 -0.8962  0.4868  0.6925
 9552SOL    HW240290   3.399   0.480  14.514  1.0555 -1.0426 -0.0644
 9553SOL     OW40291   0.017   2.005   8.522  0.3485  0.3379  0.2891
 9553SOL    HW140292   4.671   1.974   8.488  1.1413  1.1689 -2.3637
 9553SOL    HW240293   4.732   2.077   8.581 -0.4017  0.4700 -0.1705
 9554SOL     OW40294   1.638   3.700   8.803 -0.3156  0.1412  0.5089
 9554SOL    HW140295   1.570   3.731   8.863 -0.0913 -0.6527  1.1823
 9554SOL    HW240296   1.715   3.755   8.815 -0.2732  0.0510  0.6588
 9555SOL     OW40297   0.948   4.654  11.445 -0.1715  0.1045  0.3938
 9555SOL    HW140298   0.877   4.644  11.382  1.6324  1.5557 -1.8449
 9555SOL    HW240299   0.903   4.720  11.497 -1.6235  1.8260 -3.0515
 9556SOL     OW40300   4.483   0.166  11.777  0.0394 -0.4269 -0.3545
 9556SOL    HW140301   4.410   0.203  11.827  0.5934  2.5195 -1.7213
 9556SOL    HW240302   4.546   0.237  11.792 -1.0434  0.4305  0.1697
 9557SOL     OW40303   4.256   3.441  14.495 -0.3300 -0.0547 -0.1648
 9557SOL    HW140304   4.183   3.502  14.504  1.2720  1.7956  0.3470
 9557SOL    HW240305   4.221   3.363  14.537 -1.0596  0.3260 -0.0722
 9558SOL     OW40306   1.257   1.641   4.462 -0.4956 -0.6048  0.2903
 9558SOL    HW140307   1.186   1.579   4.475 -0.1839 -1.1310 -0.4870
 9558SOL    HW240308   1.334   1.596   4.497 -0.0330 -0.2737 -0.3052
 9559SOL     OW40309   3.500   3.579   3.388  0.2124  0.1884 -0.0171
 9559SOL    HW140310   3.565   3.649   3.388 -2.8024  3.0342 -2.6855
 9559SOL    HW240311   3.430   3.634   3.352  0.0266  1.1156  1.7411
 9560SOL     OW40312   3.289   0.902  15.690  0.0171 -0.4046 -0.9614
 9560SOL    HW140313   3.247   0.885  15.774 -1.5701  0.0796 -1.6631
 9560SOL    HW240314   3.382   0.897  15.711 -0.2080 -0.2589  0.0443
 9561SOL     OW40315   3.281   4.222   3.315  0.5940  0.2418 -0.6186
 9561SOL    HW140316   3.274   4.271   3.233  0.9572 -0.0269 -0.8110
 9561SOL    HW240317   3.350   4.276   3.354 -2.5703  3.0084  1.0912
 9562SOL     OW40318   0.198   1.115   1.715  0.0483 -0.3561 -0.0974
 9562SOL    HW140319   0.126   1.056   1.690 -2.4735  2.8441 -0.3110
 9562SOL    HW240320   0.258   1.046   1.744  0.1838 -0.9898 -1.8751
 9563SOL     OW40321   3.562   1.056  10.591  0.8244  0.4396  0.3083
 9563SOL    HW140322   3.524   1.098  10.514  3.0740  0.2985 -0.8795
 9563SOL    HW240323   3.498   0.985  10.600  0.6381  0.8297  1.9839
 9564SOL     OW40324   1.628   3.267   6.633  0.3209  0.5396  0.0694
 9564SOL    HW140325   1.592   3.189   6.591  0.2607  0.5609  0.0819
 9564SOL    HW240326   1.700   3.229   6.683  1.0823 -0.1630 -1.5586
 9565SOL     OW40327   4.111   1.474   7.075 -0.1989  0.2740  0.7951
 9565SOL    HW140328   4.078   1.472   7.165  1.6224  1.7385  1.4944
 9565SOL    HW240329   4.079   1.386   7.057  1.4964 -0.3508  0.8301
 9566SOL     OW40330   2.289   4.512   4.618 -0.4392 -0.3133  0.0565
 9566SOL    HW140331   2.307   4.454   4.544  1.1622  1.1421 -0.6701
 9566SOL    HW240332   2.206   4.476   4.652  0.5595 -1.8300  0.9122
 9567SOL     OW40333   3.609   1.786   7.860 -0.3203 -0.2753  0.1188
 9567SOL    HW140334   3.572   1.870   7.889 -1.0170 -0.3399 -0.5599
 9567SOL    HW240335   3.694   1.795   7.903 -0.4427  0.9242  0.1089
 9568SOL     OW40336   4.320   2.033  16.773 -0.1633  0.3646  0.0034
 9568SOL    HW140337   4.331   1.974  16.698 -0.8903 -0.1904  0.3377
 9568SOL    HW240338   4.294   1.963  16.833  0.1407  0.6782  0.5007
 9569SOL     OW40339   0.782   3.162   1.094  0.5156  0.1084 -0.5563
 9569SOL    HW140340   0.708   3.222   1.090  0.1350 -0.4784 -2.7003
 9569SOL    HW240341   0.855   3.220   1.072  1.0401 -0.1784  0.4427
 9570SOL     OW40342   2.143   1.363  13.517 -0.2032  0.0704  0.1220
 9570SOL    HW140343   2.115   1.436  13.460  0.9408  2.4824  2.6784
 9570SOL    HW240344   2.092   1.299  13.467  0.0371 -0.3194  0.3843
 9571SOL     OW40345   1.996   2.197  12.573 -0.0980  0.1779  0.0731
 9571SOL    HW140346   2.029   2.112  12.543  0.6955  0.3993  0.3315
 9571SOL    HW240347   2.066   2.228  12.630  0.8146 -2.1956  0.2070
   4.73819   4.73819  17.75080
